Generated by trjconv : CNT in water t= 500.00000
33518
    1C        C    1   2.846   2.770   4.749
    1C        C    2   2.904   2.725   4.869
    1C        C    3   2.847   2.777   4.986
    1C        C    4   2.852   2.774   4.259
    1C        C    5   2.902   2.730   4.383
    1C        C    6   2.848   2.773   4.507
    1C        C    7   3.016   2.643   4.626
    1C        C    8   2.895   2.717   4.627
    1C        C    9   3.081   2.608   4.746
    1C        C   10   3.016   2.639   4.867
    1C        C   11   3.184   2.496   4.978
    1C        C   12   3.062   2.565   4.977
    1C        C   13   2.851   2.772   3.771
    1C        C   14   2.903   2.725   3.894
    1C        C   15   2.853   2.777   4.015
    1C        C   16   3.016   2.644   4.138
    1C        C   17   2.897   2.719   4.137
    1C        C   18   3.080   2.615   4.261
    1C        C   19   3.019   2.652   4.383
    1C        C   20   3.211   2.560   4.505
    1C        C   21   3.080   2.612   4.504
    1C        C   22   3.281   2.539   4.626
    1C        C   23   3.210   2.547   4.747
    1C        C   24   3.415   2.482   4.866
    1C        C   25   3.273   2.501   4.866
    1C        C   26   3.493   2.473   4.981
    1C        C   27   2.853   2.773   3.283
    1C        C   28   2.906   2.728   3.406
    1C        C   29   2.853   2.777   3.527
    1C        C   30   3.022   2.649   3.649
    1C        C   31   2.903   2.725   3.649
    1C        C   32   3.081   2.609   3.771
    1C        C   33   3.017   2.641   3.893
    1C        C   34   3.208   2.555   4.017
    1C        C   35   3.078   2.609   4.016
    1C        C   36   3.279   2.542   4.138
    1C        C   37   3.211   2.561   4.261
    1C        C   38   3.418   2.512   4.382
    1C        C   39   3.279   2.538   4.383
    1C        C   40   3.490   2.505   4.503
    1C        C   41   3.419   2.509   4.625
    1C        C   42   3.632   2.483   4.744
    1C        C   43   3.490   2.482   4.745
    1C        C   44   3.706   2.490   4.864
    1C        C   45   3.632   2.479   4.983
    1C        C   46   2.836   2.755   2.794
    1C        C   47   2.896   2.713   2.915
    1C        C   48   2.849   2.765   3.038
    1C        C   49   3.020   2.642   3.162
    1C        C   50   2.904   2.723   3.161
    1C        C   51   3.082   2.610   3.285
    1C        C   52   3.021   2.646   3.407
    1C        C   53   3.209   2.543   3.529
    1C        C   54   3.084   2.608   3.528
    1C        C   55   3.278   2.529   3.652
    1C        C   56   3.211   2.554   3.774
    1C        C   57   3.420   2.519   3.894
    1C        C   58   3.280   2.538   3.896
    1C        C   59   3.489   2.510   4.016
    1C        C   60   3.418   2.518   4.138
    1C        C   61   3.630   2.506   4.261
    1C        C   62   3.489   2.509   4.260
    1C        C   63   3.704   2.505   4.381
    1C        C   64   3.631   2.506   4.502
    1C        C   65   3.841   2.532   4.622
    1C        C   66   3.703   2.501   4.623
    1C        C   67   3.909   2.557   4.743
    1C        C   68   3.843   2.525   4.863
    1C        C   69   4.053   2.585   4.978
    1C        C   70   3.924   2.529   4.977
    1C        C   71   2.828   2.735   2.307
    1C        C   72   2.886   2.696   2.429
    1C        C   73   2.832   2.746   2.550
    1C        C   74   3.005   2.627   2.673
    1C        C   75   2.888   2.705   2.672
    1C        C   76   3.073   2.598   2.794
    1C        C   77   3.013   2.634   2.916
    1C        C   78   3.208   2.550   3.037
    1C        C   79   3.078   2.605   3.039
    1C        C   80   3.278   2.535   3.159
    1C        C   81   3.212   2.554   3.282
    1C        C   82   3.413   2.504   3.403
    1C        C   83   3.273   2.524   3.405
    1C        C   84   3.486   2.502   3.525
    1C        C   85   3.418   2.513   3.648
    1C        C   86   3.630   2.505   3.772
    1C        C   87   3.489   2.510   3.771
    1C        C   88   3.702   2.512   3.893
    1C        C   89   3.631   2.511   4.015
    1C        C   90   3.838   2.550   4.138
    1C        C   91   3.700   2.519   4.138
    1C        C   92   3.909   2.572   4.258
    1C        C   93   3.840   2.544   4.378
    1C        C   94   4.032   2.631   4.502
    1C        C   95   3.906   2.567   4.501
    1C        C   96   4.092   2.672   4.622
    1C        C   97   4.031   2.631   4.743
    1C        C   98   4.194   2.764   4.864
    1C        C   99   4.101   2.656   4.864
    1C        C  100   4.224   2.837   4.979
    1C        C  101   2.824   2.731   2.068
    1C        C  102   2.996   2.597   2.190
    1C        C  103   2.880   2.680   2.186
    1C        C  104   3.067   2.577   2.311
    1C        C  105   3.004   2.618   2.431
    1C        C  106   3.201   2.538   2.552
    1C        C  107   3.070   2.590   2.553
    1C        C  108   3.273   2.522   2.673
    1C        C  109   3.204   2.545   2.794
    1C        C  110   3.414   2.503   2.915
    1C        C  111   3.275   2.527   2.915
    1C        C  112   3.487   2.500   3.036
    1C        C  113   3.417   2.508   3.159
    1C        C  114   3.627   2.508   3.281
    1C        C  115   3.486   2.499   3.282
    1C        C  116   3.696   2.521   3.403
    1C        C  117   3.627   2.508   3.526
    1C        C  118   3.837   2.541   3.649
    1C        C  119   3.698   2.512   3.648
    1C        C  120   3.904   2.572   3.770
    1C        C  121   3.838   2.550   3.893
    1C        C  122   4.032   2.634   4.013
    1C        C  123   3.904   2.573   4.016
    1C        C  124   4.091   2.673   4.135
    1C        C  125   4.035   2.636   4.259
    1C        C  126   4.201   2.762   4.377
    1C        C  127   4.097   2.666   4.382
    1C        C  128   4.244   2.819   4.500
    1C        C  129   4.197   2.767   4.622
    1C        C  130   4.330   2.934   4.743
    1C        C  131   4.247   2.819   4.744
    1C        C  132   4.360   3.001   4.864
    1C        C  133   4.289   2.961   4.978
    1C        C  134   3.175   2.471   2.083
    1C        C  135   3.041   2.513   2.083
    1C        C  136   3.261   2.476   2.194
    1C        C  137   3.196   2.518   2.313
    1C        C  138   3.408   2.483   2.430
    1C        C  139   3.268   2.501   2.433
    1C        C  140   3.484   2.481   2.549
    1C        C  141   3.413   2.500   2.669
    1C        C  142   3.624   2.496   2.791
    1C        C  143   3.483   2.494   2.792
    1C        C  144   3.697   2.503   2.912
    1C        C  145   3.628   2.498   3.036
    1C        C  146   3.835   2.538   3.157
    1C        C  147   3.697   2.506   3.158
    1C        C  148   3.901   2.566   3.279
    1C        C  149   3.834   2.548   3.402
    1C        C  150   4.027   2.628   3.522
    1C        C  151   3.900   2.566   3.526
    1C        C  152   4.088   2.665   3.644
    1C        C  153   4.031   2.632   3.769
    1C        C  154   4.198   2.765   3.888
    1C        C  155   4.091   2.672   3.891
    1C        C  156   4.250   2.812   4.010
    1C        C  157   4.201   2.762   4.133
    1C        C  158   4.341   2.921   4.256
    1C        C  159   4.252   2.811   4.255
    1C        C  160   4.376   2.984   4.377
    1C        C  161   4.329   2.932   4.500
    1C        C  162   4.437   3.116   4.617
    1C        C  163   4.370   2.992   4.621
    1C        C  164   4.462   3.186   4.737
    1C        C  165   4.433   3.122   4.860
    1C        C  166   4.512   3.325   4.975
    1C        C  167   4.473   3.192   4.975
    1C        C  168   3.479   2.442   2.076
    1C        C  169   3.401   2.464   2.190
    1C        C  170   3.620   2.467   2.308
    1C        C  171   3.478   2.466   2.309
    1C        C  172   3.695   2.491   2.425
    1C        C  173   3.625   2.491   2.548
    1C        C  174   3.832   2.543   2.667
    1C        C  175   3.695   2.506   2.669
    1C        C  176   3.897   2.567   2.790
    1C        C  177   3.832   2.542   2.913
    1C        C  178   4.029   2.620   3.033
    1C        C  179   3.901   2.562   3.035
    1C        C  180   4.090   2.659   3.155
    1C        C  181   4.029   2.628   3.278
    1C        C  182   4.205   2.744   3.400
    1C        C  183   4.092   2.658   3.400
    1C        C  184   4.253   2.798   3.521
    1C        C  185   4.199   2.752   3.643
    1C        C  186   4.341   2.916   3.763
    1C        C  187   4.248   2.809   3.763
    1C        C  188   4.381   2.973   3.886
    1C        C  189   4.341   2.920   4.011
    1C        C  190   4.444   3.105   4.130
    1C        C  191   4.380   2.979   4.133
    1C        C  192   4.468   3.174   4.250
    1C        C  193   4.439   3.110   4.373
    1C        C  194   4.501   3.316   4.493
    1C        C  195   4.460   3.181   4.493
    1C        C  196   4.517   3.391   4.612
    1C        C  197   4.509   3.320   4.733
    1C        C  198   4.554   3.535   4.854
    1C        C  199   4.525   3.394   4.853
    1C        C  200   4.579   3.621   4.964
    1C        C  201   3.618   2.423   2.073
    1C        C  202   3.829   2.511   2.184
    1C        C  203   3.695   2.462   2.188
    1C        C  204   3.902   2.540   2.303
    1C        C  205   3.833   2.524   2.425
    1C        C  206   4.027   2.620   2.545
    1C        C  207   3.900   2.557   2.545
    1C        C  208   4.091   2.654   2.666
    1C        C  209   4.026   2.625   2.789
    1C        C  210   4.199   2.747   2.910
    1C        C  211   4.088   2.660   2.911
    1C        C  212   4.252   2.795   3.032
    1C        C  213   4.200   2.748   3.155
    1C        C  214   4.344   2.902   3.274
    1C        C  215   4.255   2.792   3.277
    1C        C  216   4.377   2.968   3.394
    1C        C  217   4.339   2.910   3.518
    1C        C  218   4.434   3.101   3.639
    1C        C  219   4.379   2.971   3.639
    1C        C  220   4.459   3.169   3.760
    1C        C  221   4.442   3.100   3.882
    1C        C  222   4.497   3.305   4.005
    1C        C  223   4.465   3.167   4.005
    1C        C  224   4.506   3.380   4.124
    1C        C  225   4.495   3.313   4.248
    1C        C  226   4.517   3.525   4.369
    1C        C  227   4.508   3.384   4.369
    1C        C  228   4.522   3.602   4.487
    1C        C  229   4.529   3.532   4.609
    1C        C  230   4.499   3.741   4.727
    1C        C  231   4.536   3.604   4.731
    1C        C  232   4.494   3.820   4.844
    1C        C  233   4.537   3.755   4.961
    1C        C  234   4.022   2.607   2.063
    1C        C  235   3.896   2.548   2.067
    1C        C  236   4.092   2.640   2.180
    1C        C  237   4.030   2.602   2.301
    1C        C  238   4.207   2.726   2.424
    1C        C  239   4.091   2.644   2.421
    1C        C  240   4.258   2.779   2.544
    1C        C  241   4.207   2.735   2.668
    1C        C  242   4.346   2.899   2.785
    1C        C  243   4.258   2.789   2.788
    1C        C  244   4.382   2.959   2.907
    1C        C  245   4.344   2.902   3.031
    1C        C  246   4.441   3.091   3.149
    1C        C  247   4.384   2.962   3.152
    1C        C  248   4.457   3.163   3.270
    1C        C  249   4.429   3.099   3.393
    1C        C  250   4.488   3.303   3.514
    1C        C  251   4.453   3.166   3.515
    1C        C  252   4.496   3.374   3.636
    1C        C  253   4.491   3.307   3.760
    1C        C  254   4.517   3.516   3.880
    1C        C  255   4.509   3.375   3.883
    1C        C  256   4.516   3.590   4.001
    1C        C  257   4.517   3.521   4.124
    1C        C  258   4.489   3.733   4.241
    1C        C  259   4.512   3.593   4.246
    1C        C  260   4.475   3.806   4.361
    1C        C  261   4.495   3.741   4.485
    1C        C  262   4.427   3.943   4.605
    1C        C  263   4.475   3.810   4.606
    1C        C  264   4.399   4.013   4.724
    1C        C  265   4.436   3.948   4.843
    1C        C  266   4.315   4.131   4.959
    1C        C  267   4.392   4.015   4.959
    1C        C  268   4.267   2.769   2.062
    1C        C  269   4.202   2.728   2.180
    1C        C  270   4.342   2.889   2.299
    1C        C  271   4.256   2.775   2.301
    1C        C  272   4.382   2.953   2.418
    1C        C  273   4.343   2.892   2.540
    1C        C  274   4.440   3.084   2.661
    1C        C  275   4.378   2.957   2.660
    1C        C  276   4.466   3.153   2.782
    1C        C  277   4.440   3.088   2.905
    1C        C  278   4.497   3.294   3.025
    1C        C  279   4.465   3.156   3.026
    1C        C  280   4.507   3.367   3.145
    1C        C  281   4.490   3.300   3.269
    1C        C  282   4.513   3.511   3.392
    1C        C  283   4.505   3.370   3.391
    1C        C  284   4.512   3.584   3.512
    1C        C  285   4.508   3.515   3.635
    1C        C  286   4.490   3.725   3.753
    1C        C  287   4.512   3.586   3.758
    1C        C  288   4.474   3.795   3.875
    1C        C  289   4.496   3.729   3.998
    1C        C  290   4.423   3.933   4.117
    1C        C  291   4.474   3.801   4.118
    1C        C  292   4.396   4.000   4.238
    1C        C  293   4.431   3.940   4.361
    1C        C  294   4.330   4.129   4.478
    1C        C  295   4.398   4.006   4.482
    1C        C  296   4.287   4.191   4.597
    1C        C  297   4.324   4.134   4.721
    1C        C  298   4.199   4.315   4.840
    1C        C  299   4.282   4.199   4.841
    1C        C  300   4.168   4.401   4.950
    1C        C  301   4.354   2.877   2.064
    1C        C  302   4.465   3.070   2.175
    1C        C  303   4.395   2.945   2.179
    1C        C  304   4.481   3.142   2.296
    1C        C  305   4.449   3.077   2.417
    1C        C  306   4.507   3.284   2.538
    1C        C  307   4.469   3.148   2.538
    1C        C  308   4.508   3.359   2.657
    1C        C  309   4.496   3.291   2.780
    1C        C  310   4.518   3.503   2.899
    1C        C  311   4.511   3.361   2.902
    1C        C  312   4.511   3.575   3.021
    1C        C  313   4.511   3.508   3.145
    1C        C  314   4.482   3.717   3.265
    1C        C  315   4.506   3.578   3.268
    1C        C  316   4.474   3.790   3.386
    1C        C  317   4.495   3.724   3.509
    1C        C  318   4.427   3.927   3.629
    1C        C  319   4.476   3.794   3.631
    1C        C  320   4.398   3.992   3.751
    1C        C  321   4.425   3.927   3.874
    1C        C  322   4.322   4.117   3.991
    1C        C  323   4.394   3.996   3.994
    1C        C  324   4.284   4.177   4.113
    1C        C  325   4.326   4.123   4.237
    1C        C  326   4.189   4.290   4.356
    1C        C  327   4.284   4.186   4.356
    1C        C  328   4.137   4.342   4.476
    1C        C  329   4.191   4.294   4.598
    1C        C  330   4.028   4.439   4.715
    1C        C  331   4.143   4.355   4.716
    1C        C  332   3.973   4.496   4.832
    1C        C  333   4.054   4.482   4.945
    1C        C  334   4.554   3.270   2.063
    1C        C  335   4.528   3.132   2.062
    1C        C  336   4.534   3.352   2.175
    1C        C  337   4.508   3.281   2.295
    1C        C  338   4.516   3.496   2.412
    1C        C  339   4.516   3.355   2.416
    1C        C  340   4.516   3.570   2.532
    1C        C  341   4.514   3.500   2.655
    1C        C  342   4.492   3.712   2.773
    1C        C  343   4.513   3.572   2.777
    1C        C  344   4.469   3.780   2.894
    1C        C  345   4.485   3.714   3.017
    1C        C  346   4.425   3.916   3.138
    1C        C  347   4.469   3.782   3.140
    1C        C  348   4.389   3.978   3.259
    1C        C  349   4.422   3.921   3.384
    1C        C  350   4.323   4.109   3.503
    1C        C  351   4.394   3.986   3.506
    1C        C  352   4.281   4.169   3.624
    1C        C  353   4.325   4.113   3.746
    1C        C  354   4.181   4.272   3.867
    1C        C  355   4.279   4.170   3.867
    1C        C  356   4.129   4.322   3.988
    1C        C  357   4.183   4.276   4.110
    1C        C  358   4.019   4.410   4.231
    1C        C  359   4.136   4.331   4.231
    1C        C  360   3.954   4.445   4.352
    1C        C  361   4.017   4.417   4.475
    1C        C  362   3.831   4.523   4.595
    1C        C  363   3.961   4.468   4.594
    1C        C  364   3.764   4.553   4.715
    1C        C  365   3.840   4.544   4.834
    1C        C  366   3.628   4.592   4.952
    1C        C  367   3.766   4.572   4.950
    1C        C  368   4.506   3.567   2.054
    1C        C  369   4.525   3.492   2.171
    1C        C  370   4.497   3.707   2.287
    1C        C  371   4.514   3.566   2.290
    1C        C  372   4.484   3.780   2.407
    1C        C  373   4.497   3.710   2.529
    1C        C  374   4.430   3.914   2.650
    1C        C  375   4.477   3.780   2.650
    1C        C  376   4.401   3.980   2.771
    1C        C  377   4.427   3.915   2.894
    1C        C  378   4.320   4.099   3.013
    1C        C  379   4.399   3.982   3.016
    1C        C  380   4.277   4.157   3.135
    1C        C  381   4.317   4.100   3.258
    1C        C  382   4.180   4.262   3.377
    1C        C  383   4.279   4.162   3.379
    1C        C  384   4.126   4.312   3.498
    1C        C  385   4.180   4.267   3.621
    1C        C  386   4.008   4.390   3.742
    1C        C  387   4.124   4.310   3.744
    1C        C  388   3.949   4.430   3.865
    1C        C  389   4.013   4.402   3.987
    1C        C  390   3.821   4.489   4.108
    1C        C  391   3.953   4.440   4.110
    1C        C  392   3.754   4.512   4.231
    1C        C  393   3.825   4.501   4.352
    1C        C  394   3.619   4.551   4.475
    1C        C  395   3.759   4.532   4.473
    1C        C  396   3.550   4.569   4.597
    1C        C  397   3.624   4.570   4.717
    1C        C  398   3.411   4.555   4.839
    1C        C  399   3.550   4.577   4.837
    1C        C  400   3.344   4.514   4.955
    1C        C  401   4.511   3.706   2.052
    1C        C  402   4.462   3.920   2.167
    1C        C  403   4.495   3.783   2.168
    1C        C  404   4.421   3.984   2.286
    1C        C  405   4.441   3.914   2.407
    1C        C  406   4.331   4.099   2.527
    1C        C  407   4.405   3.979   2.527
    1C        C  408   4.286   4.158   2.647
    1C        C  409   4.329   4.101   2.769
    1C        C  410   4.180   4.255   2.890
    1C        C  411   4.280   4.155   2.890
    1C        C  412   4.125   4.300   3.012
    1C        C  413   4.179   4.259   3.135
    1C        C  414   4.005   4.383   3.253
    1C        C  415   4.123   4.306   3.256
    1C        C  416   3.946   4.421   3.376
    1C        C  417   4.007   4.388   3.499
    1C        C  418   3.814   4.477   3.619
    1C        C  419   3.945   4.424   3.620
    1C        C  420   3.749   4.503   3.742
    1C        C  421   3.817   4.482   3.864
    1C        C  422   3.611   4.529   3.987
    1C        C  423   3.750   4.504   3.987
    1C        C  424   3.543   4.534   4.111
    1C        C  425   3.614   4.530   4.233
    1C        C  426   3.403   4.545   4.357
    1C        C  427   3.544   4.545   4.355
    1C        C  428   3.334   4.545   4.480
    1C        C  429   3.409   4.559   4.599
    1C        C  430   3.196   4.521   4.724
    1C        C  431   3.336   4.548   4.719
    1C        C  432   3.126   4.496   4.845
    1C        C  433   3.206   4.494   4.959
    1C        C  434   4.392   4.128   2.055
    1C        C  435   4.453   4.002   2.053
    1C        C  436   4.308   4.168   2.164
    1C        C  437   4.344   4.104   2.286
    1C        C  438   4.189   4.254   2.404
    1C        C  439   4.296   4.161   2.405
    1C        C  440   4.129   4.299   2.523
    1C        C  441   4.181   4.252   2.646
    1C        C  442   4.007   4.376   2.767
    1C        C  443   4.125   4.300   2.767
    1C        C  444   3.947   4.417   2.888
    1C        C  445   4.009   4.381   3.010
    1C        C  446   3.814   4.472   3.130
    1C        C  447   3.944   4.417   3.130
    1C        C  448   3.748   4.493   3.253
    1C        C  449   3.815   4.473   3.376
    1C        C  450   3.608   4.524   3.497
    1C        C  451   3.747   4.500   3.497
    1C        C  452   3.540   4.535   3.620
    1C        C  453   3.611   4.529   3.742
    1C        C  454   3.400   4.542   3.866
    1C        C  455   3.541   4.541   3.865
    1C        C  456   3.332   4.530   3.989
    1C        C  457   3.402   4.531   4.111
    1C        C  458   3.194   4.508   4.238
    1C        C  459   3.333   4.533   4.235
    1C        C  460   3.127   4.490   4.361
    1C        C  461   3.196   4.513   4.482
    1C        C  462   3.000   4.432   4.604
    1C        C  463   3.127   4.493   4.604
    1C        C  464   2.933   4.402   4.724
    1C        C  465   2.991   4.448   4.846
    1C        C  466   2.803   4.338   4.960
    1C        C  467   2.906   4.433   4.960
    1C        C  468   4.120   4.275   2.044
    1C        C  469   4.192   4.252   2.161
    1C        C  470   4.008   4.366   2.279
    1C        C  471   4.132   4.297   2.282
    1C        C  472   3.942   4.395   2.400
    1C        C  473   4.007   4.370   2.522
    1C        C  474   3.813   4.457   2.645
    1C        C  475   3.945   4.408   2.643
    1C        C  476   3.744   4.483   2.766
    1C        C  477   3.816   4.469   2.887
    1C        C  478   3.606   4.509   3.010
    1C        C  479   3.746   4.491   3.008
    1C        C  480   3.536   4.518   3.133
    1C        C  481   3.609   4.517   3.254
    1C        C  482   3.395   4.526   3.377
    1C        C  483   3.536   4.525   3.375
    1C        C  484   3.326   4.528   3.500
    1C        C  485   3.399   4.537   3.622
    1C        C  486   3.190   4.507   3.747
    1C        C  487   3.329   4.533   3.744
    1C        C  488   3.126   4.482   3.871
    1C        C  489   3.193   4.502   3.993
    1C        C  490   3.003   4.415   4.117
    1C        C  491   3.127   4.483   4.117
    1C        C  492   2.943   4.382   4.240
    1C        C  493   3.000   4.428   4.361
    1C        C  494   2.836   4.295   4.485
    1C        C  495   2.941   4.389   4.483
    1C        C  496   2.777   4.255   4.607
    1C        C  497   2.822   4.314   4.727
    1C        C  498   2.667   4.164   4.850
    1C        C  499   2.756   4.273   4.845
    1C        C  500   2.595   4.117   4.961
    1C        C  501   4.003   4.350   2.043
    1C        C  502   3.814   4.461   2.159
    1C        C  503   3.941   4.399   2.159
    1C        C  504   3.746   4.480   2.281
    1C        C  505   3.810   4.447   2.403
    1C        C  506   3.604   4.501   2.523
    1C        C  507   3.742   4.471   2.524
    1C        C  508   3.534   4.514   2.645
    1C        C  509   3.604   4.502   2.767
    1C        C  510   3.393   4.521   2.888
    1C        C  511   3.534   4.516   2.889
    1C        C  512   3.323   4.524   3.011
    1C        C  513   3.395   4.527   3.132
    1C        C  514   3.186   4.492   3.258
    1C        C  515   3.325   4.519   3.255
    1C        C  516   3.119   4.474   3.381
    1C        C  517   3.189   4.496   3.502
    1C        C  518   2.999   4.411   3.627
    1C        C  519   3.125   4.475   3.626
    1C        C  520   2.942   4.373   3.750
    1C        C  521   3.002   4.413   3.871
    1C        C  522   2.835   4.286   3.997
    1C        C  523   2.944   4.376   3.995
    1C        C  524   2.788   4.235   4.120
    1C        C  525   2.836   4.289   4.242
    1C        C  526   2.699   4.129   4.368
    1C        C  527   2.783   4.243   4.364
    1C        C  528   2.656   4.075   4.491
    1C        C  529   2.688   4.145   4.609
    1C        C  530   2.589   3.959   4.733
    1C        C  531   2.644   4.090   4.731
    1C        C  532   2.548   3.899   4.855
    1C        C  533   2.524   3.996   4.957
    1C        C  534   3.619   4.558   2.044
    1C        C  535   3.750   4.510   2.044
    1C        C  536   3.538   4.539   2.161
    1C        C  537   3.609   4.516   2.282
    1C        C  538   3.393   4.519   2.402
    1C        C  539   3.534   4.518   2.402
    1C        C  540   3.320   4.509   2.522
    1C        C  541   3.393   4.516   2.643
    1C        C  542   3.184   4.490   2.767
    1C        C  543   3.322   4.516   2.766
    1C        C  544   3.118   4.470   2.890
    1C        C  545   3.185   4.491   3.013
    1C        C  546   2.995   4.403   3.138
    1C        C  547   3.119   4.470   3.136
    1C        C  548   2.933   4.371   3.261
    1C        C  549   2.993   4.410   3.382
    1C        C  550   2.828   4.282   3.507
    1C        C  551   2.937   4.372   3.506
    1C        C  552   2.778   4.233   3.630
    1C        C  553   2.834   4.282   3.751
    1C        C  554   2.700   4.123   3.877
    1C        C  555   2.785   4.236   3.875
    1C        C  556   2.665   4.062   4.000
    1C        C  557   2.699   4.125   4.122
    1C        C  558   2.602   3.941   4.248
    1C        C  559   2.662   4.068   4.246
    1C        C  560   2.568   3.878   4.370
    1C        C  561   2.592   3.949   4.489
    1C        C  562   2.530   3.750   4.615
    1C        C  563   2.567   3.886   4.614
    1C        C  564   2.515   3.681   4.737
    1C        C  565   2.517   3.759   4.856
    1C        C  566   2.532   3.547   4.979
    1C        C  567   2.524   3.686   4.976
    1C        C  568   3.327   4.478   2.042
    1C        C  569   3.398   4.513   2.158
    1C        C  570   3.185   4.478   2.282
    1C        C  571   3.323   4.511   2.279
    1C        C  572   3.115   4.458   2.403
    1C        C  573   3.180   4.489   2.525
    1C        C  574   2.986   4.406   2.648
    1C        C  575   3.112   4.470   2.647
    1C        C  576   2.928   4.369   2.771
    1C        C  577   2.993   4.405   2.892
    1C        C  578   2.830   4.272   3.017
    1C        C  579   2.936   4.365   3.015
    1C        C  580   2.782   4.220   3.139
    1C        C  581   2.829   4.275   3.261
    1C        C  582   2.695   4.116   3.388
    1C        C  583   2.782   4.227   3.385
    1C        C  584   2.656   4.059   3.511
    1C        C  585   2.693   4.120   3.633
    1C        C  586   2.598   3.935   3.756
    1C        C  587   2.656   4.064   3.757
    1C        C  588   2.576   3.871   3.880
    1C        C  589   2.605   3.934   4.003
    1C        C  590   2.530   3.739   4.131
    1C        C  591   2.577   3.872   4.127
    1C        C  592   2.518   3.669   4.252
    1C        C  593   2.527   3.743   4.372
    1C        C  594   2.512   3.534   4.497
    1C        C  595   2.517   3.675   4.496
    1C        C  596   2.518   3.463   4.619
    1C        C  597   2.518   3.539   4.738
    1C        C  598   2.534   3.330   4.865
    1C        C  599   2.525   3.471   4.862
    1C        C  600   2.529   3.252   4.981
    1C        C  601   3.193   4.448   2.042
    1C        C  602   2.985   4.394   2.160
    1C        C  603   3.118   4.446   2.161
    1C        C  604   2.927   4.354   2.284
    1C        C  605   2.987   4.399   2.403
    1C        C  606   2.818   4.275   2.530
    1C        C  607   2.926   4.366   2.526
    1C        C  608   2.769   4.224   2.653
    1C        C  609   2.822   4.277   2.773
    1C        C  610   2.686   4.115   2.897
    1C        C  611   2.773   4.226   2.896
    1C        C  612   2.655   4.052   3.020
    1C        C  613   2.694   4.109   3.143
    1C        C  614   2.590   3.929   3.267
    1C        C  615   2.653   4.056   3.267
    1C        C  616   2.568   3.864   3.391
    1C        C  617   2.599   3.930   3.512
    1C        C  618   2.536   3.729   3.640
    1C        C  619   2.575   3.865   3.635
    1C        C  620   2.524   3.665   3.765
    1C        C  621   2.536   3.736   3.886
    1C        C  622   2.511   3.528   4.010
    1C        C  623   2.516   3.669   4.009
    1C        C  624   2.514   3.457   4.132
    1C        C  625   2.509   3.528   4.254
    1C        C  626   2.533   3.320   4.382
    1C        C  627   2.510   3.459   4.377
    1C        C  628   2.558   3.252   4.503
    1C        C  629   2.543   3.325   4.623
    1C        C  630   2.599   3.122   4.746
    1C        C  631   2.551   3.256   4.746
    1C        C  632   2.617   3.051   4.868
    1C        C  633   2.561   3.115   4.983
    1C        C  634   2.784   4.308   2.055
    1C        C  635   2.891   4.397   2.051
    1C        C  636   2.748   4.234   2.168
    1C        C  637   2.811   4.271   2.288
    1C        C  638   2.676   4.110   2.411
    1C        C  639   2.763   4.221   2.411
    1C        C  640   2.639   4.052   2.534
    1C        C  641   2.686   4.111   2.654
    1C        C  642   2.590   3.923   2.776
    1C        C  643   2.651   4.050   2.777
    1C        C  644   2.563   3.860   2.900
    1C        C  645   2.591   3.926   3.021
    1C        C  646   2.533   3.725   3.146
    1C        C  647   2.566   3.862   3.145
    1C        C  648   2.524   3.657   3.269
    1C        C  649   2.536   3.727   3.391
    1C        C  650   2.518   3.520   3.519
    1C        C  651   2.529   3.661   3.516
    1C        C  652   2.517   3.453   3.643
    1C        C  653   2.515   3.524   3.766
    1C        C  654   2.532   3.314   3.891
    1C        C  655   2.514   3.455   3.889
    1C        C  656   2.548   3.247   4.014
    1C        C  657   2.529   3.316   4.136
    1C        C  658   2.604   3.120   4.260
    1C        C  659   2.551   3.251   4.259
    1C        C  660   2.636   3.054   4.381
    1C        C  661   2.605   3.118   4.502
    1C        C  662   2.712   2.938   4.626
    1C        C  663   2.638   3.058   4.626
    1C        C  664   2.758   2.882   4.748
    1C        C  665   2.698   2.934   4.866
    1C        C  666   2.741   2.867   4.981
    1C        C  667   2.682   4.025   2.055
    1C        C  668   2.684   4.108   2.168
    1C        C  669   2.594   3.914   2.291
    1C        C  670   2.644   4.047   2.289
    1C        C  671   2.562   3.850   2.413
    1C        C  672   2.583   3.922   2.532
    1C        C  673   2.520   3.721   2.659
    1C        C  674   2.561   3.856   2.655
    1C        C  675   2.506   3.652   2.782
    1C        C  676   2.526   3.723   2.902
    1C        C  677   2.506   3.513   3.030
    1C        C  678   2.521   3.653   3.025
    1C        C  679   2.505   3.444   3.153
    1C        C  680   2.509   3.517   3.275
    1C        C  681   2.534   3.308   3.401
    1C        C  682   2.512   3.447   3.398
    1C        C  683   2.553   3.241   3.524
    1C        C  684   2.539   3.314   3.644
    1C        C  685   2.602   3.115   3.772
    1C        C  686   2.551   3.247   3.768
    1C        C  687   2.636   3.054   3.895
    1C        C  688   2.601   3.116   4.017
    1C        C  689   2.708   2.933   4.140
    1C        C  690   2.632   3.053   4.139
    1C        C  691   2.753   2.875   4.261
    1C        C  692   2.714   2.936   4.382
    1C        C  693   2.757   2.882   4.505
    1C        C  694   2.628   3.896   2.053
    1C        C  695   2.531   3.706   2.175
    1C        C  696   2.581   3.838   2.172
    1C        C  697   2.513   3.640   2.298
    1C        C  698   2.526   3.713   2.418
    1C        C  699   2.492   3.505   2.545
    1C        C  700   2.511   3.645   2.541
    1C        C  701   2.497   3.435   2.668
    1C        C  702   2.497   3.511   2.787
    1C        C  703   2.526   3.300   2.910
    1C        C  704   2.504   3.440   2.909
    1C        C  705   2.547   3.234   3.033
    1C        C  706   2.535   3.306   3.154
    1C        C  707   2.595   3.106   3.280
    1C        C  708   2.549   3.239   3.278
    1C        C  709   2.629   3.044   3.402
    1C        C  710   2.605   3.110   3.525
    1C        C  711   2.712   2.934   3.653
    1C        C  712   2.631   3.049   3.650
    1C        C  713   2.758   2.878   3.774
    1C        C  714   2.718   2.939   3.896
    1C        C  715   2.759   2.883   4.019
    1C        C  716   2.458   3.500   2.065
    1C        C  717   2.489   3.637   2.061
    1C        C  718   2.465   3.422   2.185
    1C        C  719   2.486   3.500   2.302
    1C        C  720   2.515   3.292   2.426
    1C        C  721   2.489   3.430   2.425
    1C        C  722   2.537   3.222   2.547
    1C        C  723   2.523   3.296   2.667
    1C        C  724   2.593   3.097   2.790
    1C        C  725   2.545   3.229   2.789
    1C        C  726   2.625   3.035   2.914
    1C        C  727   2.595   3.101   3.035
    1C        C  728   2.708   2.925   3.160
    1C        C  729   2.628   3.041   3.158
    1C        C  730   2.759   2.879   3.284
    1C        C  731   2.708   2.927   3.406
    1C        C  732   2.751   2.875   3.530
    1C        C  733   2.485   3.197   2.072
    1C        C  734   2.490   3.281   2.184
    1C        C  735   2.579   3.086   2.306
    1C        C  736   2.522   3.216   2.307
    1C        C  737   2.617   3.022   2.426
    1C        C  738   2.593   3.093   2.546
    1C        C  739   2.693   2.908   2.670
    1C        C  740   2.621   3.030   2.669
    1C        C  741   2.741   2.859   2.794
    1C        C  742   2.699   2.915   2.917
    1C        C  743   2.749   2.865   3.039
    1C        C  744   2.544   3.071   2.075
    1C        C  745   2.686   2.899   2.184
    1C        C  746   2.609   3.017   2.186
    1C        C  747   2.734   2.842   2.304
    1C        C  748   2.691   2.901   2.425
    1C        C  749   2.735   2.849   2.549
    1C        C  750   2.740   2.842   2.068
    1C        C  751   3.654   2.300   2.000
    1C        O  752   3.617   2.186   2.041
    1C        O  753   3.721   2.302   1.877
    1C        C  754   4.620   3.069   1.966
    1C        O  755   4.586   3.017   1.856
    1C        O  756   4.749   3.022   1.997
    1C        C  757   4.482   4.235   2.005
    1C        O  758   4.589   4.259   2.065
    1C        O  759   4.434   4.339   1.924
    1C        C  760   3.594   4.684   1.971
    1C        O  761   3.601   4.804   2.010
    1C        O  762   3.529   4.682   1.847
    1C        C  763   2.896   4.498   1.943
    1C        O  764   2.923   4.479   1.821
    1C        O  765   2.856   4.629   1.968
    1C        C  766   2.373   3.461   1.950
    1C        O  767   2.426   3.413   1.846
    1C        O  768   2.239   3.496   1.932
    1C        C  769   4.687   3.595   5.062
    1C        O  770   4.659   3.584   5.185
    1C        O  771   4.817   3.645   5.047
    1C        C  772   4.265   4.430   5.058
    1C        O  773   4.226   4.391   5.172
    1C        O  774   4.335   4.551   5.060
    1C        C  775   4.152   2.514   5.061
    1C        O  776   4.182   2.393   5.040
    1C        O  777   4.198   2.560   5.185
    1C        C  778   2.870   4.543   5.053
    1C        O  779   2.763   4.608   5.047
    1C        O  780   2.907   4.531   5.188
    1C        C  781   2.475   3.054   5.087
    1C        O  782   2.395   2.968   5.042
    1C        O  783   2.516   3.051   5.220
    1C        C  784   2.386   3.997   5.010
    1C        O  785   2.288   4.036   4.940
    1C        O  786   2.364   4.011   5.148
    1C        C  787   2.948   2.421   2.014
    1C        O  788   2.895   2.455   1.905
    1C        O  789   2.959   2.282   2.008
    1C        C  790   3.175   2.378   5.067
    1C        O  791   3.163   2.262   5.019
    1C        O  792   3.244   2.379   5.188
    1C        H  793   4.281   3.020   5.066
    1C        H  794   4.218   2.790   5.075
    1C        H  795   4.471   3.143   5.070
    1C        H  796   4.540   3.367   5.069
    1C        H  797   4.557   3.812   5.049
    1C        H  798   4.460   4.004   5.041
    1C        H  799   4.261   4.149   5.049
    1C        H  800   4.048   4.561   5.017
    1C        H  801   3.812   4.563   5.046
    1C        H  802   3.589   4.659   5.026
    1C        H  803   3.401   4.467   5.032
    1C        H  804   3.165   4.546   5.043
    1C        H  805   3.900   2.473   5.065
    1C        H  806   3.680   2.464   5.077
    1C        H  807   3.004   2.563   5.067
    1C        H  808   3.446   2.439   5.071
    1C        H  809   2.873   2.734   5.081
    1C        H  810   2.680   2.874   5.068
    1C        H  811   2.526   3.303   5.075
    1C        H  812   2.570   3.505   5.070
    1C        H  813   2.533   3.737   5.070
    1C        H  814   2.583   4.173   5.051
    1C        H  815   2.762   4.314   5.056
    1C        H  816   2.736   2.888   1.972
    1C        H  817   2.822   2.667   1.982
    1C        H  818   3.209   2.416   1.998
    1C        H  819   3.434   2.459   1.980
    1C        H  820   3.876   2.490   1.979
    1C        H  821   4.073   2.615   1.969
    1C        H  822   4.284   2.695   1.987
    1C        H  823   4.386   2.910   1.967
    1C        H  824   4.635   3.300   2.001
    1C        H  825   4.496   3.522   1.957
    1C        H  826   4.538   3.756   1.961
    1C        H  827   3.808   4.540   1.959
    1C        H  828   3.953   4.357   1.948
    1C        H  829   4.169   4.264   1.949
    1C        H  830   4.463   3.953   1.959
    1C        H  831   2.599   3.858   1.958
    1C        H  832   2.762   4.044   1.987
    1C        H  833   2.713   4.320   1.975
    1C        H  834   3.380   4.466   1.950
    1C        H  835   3.143   4.454   1.948
    1C        H  836   2.521   3.010   1.990
    1C        H  837   2.400   3.206   2.007
    1C        H  838   2.434   3.694   1.989
    2V3OU   H29  839   2.801   3.548   5.437
    2V3OU   C27  840   2.780   3.506   5.539
    2V3OU   H27  841   2.722   3.577   5.603
    2V3OU   H28  842   2.728   3.408   5.524
    2V3OU   O11  843   2.909   3.480   5.595
    2V3OU   C15  844   2.920   3.397   5.705
    2V3OU   C13  845   3.052   3.376   5.752
    2V3OU   C14  846   3.077   3.267   5.836
    2V3OU   C16  847   2.968   3.192   5.878
    2V3OU    H6  848   2.990   3.103   5.939
    2V3OU   C12  849   3.218   3.228   5.864
    2V3OU    O2  850   3.241   3.126   5.932
    2V3OU   C10  851   3.328   3.311   5.814
    2V3OU    C8  852   3.459   3.274   5.845
    2V3OU   O10  853   3.485   3.164   5.920
    2V3OU   H26  854   3.398   3.122   5.928
    2V3OU    C6  855   3.568   3.353   5.796
    2V3OU    C5  856   3.537   3.464   5.719
    2V3OU    C4  857   3.705   3.294   5.791
    2V3OU    H4  858   3.722   3.228   5.881
    2V3OU    H5  859   3.715   3.233   5.697
    2V3OU    C2  860   3.819   3.396   5.787
    2V3OU    O6  861   3.803   3.479   5.902
    2V3OU   H21  862   3.762   3.561   5.870
    2V3OU    C3  863   3.784   3.493   5.674
    2V3OU    H2  864   3.867   3.566   5.658
    2V3OU    H3  865   3.783   3.438   5.576
    2V3OU   C25  866   3.956   3.329   5.774
    2V3OU    O7  867   4.003   3.305   5.663
    2V3OU   C26  868   4.030   3.293   5.901
    2V3OU   H22  869   4.067   3.386   5.952
    2V3OU   H23  870   4.121   3.233   5.876
    2V3OU    O8  871   3.960   3.212   5.993
    2V3OU   H24  872   3.927   3.262   6.069
    2V3OU    C1  873   3.649   3.560   5.690
    2V3OU    H1  874   3.625   3.613   5.593
    2V3OU    O3  875   3.656   3.656   5.796
    2V3OU   C19  876   3.618   3.792   5.776
    2V3OU    H9  877   3.529   3.812   5.709
    2V3OU    O4  878   3.717   3.848   5.693
    2V3OU   C20  879   3.846   3.873   5.747
    2V3OU   H10  880   3.891   3.771   5.768
    2V3OU   C24  881   3.616   3.855   5.916
    2V3OU   H16  882   3.548   3.796   5.983
    2V3OU   H17  883   3.566   3.954   5.898
    2V3OU   C23  884   3.754   3.874   5.979
    2V3OU   H15  885   3.794   3.768   5.995
    2V3OU    N1  886   3.736   3.959   6.095
    2V3OU   H19  887   3.809   3.930   6.156
    2V3OU   H20  888   3.651   3.931   6.140
    2V3OU   C21  889   3.849   3.948   5.881
    2V3OU   H11  890   3.953   3.929   5.922
    2V3OU    O5  891   3.830   4.089   5.882
    2V3OU   H18  892   3.783   4.098   5.967
    2V3OU   C22  893   3.914   3.947   5.633
    2V3OU   H12  894   3.864   4.046   5.618
    2V3OU   H13  895   3.907   3.888   5.538
    2V3OU   H14  896   4.023   3.960   5.655
    2V3OU   C11  897   3.160   3.472   5.725
    2V3OU    O1  898   3.136   3.588   5.684
    2V3OU    C9  899   3.300   3.426   5.735
    2V3OU    C7  900   3.403   3.505   5.687
    2V3OU    O9  901   3.382   3.614   5.605
    2V3OU   H25  902   3.289   3.631   5.623
    2V3OU   C17  903   2.813   3.318   5.751
    2V3OU    H7  904   2.711   3.346   5.727
    2V3OU   C18  905   2.836   3.215   5.841
    2V3OU    H8  906   2.756   3.151   5.881
    3SOL     OW  907   3.842   3.097   3.830
    3SOL    HW1  908   3.806   3.055   3.747
    3SOL    HW2  909   3.818   3.194   3.832
    4SOL     OW  910   6.639   6.315   0.984
    4SOL    HW1  911   6.677   6.322   1.076
    4SOL    HW2  912   6.562   6.252   0.984
    5SOL     OW  913   5.381   2.122   1.120
    5SOL    HW1  914   5.404   2.098   1.214
    5SOL    HW2  915   5.327   2.048   1.079
    6SOL     OW  916   4.650   1.390   2.943
    6SOL    HW1  917   4.713   1.325   2.986
    6SOL    HW2  918   4.655   1.381   2.844
    7SOL     OW  919   2.217   3.938   4.426
    7SOL    HW1  920   2.189   3.858   4.480
    7SOL    HW2  921   2.314   3.933   4.406
    8SOL     OW  922   1.216   2.768   4.997
    8SOL    HW1  923   1.177   2.680   4.973
    8SOL    HW2  924   1.284   2.794   4.929
    9SOL     OW  925   0.341   1.092   6.349
    9SOL    HW1  926   0.421   1.121   6.402
    9SOL    HW2  927   0.347   0.994   6.331
   10SOL     OW  928   5.581   4.917   1.524
   10SOL    HW1  929   5.671   4.954   1.545
   10SOL    HW2  930   5.530   4.902   1.608
   11SOL     OW  931   2.395   2.012   1.173
   11SOL    HW1  932   2.358   1.920   1.159
   11SOL    HW2  933   2.444   2.042   1.091
   12SOL     OW  934   4.704   4.785   2.768
   12SOL    HW1  935   4.639   4.831   2.828
   12SOL    HW2  936   4.657   4.754   2.686
   13SOL     OW  937   5.843   6.027   1.243
   13SOL    HW1  938   5.931   6.057   1.205
   13SOL    HW2  939   5.859   5.962   1.317
   14SOL     OW  940   4.100   6.829   6.761
   14SOL    HW1  941   4.033   6.854   6.831
   14SOL    HW2  942   4.132   6.913   6.715
   15SOL     OW  943   1.446   6.306   6.380
   15SOL    HW1  944   1.379   6.358   6.432
   15SOL    HW2  945   1.518   6.368   6.347
   16SOL     OW  946   2.016   5.033   5.009
   16SOL    HW1  947   1.989   4.954   4.955
   16SOL    HW2  948   1.977   5.026   5.101
   17SOL     OW  949   6.780   1.328   5.009
   17SOL    HW1  950   6.725   1.250   5.039
   17SOL    HW2  951   6.767   1.404   5.073
   18SOL     OW  952   2.515   1.517   5.784
   18SOL    HW1  953   2.443   1.521   5.854
   18SOL    HW2  954   2.596   1.471   5.822
   19SOL     OW  955   3.215   6.379   3.223
   19SOL    HW1  956   3.146   6.409   3.289
   19SOL    HW2  957   3.289   6.446   3.219
   20SOL     OW  958   5.835   1.030   5.339
   20SOL    HW1  959   5.748   0.980   5.338
   20SOL    HW2  960   5.817   1.128   5.347
   21SOL     OW  961   2.138   4.072   2.823
   21SOL    HW1  962   2.187   4.148   2.781
   21SOL    HW2  963   2.133   3.996   2.758
   22SOL     OW  964   0.824   0.967   0.106
   22SOL    HW1  965   0.873   0.976   0.192
   22SOL    HW2  966   0.885   0.926   0.037
   23SOL     OW  967   5.664   4.534   1.026
   23SOL    HW1  968   5.663   4.633   1.017
   23SOL    HW2  969   5.714   4.494   0.949
   24SOL     OW  970   5.234   1.660   0.512
   24SOL    HW1  971   5.209   1.648   0.416
   24SOL    HW2  972   5.332   1.647   0.522
   25SOL     OW  973   2.077   0.527   4.867
   25SOL    HW1  974   1.990   0.518   4.915
   25SOL    HW2  975   2.061   0.529   4.768
   26SOL     OW  976   0.788   2.059   6.249
   26SOL    HW1  977   0.821   2.021   6.162
   26SOL    HW2  978   0.851   2.036   6.322
   27SOL     OW  979   6.724   0.037   2.502
   27SOL    HW1  980   6.699   6.969   2.530
   27SOL    HW2  981   6.642   0.094   2.499
   28SOL     OW  982   2.105   0.952   5.233
   28SOL    HW1  983   2.115   1.039   5.185
   28SOL    HW2  984   2.009   0.924   5.232
   29SOL     OW  985   6.776   0.080   1.097
   29SOL    HW1  986   6.689   0.064   1.144
   29SOL    HW2  987   6.850   0.038   1.148
   30SOL     OW  988   4.260   0.127   4.895
   30SOL    HW1  989   4.186   0.089   4.950
   30SOL    HW2  990   4.289   0.060   4.827
   31SOL     OW  991   0.913   4.680   4.820
   31SOL    HW1  992   0.841   4.712   4.759
   31SOL    HW2  993   0.920   4.581   4.814
   32SOL     OW  994   3.651   0.842   1.158
   32SOL    HW1  995   3.604   0.754   1.169
   32SOL    HW2  996   3.595   0.902   1.100
   33SOL     OW  997   2.207   5.339   6.353
   33SOL    HW1  998   2.160   5.396   6.286
   33SOL    HW2  999   2.244   5.258   6.309
   34SOL     OW 1000   2.753   5.734   5.382
   34SOL    HW1 1001   2.833   5.749   5.324
   34SOL    HW2 1002   2.674   5.781   5.343
   35SOL     OW 1003   1.783   2.888   6.195
   35SOL    HW1 1004   1.793   2.811   6.132
   35SOL    HW2 1005   1.760   2.971   6.143
   36SOL     OW 1006   4.888   0.970   3.379
   36SOL    HW1 1007   4.834   1.049   3.408
   36SOL    HW2 1008   4.845   0.928   3.299
   37SOL     OW 1009   2.108   6.544   3.731
   37SOL    HW1 1010   2.156   6.617   3.683
   37SOL    HW2 1011   2.054   6.583   3.806
   38SOL     OW 1012   1.042   4.353   2.708
   38SOL    HW1 1013   1.105   4.366   2.632
   38SOL    HW2 1014   0.948   4.361   2.675
   39SOL     OW 1015   6.230   5.054   1.475
   39SOL    HW1 1016   6.300   5.123   1.494
   39SOL    HW2 1017   6.202   5.010   1.561
   40SOL     OW 1018   4.908   1.534   0.360
   40SOL    HW1 1019   4.902   1.458   0.295
   40SOL    HW2 1020   4.875   1.504   0.450
   41SOL     OW 1021   5.221   3.571   1.731
   41SOL    HW1 1022   5.179   3.636   1.667
   41SOL    HW2 1023   5.190   3.590   1.824
   42SOL     OW 1024   2.535   4.682   6.798
   42SOL    HW1 1025   2.534   4.669   6.699
   42SOL    HW2 1026   2.498   4.600   6.842
   43SOL     OW 1027   5.012   6.827   5.237
   43SOL    HW1 1028   4.942   6.823   5.308
   43SOL    HW2 1029   5.016   6.739   5.190
   44SOL     OW 1030   0.189   1.557   0.145
   44SOL    HW1 1031   0.178   1.649   0.107
   44SOL    HW2 1032   0.137   1.550   0.230
   45SOL     OW 1033   2.328   4.793   6.226
   45SOL    HW1 1034   2.265   4.802   6.304
   45SOL    HW2 1035   2.416   4.833   6.251
   46SOL     OW 1036   1.499   3.378   5.241
   46SOL    HW1 1037   1.493   3.293   5.188
   46SOL    HW2 1038   1.590   3.419   5.227
   47SOL     OW 1039   5.679   3.542   6.965
   47SOL    HW1 1040   5.618   3.521   0.016
   47SOL    HW2 1041   5.650   3.491   6.884
   48SOL     OW 1042   6.325   4.112   0.712
   48SOL    HW1 1043   6.362   4.204   0.705
   48SOL    HW2 1044   6.226   4.117   0.722
   49SOL     OW 1045   3.006   3.589   6.699
   49SOL    HW1 1046   2.970   3.681   6.684
   49SOL    HW2 1047   2.930   3.525   6.709
   50SOL     OW 1048   6.172   2.070   0.071
   50SOL    HW1 1049   6.116   2.022   0.003
   50SOL    HW2 1050   6.119   2.146   0.110
   51SOL     OW 1051   0.926   5.874   2.517
   51SOL    HW1 1052   0.947   5.777   2.527
   51SOL    HW2 1053   0.931   5.919   2.606
   52SOL     OW 1054   5.862   2.937   1.985
   52SOL    HW1 1055   5.797   2.904   2.053
   52SOL    HW2 1056   5.819   3.005   1.926
   53SOL     OW 1057   3.413   0.547   1.258
   53SOL    HW1 1058   3.485   0.482   1.281
   53SOL    HW2 1059   3.350   0.555   1.335
   54SOL     OW 1060   6.011   0.167   6.505
   54SOL    HW1 1061   5.911   0.179   6.512
   54SOL    HW2 1062   6.030   0.083   6.454
   55SOL     OW 1063   1.233   3.413   6.337
   55SOL    HW1 1064   1.213   3.437   6.242
   55SOL    HW2 1065   1.233   3.313   6.347
   56SOL     OW 1066   0.740   2.182   0.076
   56SOL    HW1 1067   0.642   2.163   0.074
   56SOL    HW2 1068   0.781   2.155   7.014
   57SOL     OW 1069   4.266   6.178   0.931
   57SOL    HW1 1070   4.196   6.250   0.931
   57SOL    HW2 1071   4.266   6.132   1.020
   58SOL     OW 1072   1.288   0.833   0.073
   58SOL    HW1 1073   1.364   0.770   0.061
   58SOL    HW2 1074   1.320   0.927   0.062
   59SOL     OW 1075   4.286   3.174   5.640
   59SOL    HW1 1076   4.329   3.160   5.729
   59SOL    HW2 1077   4.192   3.141   5.643
   60SOL     OW 1078   6.546   2.851   2.312
   60SOL    HW1 1079   6.534   2.949   2.327
   60SOL    HW2 1080   6.536   2.831   2.214
   61SOL     OW 1081   0.918   6.320   4.003
   61SOL    HW1 1082   0.961   6.318   3.913
   61SOL    HW2 1083   0.896   6.414   4.028
   62SOL     OW 1084   6.248   3.136   3.286
   62SOL    HW1 1085   6.205   3.215   3.328
   62SOL    HW2 1086   6.209   3.120   3.195
   63SOL     OW 1087   3.789   0.592   6.429
   63SOL    HW1 1088   3.703   0.626   6.467
   63SOL    HW2 1089   3.802   0.630   6.338
   64SOL     OW 1090   1.134   2.483   5.623
   64SOL    HW1 1091   1.116   2.486   5.721
   64SOL    HW2 1092   1.126   2.575   5.585
   65SOL     OW 1093   0.762   4.968   4.357
   65SOL    HW1 1094   0.709   5.033   4.412
   65SOL    HW2 1095   0.714   4.881   4.353
   66SOL     OW 1096   3.841   1.455   1.693
   66SOL    HW1 1097   3.941   1.452   1.698
   66SOL    HW2 1098   3.810   1.393   1.621
   67SOL     OW 1099   0.223   3.254   1.692
   67SOL    HW1 1100   0.158   3.274   1.766
   67SOL    HW2 1101   0.305   3.211   1.731
   68SOL     OW 1102   6.789   1.982   0.155
   68SOL    HW1 1103   6.839   1.935   0.227
   68SOL    HW2 1104   6.844   2.058   0.121
   69SOL     OW 1105   1.529   5.458   6.811
   69SOL    HW1 1106   1.432   5.437   6.806
   69SOL    HW2 1107   1.572   5.438   6.723
   70SOL     OW 1108   5.158   4.472   3.701
   70SOL    HW1 1109   5.066   4.476   3.664
   70SOL    HW2 1110   5.157   4.503   3.797
   71SOL     OW 1111   5.182   1.907   4.362
   71SOL    HW1 1112   5.102   1.863   4.402
   71SOL    HW2 1113   5.172   2.006   4.368
   72SOL     OW 1114   0.048   1.191   3.448
   72SOL    HW1 1115   0.032   1.099   3.412
   72SOL    HW2 1116   0.053   1.187   3.547
   73SOL     OW 1117   2.353   0.497   0.894
   73SOL    HW1 1118   2.408   0.416   0.913
   73SOL    HW2 1119   2.259   0.470   0.870
   74SOL     OW 1120   3.754   2.235   0.528
   74SOL    HW1 1121   3.733   2.203   0.620
   74SOL    HW2 1122   3.760   2.335   0.528
   75SOL     OW 1123   3.105   2.820   0.350
   75SOL    HW1 1124   3.037   2.747   0.338
   75SOL    HW2 1125   3.070   2.905   0.309
   76SOL     OW 1126   4.081   5.202   5.867
   76SOL    HW1 1127   4.104   5.121   5.920
   76SOL    HW2 1128   4.140   5.278   5.895
   77SOL     OW 1129   0.762   5.129   4.895
   77SOL    HW1 1130   0.697   5.173   4.834
   77SOL    HW2 1131   0.713   5.083   4.969
   78SOL     OW 1132   4.484   1.785   1.107
   78SOL    HW1 1133   4.408   1.824   1.056
   78SOL    HW2 1134   4.569   1.831   1.080
   79SOL     OW 1135   1.620   4.449   3.385
   79SOL    HW1 1136   1.538   4.425   3.332
   79SOL    HW2 1137   1.617   4.546   3.408
   80SOL     OW 1138   3.376   2.101   4.972
   80SOL    HW1 1139   3.295   2.157   4.992
   80SOL    HW2 1140   3.396   2.106   4.875
   81SOL     OW 1141   3.838   5.503   1.866
   81SOL    HW1 1142   3.920   5.556   1.844
   81SOL    HW2 1143   3.852   5.453   1.951
   82SOL     OW 1144   2.747   6.887   1.738
   82SOL    HW1 1145   2.685   6.964   1.751
   82SOL    HW2 1146   2.803   6.876   1.820
   83SOL     OW 1147   5.143   1.501   4.036
   83SOL    HW1 1148   5.174   1.418   3.990
   83SOL    HW2 1149   5.188   1.509   4.125
   84SOL     OW 1150   5.940   2.819   2.991
   84SOL    HW1 1151   5.981   2.909   2.983
   84SOL    HW2 1152   5.908   2.806   3.085
   85SOL     OW 1153   2.560   6.514   3.796
   85SOL    HW1 1154   2.480   6.465   3.829
   85SOL    HW2 1155   2.531   6.589   3.737
   86SOL     OW 1156   5.126   0.207   0.617
   86SOL    HW1 1157   5.053   0.219   0.550
   86SOL    HW2 1158   5.149   0.296   0.657
   87SOL     OW 1159   2.548   3.521   6.794
   87SOL    HW1 1160   2.518   3.453   6.728
   87SOL    HW2 1161   2.532   3.613   6.757
   88SOL     OW 1162   2.428   3.500   1.610
   88SOL    HW1 1163   2.432   3.419   1.551
   88SOL    HW2 1164   2.413   3.471   1.705
   89SOL     OW 1165   2.954   3.343   3.913
   89SOL    HW1 1166   2.988   3.436   3.918
   89SOL    HW2 1167   2.954   3.302   4.004
   90SOL     OW 1168   5.943   3.782   2.511
   90SOL    HW1 1169   6.030   3.735   2.530
   90SOL    HW2 1170   5.932   3.794   2.412
   91SOL     OW 1171   4.157   5.849   6.373
   91SOL    HW1 1172   4.165   5.749   6.374
   91SOL    HW2 1173   4.121   5.880   6.461
   92SOL     OW 1174   5.316   4.258   0.212
   92SOL    HW1 1175   5.223   4.221   0.217
   92SOL    HW2 1176   5.315   4.345   0.162
   93SOL     OW 1177   3.015   3.835   1.900
   93SOL    HW1 1178   3.078   3.800   1.831
   93SOL    HW2 1179   2.926   3.854   1.857
   94SOL     OW 1180   3.176   2.080   4.084
   94SOL    HW1 1181   3.218   2.129   4.161
   94SOL    HW2 1182   3.087   2.121   4.064
   95SOL     OW 1183   0.413   0.419   4.160
   95SOL    HW1 1184   0.425   0.423   4.060
   95SOL    HW2 1185   0.375   0.330   4.185
   96SOL     OW 1186   0.108   5.301   6.329
   96SOL    HW1 1187   0.103   5.399   6.309
   96SOL    HW2 1188   0.022   5.257   6.301
   97SOL     OW 1189   2.257   4.532   5.898
   97SOL    HW1 1190   2.182   4.470   5.875
   97SOL    HW2 1191   2.266   4.538   5.998
   98SOL     OW 1192   0.948   1.968   3.793
   98SOL    HW1 1193   1.045   1.992   3.800
   98SOL    HW2 1194   0.895   2.049   3.768
   99SOL     OW 1195   3.497   4.381   5.306
   99SOL    HW1 1196   3.496   4.383   5.406
   99SOL    HW2 1197   3.560   4.310   5.275
  100SOL     OW 1198   0.765   0.062   5.192
  100SOL    HW1 1199   0.788   6.993   5.217
  100SOL    HW2 1200   0.732   0.111   5.272
  101SOL     OW 1201   4.850   3.193   2.667
  101SOL    HW1 1202   4.851   3.285   2.706
  101SOL    HW2 1203   4.927   3.141   2.703
  102SOL     OW 1204   4.285   0.774   0.127
  102SOL    HW1 1205   4.334   0.721   0.196
  102SOL    HW2 1206   4.204   0.815   0.169
  103SOL     OW 1207   1.260   1.435   2.003
  103SOL    HW1 1208   1.324   1.439   2.079
  103SOL    HW2 1209   1.310   1.434   1.916
  104SOL     OW 1210   6.551   4.143   1.500
  104SOL    HW1 1211   6.472   4.184   1.545
  104SOL    HW2 1212   6.525   4.108   1.410
  105SOL     OW 1213   0.185   0.219   4.750
  105SOL    HW1 1214   0.211   0.178   4.662
  105SOL    HW2 1215   0.148   0.311   4.734
  106SOL     OW 1216   4.617   3.265   1.604
  106SOL    HW1 1217   4.597   3.282   1.507
  106SOL    HW2 1218   4.543   3.213   1.645
  107SOL     OW 1219   5.790   6.918   1.486
  107SOL    HW1 1220   5.812   6.887   1.579
  107SOL    HW2 1221   5.744   7.007   1.492
  108SOL     OW 1222   3.166   1.030   5.006
  108SOL    HW1 1223   3.207   1.102   5.061
  108SOL    HW2 1224   3.071   1.016   5.034
  109SOL     OW 1225   2.224   1.160   5.066
  109SOL    HW1 1226   2.288   1.229   5.098
  109SOL    HW2 1227   2.136   1.202   5.046
  110SOL     OW 1228   3.559   3.911   5.427
  110SOL    HW1 1229   3.604   3.969   5.496
  110SOL    HW2 1230   3.460   3.911   5.443
  111SOL     OW 1231   6.179   2.637   0.897
  111SOL    HW1 1232   6.215   2.712   0.842
  111SOL    HW2 1233   6.085   2.617   0.868
  112SOL     OW 1234   5.524   0.225   6.166
  112SOL    HW1 1235   5.460   0.264   6.232
  112SOL    HW2 1236   5.618   0.245   6.195
  113SOL     OW 1237   0.378   5.145   2.674
  113SOL    HW1 1238   0.459   5.154   2.617
  113SOL    HW2 1239   0.302   5.110   2.619
  114SOL     OW 1240   0.170   2.274   2.137
  114SOL    HW1 1241   0.083   2.298   2.180
  114SOL    HW2 1242   0.212   2.356   2.097
  115SOL     OW 1243   4.735   6.713   3.219
  115SOL    HW1 1244   4.694   6.715   3.128
  115SOL    HW2 1245   4.800   6.638   3.226
  116SOL     OW 1246   0.003   5.148   0.561
  116SOL    HW1 1247   6.972   5.227   0.537
  116SOL    HW2 1248   0.044   5.162   0.651
  117SOL     OW 1249   2.596   2.581   0.498
  117SOL    HW1 1250   2.539   2.654   0.460
  117SOL    HW2 1251   2.687   2.616   0.517
  118SOL     OW 1252   6.826   1.743   2.647
  118SOL    HW1 1253   6.870   1.653   2.652
  118SOL    HW2 1254   6.750   1.746   2.712
  119SOL     OW 1255   6.141   0.598   4.976
  119SOL    HW1 1256   6.211   0.659   4.939
  119SOL    HW2 1257   6.085   0.562   4.901
  120SOL     OW 1258   4.348   0.758   4.485
  120SOL    HW1 1259   4.311   0.677   4.530
  120SOL    HW2 1260   4.444   0.741   4.460
  121SOL     OW 1261   0.341   5.396   6.850
  121SOL    HW1 1262   0.299   5.413   6.939
  121SOL    HW2 1263   0.303   5.459   6.783
  122SOL     OW 1264   6.782   4.699   5.926
  122SOL    HW1 1265   6.747   4.780   5.878
  122SOL    HW2 1266   6.725   4.682   6.007
  123SOL     OW 1267   0.739   2.661   1.817
  123SOL    HW1 1268   0.756   2.586   1.880
  123SOL    HW2 1269   0.716   2.744   1.869
  124SOL     OW 1270   1.027   3.563   0.609
  124SOL    HW1 1271   0.954   3.630   0.622
  124SOL    HW2 1272   1.077   3.585   0.525
  125SOL     OW 1273   4.393   3.041   0.315
  125SOL    HW1 1274   4.365   2.958   0.266
  125SOL    HW2 1275   4.439   3.016   0.400
  126SOL     OW 1276   3.749   2.948   4.064
  126SOL    HW1 1277   3.669   2.894   4.089
  126SOL    HW2 1278   3.756   2.952   3.964
  127SOL     OW 1279   0.399   4.228   5.349
  127SOL    HW1 1280   0.306   4.264   5.340
  127SOL    HW2 1281   0.435   4.204   5.259
  128SOL     OW 1282   5.212   3.981   6.580
  128SOL    HW1 1283   5.278   4.038   6.628
  128SOL    HW2 1284   5.222   3.886   6.610
  129SOL     OW 1285   0.002   5.683   2.239
  129SOL    HW1 1286   6.982   5.682   2.328
  129SOL    HW2 1287   6.960   5.660   2.168
  130SOL     OW 1288   6.162   2.690   4.205
  130SOL    HW1 1289   6.105   2.696   4.287
  130SOL    HW2 1290   6.199   2.598   4.197
  131SOL     OW 1291   0.615   3.509   3.527
  131SOL    HW1 1292   0.670   3.478   3.604
  131SOL    HW2 1293   0.587   3.431   3.471
  132SOL     OW 1294   4.270   2.557   0.893
  132SOL    HW1 1295   4.232   2.512   0.973
  132SOL    HW2 1296   4.343   2.620   0.921
  133SOL     OW 1297   4.700   5.741   6.098
  133SOL    HW1 1298   4.648   5.754   6.013
  133SOL    HW2 1299   4.757   5.820   6.114
  134SOL     OW 1300   5.595   2.197   0.834
  134SOL    HW1 1301   5.546   2.249   0.903
  134SOL    HW2 1302   5.573   2.233   0.743
  135SOL     OW 1303   4.908   3.421   3.906
  135SOL    HW1 1304   5.004   3.446   3.892
  135SOL    HW2 1305   4.850   3.498   3.883
  136SOL     OW 1306   3.550   0.952   6.155
  136SOL    HW1 1307   3.453   0.937   6.139
  136SOL    HW2 1308   3.565   0.975   6.252
  137SOL     OW 1309   2.924   3.481   6.091
  137SOL    HW1 1310   2.950   3.538   6.013
  137SOL    HW2 1311   2.976   3.395   6.089
  138SOL     OW 1312   1.245   5.435   6.790
  138SOL    HW1 1313   1.220   5.346   6.828
  138SOL    HW2 1314   1.187   5.456   6.711
  139SOL     OW 1315   1.301   0.247   0.902
  139SOL    HW1 1316   1.301   0.308   0.823
  139SOL    HW2 1317   1.239   0.283   0.971
  140SOL     OW 1318   4.567   0.869   1.557
  140SOL    HW1 1319   4.615   0.790   1.594
  140SOL    HW2 1320   4.538   0.849   1.463
  141SOL     OW 1321   0.295   2.635   0.778
  141SOL    HW1 1322   0.328   2.560   0.835
  141SOL    HW2 1323   0.327   2.622   0.684
  142SOL     OW 1324   2.402   3.697   0.595
  142SOL    HW1 1325   2.349   3.779   0.618
  142SOL    HW2 1326   2.498   3.710   0.621
  143SOL     OW 1327   4.198   6.397   1.926
  143SOL    HW1 1328   4.279   6.339   1.939
  143SOL    HW2 1329   4.120   6.357   1.974
  144SOL     OW 1330   3.027   5.915   3.053
  144SOL    HW1 1331   2.971   5.844   3.097
  144SOL    HW2 1332   2.992   5.933   2.961
  145SOL     OW 1333   0.306   5.188   3.916
  145SOL    HW1 1334   0.300   5.126   3.838
  145SOL    HW2 1335   0.222   5.182   3.970
  146SOL     OW 1336   5.005   0.868   6.209
  146SOL    HW1 1337   5.063   0.809   6.153
  146SOL    HW2 1338   5.007   0.836   6.304
  147SOL     OW 1339   4.900   0.860   5.083
  147SOL    HW1 1340   4.809   0.823   5.100
  147SOL    HW2 1341   4.968   0.787   5.096
  148SOL     OW 1342   1.897   5.973   1.508
  148SOL    HW1 1343   1.863   5.897   1.452
  148SOL    HW2 1344   1.996   5.963   1.519
  149SOL     OW 1345   2.028   2.275   4.213
  149SOL    HW1 1346   2.026   2.339   4.136
  149SOL    HW2 1347   1.993   2.321   4.295
  150SOL     OW 1348   4.153   1.300   4.919
  150SOL    HW1 1349   4.153   1.226   4.986
  150SOL    HW2 1350   4.079   1.364   4.939
  151SOL     OW 1351   5.900   2.735   0.791
  151SOL    HW1 1352   5.806   2.740   0.758
  151SOL    HW2 1353   5.940   2.826   0.791
  152SOL     OW 1354   1.000   2.248   1.828
  152SOL    HW1 1355   1.017   2.338   1.869
  152SOL    HW2 1356   0.943   2.258   1.747
  153SOL     OW 1357   2.408   1.477   3.886
  153SOL    HW1 1358   2.309   1.473   3.874
  153SOL    HW2 1359   2.453   1.477   3.796
  154SOL     OW 1360   6.394   2.464   2.387
  154SOL    HW1 1361   6.335   2.519   2.446
  154SOL    HW2 1362   6.484   2.506   2.382
  155SOL     OW 1363   6.480   5.324   3.125
  155SOL    HW1 1364   6.398   5.267   3.128
  155SOL    HW2 1365   6.516   5.325   3.031
  156SOL     OW 1366   5.167   2.397   0.295
  156SOL    HW1 1367   5.166   2.321   0.360
  156SOL    HW2 1368   5.207   2.366   0.208
  157SOL     OW 1369   5.184   6.668   0.817
  157SOL    HW1 1370   5.248   6.742   0.793
  157SOL    HW2 1371   5.140   6.634   0.734
  158SOL     OW 1372   0.481   3.063   4.020
  158SOL    HW1 1373   0.502   3.031   3.927
  158SOL    HW2 1374   0.410   3.004   4.060
  159SOL     OW 1375   6.002   5.390   0.531
  159SOL    HW1 1376   5.965   5.367   0.441
  159SOL    HW2 1377   6.078   5.453   0.521
  160SOL     OW 1378   5.406   0.722   1.168
  160SOL    HW1 1379   5.482   0.688   1.114
  160SOL    HW2 1380   5.431   0.721   1.265
  161SOL     OW 1381   6.341   6.763   0.727
  161SOL    HW1 1382   6.250   6.741   0.763
  161SOL    HW2 1383   6.377   6.845   0.773
  162SOL     OW 1384   4.550   0.374   6.406
  162SOL    HW1 1385   4.601   0.434   6.345
  162SOL    HW2 1386   4.614   0.314   6.454
  163SOL     OW 1387   1.032   3.307   2.241
  163SOL    HW1 1388   1.127   3.329   2.221
  163SOL    HW2 1389   1.016   3.310   2.339
  164SOL     OW 1390   2.794   1.911   3.075
  164SOL    HW1 1391   2.793   1.845   3.001
  164SOL    HW2 1392   2.743   1.993   3.049
  165SOL     OW 1393   6.980   6.850   3.966
  165SOL    HW1 1394   7.025   6.809   4.046
  165SOL    HW2 1395   6.963   6.947   3.984
  166SOL     OW 1396   6.385   4.815   4.124
  166SOL    HW1 1397   6.461   4.754   4.102
  166SOL    HW2 1398   6.302   4.782   4.080
  167SOL     OW 1399   2.433   1.344   5.138
  167SOL    HW1 1400   2.523   1.357   5.181
  167SOL    HW2 1401   2.436   1.378   5.044
  168SOL     OW 1402   3.789   3.587   1.613
  168SOL    HW1 1403   3.780   3.555   1.518
  168SOL    HW2 1404   3.858   3.532   1.660
  169SOL     OW 1405   5.086   2.466   0.828
  169SOL    HW1 1406   5.023   2.424   0.763
  169SOL    HW2 1407   5.035   2.515   0.898
  170SOL     OW 1408   6.011   5.775   1.000
  170SOL    HW1 1409   5.921   5.731   1.006
  170SOL    HW2 1410   6.063   5.757   1.083
  171SOL     OW 1411   3.795   2.971   0.969
  171SOL    HW1 1412   3.785   2.889   1.025
  171SOL    HW2 1413   3.705   2.998   0.934
  172SOL     OW 1414   1.322   1.605   6.600
  172SOL    HW1 1415   1.406   1.648   6.631
  172SOL    HW2 1416   1.260   1.675   6.564
  173SOL     OW 1417   6.306   1.449   4.174
  173SOL    HW1 1418   6.214   1.435   4.211
  173SOL    HW2 1419   6.307   1.528   4.113
  174SOL     OW 1420   5.367   4.439   4.196
  174SOL    HW1 1421   5.466   4.440   4.214
  174SOL    HW2 1422   5.341   4.349   4.163
  175SOL     OW 1423   0.243   6.416   2.885
  175SOL    HW1 1424   0.168   6.449   2.943
  175SOL    HW2 1425   0.243   6.466   2.799
  176SOL     OW 1426   6.141   3.539   1.551
  176SOL    HW1 1427   6.218   3.514   1.493
  176SOL    HW2 1428   6.158   3.509   1.645
  177SOL     OW 1429   5.728   2.446   3.449
  177SOL    HW1 1430   5.819   2.432   3.411
  177SOL    HW2 1431   5.700   2.365   3.501
  178SOL     OW 1432   2.415   5.884   4.675
  178SOL    HW1 1433   2.374   5.852   4.589
  178SOL    HW2 1434   2.448   5.978   4.664
  179SOL     OW 1435   3.169   4.423   1.294
  179SOL    HW1 1436   3.228   4.352   1.332
  179SOL    HW2 1437   3.077   4.415   1.334
  180SOL     OW 1438   4.684   1.130   6.649
  180SOL    HW1 1439   4.651   1.040   6.622
  180SOL    HW2 1440   4.709   1.182   6.568
  181SOL     OW 1441   3.061   2.152   5.972
  181SOL    HW1 1442   3.117   2.089   5.919
  181SOL    HW2 1443   2.986   2.102   6.015
  182SOL     OW 1444   3.345   2.935   5.714
  182SOL    HW1 1445   3.262   2.952   5.660
  182SOL    HW2 1446   3.421   2.916   5.653
  183SOL     OW 1447   2.662   1.003   3.553
  183SOL    HW1 1448   2.751   1.047   3.547
  183SOL    HW2 1449   2.654   0.957   3.642
  184SOL     OW 1450   5.147   5.850   3.655
  184SOL    HW1 1451   5.118   5.858   3.750
  184SOL    HW2 1452   5.066   5.854   3.595
  185SOL     OW 1453   0.158   0.599   4.462
  185SOL    HW1 1454   0.081   0.554   4.416
  185SOL    HW2 1455   0.238   0.540   4.459
  186SOL     OW 1456   3.352   5.741   5.256
  186SOL    HW1 1457   3.295   5.660   5.270
  186SOL    HW2 1458   3.316   5.818   5.310
  187SOL     OW 1459   4.050   5.977   1.594
  187SOL    HW1 1460   4.011   5.886   1.582
  187SOL    HW2 1461   4.009   6.022   1.674
  188SOL     OW 1462   1.461   3.588   3.256
  188SOL    HW1 1463   1.478   3.527   3.334
  188SOL    HW2 1464   1.367   3.623   3.261
  189SOL     OW 1465   5.253   5.246   5.300
  189SOL    HW1 1466   5.169   5.293   5.273
  189SOL    HW2 1467   5.237   5.192   5.382
  190SOL     OW 1468   5.967   0.295   0.569
  190SOL    HW1 1469   5.967   0.195   0.575
  190SOL    HW2 1470   5.959   0.334   0.661
  191SOL     OW 1471   0.414   2.096   5.505
  191SOL    HW1 1472   0.482   2.166   5.484
  191SOL    HW2 1473   0.406   2.086   5.605
  192SOL     OW 1474   0.283   5.699   1.323
  192SOL    HW1 1475   0.218   5.774   1.311
  192SOL    HW2 1476   0.310   5.694   1.419
  193SOL     OW 1477   2.015   0.114   1.186
  193SOL    HW1 1478   1.959   0.185   1.143
  193SOL    HW2 1479   1.975   0.024   1.165
  194SOL     OW 1480   3.808   5.983   2.301
  194SOL    HW1 1481   3.789   5.935   2.387
  194SOL    HW2 1482   3.723   6.004   2.254
  195SOL     OW 1483   3.991   0.389   1.256
  195SOL    HW1 1484   4.066   0.385   1.189
  195SOL    HW2 1485   4.026   0.362   1.346
  196SOL     OW 1486   4.086   2.032   0.706
  196SOL    HW1 1487   4.082   1.944   0.753
  196SOL    HW2 1488   4.052   2.104   0.766
  197SOL     OW 1489   1.783   5.954   0.643
  197SOL    HW1 1490   1.804   5.857   0.633
  197SOL    HW2 1491   1.831   5.990   0.723
  198SOL     OW 1492   3.819   6.829   6.556
  198SOL    HW1 1493   3.842   6.902   6.621
  198SOL    HW2 1494   3.904   6.788   6.522
  199SOL     OW 1495   0.798   0.564   2.953
  199SOL    HW1 1496   0.715   0.617   2.972
  199SOL    HW2 1497   0.854   0.561   3.036
  200SOL     OW 1498   0.997   4.688   3.307
  200SOL    HW1 1499   1.000   4.600   3.260
  200SOL    HW2 1500   1.002   4.673   3.406
  201SOL     OW 1501   5.430   1.628   6.442
  201SOL    HW1 1502   5.510   1.647   6.499
  201SOL    HW2 1503   5.379   1.551   6.481
  202SOL     OW 1504   3.537   1.002   2.594
  202SOL    HW1 1505   3.550   1.028   2.498
  202SOL    HW2 1506   3.497   0.911   2.599
  203SOL     OW 1507   6.284   2.899   6.533
  203SOL    HW1 1508   6.266   2.806   6.564
  203SOL    HW2 1509   6.251   2.964   6.602
  204SOL     OW 1510   2.472   6.853   1.352
  204SOL    HW1 1511   2.499   6.785   1.420
  204SOL    HW2 1512   2.377   6.881   1.370
  205SOL     OW 1513   5.678   0.892   0.810
  205SOL    HW1 1514   5.752   0.908   0.746
  205SOL    HW2 1515   5.590   0.908   0.765
  206SOL     OW 1516   0.148   5.452   1.708
  206SOL    HW1 1517   0.084   5.519   1.672
  206SOL    HW2 1518   0.123   5.361   1.675
  207SOL     OW 1519   4.829   1.694   5.594
  207SOL    HW1 1520   4.782   1.606   5.584
  207SOL    HW2 1521   4.924   1.684   5.564
  208SOL     OW 1522   3.625   4.730   6.196
  208SOL    HW1 1523   3.637   4.632   6.212
  208SOL    HW2 1524   3.705   4.766   6.147
  209SOL     OW 1525   6.840   5.256   5.142
  209SOL    HW1 1526   6.803   5.178   5.193
  209SOL    HW2 1527   6.938   5.263   5.158
  210SOL     OW 1528   3.778   2.105   1.706
  210SOL    HW1 1529   3.818   2.119   1.615
  210SOL    HW2 1530   3.787   2.189   1.759
  211SOL     OW 1531   1.295   2.059   1.847
  211SOL    HW1 1532   1.243   1.984   1.888
  211SOL    HW2 1533   1.310   2.131   1.915
  212SOL     OW 1534   0.486   5.241   4.755
  212SOL    HW1 1535   0.543   5.321   4.736
  212SOL    HW2 1536   0.525   5.161   4.711
  213SOL     OW 1537   4.347   2.768   6.115
  213SOL    HW1 1538   4.343   2.718   6.028
  213SOL    HW2 1539   4.273   2.834   6.119
  214SOL     OW 1540   1.511   6.586   3.090
  214SOL    HW1 1541   1.411   6.581   3.100
  214SOL    HW2 1542   1.553   6.588   3.180
  215SOL     OW 1543   3.541   3.460   2.979
  215SOL    HW1 1544   3.628   3.481   3.024
  215SOL    HW2 1545   3.555   3.460   2.880
  216SOL     OW 1546   1.791   6.333   5.626
  216SOL    HW1 1547   1.713   6.347   5.686
  216SOL    HW2 1548   1.872   6.310   5.681
  217SOL     OW 1549   6.991   2.382   3.952
  217SOL    HW1 1550   6.912   2.331   3.986
  217SOL    HW2 1551   6.970   2.480   3.956
  218SOL     OW 1552   1.811   3.697   5.639
  218SOL    HW1 1553   1.726   3.711   5.691
  218SOL    HW2 1554   1.880   3.657   5.699
  219SOL     OW 1555   3.657   5.479   0.854
  219SOL    HW1 1556   3.570   5.521   0.828
  219SOL    HW2 1557   3.666   5.391   0.808
  220SOL     OW 1558   1.628   4.531   0.663
  220SOL    HW1 1559   1.594   4.470   0.734
  220SOL    HW2 1560   1.698   4.484   0.608
  221SOL     OW 1561   6.517   2.882   3.998
  221SOL    HW1 1562   6.460   2.892   4.080
  221SOL    HW2 1563   6.611   2.864   4.026
  222SOL     OW 1564   1.194   5.890   4.555
  222SOL    HW1 1565   1.193   5.970   4.614
  222SOL    HW2 1566   1.104   5.880   4.511
  223SOL     OW 1567   5.712   4.418   2.600
  223SOL    HW1 1568   5.695   4.325   2.569
  223SOL    HW2 1569   5.628   4.472   2.589
  224SOL     OW 1570   3.347   2.099   2.120
  224SOL    HW1 1571   3.426   2.157   2.100
  224SOL    HW2 1572   3.295   2.082   2.036
  225SOL     OW 1573   0.117   0.094   1.206
  225SOL    HW1 1574   0.093   0.036   1.129
  225SOL    HW2 1575   0.056   0.075   1.283
  226SOL     OW 1576   0.362   6.032   1.568
  226SOL    HW1 1577   0.461   6.022   1.579
  226SOL    HW2 1578   0.320   5.942   1.557
  227SOL     OW 1579   1.855   3.005   2.821
  227SOL    HW1 1580   1.886   2.973   2.732
  227SOL    HW2 1581   1.900   3.091   2.845
  228SOL     OW 1582   3.642   6.610   2.681
  228SOL    HW1 1583   3.638   6.531   2.619
  228SOL    HW2 1584   3.589   6.591   2.763
  229SOL     OW 1585   6.123   5.642   3.316
  229SOL    HW1 1586   6.028   5.666   3.332
  229SOL    HW2 1587   6.136   5.616   3.220
  230SOL     OW 1588   1.025   4.347   6.267
  230SOL    HW1 1589   0.984   4.274   6.212
  230SOL    HW2 1590   1.000   4.335   6.363
  231SOL     OW 1591   0.681   1.856   0.444
  231SOL    HW1 1592   0.729   1.925   0.498
  231SOL    HW2 1593   0.725   1.767   0.458
  232SOL     OW 1594   2.015   4.313   6.415
  232SOL    HW1 1595   2.084   4.241   6.420
  232SOL    HW2 1596   1.926   4.274   6.439
  233SOL     OW 1597   3.144   0.882   6.359
  233SOL    HW1 1598   3.187   0.971   6.375
  233SOL    HW2 1599   3.105   0.849   6.445
  234SOL     OW 1600   3.129   5.703   6.730
  234SOL    HW1 1601   3.036   5.701   6.766
  234SOL    HW2 1602   3.192   5.732   6.802
  235SOL     OW 1603   4.035   3.197   4.455
  235SOL    HW1 1604   3.987   3.110   4.449
  235SOL    HW2 1605   3.999   3.260   4.386
  236SOL     OW 1606   6.752   2.008   5.338
  236SOL    HW1 1607   6.763   2.092   5.285
  236SOL    HW2 1608   6.839   1.959   5.342
  237SOL     OW 1609   6.811   6.571   1.762
  237SOL    HW1 1610   6.747   6.509   1.717
  237SOL    HW2 1611   6.901   6.527   1.768
  238SOL     OW 1612   6.854   2.105   1.994
  238SOL    HW1 1613   6.796   2.024   1.988
  238SOL    HW2 1614   6.828   2.159   2.074
  239SOL     OW 1615   0.048   5.954   1.125
  239SOL    HW1 1616   0.084   5.867   1.091
  239SOL    HW2 1617   0.096   6.029   1.080
  240SOL     OW 1618   6.878   2.880   5.521
  240SOL    HW1 1619   6.894   2.958   5.461
  240SOL    HW2 1620   6.830   2.912   5.603
  241SOL     OW 1621   6.148   1.747   4.416
  241SOL    HW1 1622   6.090   1.725   4.338
  241SOL    HW2 1623   6.158   1.847   4.424
  242SOL     OW 1624   2.256   2.614   3.406
  242SOL    HW1 1625   2.206   2.669   3.340
  242SOL    HW2 1626   2.311   2.545   3.358
  243SOL     OW 1627   3.984   1.168   6.305
  243SOL    HW1 1628   4.050   1.133   6.239
  243SOL    HW2 1629   3.981   1.107   6.384
  244SOL     OW 1630   6.850   0.811   6.014
  244SOL    HW1 1631   6.890   0.801   6.105
  244SOL    HW2 1632   6.922   0.836   5.949
  245SOL     OW 1633   5.425   2.775   3.859
  245SOL    HW1 1634   5.476   2.690   3.873
  245SOL    HW2 1635   5.343   2.776   3.917
  246SOL     OW 1636   4.917   3.231   3.414
  246SOL    HW1 1637   4.856   3.217   3.492
  246SOL    HW2 1638   4.976   3.309   3.432
  247SOL     OW 1639   2.645   6.987   3.725
  247SOL    HW1 1640   2.685   6.988   3.633
  247SOL    HW2 1641   2.674   6.905   3.773
  248SOL     OW 1642   6.513   1.245   1.949
  248SOL    HW1 1643   6.590   1.190   1.917
  248SOL    HW2 1644   6.483   1.306   1.876
  249SOL     OW 1645   2.010   6.213   4.440
  249SOL    HW1 1646   1.929   6.271   4.449
  249SOL    HW2 1647   1.991   6.138   4.377
  250SOL     OW 1648   5.375   3.281   6.502
  250SOL    HW1 1649   5.390   3.241   6.411
  250SOL    HW2 1650   5.389   3.211   6.572
  251SOL     OW 1651   1.943   2.521   0.741
  251SOL    HW1 1652   1.870   2.555   0.801
  251SOL    HW2 1653   1.952   2.582   0.662
  252SOL     OW 1654   0.594   1.365   0.496
  252SOL    HW1 1655   0.538   1.436   0.537
  252SOL    HW2 1656   0.578   1.361   0.397
  253SOL     OW 1657   1.668   4.047   5.732
  253SOL    HW1 1658   1.655   3.951   5.756
  253SOL    HW2 1659   1.630   4.065   5.642
  254SOL     OW 1660   4.906   3.652   6.109
  254SOL    HW1 1661   4.917   3.612   6.200
  254SOL    HW2 1662   4.977   3.720   6.093
  255SOL     OW 1663   3.296   1.597   2.791
  255SOL    HW1 1664   3.278   1.644   2.877
  255SOL    HW2 1665   3.389   1.619   2.760
  256SOL     OW 1666   6.642   5.596   1.808
  256SOL    HW1 1667   6.595   5.594   1.896
  256SOL    HW2 1668   6.608   5.521   1.750
  257SOL     OW 1669   3.546   5.292   6.685
  257SOL    HW1 1670   3.539   5.234   6.604
  257SOL    HW2 1671   3.496   5.377   6.669
  258SOL     OW 1672   4.783   4.111   3.835
  258SOL    HW1 1673   4.749   4.204   3.842
  258SOL    HW2 1674   4.828   4.098   3.746
  259SOL     OW 1675   1.118   2.311   3.599
  259SOL    HW1 1676   1.185   2.381   3.619
  259SOL    HW2 1677   1.088   2.318   3.504
  260SOL     OW 1678   6.511   6.791   5.631
  260SOL    HW1 1679   6.555   6.827   5.549
  260SOL    HW2 1680   6.500   6.865   5.698
  261SOL     OW 1681   0.215   1.340   3.317
  261SOL    HW1 1682   0.156   1.280   3.371
  261SOL    HW2 1683   0.210   1.434   3.352
  262SOL     OW 1684   2.197   4.667   2.586
  262SOL    HW1 1685   2.152   4.653   2.498
  262SOL    HW2 1686   2.280   4.722   2.572
  263SOL     OW 1687   6.388   2.832   5.070
  263SOL    HW1 1688   6.360   2.764   5.138
  263SOL    HW2 1689   6.333   2.821   4.987
  264SOL     OW 1690   3.413   3.805   6.349
  264SOL    HW1 1691   3.395   3.853   6.434
  264SOL    HW2 1692   3.345   3.733   6.335
  265SOL     OW 1693   4.978   5.269   4.774
  265SOL    HW1 1694   4.946   5.211   4.849
  265SOL    HW2 1695   5.032   5.345   4.811
  266SOL     OW 1696   3.403   3.085   6.402
  266SOL    HW1 1697   3.420   2.995   6.362
  266SOL    HW2 1698   3.392   3.153   6.330
  267SOL     OW 1699   1.879   1.186   6.747
  267SOL    HW1 1700   1.866   1.181   6.648
  267SOL    HW2 1701   1.826   1.263   6.784
  268SOL     OW 1702   3.035   5.028   3.709
  268SOL    HW1 1703   3.043   4.963   3.634
  268SOL    HW2 1704   3.085   4.994   3.789
  269SOL     OW 1705   1.656   1.179   4.818
  269SOL    HW1 1706   1.641   1.121   4.898
  269SOL    HW2 1707   1.653   1.123   4.735
  270SOL     OW 1708   4.982   6.625   4.555
  270SOL    HW1 1709   5.081   6.638   4.554
  270SOL    HW2 1710   4.948   6.632   4.649
  271SOL     OW 1711   1.609   1.508   0.851
  271SOL    HW1 1712   1.676   1.573   0.888
  271SOL    HW2 1713   1.530   1.558   0.816
  272SOL     OW 1714   4.437   6.010   1.767
  272SOL    HW1 1715   4.355   5.965   1.803
  272SOL    HW2 1716   4.473   6.074   1.834
  273SOL     OW 1717   2.454   6.480   4.489
  273SOL    HW1 1718   2.525   6.430   4.539
  273SOL    HW2 1719   2.387   6.416   4.452
  274SOL     OW 1720   5.852   1.635   0.764
  274SOL    HW1 1721   5.931   1.690   0.792
  274SOL    HW2 1722   5.850   1.629   0.664
  275SOL     OW 1723   5.840   6.009   5.774
  275SOL    HW1 1724   5.767   6.072   5.803
  275SOL    HW2 1725   5.850   5.937   5.843
  276SOL     OW 1726   6.885   6.577   4.307
  276SOL    HW1 1727   6.895   6.635   4.388
  276SOL    HW2 1728   6.871   6.482   4.335
  277SOL     OW 1729   4.705   2.800   5.208
  277SOL    HW1 1730   4.701   2.898   5.230
  277SOL    HW2 1731   4.616   2.769   5.177
  278SOL     OW 1732   5.801   3.643   3.219
  278SOL    HW1 1733   5.724   3.689   3.263
  278SOL    HW2 1734   5.780   3.546   3.209
  279SOL     OW 1735   0.223   3.657   3.873
  279SOL    HW1 1736   0.307   3.669   3.820
  279SOL    HW2 1737   0.177   3.745   3.883
  280SOL     OW 1738   3.916   1.324   3.768
  280SOL    HW1 1739   3.948   1.243   3.718
  280SOL    HW2 1740   3.995   1.376   3.801
  281SOL     OW 1741   4.929   6.102   5.114
  281SOL    HW1 1742   4.910   6.087   5.017
  281SOL    HW2 1743   4.880   6.184   5.144
  282SOL     OW 1744   1.199   2.680   0.503
  282SOL    HW1 1745   1.188   2.738   0.583
  282SOL    HW2 1746   1.294   2.648   0.497
  283SOL     OW 1747   5.291   3.714   4.479
  283SOL    HW1 1748   5.326   3.734   4.570
  283SOL    HW2 1749   5.191   3.719   4.480
  284SOL     OW 1750   5.181   5.967   2.568
  284SOL    HW1 1751   5.268   5.938   2.529
  284SOL    HW2 1752   5.106   5.925   2.516
  285SOL     OW 1753   4.118   0.876   5.815
  285SOL    HW1 1754   4.060   0.954   5.839
  285SOL    HW2 1755   4.209   0.890   5.852
  286SOL     OW 1756   2.427   5.103   5.367
  286SOL    HW1 1757   2.393   5.191   5.400
  286SOL    HW2 1758   2.410   5.033   5.436
  287SOL     OW 1759   3.966   6.869   0.032
  287SOL    HW1 1760   3.886   6.904   0.082
  287SOL    HW2 1761   3.995   6.782   0.072
  288SOL     OW 1762   4.736   1.954   0.346
  288SOL    HW1 1763   4.784   1.898   0.279
  288SOL    HW2 1764   4.698   2.035   0.301
  289SOL     OW 1765   6.212   5.716   3.826
  289SOL    HW1 1766   6.239   5.735   3.920
  289SOL    HW2 1767   6.142   5.782   3.797
  290SOL     OW 1768   3.687   0.754   6.017
  290SOL    HW1 1769   3.697   0.750   5.917
  290SOL    HW2 1770   3.666   0.848   6.044
  291SOL     OW 1771   3.964   0.239   5.515
  291SOL    HW1 1772   3.961   0.186   5.430
  291SOL    HW2 1773   4.025   0.317   5.503
  292SOL     OW 1774   3.926   0.134   3.868
  292SOL    HW1 1775   3.833   0.111   3.896
  292SOL    HW2 1776   3.968   0.193   3.937
  293SOL     OW 1777   5.468   6.288   2.708
  293SOL    HW1 1778   5.471   6.275   2.609
  293SOL    HW2 1779   5.437   6.381   2.729
  294SOL     OW 1780   6.479   1.239   6.409
  294SOL    HW1 1781   6.501   1.148   6.373
  294SOL    HW2 1782   6.532   1.308   6.360
  295SOL     OW 1783   1.029   0.377   4.623
  295SOL    HW1 1784   1.046   0.287   4.583
  295SOL    HW2 1785   1.115   0.428   4.627
  296SOL     OW 1786   0.729   2.030   2.032
  296SOL    HW1 1787   0.719   1.931   2.049
  296SOL    HW2 1788   0.653   2.062   1.975
  297SOL     OW 1789   5.119   3.370   3.537
  297SOL    HW1 1790   5.195   3.435   3.549
  297SOL    HW2 1791   5.137   3.288   3.592
  298SOL     OW 1792   4.339   0.893   5.945
  298SOL    HW1 1793   4.358   0.839   6.027
  298SOL    HW2 1794   4.393   0.978   5.948
  299SOL     OW 1795   1.065   0.692   6.715
  299SOL    HW1 1796   1.146   0.681   6.657
  299SOL    HW2 1797   1.057   0.614   6.777
  300SOL     OW 1798   4.493   6.809   3.362
  300SOL    HW1 1799   4.585   6.817   3.323
  300SOL    HW2 1800   4.500   6.791   3.460
  301SOL     OW 1801   6.379   5.378   6.679
  301SOL    HW1 1802   6.474   5.346   6.683
  301SOL    HW2 1803   6.373   5.455   6.616
  302SOL     OW 1804   6.784   6.253   2.426
  302SOL    HW1 1805   6.857   6.251   2.357
  302SOL    HW2 1806   6.750   6.160   2.440
  303SOL     OW 1807   5.808   5.873   3.578
  303SOL    HW1 1808   5.782   5.803   3.645
  303SOL    HW2 1809   5.900   5.906   3.599
  304SOL     OW 1810   2.376   6.174   4.712
  304SOL    HW1 1811   2.346   6.146   4.803
  304SOL    HW2 1812   2.475   6.189   4.713
  305SOL     OW 1813   1.008   2.489   1.941
  305SOL    HW1 1814   0.996   2.473   2.039
  305SOL    HW2 1815   1.104   2.507   1.922
  306SOL     OW 1816   0.060   6.439   3.087
  306SOL    HW1 1817   0.143   6.493   3.105
  306SOL    HW2 1818   7.008   6.481   3.134
  307SOL     OW 1819   3.679   3.253   4.095
  307SOL    HW1 1820   3.725   3.167   4.116
  307SOL    HW2 1821   3.717   3.292   4.011
  308SOL     OW 1822   6.366   2.113   2.696
  308SOL    HW1 1823   6.361   2.059   2.780
  308SOL    HW2 1824   6.451   2.167   2.696
  309SOL     OW 1825   1.827   5.457   6.296
  309SOL    HW1 1826   1.742   5.479   6.248
  309SOL    HW2 1827   1.830   5.359   6.315
  310SOL     OW 1828   5.647   6.659   5.042
  310SOL    HW1 1829   5.629   6.561   5.055
  310SOL    HW2 1830   5.607   6.689   4.955
  311SOL     OW 1831   1.863   5.957   2.411
  311SOL    HW1 1832   1.847   5.975   2.314
  311SOL    HW2 1833   1.882   6.043   2.458
  312SOL     OW 1834   3.252   0.081   3.925
  312SOL    HW1 1835   3.301   0.134   3.995
  312SOL    HW2 1836   3.191   0.141   3.873
  313SOL     OW 1837   2.937   3.503   2.534
  313SOL    HW1 1838   2.915   3.473   2.441
  313SOL    HW2 1839   3.014   3.567   2.531
  314SOL     OW 1840   3.003   5.342   6.133
  314SOL    HW1 1841   2.923   5.284   6.151
  314SOL    HW2 1842   2.978   5.438   6.149
  315SOL     OW 1843   6.084   0.640   4.450
  315SOL    HW1 1844   6.081   0.740   4.448
  315SOL    HW2 1845   6.123   0.607   4.363
  316SOL     OW 1846   4.161   1.093   6.092
  316SOL    HW1 1847   4.217   1.116   6.172
  316SOL    HW2 1848   4.155   0.994   6.083
  317SOL     OW 1849   0.869   2.174   1.342
  317SOL    HW1 1850   0.897   2.081   1.367
  317SOL    HW2 1851   0.928   2.207   1.268
  318SOL     OW 1852   0.824   0.010   5.514
  318SOL    HW1 1853   0.779   6.962   5.565
  318SOL    HW2 1854   0.845   0.086   5.575
  319SOL     OW 1855   6.735   0.799   3.829
  319SOL    HW1 1856   6.806   0.852   3.784
  319SOL    HW2 1857   6.716   0.838   3.919
  320SOL     OW 1858   5.546   2.072   6.403
  320SOL    HW1 1859   5.463   2.022   6.377
  320SOL    HW2 1860   5.523   2.141   6.472
  321SOL     OW 1861   5.158   2.894   0.605
  321SOL    HW1 1862   5.190   2.839   0.681
  321SOL    HW2 1863   5.059   2.910   0.615
  322SOL     OW 1864   3.220   2.634   6.427
  322SOL    HW1 1865   3.281   2.579   6.484
  322SOL    HW2 1866   3.201   2.720   6.473
  323SOL     OW 1867   1.980   3.905   3.013
  323SOL    HW1 1868   2.033   3.963   2.951
  323SOL    HW2 1869   1.891   3.946   3.029
  324SOL     OW 1870   0.506   0.009   2.635
  324SOL    HW1 1871   0.413   7.001   2.646
  324SOL    HW2 1872   0.562   7.005   2.713
  325SOL     OW 1873   0.183   4.275   0.583
  325SOL    HW1 1874   0.163   4.241   0.675
  325SOL    HW2 1875   0.258   4.222   0.543
  326SOL     OW 1876   0.715   6.041   6.730
  326SOL    HW1 1877   0.786   6.007   6.670
  326SOL    HW2 1878   0.756   6.088   6.808
  327SOL     OW 1879   4.962   5.086   5.010
  327SOL    HW1 1880   4.909   5.077   5.095
  327SOL    HW2 1881   5.047   5.033   5.018
  328SOL     OW 1882   1.272   4.804   3.267
  328SOL    HW1 1883   1.183   4.761   3.282
  328SOL    HW2 1884   1.261   4.903   3.261
  329SOL     OW 1885   3.033   3.318   1.406
  329SOL    HW1 1886   3.006   3.236   1.459
  329SOL    HW2 1887   3.080   3.289   1.323
  330SOL     OW 1888   3.156   3.819   0.656
  330SOL    HW1 1889   3.116   3.879   0.587
  330SOL    HW2 1890   3.105   3.827   0.741
  331SOL     OW 1891   6.287   4.683   5.577
  331SOL    HW1 1892   6.357   4.679   5.649
  331SOL    HW2 1893   6.200   4.648   5.614
  332SOL     OW 1894   5.756   2.422   2.861
  332SOL    HW1 1895   5.718   2.508   2.826
  332SOL    HW2 1896   5.856   2.424   2.853
  333SOL     OW 1897   3.495   0.722   4.901
  333SOL    HW1 1898   3.411   0.738   4.952
  333SOL    HW2 1899   3.495   0.776   4.817
  334SOL     OW 1900   3.659   3.816   3.279
  334SOL    HW1 1901   3.747   3.831   3.234
  334SOL    HW2 1902   3.675   3.784   3.373
  335SOL     OW 1903   4.134   1.558   1.109
  335SOL    HW1 1904   4.232   1.555   1.090
  335SOL    HW2 1905   4.084   1.519   1.032
  336SOL     OW 1906   3.388   1.473   4.704
  336SOL    HW1 1907   3.441   1.466   4.620
  336SOL    HW2 1908   3.328   1.393   4.713
  337SOL     OW 1909   0.619   0.830   5.399
  337SOL    HW1 1910   0.610   0.923   5.436
  337SOL    HW2 1911   0.702   0.824   5.344
  338SOL     OW 1912   4.483   1.320   1.164
  338SOL    HW1 1913   4.432   1.380   1.102
  338SOL    HW2 1914   4.576   1.355   1.175
  339SOL     OW 1915   3.892   5.715   6.139
  339SOL    HW1 1916   3.937   5.796   6.102
  339SOL    HW2 1917   3.865   5.655   6.065
  340SOL     OW 1918   5.105   2.162   4.190
  340SOL    HW1 1919   5.133   2.114   4.107
  340SOL    HW2 1920   5.012   2.134   4.214
  341SOL     OW 1921   6.554   6.239   2.953
  341SOL    HW1 1922   6.529   6.170   2.885
  341SOL    HW2 1923   6.543   6.330   2.913
  342SOL     OW 1924   4.888   1.775   2.370
  342SOL    HW1 1925   4.799   1.818   2.385
  342SOL    HW2 1926   4.879   1.702   2.302
  343SOL     OW 1927   6.791   6.833   2.226
  343SOL    HW1 1928   6.829   6.924   2.212
  343SOL    HW2 1929   6.810   6.776   2.147
  344SOL     OW 1930   0.519   2.227   1.182
  344SOL    HW1 1931   0.577   2.299   1.143
  344SOL    HW2 1932   0.527   2.228   1.282
  345SOL     OW 1933   6.687   2.626   4.206
  345SOL    HW1 1934   6.668   2.559   4.134
  345SOL    HW2 1935   6.608   2.634   4.266
  346SOL     OW 1936   2.311   6.389   3.833
  346SOL    HW1 1937   2.303   6.345   3.922
  346SOL    HW2 1938   2.236   6.454   3.820
  347SOL     OW 1939   2.411   4.342   0.415
  347SOL    HW1 1940   2.364   4.263   0.454
  347SOL    HW2 1941   2.372   4.426   0.453
  348SOL     OW 1942   4.432   5.132   1.421
  348SOL    HW1 1943   4.394   5.087   1.501
  348SOL    HW2 1944   4.532   5.126   1.424
  349SOL     OW 1945   5.995   4.126   1.042
  349SOL    HW1 1946   5.999   4.026   1.039
  349SOL    HW2 1947   5.929   4.159   0.975
  350SOL     OW 1948   3.500   2.603   0.083
  350SOL    HW1 1949   3.521   2.630   7.014
  350SOL    HW2 1950   3.415   2.646   0.112
  351SOL     OW 1951   3.384   4.534   1.123
  351SOL    HW1 1952   3.407   4.478   1.043
  351SOL    HW2 1953   3.335   4.479   1.190
  352SOL     OW 1954   4.776   0.290   2.894
  352SOL    HW1 1955   4.810   0.216   2.835
  352SOL    HW2 1956   4.813   0.377   2.863
  353SOL     OW 1957   1.598   0.360   6.780
  353SOL    HW1 1958   1.576   0.457   6.788
  353SOL    HW2 1959   1.599   0.334   6.684
  354SOL     OW 1960   0.164   2.332   0.440
  354SOL    HW1 1961   0.246   2.281   0.466
  354SOL    HW2 1962   0.180   2.430   0.454
  355SOL     OW 1963   0.796   2.454   2.919
  355SOL    HW1 1964   0.702   2.482   2.941
  355SOL    HW2 1965   0.836   2.407   2.997
  356SOL     OW 1966   1.851   1.004   5.593
  356SOL    HW1 1967   1.788   0.946   5.541
  356SOL    HW2 1968   1.920   0.947   5.637
  357SOL     OW 1969   5.376   6.949   4.847
  357SOL    HW1 1970   5.452   7.007   4.880
  357SOL    HW2 1971   5.292   6.973   4.896
  358SOL     OW 1972   3.337   6.093   6.663
  358SOL    HW1 1973   3.332   6.082   6.762
  358SOL    HW2 1974   3.288   6.017   6.618
  359SOL     OW 1975   1.475   2.229   2.567
  359SOL    HW1 1976   1.524   2.155   2.614
  359SOL    HW2 1977   1.483   2.216   2.468
  360SOL     OW 1978   0.934   4.653   4.179
  360SOL    HW1 1979   0.897   4.632   4.088
  360SOL    HW2 1980   0.992   4.735   4.173
  361SOL     OW 1981   6.652   1.804   2.412
  361SOL    HW1 1982   6.693   1.775   2.325
  361SOL    HW2 1983   6.715   1.781   2.487
  362SOL     OW 1984   3.837   3.785   0.638
  362SOL    HW1 1985   3.919   3.843   0.647
  362SOL    HW2 1986   3.795   3.774   0.728
  363SOL     OW 1987   5.423   5.411   1.582
  363SOL    HW1 1988   5.458   5.428   1.674
  363SOL    HW2 1989   5.426   5.495   1.529
  364SOL     OW 1990   1.054   6.697   6.424
  364SOL    HW1 1991   0.984   6.627   6.408
  364SOL    HW2 1992   1.043   6.771   6.358
  365SOL     OW 1993   5.215   1.813   3.654
  365SOL    HW1 1994   5.176   1.764   3.576
  365SOL    HW2 1995   5.148   1.816   3.728
  366SOL     OW 1996   5.718   1.620   6.524
  366SOL    HW1 1997   5.747   1.571   6.606
  366SOL    HW2 1998   5.743   1.566   6.443
  367SOL     OW 1999   5.941   1.350   6.347
  367SOL    HW1 2000   5.874   1.420   6.325
  367SOL    HW2 2001   5.894   1.263   6.361
  368SOL     OW 2002   0.166   2.451   5.434
  368SOL    HW1 2003   0.211   2.410   5.355
  368SOL    HW2 2004   0.200   2.409   5.517
  369SOL     OW 2005   6.825   3.652   1.740
  369SOL    HW1 2006   6.747   3.628   1.682
  369SOL    HW2 2007   6.877   3.569   1.761
  370SOL     OW 2008   1.565   3.178   4.109
  370SOL    HW1 2009   1.583   3.089   4.065
  370SOL    HW2 2010   1.467   3.193   4.114
  371SOL     OW 2011   0.758   4.911   6.741
  371SOL    HW1 2012   0.729   4.830   6.791
  371SOL    HW2 2013   0.680   4.947   6.689
  372SOL     OW 2014   3.834   6.117   6.449
  372SOL    HW1 2015   3.879   6.038   6.490
  372SOL    HW2 2016   3.735   6.110   6.463
  373SOL     OW 2017   5.692   5.227   3.515
  373SOL    HW1 2018   5.612   5.279   3.543
  373SOL    HW2 2019   5.739   5.192   3.597
  374SOL     OW 2020   2.630   0.852   2.998
  374SOL    HW1 2021   2.616   0.931   2.939
  374SOL    HW2 2022   2.727   0.844   3.021
  375SOL     OW 2023   0.942   5.175   4.274
  375SOL    HW1 2024   0.932   5.249   4.339
  375SOL    HW2 2025   0.892   5.095   4.306
  376SOL     OW 2026   3.000   0.964   3.774
  376SOL    HW1 2027   2.979   1.059   3.800
  376SOL    HW2 2028   3.008   0.909   3.857
  377SOL     OW 2029   1.453   2.026   0.169
  377SOL    HW1 2030   1.498   2.107   0.134
  377SOL    HW2 2031   1.468   1.949   0.107
  378SOL     OW 2032   4.168   1.577   2.099
  378SOL    HW1 2033   4.198   1.587   2.194
  378SOL    HW2 2034   4.075   1.611   2.089
  379SOL     OW 2035   5.289   1.861   6.052
  379SOL    HW1 2036   5.323   1.767   6.063
  379SOL    HW2 2037   5.320   1.915   6.130
  380SOL     OW 2038   4.390   2.495   0.329
  380SOL    HW1 2039   4.422   2.507   0.235
  380SOL    HW2 2040   4.449   2.547   0.391
  381SOL     OW 2041   1.765   3.868   3.286
  381SOL    HW1 2042   1.807   3.816   3.211
  381SOL    HW2 2043   1.738   3.805   3.359
  382SOL     OW 2044   4.642   0.872   6.603
  382SOL    HW1 2045   4.723   0.814   6.590
  382SOL    HW2 2046   4.560   0.818   6.584
  383SOL     OW 2047   5.129   1.914   0.760
  383SOL    HW1 2048   5.211   1.965   0.733
  383SOL    HW2 2049   5.128   1.826   0.712
  384SOL     OW 2050   6.335   3.767   4.619
  384SOL    HW1 2051   6.347   3.844   4.557
  384SOL    HW2 2052   6.285   3.798   4.701
  385SOL     OW 2053   4.121   3.137   0.004
  385SOL    HW1 2054   4.212   3.166   7.001
  385SOL    HW2 2055   4.055   3.160   6.958
  386SOL     OW 2056   3.896   6.021   4.122
  386SOL    HW1 2057   3.851   6.039   4.210
  386SOL    HW2 2058   3.832   5.975   4.060
  387SOL     OW 2059   3.125   6.720   3.835
  387SOL    HW1 2060   3.151   6.639   3.887
  387SOL    HW2 2061   3.186   6.730   3.756
  388SOL     OW 2062   1.532   4.644   6.985
  388SOL    HW1 2063   1.526   4.571   0.028
  388SOL    HW2 2064   1.533   4.733   0.006
  389SOL     OW 2065   3.108   3.155   2.579
  389SOL    HW1 2066   3.064   3.207   2.651
  389SOL    HW2 2067   3.155   3.076   2.618
  390SOL     OW 2068   2.544   1.402   4.107
  390SOL    HW1 2069   2.500   1.426   4.020
  390SOL    HW2 2070   2.547   1.483   4.166
  391SOL     OW 2071   0.739   2.607   6.457
  391SOL    HW1 2072   0.797   2.661   6.397
  391SOL    HW2 2073   0.750   2.510   6.436
  392SOL     OW 2074   2.944   5.682   3.207
  392SOL    HW1 2075   2.877   5.675   3.281
  392SOL    HW2 2076   3.030   5.640   3.237
  393SOL     OW 2077   6.139   4.250   5.175
  393SOL    HW1 2078   6.169   4.228   5.268
  393SOL    HW2 2079   6.204   4.212   5.110
  394SOL     OW 2080   2.534   0.142   6.802
  394SOL    HW1 2081   2.455   0.174   6.750
  394SOL    HW2 2082   2.598   0.095   6.741
  395SOL     OW 2083   6.586   3.309   0.800
  395SOL    HW1 2084   6.639   3.381   0.755
  395SOL    HW2 2085   6.585   3.324   0.899
  396SOL     OW 2086   3.079   3.104   4.478
  396SOL    HW1 2087   3.085   3.070   4.385
  396SOL    HW2 2088   3.143   3.053   4.536
  397SOL     OW 2089   4.396   2.310   6.499
  397SOL    HW1 2090   4.331   2.385   6.511
  397SOL    HW2 2091   4.366   2.251   6.424
  398SOL     OW 2092   1.427   5.083   2.097
  398SOL    HW1 2093   1.509   5.135   2.073
  398SOL    HW2 2094   1.371   5.136   2.161
  399SOL     OW 2095   5.212   5.198   2.063
  399SOL    HW1 2096   5.298   5.200   2.114
  399SOL    HW2 2097   5.136   5.185   2.126
  400SOL     OW 2098   1.375   5.565   5.536
  400SOL    HW1 2099   1.454   5.609   5.495
  400SOL    HW2 2100   1.340   5.494   5.474
  401SOL     OW 2101   5.468   1.265   6.504
  401SOL    HW1 2102   5.566   1.281   6.516
  401SOL    HW2 2103   5.417   1.344   6.539
  402SOL     OW 2104   5.869   5.012   1.129
  402SOL    HW1 2105   5.911   5.095   1.093
  402SOL    HW2 2106   5.941   4.950   1.162
  403SOL     OW 2107   5.608   3.642   6.607
  403SOL    HW1 2108   5.612   3.587   6.690
  403SOL    HW2 2109   5.700   3.664   6.577
  404SOL     OW 2110   0.218   6.770   4.523
  404SOL    HW1 2111   0.263   6.840   4.577
  404SOL    HW2 2112   0.286   6.708   4.485
  405SOL     OW 2113   0.794   2.362   0.542
  405SOL    HW1 2114   0.727   2.346   0.469
  405SOL    HW2 2115   0.884   2.379   0.502
  406SOL     OW 2116   1.687   3.140   3.535
  406SOL    HW1 2117   1.753   3.186   3.475
  406SOL    HW2 2118   1.627   3.081   3.481
  407SOL     OW 2119   2.851   0.704   4.387
  407SOL    HW1 2120   2.880   0.621   4.339
  407SOL    HW2 2121   2.753   0.699   4.405
  408SOL     OW 2122   1.451   0.281   2.996
  408SOL    HW1 2123   1.545   0.248   3.005
  408SOL    HW2 2124   1.398   0.251   3.076
  409SOL     OW 2125   6.188   3.546   3.767
  409SOL    HW1 2126   6.114   3.492   3.727
  409SOL    HW2 2127   6.237   3.594   3.695
  410SOL     OW 2128   2.828   1.426   6.467
  410SOL    HW1 2129   2.763   1.374   6.412
  410SOL    HW2 2130   2.780   1.499   6.516
  411SOL     OW 2131   6.719   4.060   5.083
  411SOL    HW1 2132   6.727   4.154   5.116
  411SOL    HW2 2133   6.626   4.027   5.101
  412SOL     OW 2134   3.506   0.258   2.390
  412SOL    HW1 2135   3.419   0.304   2.373
  412SOL    HW2 2136   3.492   0.181   2.452
  413SOL     OW 2137   2.389   0.177   0.977
  413SOL    HW1 2138   2.398   0.080   0.998
  413SOL    HW2 2139   2.475   0.211   0.940
  414SOL     OW 2140   4.076   3.926   0.571
  414SOL    HW1 2141   4.092   3.876   0.485
  414SOL    HW2 2142   4.156   3.915   0.631
  415SOL     OW 2143   3.094   6.622   2.043
  415SOL    HW1 2144   3.037   6.601   1.964
  415SOL    HW2 2145   3.177   6.668   2.013
  416SOL     OW 2146   3.601   5.870   5.169
  416SOL    HW1 2147   3.505   5.855   5.194
  416SOL    HW2 2148   3.652   5.786   5.182
  417SOL     OW 2149   4.940   6.019   1.150
  417SOL    HW1 2150   5.027   5.983   1.115
  417SOL    HW2 2151   4.940   6.015   1.250
  418SOL     OW 2152   5.481   4.900   0.859
  418SOL    HW1 2153   5.559   4.886   0.920
  418SOL    HW2 2154   5.501   4.862   0.769
  419SOL     OW 2155   5.902   6.485   1.098
  419SOL    HW1 2156   5.923   6.565   1.154
  419SOL    HW2 2157   5.901   6.511   1.001
  420SOL     OW 2158   4.223   4.097   0.107
  420SOL    HW1 2159   4.187   4.005   0.096
  420SOL    HW2 2160   4.283   4.119   0.030
  421SOL     OW 2161   1.740   6.438   6.621
  421SOL    HW1 2162   1.769   6.497   6.697
  421SOL    HW2 2163   1.683   6.364   6.656
  422SOL     OW 2164   5.902   3.333   6.776
  422SOL    HW1 2165   5.938   3.346   6.868
  422SOL    HW2 2166   5.878   3.236   6.763
  423SOL     OW 2167   0.366   2.534   6.754
  423SOL    HW1 2168   0.283   2.536   6.699
  423SOL    HW2 2169   0.424   2.458   6.724
  424SOL     OW 2170   2.120   3.571   0.106
  424SOL    HW1 2171   2.060   3.649   0.123
  424SOL    HW2 2172   2.199   3.575   0.168
  425SOL     OW 2173   2.846   1.266   0.468
  425SOL    HW1 2174   2.779   1.337   0.444
  425SOL    HW2 2175   2.875   1.278   0.563
  426SOL     OW 2176   5.777   4.070   5.423
  426SOL    HW1 2177   5.825   4.072   5.335
  426SOL    HW2 2178   5.762   3.975   5.450
  427SOL     OW 2179   5.160   4.010   0.945
  427SOL    HW1 2180   5.105   3.929   0.928
  427SOL    HW2 2181   5.156   4.033   1.042
  428SOL     OW 2182   3.916   0.834   4.976
  428SOL    HW1 2183   3.997   0.870   4.931
  428SOL    HW2 2184   3.870   0.908   5.026
  429SOL     OW 2185   1.968   5.084   6.339
  429SOL    HW1 2186   1.983   5.099   6.437
  429SOL    HW2 2187   2.047   5.116   6.288
  430SOL     OW 2188   1.326   0.149   5.226
  430SOL    HW1 2189   1.248   0.153   5.287
  430SOL    HW2 2190   1.303   0.193   5.139
  431SOL     OW 2191   3.665   1.874   0.516
  431SOL    HW1 2192   3.589   1.935   0.495
  431SOL    HW2 2193   3.714   1.909   0.597
  432SOL     OW 2194   0.161   1.852   1.258
  432SOL    HW1 2195   0.167   1.855   1.158
  432SOL    HW2 2196   0.103   1.928   1.290
  433SOL     OW 2197   3.522   6.169   5.605
  433SOL    HW1 2198   3.574   6.095   5.649
  433SOL    HW2 2199   3.550   6.176   5.510
  434SOL     OW 2200   0.248   3.580   1.456
  434SOL    HW1 2201   0.290   3.615   1.540
  434SOL    HW2 2202   0.312   3.591   1.380
  435SOL     OW 2203   3.502   4.262   0.268
  435SOL    HW1 2204   3.499   4.256   0.168
  435SOL    HW2 2205   3.513   4.170   0.306
  436SOL     OW 2206   2.106   1.078   6.851
  436SOL    HW1 2207   2.020   1.069   6.801
  436SOL    HW2 2208   2.154   1.160   6.821
  437SOL     OW 2209   0.132   6.974   6.804
  437SOL    HW1 2210   0.057   6.930   6.854
  437SOL    HW2 2211   0.106   6.984   6.708
  438SOL     OW 2212   1.232   2.852   1.942
  438SOL    HW1 2213   1.287   2.783   1.894
  438SOL    HW2 2214   1.288   2.932   1.961
  439SOL     OW 2215   6.775   5.233   3.130
  439SOL    HW1 2216   6.783   5.134   3.144
  439SOL    HW2 2217   6.704   5.269   3.190
  440SOL     OW 2218   0.912   2.907   4.082
  440SOL    HW1 2219   0.878   2.819   4.048
  440SOL    HW2 2220   0.884   2.919   4.177
  441SOL     OW 2221   0.311   1.086   3.722
  441SOL    HW1 2222   0.363   1.128   3.796
  441SOL    HW2 2223   0.374   1.036   3.662
  442SOL     OW 2224   0.171   4.237   0.239
  442SOL    HW1 2225   0.248   4.287   0.279
  442SOL    HW2 2226   0.203   4.149   0.205
  443SOL     OW 2227   0.412   4.341   5.680
  443SOL    HW1 2228   0.474   4.383   5.614
  443SOL    HW2 2229   0.404   4.243   5.661
  444SOL     OW 2230   4.198   3.280   6.203
  444SOL    HW1 2231   4.173   3.211   6.134
  444SOL    HW2 2232   4.117   3.334   6.226
  445SOL     OW 2233   2.210   4.794   2.952
  445SOL    HW1 2234   2.132   4.732   2.954
  445SOL    HW2 2235   2.192   4.872   3.012
  446SOL     OW 2236   4.815   4.727   3.562
  446SOL    HW1 2237   4.864   4.641   3.578
  446SOL    HW2 2238   4.725   4.722   3.604
  447SOL     OW 2239   6.432   5.717   0.796
  447SOL    HW1 2240   6.435   5.817   0.791
  447SOL    HW2 2241   6.480   5.687   0.879
  448SOL     OW 2242   4.369   0.287   5.087
  448SOL    HW1 2243   4.380   0.232   5.170
  448SOL    HW2 2244   4.316   0.236   5.019
  449SOL     OW 2245   5.322   0.101   4.660
  449SOL    HW1 2246   5.270   0.043   4.597
  449SOL    HW2 2247   5.352   0.046   4.738
  450SOL     OW 2248   6.724   6.241   3.706
  450SOL    HW1 2249   6.752   6.337   3.695
  450SOL    HW2 2250   6.795   6.181   3.670
  451SOL     OW 2251   0.440   2.737   3.254
  451SOL    HW1 2252   0.439   2.717   3.156
  451SOL    HW2 2253   0.353   2.779   3.280
  452SOL     OW 2254   6.895   4.917   6.446
  452SOL    HW1 2255   6.823   4.986   6.442
  452SOL    HW2 2256   6.942   4.922   6.535
  453SOL     OW 2257   2.431   1.142   6.104
  453SOL    HW1 2258   2.421   1.118   6.200
  453SOL    HW2 2259   2.520   1.111   6.071
  454SOL     OW 2260   1.065   6.030   7.023
  454SOL    HW1 2261   1.164   6.032   0.016
  454SOL    HW2 2262   1.036   5.935   7.008
  455SOL     OW 2263   5.268   0.886   5.894
  455SOL    HW1 2264   5.191   0.867   5.833
  455SOL    HW2 2265   5.349   0.909   5.840
  456SOL     OW 2266   4.367   5.711   6.145
  456SOL    HW1 2267   4.277   5.678   6.175
  456SOL    HW2 2268   4.418   5.746   6.223
  457SOL     OW 2269   2.091   4.921   2.643
  457SOL    HW1 2270   2.141   5.007   2.654
  457SOL    HW2 2271   2.156   4.845   2.645
  458SOL     OW 2272   6.417   5.480   6.024
  458SOL    HW1 2273   6.379   5.458   6.114
  458SOL    HW2 2274   6.395   5.574   6.001
  459SOL     OW 2275   1.731   0.481   2.796
  459SOL    HW1 2276   1.705   0.532   2.878
  459SOL    HW2 2277   1.661   0.412   2.777
  460SOL     OW 2278   6.238   2.141   3.106
  460SOL    HW1 2279   6.258   2.086   3.025
  460SOL    HW2 2280   6.274   2.233   3.095
  461SOL     OW 2281   4.552   5.988   5.371
  461SOL    HW1 2282   4.633   6.005   5.426
  461SOL    HW2 2283   4.474   6.036   5.411
  462SOL     OW 2284   2.908   3.072   6.639
  462SOL    HW1 2285   2.915   3.133   6.560
  462SOL    HW2 2286   3.000   3.056   6.677
  463SOL     OW 2287   6.636   5.167   2.175
  463SOL    HW1 2288   6.623   5.125   2.264
  463SOL    HW2 2289   6.667   5.261   2.186
  464SOL     OW 2290   2.263   1.414   5.352
  464SOL    HW1 2291   2.166   1.400   5.333
  464SOL    HW2 2292   2.318   1.353   5.294
  465SOL     OW 2293   6.621   2.423   4.036
  465SOL    HW1 2294   6.536   2.434   3.985
  465SOL    HW2 2295   6.666   2.338   4.009
  466SOL     OW 2296   1.292   6.992   3.783
  466SOL    HW1 2297   1.305   0.048   3.839
  466SOL    HW2 2298   1.196   6.964   3.786
  467SOL     OW 2299   1.476   0.691   5.403
  467SOL    HW1 2300   1.423   0.607   5.390
  467SOL    HW2 2301   1.498   0.702   5.500
  468SOL     OW 2302   3.762   4.819   1.122
  468SOL    HW1 2303   3.690   4.790   1.186
  468SOL    HW2 2304   3.739   4.788   1.030
  469SOL     OW 2305   1.984   5.555   6.848
  469SOL    HW1 2306   1.961   5.557   6.751
  469SOL    HW2 2307   1.909   5.515   6.899
  470SOL     OW 2308   3.842   0.574   2.730
  470SOL    HW1 2309   3.819   0.581   2.633
  470SOL    HW2 2310   3.897   0.492   2.745
  471SOL     OW 2311   2.204   2.490   4.780
  471SOL    HW1 2312   2.173   2.396   4.796
  471SOL    HW2 2313   2.303   2.490   4.767
  472SOL     OW 2314   4.018   4.718   5.661
  472SOL    HW1 2315   3.937   4.731   5.603
  472SOL    HW2 2316   4.098   4.700   5.603
  473SOL     OW 2317   1.457   3.480   2.823
  473SOL    HW1 2318   1.360   3.491   2.845
  473SOL    HW2 2319   1.512   3.527   2.891
  474SOL     OW 2320   4.349   5.051   4.510
  474SOL    HW1 2321   4.409   5.124   4.543
  474SOL    HW2 2322   4.254   5.079   4.517
  475SOL     OW 2323   0.208   6.673   6.141
  475SOL    HW1 2324   0.214   6.579   6.172
  475SOL    HW2 2325   0.168   6.730   6.213
  476SOL     OW 2326   6.786   4.402   2.251
  476SOL    HW1 2327   6.802   4.354   2.337
  476SOL    HW2 2328   6.695   4.444   2.252
  477SOL     OW 2329   1.824   5.299   3.843
  477SOL    HW1 2330   1.898   5.266   3.901
  477SOL    HW2 2331   1.794   5.226   3.781
  478SOL     OW 2332   2.848   5.038   3.381
  478SOL    HW1 2333   2.788   5.031   3.301
  478SOL    HW2 2334   2.851   4.950   3.428
  479SOL     OW 2335   3.773   2.502   0.528
  479SOL    HW1 2336   3.749   2.584   0.477
  479SOL    HW2 2337   3.867   2.475   0.506
  480SOL     OW 2338   1.011   6.957   2.631
  480SOL    HW1 2339   1.091   6.943   2.573
  480SOL    HW2 2340   0.993   6.875   2.685
  481SOL     OW 2341   4.051   0.142   1.447
  481SOL    HW1 2342   3.963   0.099   1.430
  481SOL    HW2 2343   4.099   0.155   1.360
  482SOL     OW 2344   5.587   4.407   2.037
  482SOL    HW1 2345   5.538   4.485   1.998
  482SOL    HW2 2346   5.541   4.378   2.122
  483SOL     OW 2347   5.853   1.917   1.780
  483SOL    HW1 2348   5.768   1.908   1.728
  483SOL    HW2 2349   5.885   2.011   1.776
  484SOL     OW 2350   0.195   2.318   4.165
  484SOL    HW1 2351   0.117   2.289   4.111
  484SOL    HW2 2352   0.272   2.257   4.148
  485SOL     OW 2353   3.734   4.941   2.182
  485SOL    HW1 2354   3.678   4.894   2.114
  485SOL    HW2 2355   3.674   4.992   2.245
  486SOL     OW 2356   0.350   0.171   0.765
  486SOL    HW1 2357   0.379   0.076   0.775
  486SOL    HW2 2358   0.262   0.175   0.718
  487SOL     OW 2359   0.117   2.311   6.893
  487SOL    HW1 2360   0.156   2.388   6.943
  487SOL    HW2 2361   0.031   2.339   6.850
  488SOL     OW 2362   0.384   2.454   2.228
  488SOL    HW1 2363   0.326   2.377   2.257
  488SOL    HW2 2364   0.365   2.533   2.286
  489SOL     OW 2365   3.199   5.876   6.525
  489SOL    HW1 2366   3.191   5.781   6.554
  489SOL    HW2 2367   3.109   5.920   6.530
  490SOL     OW 2368   5.738   6.505   4.718
  490SOL    HW1 2369   5.736   6.466   4.810
  490SOL    HW2 2370   5.645   6.528   4.690
  491SOL     OW 2371   0.784   2.831   2.822
  491SOL    HW1 2372   0.873   2.874   2.836
  491SOL    HW2 2373   0.796   2.739   2.787
  492SOL     OW 2374   2.113   0.459   5.693
  492SOL    HW1 2375   2.111   0.539   5.633
  492SOL    HW2 2376   2.040   0.396   5.667
  493SOL     OW 2377   6.811   4.460   5.299
  493SOL    HW1 2378   6.727   4.435   5.347
  493SOL    HW2 2379   6.809   4.422   5.207
  494SOL     OW 2380   0.090   0.232   0.664
  494SOL    HW1 2381   0.038   0.196   0.741
  494SOL    HW2 2382   0.055   0.194   0.579
  495SOL     OW 2383   4.881   4.364   1.504
  495SOL    HW1 2384   4.781   4.369   1.514
  495SOL    HW2 2385   4.912   4.440   1.446
  496SOL     OW 2386   6.079   3.181   3.042
  496SOL    HW1 2387   6.121   3.094   3.018
  496SOL    HW2 2388   5.986   3.166   3.074
  497SOL     OW 2389   3.865   0.608   4.788
  497SOL    HW1 2390   3.901   0.519   4.817
  497SOL    HW2 2391   3.833   0.659   4.868
  498SOL     OW 2392   1.011   3.127   2.650
  498SOL    HW1 2393   1.055   3.120   2.740
  498SOL    HW2 2394   1.046   3.055   2.590
  499SOL     OW 2395   3.523   0.960   5.142
  499SOL    HW1 2396   3.532   0.861   5.157
  499SOL    HW2 2397   3.539   0.981   5.046
  500SOL     OW 2398   0.923   3.893   2.714
  500SOL    HW1 2399   0.971   3.972   2.751
  500SOL    HW2 2400   0.829   3.891   2.749
  501SOL     OW 2401   1.472   3.160   6.803
  501SOL    HW1 2402   1.509   3.243   6.844
  501SOL    HW2 2403   1.468   3.170   6.704
  502SOL     OW 2404   3.885   5.114   0.199
  502SOL    HW1 2405   3.898   5.126   0.100
  502SOL    HW2 2406   3.893   5.017   0.222
  503SOL     OW 2407   5.876   4.916   5.576
  503SOL    HW1 2408   5.873   4.847   5.504
  503SOL    HW2 2409   5.787   4.961   5.584
  504SOL     OW 2410   2.282   6.253   4.464
  504SOL    HW1 2411   2.183   6.245   4.452
  504SOL    HW2 2412   2.308   6.209   4.550
  505SOL     OW 2413   4.255   0.335   6.072
  505SOL    HW1 2414   4.324   0.346   6.001
  505SOL    HW2 2415   4.263   0.408   6.139
  506SOL     OW 2416   2.099   4.297   6.085
  506SOL    HW1 2417   2.002   4.316   6.071
  506SOL    HW2 2418   2.139   4.369   6.142
  507SOL     OW 2419   3.593   1.152   4.479
  507SOL    HW1 2420   3.655   1.082   4.515
  507SOL    HW2 2421   3.551   1.119   4.394
  508SOL     OW 2422   6.734   3.847   3.459
  508SOL    HW1 2423   6.659   3.892   3.411
  508SOL    HW2 2424   6.722   3.857   3.557
  509SOL     OW 2425   4.330   1.817   1.761
  509SOL    HW1 2426   4.336   1.890   1.693
  509SOL    HW2 2427   4.234   1.797   1.781
  510SOL     OW 2428   6.993   4.059   4.573
  510SOL    HW1 2429   6.902   4.102   4.576
  510SOL    HW2 2430   7.010   4.024   4.481
  511SOL     OW 2431   0.579   6.885   0.643
  511SOL    HW1 2432   0.593   6.956   0.574
  511SOL    HW2 2433   0.643   6.810   0.626
  512SOL     OW 2434   0.985   3.697   6.301
  512SOL    HW1 2435   0.988   3.796   6.292
  512SOL    HW2 2436   1.048   3.668   6.373
  513SOL     OW 2437   6.121   6.431   4.908
  513SOL    HW1 2438   6.131   6.396   4.815
  513SOL    HW2 2439   6.129   6.531   4.906
  514SOL     OW 2440   5.853   1.750   3.762
  514SOL    HW1 2441   5.952   1.732   3.760
  514SOL    HW2 2442   5.827   1.801   3.680
  515SOL     OW 2443   2.123   6.402   6.546
  515SOL    HW1 2444   2.075   6.364   6.467
  515SOL    HW2 2445   2.066   6.393   6.628
  516SOL     OW 2446   2.221   5.146   2.105
  516SOL    HW1 2447   2.162   5.096   2.041
  516SOL    HW2 2448   2.313   5.153   2.067
  517SOL     OW 2449   4.555   6.843   0.490
  517SOL    HW1 2450   4.573   6.768   0.554
  517SOL    HW2 2451   4.599   6.927   0.523
  518SOL     OW 2452   2.765   2.399   1.356
  518SOL    HW1 2453   2.817   2.353   1.284
  518SOL    HW2 2454   2.669   2.402   1.330
  519SOL     OW 2455   1.004   6.622   6.821
  519SOL    HW1 2456   0.976   6.552   6.756
  519SOL    HW2 2457   0.967   6.600   6.912
  520SOL     OW 2458   5.507   4.571   5.475
  520SOL    HW1 2459   5.543   4.640   5.539
  520SOL    HW2 2460   5.560   4.487   5.484
  521SOL     OW 2461   6.842   1.526   0.555
  521SOL    HW1 2462   6.747   1.546   0.527
  521SOL    HW2 2463   6.865   1.583   0.634
  522SOL     OW 2464   3.969   3.572   4.117
  522SOL    HW1 2465   3.875   3.558   4.085
  522SOL    HW2 2466   4.007   3.486   4.149
  523SOL     OW 2467   6.985   6.730   4.788
  523SOL    HW1 2468   6.989   6.645   4.737
  523SOL    HW2 2469   6.912   6.725   4.856
  524SOL     OW 2470   2.678   0.616   5.703
  524SOL    HW1 2471   2.596   0.658   5.664
  524SOL    HW2 2472   2.671   0.616   5.803
  525SOL     OW 2473   2.616   3.413   0.024
  525SOL    HW1 2474   2.713   3.392   0.033
  525SOL    HW2 2475   2.591   3.420   6.953
  526SOL     OW 2476   3.542   5.333   4.934
  526SOL    HW1 2477   3.595   5.258   4.894
  526SOL    HW2 2478   3.590   5.419   4.919
  527SOL     OW 2479   0.539   1.218   6.528
  527SOL    HW1 2480   0.570   1.307   6.495
  527SOL    HW2 2481   0.581   1.199   6.617
  528SOL     OW 2482   2.642   1.144   5.436
  528SOL    HW1 2483   2.556   1.137   5.488
  528SOL    HW2 2484   2.631   1.098   5.348
  529SOL     OW 2485   0.361   5.156   4.329
  529SOL    HW1 2486   0.407   5.122   4.247
  529SOL    HW2 2487   0.416   5.228   4.370
  530SOL     OW 2488   2.218   3.021   5.291
  530SOL    HW1 2489   2.199   3.107   5.245
  530SOL    HW2 2490   2.316   3.002   5.288
  531SOL     OW 2491   0.651   0.256   1.274
  531SOL    HW1 2492   0.552   0.272   1.274
  531SOL    HW2 2493   0.673   0.182   1.210
  532SOL     OW 2494   1.219   1.274   5.795
  532SOL    HW1 2495   1.316   1.257   5.807
  532SOL    HW2 2496   1.205   1.334   5.716
  533SOL     OW 2497   5.790   0.292   4.369
  533SOL    HW1 2498   5.696   0.259   4.371
  533SOL    HW2 2499   5.838   0.262   4.452
  534SOL     OW 2500   4.660   5.386   2.306
  534SOL    HW1 2501   4.579   5.435   2.340
  534SOL    HW2 2502   4.709   5.444   2.240
  535SOL     OW 2503   0.378   3.877   3.380
  535SOL    HW1 2504   0.337   3.811   3.317
  535SOL    HW2 2505   0.306   3.934   3.420
  536SOL     OW 2506   1.677   5.614   0.927
  536SOL    HW1 2507   1.688   5.622   1.026
  536SOL    HW2 2508   1.580   5.596   0.905
  537SOL     OW 2509   2.384   7.007   2.335
  537SOL    HW1 2510   2.428   0.029   2.259
  537SOL    HW2 2511   2.450   6.991   2.408
  538SOL     OW 2512   0.823   5.893   3.707
  538SOL    HW1 2513   0.908   5.862   3.665
  538SOL    HW2 2514   0.750   5.829   3.685
  539SOL     OW 2515   1.547   4.770   1.603
  539SOL    HW1 2516   1.557   4.740   1.698
  539SOL    HW2 2517   1.495   4.701   1.552
  540SOL     OW 2518   1.290   2.205   2.076
  540SOL    HW1 2519   1.215   2.162   2.127
  540SOL    HW2 2520   1.265   2.299   2.053
  541SOL     OW 2521   2.749   5.672   5.887
  541SOL    HW1 2522   2.734   5.751   5.828
  541SOL    HW2 2523   2.798   5.601   5.837
  542SOL     OW 2524   5.841   5.489   6.657
  542SOL    HW1 2525   5.871   5.581   6.683
  542SOL    HW2 2526   5.741   5.488   6.648
  543SOL     OW 2527   0.629   5.235   6.821
  543SOL    HW1 2528   0.554   5.261   6.882
  543SOL    HW2 2529   0.595   5.230   6.727
  544SOL     OW 2530   1.206   5.192   0.808
  544SOL    HW1 2531   1.153   5.121   0.854
  544SOL    HW2 2532   1.303   5.182   0.831
  545SOL     OW 2533   3.876   1.412   2.643
  545SOL    HW1 2534   3.845   1.495   2.688
  545SOL    HW2 2535   3.826   1.333   2.680
  546SOL     OW 2536   1.059   4.047   0.190
  546SOL    HW1 2537   1.052   4.094   0.102
  546SOL    HW2 2538   1.094   3.955   0.175
  547SOL     OW 2539   3.015   3.079   0.250
  547SOL    HW1 2540   2.979   3.150   0.311
  547SOL    HW2 2541   3.092   3.116   0.198
  548SOL     OW 2542   3.490   2.893   4.015
  548SOL    HW1 2543   3.402   2.903   4.062
  548SOL    HW2 2544   3.475   2.887   3.917
  549SOL     OW 2545   5.881   3.512   1.541
  549SOL    HW1 2546   5.970   3.556   1.556
  549SOL    HW2 2547   5.816   3.543   1.610
  550SOL     OW 2548   0.780   4.255   2.222
  550SOL    HW1 2549   0.682   4.270   2.220
  550SOL    HW2 2550   0.818   4.268   2.130
  551SOL     OW 2551   6.594   2.351   0.538
  551SOL    HW1 2552   6.538   2.413   0.592
  551SOL    HW2 2553   6.541   2.315   0.462
  552SOL     OW 2554   4.046   5.949   0.062
  552SOL    HW1 2555   3.979   5.876   0.049
  552SOL    HW2 2556   4.000   6.032   0.092
  553SOL     OW 2557   1.644   1.585   1.762
  553SOL    HW1 2558   1.734   1.575   1.718
  553SOL    HW2 2559   1.619   1.681   1.764
  554SOL     OW 2560   5.305   6.418   5.190
  554SOL    HW1 2561   5.399   6.446   5.172
  554SOL    HW2 2562   5.304   6.341   5.254
  555SOL     OW 2563   1.408   4.449   4.788
  555SOL    HW1 2564   1.312   4.478   4.782
  555SOL    HW2 2565   1.413   4.355   4.822
  556SOL     OW 2566   5.295   3.110   4.097
  556SOL    HW1 2567   5.358   3.035   4.078
  556SOL    HW2 2568   5.347   3.190   4.127
  557SOL     OW 2569   0.309   6.413   6.184
  557SOL    HW1 2570   0.225   6.387   6.233
  557SOL    HW2 2571   0.386   6.410   6.247
  558SOL     OW 2572   3.859   4.148   5.090
  558SOL    HW1 2573   3.936   4.176   5.148
  558SOL    HW2 2574   3.774   4.155   5.142
  559SOL     OW 2575   6.437   5.969   6.102
  559SOL    HW1 2576   6.354   5.918   6.123
  559SOL    HW2 2577   6.490   5.919   6.033
  560SOL     OW 2578   4.404   6.878   0.046
  560SOL    HW1 2579   4.398   6.873   0.146
  560SOL    HW2 2580   4.408   6.786   0.008
  561SOL     OW 2581   5.381   6.876   0.749
  561SOL    HW1 2582   5.357   6.954   0.691
  561SOL    HW2 2583   5.385   6.905   0.844
  562SOL     OW 2584   5.865   1.701   5.568
  562SOL    HW1 2585   5.793   1.671   5.505
  562SOL    HW2 2586   5.916   1.621   5.600
  563SOL     OW 2587   2.862   6.488   4.032
  563SOL    HW1 2588   2.906   6.571   4.067
  563SOL    HW2 2589   2.829   6.505   3.939
  564SOL     OW 2590   1.050   1.111   6.481
  564SOL    HW1 2591   1.055   1.121   6.581
  564SOL    HW2 2592   1.075   1.017   6.456
  565SOL     OW 2593   4.880   3.999   4.922
  565SOL    HW1 2594   4.888   3.910   4.878
  565SOL    HW2 2595   4.866   4.069   4.852
  566SOL     OW 2596   5.183   4.802   2.879
  566SOL    HW1 2597   5.097   4.844   2.849
  566SOL    HW2 2598   5.169   4.760   2.969
  567SOL     OW 2599   3.568   2.958   4.415
  567SOL    HW1 2600   3.499   2.944   4.345
  567SOL    HW2 2601   3.532   3.020   4.485
  568SOL     OW 2602   2.298   1.958   0.249
  568SOL    HW1 2603   2.386   1.961   0.297
  568SOL    HW2 2604   2.232   1.905   0.303
  569SOL     OW 2605   2.439   2.834   0.589
  569SOL    HW1 2606   2.460   2.879   0.676
  569SOL    HW2 2607   2.361   2.880   0.546
  570SOL     OW 2608   6.514   6.064   1.219
  570SOL    HW1 2609   6.527   6.048   1.316
  570SOL    HW2 2610   6.597   6.038   1.169
  571SOL     OW 2611   4.293   5.449   3.422
  571SOL    HW1 2612   4.196   5.475   3.419
  571SOL    HW2 2613   4.343   5.499   3.351
  572SOL     OW 2614   1.722   3.727   5.149
  572SOL    HW1 2615   1.735   3.628   5.142
  572SOL    HW2 2616   1.710   3.766   5.058
  573SOL     OW 2617   3.969   2.099   6.125
  573SOL    HW1 2618   4.002   2.191   6.107
  573SOL    HW2 2619   3.870   2.100   6.138
  574SOL     OW 2620   2.561   1.611   4.302
  574SOL    HW1 2621   2.558   1.704   4.337
  574SOL    HW2 2622   2.524   1.548   4.371
  575SOL     OW 2623   5.517   2.422   6.862
  575SOL    HW1 2624   5.471   2.506   6.893
  575SOL    HW2 2625   5.587   2.446   6.794
  576SOL     OW 2626   0.652   2.148   2.761
  576SOL    HW1 2627   0.741   2.191   2.762
  576SOL    HW2 2628   0.618   2.144   2.666
  577SOL     OW 2629   3.024   1.854   3.474
  577SOL    HW1 2630   3.002   1.883   3.381
  577SOL    HW2 2631   2.990   1.923   3.539
  578SOL     OW 2632   6.876   3.329   3.632
  578SOL    HW1 2633   6.831   3.265   3.694
  578SOL    HW2 2634   6.935   3.391   3.684
  579SOL     OW 2635   4.310   3.294   6.653
  579SOL    HW1 2636   4.387   3.271   6.593
  579SOL    HW2 2637   4.331   3.264   6.746
  580SOL     OW 2638   0.827   5.791   0.167
  580SOL    HW1 2639   0.860   5.783   0.073
  580SOL    HW2 2640   0.773   5.875   0.176
  581SOL     OW 2641   3.870   3.975   2.795
  581SOL    HW1 2642   3.813   3.995   2.715
  581SOL    HW2 2643   3.816   3.985   2.878
  582SOL     OW 2644   6.109   3.755   1.941
  582SOL    HW1 2645   6.040   3.799   1.884
  582SOL    HW2 2646   6.198   3.797   1.924
  583SOL     OW 2647   2.107   4.644   6.885
  583SOL    HW1 2648   2.040   4.718   6.891
  583SOL    HW2 2649   2.103   4.602   6.795
  584SOL     OW 2650   0.240   5.371   4.666
  584SOL    HW1 2651   0.321   5.323   4.700
  584SOL    HW2 2652   0.166   5.362   4.733
  585SOL     OW 2653   0.397   1.355   0.041
  585SOL    HW1 2654   0.360   1.321   6.979
  585SOL    HW2 2655   0.325   1.405   0.090
  586SOL     OW 2656   2.982   6.433   0.909
  586SOL    HW1 2657   3.003   6.459   1.003
  586SOL    HW2 2658   2.916   6.358   0.908
  587SOL     OW 2659   1.014   2.913   5.167
  587SOL    HW1 2660   1.055   2.865   5.089
  587SOL    HW2 2661   0.916   2.925   5.152
  588SOL     OW 2662   3.382   0.032   1.707
  588SOL    HW1 2663   3.438   7.011   1.775
  588SOL    HW2 2664   3.433   0.107   1.666
  589SOL     OW 2665   4.840   5.160   2.753
  589SOL    HW1 2666   4.881   5.174   2.663
  589SOL    HW2 2667   4.753   5.209   2.758
  590SOL     OW 2668   7.003   2.358   1.613
  590SOL    HW1 2669   7.021   2.274   1.664
  590SOL    HW2 2670   0.036   2.431   1.647
  591SOL     OW 2671   3.577   6.779   3.105
  591SOL    HW1 2672   3.634   6.861   3.114
  591SOL    HW2 2673   3.621   6.715   3.041
  592SOL     OW 2674   5.676   0.763   0.061
  592SOL    HW1 2675   5.708   0.702   0.134
  592SOL    HW2 2676   5.667   0.710   7.002
  593SOL     OW 2677   5.462   1.792   3.749
  593SOL    HW1 2678   5.535   1.860   3.747
  593SOL    HW2 2679   5.378   1.831   3.712
  594SOL     OW 2680   4.566   2.675   1.281
  594SOL    HW1 2681   4.478   2.701   1.243
  594SOL    HW2 2682   4.587   2.733   1.360
  595SOL     OW 2683   3.299   6.553   4.055
  595SOL    HW1 2684   3.283   6.623   4.124
  595SOL    HW2 2685   3.230   6.481   4.064
  596SOL     OW 2686   0.989   4.787   2.473
  596SOL    HW1 2687   0.941   4.866   2.433
  596SOL    HW2 2688   1.088   4.803   2.468
  597SOL     OW 2689   3.953   2.140   5.797
  597SOL    HW1 2690   3.882   2.200   5.758
  597SOL    HW2 2691   3.920   2.102   5.883
  598SOL     OW 2692   3.174   4.293   0.863
  598SOL    HW1 2693   3.128   4.306   0.775
  598SOL    HW2 2694   3.273   4.293   0.849
  599SOL     OW 2695   6.730   6.488   2.548
  599SOL    HW1 2696   6.730   6.400   2.499
  599SOL    HW2 2697   6.779   6.556   2.493
  600SOL     OW 2698   2.557   0.025   0.109
  600SOL    HW1 2699   2.567   0.077   0.194
  600SOL    HW2 2700   2.505   0.079   0.042
  601SOL     OW 2701   3.258   5.186   3.855
  601SOL    HW1 2702   3.288   5.165   3.762
  601SOL    HW2 2703   3.263   5.285   3.870
  602SOL     OW 2704   1.424   1.129   1.325
  602SOL    HW1 2705   1.433   1.061   1.252
  602SOL    HW2 2706   1.509   1.132   1.377
  603SOL     OW 2707   3.853   2.144   3.283
  603SOL    HW1 2708   3.761   2.156   3.246
  603SOL    HW2 2709   3.904   2.080   3.224
  604SOL     OW 2710   0.431   4.094   5.891
  604SOL    HW1 2711   0.371   4.086   5.811
  604SOL    HW2 2712   0.396   4.166   5.951
  605SOL     OW 2713   5.760   0.394   4.826
  605SOL    HW1 2714   5.814   0.341   4.761
  605SOL    HW2 2715   5.821   0.437   4.892
  606SOL     OW 2716   3.491   0.304   3.329
  606SOL    HW1 2717   3.480   0.380   3.265
  606SOL    HW2 2718   3.588   0.288   3.345
  607SOL     OW 2719   4.608   0.978   4.225
  607SOL    HW1 2720   4.703   1.002   4.207
  607SOL    HW2 2721   4.605   0.893   4.277
  608SOL     OW 2722   4.722   1.456   1.251
  608SOL    HW1 2723   4.740   1.497   1.162
  608SOL    HW2 2724   4.704   1.528   1.318
  609SOL     OW 2725   3.404   4.151   4.218
  609SOL    HW1 2726   3.370   4.062   4.187
  609SOL    HW2 2727   3.389   4.160   4.317
  610SOL     OW 2728   4.902   2.372   4.646
  610SOL    HW1 2729   4.932   2.325   4.729
  610SOL    HW2 2730   4.813   2.336   4.618
  611SOL     OW 2731   0.429   6.933   1.022
  611SOL    HW1 2732   0.427   6.880   1.106
  611SOL    HW2 2733   0.508   6.994   1.023
  612SOL     OW 2734   3.436   5.516   5.677
  612SOL    HW1 2735   3.413   5.419   5.667
  612SOL    HW2 2736   3.363   5.562   5.726
  613SOL     OW 2737   3.537   2.163   6.809
  613SOL    HW1 2738   3.635   2.142   6.819
  613SOL    HW2 2739   3.483   2.084   6.838
  614SOL     OW 2740   5.069   4.536   1.300
  614SOL    HW1 2741   5.133   4.465   1.271
  614SOL    HW2 2742   5.010   4.561   1.222
  615SOL     OW 2743   6.122   6.650   0.914
  615SOL    HW1 2744   6.119   6.562   0.867
  615SOL    HW2 2745   6.058   6.713   0.871
  616SOL     OW 2746   5.609   1.477   4.941
  616SOL    HW1 2747   5.561   1.392   4.960
  616SOL    HW2 2748   5.690   1.458   4.885
  617SOL     OW 2749   0.102   4.990   5.567
  617SOL    HW1 2750   0.199   5.005   5.589
  617SOL    HW2 2751   0.047   5.060   5.613
  618SOL     OW 2752   6.404   3.855   0.811
  618SOL    HW1 2753   6.368   3.937   0.767
  618SOL    HW2 2754   6.365   3.847   0.903
  619SOL     OW 2755   2.907   0.377   6.093
  619SOL    HW1 2756   2.954   0.443   6.034
  619SOL    HW2 2757   2.809   0.379   6.074
  620SOL     OW 2758   6.365   1.860   2.247
  620SOL    HW1 2759   6.395   1.786   2.188
  620SOL    HW2 2760   6.375   1.833   2.343
  621SOL     OW 2761   2.942   1.058   6.738
  621SOL    HW1 2762   2.922   1.101   6.650
  621SOL    HW2 2763   2.873   1.086   6.805
  622SOL     OW 2764   1.386   1.992   4.909
  622SOL    HW1 2765   1.439   1.916   4.948
  622SOL    HW2 2766   1.448   2.054   4.862
  623SOL     OW 2767   6.109   0.391   3.922
  623SOL    HW1 2768   6.066   0.411   4.011
  623SOL    HW2 2769   6.040   0.392   3.851
  624SOL     OW 2770   6.632   0.728   6.470
  624SOL    HW1 2771   6.582   0.658   6.521
  624SOL    HW2 2772   6.615   0.716   6.372
  625SOL     OW 2773   2.364   1.898   0.580
  625SOL    HW1 2774   2.375   1.860   0.672
  625SOL    HW2 2775   2.278   1.865   0.540
  626SOL     OW 2776   6.721   5.585   3.851
  626SOL    HW1 2777   6.711   5.541   3.941
  626SOL    HW2 2778   6.730   5.515   3.781
  627SOL     OW 2779   6.338   0.465   0.247
  627SOL    HW1 2780   6.297   0.395   0.306
  627SOL    HW2 2781   6.382   0.534   0.304
  628SOL     OW 2782   4.286   4.314   5.839
  628SOL    HW1 2783   4.366   4.363   5.804
  628SOL    HW2 2784   4.317   4.240   5.899
  629SOL     OW 2785   1.407   6.613   6.343
  629SOL    HW1 2786   1.355   6.675   6.284
  629SOL    HW2 2787   1.375   6.624   6.437
  630SOL     OW 2788   6.221   1.263   1.555
  630SOL    HW1 2789   6.172   1.230   1.474
  630SOL    HW2 2790   6.285   1.192   1.586
  631SOL     OW 2791   1.696   2.940   3.724
  631SOL    HW1 2792   1.704   3.000   3.645
  631SOL    HW2 2793   1.665   2.850   3.695
  632SOL     OW 2794   3.714   3.996   6.686
  632SOL    HW1 2795   3.673   3.905   6.688
  632SOL    HW2 2796   3.755   4.012   6.596
  633SOL     OW 2797   1.596   6.288   1.592
  633SOL    HW1 2798   1.659   6.271   1.517
  633SOL    HW2 2799   1.550   6.202   1.617
  634SOL     OW 2800   3.229   2.948   4.696
  634SOL    HW1 2801   3.146   2.956   4.751
  634SOL    HW2 2802   3.282   2.868   4.727
  635SOL     OW 2803   5.447   0.445   6.653
  635SOL    HW1 2804   5.496   0.457   6.739
  635SOL    HW2 2805   5.365   0.503   6.652
  636SOL     OW 2806   2.884   0.465   5.720
  636SOL    HW1 2807   2.860   0.368   5.719
  636SOL    HW2 2808   2.806   0.520   5.691
  637SOL     OW 2809   6.578   0.318   2.740
  637SOL    HW1 2810   6.666   0.354   2.772
  637SOL    HW2 2811   6.562   0.228   2.780
  638SOL     OW 2812   6.900   3.367   4.445
  638SOL    HW1 2813   6.886   3.334   4.538
  638SOL    HW2 2814   6.859   3.458   4.436
  639SOL     OW 2815   5.425   4.658   2.271
  639SOL    HW1 2816   5.350   4.596   2.293
  639SOL    HW2 2817   5.486   4.666   2.350
  640SOL     OW 2818   0.452   2.606   1.821
  640SOL    HW1 2819   0.543   2.602   1.779
  640SOL    HW2 2820   0.461   2.607   1.920
  641SOL     OW 2821   2.073   4.864   4.356
  641SOL    HW1 2822   2.139   4.856   4.282
  641SOL    HW2 2823   2.116   4.910   4.434
  642SOL     OW 2824   1.175   4.085   4.919
  642SOL    HW1 2825   1.118   4.104   5.000
  642SOL    HW2 2826   1.122   4.104   4.836
  643SOL     OW 2827   4.842   5.096   0.841
  643SOL    HW1 2828   4.905   5.030   0.882
  643SOL    HW2 2829   4.855   5.185   0.885
  644SOL     OW 2830   0.096   6.921   5.109
  644SOL    HW1 2831   0.066   6.857   5.179
  644SOL    HW2 2832   0.018   6.947   5.052
  645SOL     OW 2833   4.137   5.363   2.348
  645SOL    HW1 2834   4.075   5.286   2.359
  645SOL    HW2 2835   4.099   5.443   2.394
  646SOL     OW 2836   3.824   1.980   4.622
  646SOL    HW1 2837   3.745   1.972   4.561
  646SOL    HW2 2838   3.828   1.902   4.683
  647SOL     OW 2839   4.070   2.542   5.749
  647SOL    HW1 2840   4.034   2.473   5.811
  647SOL    HW2 2841   3.999   2.608   5.727
  648SOL     OW 2842   6.034   1.303   3.002
  648SOL    HW1 2843   6.068   1.223   2.953
  648SOL    HW2 2844   6.051   1.386   2.948
  649SOL     OW 2845   2.152   5.610   0.384
  649SOL    HW1 2846   2.236   5.562   0.411
  649SOL    HW2 2847   2.086   5.605   0.459
  650SOL     OW 2848   0.079   3.767   0.888
  650SOL    HW1 2849   0.041   3.755   0.980
  650SOL    HW2 2850   0.178   3.751   0.891
  651SOL     OW 2851   1.253   0.505   4.569
  651SOL    HW1 2852   1.254   0.601   4.541
  651SOL    HW2 2853   1.238   0.447   4.489
  652SOL     OW 2854   3.721   6.226   1.935
  652SOL    HW1 2855   3.689   6.319   1.915
  652SOL    HW2 2856   3.670   6.160   1.880
  653SOL     OW 2857   1.076   0.342   2.116
  653SOL    HW1 2858   1.006   0.413   2.108
  653SOL    HW2 2859   1.060   0.289   2.199
  654SOL     OW 2860   0.449   6.676   4.821
  654SOL    HW1 2861   0.403   6.591   4.843
  654SOL    HW2 2862   0.385   6.752   4.828
  655SOL     OW 2863   0.259   4.139   1.990
  655SOL    HW1 2864   0.205   4.088   1.923
  655SOL    HW2 2865   0.352   4.101   1.994
  656SOL     OW 2866   3.657   5.964   0.279
  656SOL    HW1 2867   3.684   5.944   0.373
  656SOL    HW2 2868   3.582   6.030   0.279
  657SOL     OW 2869   3.816   3.341   2.631
  657SOL    HW1 2870   3.847   3.382   2.545
  657SOL    HW2 2871   3.891   3.290   2.672
  658SOL     OW 2872   1.756   1.655   5.193
  658SOL    HW1 2873   1.730   1.562   5.168
  658SOL    HW2 2874   1.853   1.657   5.218
  659SOL     OW 2875   1.843   5.714   6.105
  659SOL    HW1 2876   1.878   5.782   6.169
  659SOL    HW2 2877   1.773   5.659   6.151
  660SOL     OW 2878   4.736   4.559   2.879
  660SOL    HW1 2879   4.671   4.560   2.955
  660SOL    HW2 2880   4.728   4.644   2.828
  661SOL     OW 2881   4.788   4.160   4.423
  661SOL    HW1 2882   4.827   4.251   4.434
  661SOL    HW2 2883   4.849   4.093   4.467
  662SOL     OW 2884   5.134   3.222   6.661
  662SOL    HW1 2885   5.174   3.265   6.580
  662SOL    HW2 2886   5.035   3.216   6.651
  663SOL     OW 2887   7.022   4.213   0.038
  663SOL    HW1 2888   0.045   4.181   0.120
  663SOL    HW2 2889   6.928   4.181   0.040
  664SOL     OW 2890   1.918   6.701   6.857
  664SOL    HW1 2891   1.895   6.738   6.767
  664SOL    HW2 2892   2.013   6.668   6.856
  665SOL     OW 2893   3.368   5.166   1.515
  665SOL    HW1 2894   3.306   5.225   1.566
  665SOL    HW2 2895   3.352   5.071   1.540
  666SOL     OW 2896   2.852   1.003   0.359
  666SOL    HW1 2897   2.778   1.055   0.402
  666SOL    HW2 2898   2.939   1.032   0.397
  667SOL     OW 2899   0.804   3.479   3.740
  667SOL    HW1 2900   0.751   3.477   3.825
  667SOL    HW2 2901   0.887   3.424   3.751
  668SOL     OW 2902   5.319   0.026   0.538
  668SOL    HW1 2903   5.281   7.002   0.459
  668SOL    HW2 2904   5.252   0.091   0.573
  669SOL     OW 2905   2.088   6.108   2.935
  669SOL    HW1 2906   2.117   6.076   2.845
  669SOL    HW2 2907   1.992   6.136   2.931
  670SOL     OW 2908   3.699   2.878   3.282
  670SOL    HW1 2909   3.652   2.917   3.203
  670SOL    HW2 2910   3.790   2.847   3.254
  671SOL     OW 2911   0.965   6.881   6.214
  671SOL    HW1 2912   0.965   6.969   6.261
  671SOL    HW2 2913   0.911   6.887   6.130
  672SOL     OW 2914   2.395   1.936   3.804
  672SOL    HW1 2915   2.383   1.898   3.895
  672SOL    HW2 2916   2.450   1.873   3.748
  673SOL     OW 2917   5.801   6.484   0.717
  673SOL    HW1 2918   5.736   6.408   0.716
  673SOL    HW2 2919   5.754   6.569   0.695
  674SOL     OW 2920   6.631   1.837   3.362
  674SOL    HW1 2921   6.650   1.828   3.459
  674SOL    HW2 2922   6.566   1.767   3.334
  675SOL     OW 2923   5.846   1.384   4.789
  675SOL    HW1 2924   5.927   1.441   4.804
  675SOL    HW2 2925   5.837   1.364   4.691
  676SOL     OW 2926   1.976   4.780   4.831
  676SOL    HW1 2927   1.943   4.727   4.752
  676SOL    HW2 2928   2.075   4.768   4.839
  677SOL     OW 2929   4.971   6.775   1.277
  677SOL    HW1 2930   4.954   6.677   1.270
  677SOL    HW2 2931   4.890   6.826   1.249
  678SOL     OW 2932   2.325   1.586   5.974
  678SOL    HW1 2933   2.240   1.548   5.938
  678SOL    HW2 2934   2.312   1.684   5.993
  679SOL     OW 2935   5.626   6.576   2.823
  679SOL    HW1 2936   5.629   6.675   2.838
  679SOL    HW2 2937   5.531   6.545   2.819
  680SOL     OW 2938   5.481   4.082   5.117
  680SOL    HW1 2939   5.538   4.003   5.135
  680SOL    HW2 2940   5.511   4.127   5.032
  681SOL     OW 2941   2.006   6.706   2.094
  681SOL    HW1 2942   1.958   6.784   2.054
  681SOL    HW2 2943   2.092   6.691   2.045
  682SOL     OW 2944   1.433   6.333   0.108
  682SOL    HW1 2945   1.342   6.363   0.136
  682SOL    HW2 2946   1.493   6.413   0.100
  683SOL     OW 2947   5.201   2.009   0.299
  683SOL    HW1 2948   5.195   2.080   0.370
  683SOL    HW2 2949   5.295   2.000   0.268
  684SOL     OW 2950   0.195   5.881   6.712
  684SOL    HW1 2951   0.125   5.883   6.783
  684SOL    HW2 2952   0.282   5.911   6.751
  685SOL     OW 2953   6.083   1.217   5.872
  685SOL    HW1 2954   6.033   1.282   5.928
  685SOL    HW2 2955   6.146   1.165   5.929
  686SOL     OW 2956   5.485   4.585   3.189
  686SOL    HW1 2957   5.504   4.618   3.282
  686SOL    HW2 2958   5.571   4.557   3.146
  687SOL     OW 2959   6.131   2.496   4.560
  687SOL    HW1 2960   6.035   2.498   4.589
  687SOL    HW2 2961   6.156   2.584   4.522
  688SOL     OW 2962   0.254   3.561   4.809
  688SOL    HW1 2963   0.265   3.624   4.732
  688SOL    HW2 2964   0.263   3.467   4.778
  689SOL     OW 2965   6.161   4.048   5.608
  689SOL    HW1 2966   6.063   4.044   5.626
  689SOL    HW2 2967   6.207   4.098   5.682
  690SOL     OW 2968   0.796   2.591   3.477
  690SOL    HW1 2969   0.756   2.586   3.569
  690SOL    HW2 2970   0.895   2.602   3.485
  691SOL     OW 2971   0.600   3.247   6.883
  691SOL    HW1 2972   0.657   3.249   6.801
  691SOL    HW2 2973   0.552   3.159   6.889
  692SOL     OW 2974   1.774   6.883   3.477
  692SOL    HW1 2975   1.824   6.821   3.537
  692SOL    HW2 2976   1.686   6.906   3.520
  693SOL     OW 2977   6.599   0.873   2.607
  693SOL    HW1 2978   6.612   0.804   2.535
  693SOL    HW2 2979   6.570   0.959   2.566
  694SOL     OW 2980   1.687   0.581   2.233
  694SOL    HW1 2981   1.692   0.500   2.175
  694SOL    HW2 2982   1.645   0.557   2.321
  695SOL     OW 2983   4.086   5.927   6.118
  695SOL    HW1 2984   4.115   5.899   6.210
  695SOL    HW2 2985   4.166   5.942   6.060
  696SOL     OW 2986   4.408   5.659   2.924
  696SOL    HW1 2987   4.451   5.577   2.962
  696SOL    HW2 2988   4.351   5.633   2.846
  697SOL     OW 2989   1.362   4.001   4.073
  697SOL    HW1 2990   1.320   4.005   3.983
  697SOL    HW2 2991   1.306   3.944   4.133
  698SOL     OW 2992   3.727   6.524   3.748
  698SOL    HW1 2993   3.634   6.495   3.772
  698SOL    HW2 2994   3.776   6.553   3.830
  699SOL     OW 2995   2.097   4.499   0.084
  699SOL    HW1 2996   2.179   4.450   0.112
  699SOL    HW2 2997   2.110   4.538   7.018
  700SOL     OW 2998   2.302   1.155   3.942
  700SOL    HW1 2999   2.393   1.163   3.901
  700SOL    HW2 3000   2.310   1.158   4.042
  701SOL     OW 3001   0.722   4.852   5.960
  701SOL    HW1 3002   0.720   4.783   6.034
  701SOL    HW2 3003   0.656   4.924   5.981
  702SOL     OW 3004   5.570   5.206   5.159
  702SOL    HW1 3005   5.618   5.283   5.117
  702SOL    HW2 3006   5.471   5.219   5.149
  703SOL     OW 3007   4.359   3.860   0.208
  703SOL    HW1 3008   4.452   3.880   0.238
  703SOL    HW2 3009   4.352   3.870   0.109
  704SOL     OW 3010   2.611   0.287   0.862
  704SOL    HW1 3011   2.706   0.315   0.872
  704SOL    HW2 3012   2.601   0.229   0.781
  705SOL     OW 3013   6.114   2.658   3.215
  705SOL    HW1 3014   6.067   2.745   3.233
  705SOL    HW2 3015   6.058   2.583   3.250
  706SOL     OW 3016   4.151   2.138   3.743
  706SOL    HW1 3017   4.229   2.087   3.707
  706SOL    HW2 3018   4.083   2.148   3.671
  707SOL     OW 3019   4.887   1.603   1.484
  707SOL    HW1 3020   4.823   1.645   1.420
  707SOL    HW2 3021   4.977   1.644   1.472
  708SOL     OW 3022   4.090   0.806   1.681
  708SOL    HW1 3023   4.165   0.864   1.713
  708SOL    HW2 3024   4.003   0.854   1.692
  709SOL     OW 3025   1.142   5.133   6.963
  709SOL    HW1 3026   1.099   5.157   0.025
  709SOL    HW2 3027   1.240   5.155   6.967
  710SOL     OW 3028   3.036   3.795   2.496
  710SOL    HW1 3029   2.978   3.757   2.424
  710SOL    HW2 3030   3.007   3.888   2.517
  711SOL     OW 3031   0.942   0.519   3.769
  711SOL    HW1 3032   0.979   0.584   3.835
  711SOL    HW2 3033   0.884   0.453   3.816
  712SOL     OW 3034   1.346   4.011   1.545
  712SOL    HW1 3035   1.362   4.109   1.560
  712SOL    HW2 3036   1.308   3.998   1.453
  713SOL     OW 3037   4.081   3.270   3.205
  713SOL    HW1 3038   4.053   3.322   3.125
  713SOL    HW2 3039   4.088   3.331   3.284
  714SOL     OW 3040   4.818   5.068   5.258
  714SOL    HW1 3041   4.795   4.971   5.249
  714SOL    HW2 3042   4.736   5.120   5.282
  715SOL     OW 3043   4.318   0.484   6.293
  715SOL    HW1 3044   4.230   0.468   6.338
  715SOL    HW2 3045   4.393   0.457   6.354
  716SOL     OW 3046   6.757   4.687   1.673
  716SOL    HW1 3047   6.672   4.635   1.676
  716SOL    HW2 3048   6.781   4.717   1.765
  717SOL     OW 3049   6.055   3.085   0.337
  717SOL    HW1 3050   5.957   3.076   0.353
  717SOL    HW2 3051   6.092   2.998   0.306
  718SOL     OW 3052   3.660   3.723   6.626
  718SOL    HW1 3053   3.707   3.658   6.685
  718SOL    HW2 3054   3.665   3.691   6.531
  719SOL     OW 3055   5.170   4.539   0.125
  719SOL    HW1 3056   5.182   4.620   0.183
  719SOL    HW2 3057   5.091   4.487   0.156
  720SOL     OW 3058   2.264   0.669   6.230
  720SOL    HW1 3059   2.288   0.675   6.133
  720SOL    HW2 3060   2.232   0.576   6.251
  721SOL     OW 3061   1.687   6.950   6.160
  721SOL    HW1 3062   1.630   7.018   6.207
  721SOL    HW2 3063   1.652   6.858   6.180
  722SOL     OW 3064   4.400   0.013   5.805
  722SOL    HW1 3065   4.308   6.999   5.813
  722SOL    HW2 3066   4.464   6.986   5.863
  723SOL     OW 3067   1.492   3.101   2.135
  723SOL    HW1 3068   1.397   3.126   2.115
  723SOL    HW2 3069   1.530   3.165   2.202
  724SOL     OW 3070   6.673   1.106   4.803
  724SOL    HW1 3071   6.697   1.112   4.900
  724SOL    HW2 3072   6.749   1.064   4.753
  725SOL     OW 3073   2.144   5.559   0.918
  725SOL    HW1 3074   2.126   5.647   0.875
  725SOL    HW2 3075   2.070   5.538   0.983
  726SOL     OW 3076   4.189   0.082   6.726
  726SOL    HW1 3077   4.249   0.162   6.733
  726SOL    HW2 3078   4.094   0.110   6.744
  727SOL     OW 3079   2.732   4.654   4.241
  727SOL    HW1 3080   2.819   4.659   4.290
  727SOL    HW2 3081   2.667   4.600   4.294
  728SOL     OW 3082   6.910   3.462   4.899
  728SOL    HW1 3083   6.902   3.369   4.935
  728SOL    HW2 3084   6.994   3.504   4.934
  729SOL     OW 3085   3.123   0.212   0.977
  729SOL    HW1 3086   3.207   0.197   0.924
  729SOL    HW2 3087   3.100   0.128   1.026
  730SOL     OW 3088   6.214   0.337   4.594
  730SOL    HW1 3089   6.240   0.241   4.601
  730SOL    HW2 3090   6.273   0.392   4.653
  731SOL     OW 3091   6.073   3.377   3.312
  731SOL    HW1 3092   5.974   3.389   3.315
  731SOL    HW2 3093   6.110   3.423   3.231
  732SOL     OW 3094   0.205   3.092   2.075
  732SOL    HW1 3095   0.227   2.996   2.095
  732SOL    HW2 3096   0.266   3.152   2.126
  733SOL     OW 3097   4.663   4.317   3.481
  733SOL    HW1 3098   4.617   4.402   3.504
  733SOL    HW2 3099   4.653   4.298   3.383
  734SOL     OW 3100   7.022   4.638   0.853
  734SOL    HW1 3101   0.052   4.555   0.858
  734SOL    HW2 3102   6.965   4.636   0.771
  735SOL     OW 3103   1.346   4.532   6.604
  735SOL    HW1 3104   1.254   4.552   6.638
  735SOL    HW2 3105   1.400   4.616   6.602
  736SOL     OW 3106   5.962   1.222   3.294
  736SOL    HW1 3107   5.885   1.176   3.249
  736SOL    HW2 3108   6.012   1.156   3.350
  737SOL     OW 3109   5.728   3.729   0.566
  737SOL    HW1 3110   5.770   3.653   0.616
  737SOL    HW2 3111   5.637   3.701   0.534
  738SOL     OW 3112   0.501   4.134   4.265
  738SOL    HW1 3113   0.549   4.105   4.348
  738SOL    HW2 3114   0.437   4.063   4.238
  739SOL     OW 3115   4.972   6.131   6.963
  739SOL    HW1 3116   5.015   6.044   6.990
  739SOL    HW2 3117   5.039   6.205   6.971
  740SOL     OW 3118   5.657   6.815   1.215
  740SOL    HW1 3119   5.614   6.900   1.246
  740SOL    HW2 3120   5.586   6.752   1.183
  741SOL     OW 3121   1.988   0.788   2.883
  741SOL    HW1 3122   2.032   0.868   2.924
  741SOL    HW2 3123   2.024   0.705   2.924
  742SOL     OW 3124   1.051   7.023   3.453
  742SOL    HW1 3125   1.070   0.091   3.485
  742SOL    HW2 3126   0.956   7.000   3.473
  743SOL     OW 3127   1.856   4.013   4.357
  743SOL    HW1 3128   1.805   4.086   4.312
  743SOL    HW2 3129   1.914   4.052   4.429
  744SOL     OW 3130   0.734   6.127   1.081
  744SOL    HW1 3131   0.679   6.186   1.140
  744SOL    HW2 3132   0.707   6.140   0.985
  745SOL     OW 3133   1.794   5.732   2.899
  745SOL    HW1 3134   1.828   5.774   2.815
  745SOL    HW2 3135   1.730   5.658   2.876
  746SOL     OW 3136   1.688   0.346   4.749
  746SOL    HW1 3137   1.703   0.398   4.833
  746SOL    HW2 3138   1.634   0.264   4.769
  747SOL     OW 3139   5.373   4.941   2.724
  747SOL    HW1 3140   5.352   5.039   2.727
  747SOL    HW2 3141   5.306   4.891   2.780
  748SOL     OW 3142   4.353   3.410   1.492
  748SOL    HW1 3143   4.306   3.337   1.541
  748SOL    HW2 3144   4.423   3.370   1.431
  749SOL     OW 3145   6.974   1.691   5.307
  749SOL    HW1 3146   6.968   1.757   5.232
  749SOL    HW2 3147   0.019   1.623   5.286
  750SOL     OW 3148   2.637   4.119   0.678
  750SOL    HW1 3149   2.636   4.019   0.681
  750SOL    HW2 3150   2.568   4.155   0.741
  751SOL     OW 3151   4.631   0.787   0.278
  751SOL    HW1 3152   4.726   0.809   0.255
  751SOL    HW2 3153   4.576   0.870   0.280
  752SOL     OW 3154   5.221   1.846   2.030
  752SOL    HW1 3155   5.272   1.811   2.108
  752SOL    HW2 3156   5.203   1.771   1.966
  753SOL     OW 3157   1.903   2.639   4.070
  753SOL    HW1 3158   1.843   2.659   3.993
  753SOL    HW2 3159   1.962   2.562   4.048
  754SOL     OW 3160   4.770   5.571   6.823
  754SOL    HW1 3161   4.705   5.549   6.896
  754SOL    HW2 3162   4.751   5.515   6.743
  755SOL     OW 3163   0.182   6.423   1.364
  755SOL    HW1 3164   0.211   6.470   1.281
  755SOL    HW2 3165   0.136   6.488   1.425
  756SOL     OW 3166   4.799   0.086   3.602
  756SOL    HW1 3167   4.769   0.022   3.531
  756SOL    HW2 3168   4.798   0.179   3.566
  757SOL     OW 3169   0.544   0.535   3.402
  757SOL    HW1 3170   0.608   0.558   3.475
  757SOL    HW2 3171   0.593   0.497   3.324
  758SOL     OW 3172   4.147   2.487   1.101
  758SOL    HW1 3173   4.167   2.399   1.144
  758SOL    HW2 3174   4.057   2.518   1.131
  759SOL     OW 3175   1.732   1.669   0.155
  759SOL    HW1 3176   1.688   1.683   0.244
  759SOL    HW2 3177   1.672   1.614   0.097
  760SOL     OW 3178   4.503   1.675   6.194
  760SOL    HW1 3179   4.492   1.727   6.109
  760SOL    HW2 3180   4.497   1.737   6.272
  761SOL     OW 3181   6.174   2.494   6.517
  761SOL    HW1 3182   6.203   2.554   6.591
  761SOL    HW2 3183   6.104   2.540   6.462
  762SOL     OW 3184   2.484   5.575   3.752
  762SOL    HW1 3185   2.433   5.526   3.682
  762SOL    HW2 3186   2.523   5.510   3.817
  763SOL     OW 3187   4.532   6.143   6.670
  763SOL    HW1 3188   4.621   6.149   6.714
  763SOL    HW2 3189   4.481   6.066   6.709
  764SOL     OW 3190   4.203   0.993   2.229
  764SOL    HW1 3191   4.139   0.968   2.302
  764SOL    HW2 3192   4.294   0.956   2.251
  765SOL     OW 3193   0.159   6.746   3.375
  765SOL    HW1 3194   0.212   6.673   3.332
  765SOL    HW2 3195   0.221   6.816   3.411
  766SOL     OW 3196   0.133   6.381   6.843
  766SOL    HW1 3197   0.209   6.318   6.833
  766SOL    HW2 3198   0.075   6.352   6.919
  767SOL     OW 3199   5.636   0.042   2.368
  767SOL    HW1 3200   5.718   0.056   2.313
  767SOL    HW2 3201   5.633   0.109   2.442
  768SOL     OW 3202   3.100   6.425   3.485
  768SOL    HW1 3203   3.113   6.379   3.573
  768SOL    HW2 3204   3.002   6.439   3.468
  769SOL     OW 3205   3.927   1.100   5.906
  769SOL    HW1 3206   3.995   1.111   5.978
  769SOL    HW2 3207   3.956   1.153   5.825
  770SOL     OW 3208   3.304   4.996   4.210
  770SOL    HW1 3209   3.229   5.057   4.185
  770SOL    HW2 3210   3.357   4.973   4.129
  771SOL     OW 3211   0.748   5.465   4.043
  771SOL    HW1 3212   0.820   5.468   3.974
  771SOL    HW2 3213   0.687   5.544   4.031
  772SOL     OW 3214   6.754   4.351   5.927
  772SOL    HW1 3215   6.687   4.401   5.871
  772SOL    HW2 3216   6.757   4.255   5.897
  773SOL     OW 3217   0.217   4.329   2.454
  773SOL    HW1 3218   0.162   4.312   2.372
  773SOL    HW2 3219   0.252   4.242   2.489
  774SOL     OW 3220   1.523   1.237   1.999
  774SOL    HW1 3221   1.622   1.250   1.994
  774SOL    HW2 3222   1.478   1.301   1.936
  775SOL     OW 3223   1.974   1.913   4.510
  775SOL    HW1 3224   1.995   1.948   4.418
  775SOL    HW2 3225   2.057   1.913   4.565
  776SOL     OW 3226   1.831   0.542   6.144
  776SOL    HW1 3227   1.912   0.487   6.122
  776SOL    HW2 3228   1.839   0.578   6.237
  777SOL     OW 3229   3.836   1.245   0.506
  777SOL    HW1 3230   3.921   1.290   0.477
  777SOL    HW2 3231   3.778   1.229   0.426
  778SOL     OW 3232   4.185   6.798   4.610
  778SOL    HW1 3233   4.173   6.699   4.614
  778SOL    HW2 3234   4.117   6.838   4.549
  779SOL     OW 3235   0.920   1.211   2.438
  779SOL    HW1 3236   0.929   1.225   2.339
  779SOL    HW2 3237   1.006   1.174   2.474
  780SOL     OW 3238   5.686   3.044   5.092
  780SOL    HW1 3239   5.640   3.111   5.151
  780SOL    HW2 3240   5.664   3.063   4.997
  781SOL     OW 3241   0.131   1.451   5.605
  781SOL    HW1 3242   0.162   1.531   5.554
  781SOL    HW2 3243   0.075   1.394   5.545
  782SOL     OW 3244   0.201   2.983   0.655
  782SOL    HW1 3245   0.132   2.913   0.675
  782SOL    HW2 3246   0.292   2.941   0.657
  783SOL     OW 3247   3.080   4.771   0.610
  783SOL    HW1 3248   3.078   4.849   0.672
  783SOL    HW2 3249   3.023   4.698   0.648
  784SOL     OW 3250   4.797   0.430   5.114
  784SOL    HW1 3251   4.750   0.381   5.040
  784SOL    HW2 3252   4.744   0.510   5.139
  785SOL     OW 3253   6.424   2.838   3.252
  785SOL    HW1 3254   6.465   2.746   3.252
  785SOL    HW2 3255   6.357   2.844   3.325
  786SOL     OW 3256   6.933   6.848   6.966
  786SOL    HW1 3257   6.876   6.913   7.016
  786SOL    HW2 3258   7.002   6.811   0.003
  787SOL     OW 3259   3.036   2.361   6.190
  787SOL    HW1 3260   3.027   2.309   6.275
  787SOL    HW2 3261   3.026   2.298   6.112
  788SOL     OW 3262   1.513   4.224   4.123
  788SOL    HW1 3263   1.479   4.276   4.045
  788SOL    HW2 3264   1.448   4.151   4.145
  789SOL     OW 3265   5.499   3.927   0.844
  789SOL    HW1 3266   5.512   4.013   0.893
  789SOL    HW2 3267   5.412   3.886   0.871
  790SOL     OW 3268   3.246   1.533   3.812
  790SOL    HW1 3269   3.339   1.505   3.786
  790SOL    HW2 3270   3.196   1.561   3.730
  791SOL     OW 3271   3.408   1.733   4.300
  791SOL    HW1 3272   3.402   1.705   4.204
  791SOL    HW2 3273   3.493   1.784   4.314
  792SOL     OW 3274   6.077   0.223   3.267
  792SOL    HW1 3275   6.172   0.218   3.298
  792SOL    HW2 3276   6.057   0.144   3.208
  793SOL     OW 3277   6.001   0.133   6.993
  793SOL    HW1 3278   6.047   0.086   0.043
  793SOL    HW2 3279   6.000   0.231   7.011
  794SOL     OW 3280   2.156   5.237   5.478
  794SOL    HW1 3281   2.114   5.148   5.495
  794SOL    HW2 3282   2.195   5.272   5.563
  795SOL     OW 3283   4.922   4.915   6.274
  795SOL    HW1 3284   4.861   4.837   6.281
  795SOL    HW2 3285   5.017   4.884   6.273
  796SOL     OW 3286   0.288   2.266   6.418
  796SOL    HW1 3287   0.260   2.170   6.408
  796SOL    HW2 3288   0.269   2.315   6.333
  797SOL     OW 3289   5.790   2.870   3.910
  797SOL    HW1 3290   5.723   2.802   3.881
  797SOL    HW2 3291   5.771   2.898   4.004
  798SOL     OW 3292   5.761   1.137   6.184
  798SOL    HW1 3293   5.779   1.163   6.089
  798SOL    HW2 3294   5.697   1.202   6.225
  799SOL     OW 3295   6.898   3.430   3.218
  799SOL    HW1 3296   6.819   3.433   3.280
  799SOL    HW2 3297   6.976   3.389   3.266
  800SOL     OW 3298   6.134   1.633   2.163
  800SOL    HW1 3299   6.090   1.592   2.083
  800SOL    HW2 3300   6.117   1.732   2.163
  801SOL     OW 3301   0.237   2.601   2.971
  801SOL    HW1 3302   0.184   2.538   3.027
  801SOL    HW2 3303   0.197   2.692   2.976
  802SOL     OW 3304   5.569   1.219   0.697
  802SOL    HW1 3305   5.656   1.192   0.657
  802SOL    HW2 3306   5.507   1.141   0.700
  803SOL     OW 3307   6.897   7.017   4.962
  803SOL    HW1 3308   6.810   0.025   4.999
  803SOL    HW2 3309   6.892   7.014   4.862
  804SOL     OW 3310   0.039   0.047   0.469
  804SOL    HW1 3311   6.971   0.011   0.478
  804SOL    HW2 3312   0.099   0.000   0.533
  805SOL     OW 3313   2.896   2.989   6.343
  805SOL    HW1 3314   2.965   3.021   6.278
  805SOL    HW2 3315   2.914   2.893   6.366
  806SOL     OW 3316   5.256   0.868   0.642
  806SOL    HW1 3317   5.284   0.843   0.549
  806SOL    HW2 3318   5.175   0.926   0.637
  807SOL     OW 3319   1.557   6.964   3.603
  807SOL    HW1 3320   1.542   7.025   3.681
  807SOL    HW2 3321   1.471   6.949   3.555
  808SOL     OW 3322   5.091   3.636   5.453
  808SOL    HW1 3323   5.036   3.719   5.447
  808SOL    HW2 3324   5.037   3.558   5.421
  809SOL     OW 3325   0.129   4.757   6.017
  809SOL    HW1 3326   0.081   4.711   5.943
  809SOL    HW2 3327   0.178   4.690   6.073
  810SOL     OW 3328   5.910   4.410   6.781
  810SOL    HW1 3329   5.928   4.350   6.859
  810SOL    HW2 3330   5.993   4.418   6.726
  811SOL     OW 3331   5.129   5.003   4.289
  811SOL    HW1 3332   5.036   4.999   4.325
  811SOL    HW2 3333   5.186   4.936   4.336
  812SOL     OW 3334   0.331   6.736   2.031
  812SOL    HW1 3335   0.386   6.817   2.010
  812SOL    HW2 3336   0.243   6.765   2.068
  813SOL     OW 3337   5.156   5.572   2.423
  813SOL    HW1 3338   5.100   5.587   2.342
  813SOL    HW2 3339   5.101   5.528   2.494
  814SOL     OW 3340   5.246   6.260   1.504
  814SOL    HW1 3341   5.252   6.329   1.433
  814SOL    HW2 3342   5.317   6.191   1.489
  815SOL     OW 3343   0.136   2.545   1.082
  815SOL    HW1 3344   0.112   2.544   1.179
  815SOL    HW2 3345   0.054   2.528   1.027
  816SOL     OW 3346   6.531   7.006   1.219
  816SOL    HW1 3347   6.516   7.025   1.316
  816SOL    HW2 3348   6.448   7.025   1.168
  817SOL     OW 3349   1.620   2.489   2.785
  817SOL    HW1 3350   1.591   2.432   2.708
  817SOL    HW2 3351   1.615   2.435   2.870
  818SOL     OW 3352   6.516   1.537   1.125
  818SOL    HW1 3353   6.432   1.486   1.142
  818SOL    HW2 3354   6.588   1.504   1.185
  819SOL     OW 3355   0.125   3.260   3.989
  819SOL    HW1 3356   0.100   3.202   4.067
  819SOL    HW2 3357   0.061   3.337   3.983
  820SOL     OW 3358   1.103   3.014   4.800
  820SOL    HW1 3359   1.131   3.078   4.872
  820SOL    HW2 3360   1.184   2.989   4.746
  821SOL     OW 3361   1.556   3.400   6.870
  821SOL    HW1 3362   1.556   3.422   6.772
  821SOL    HW2 3363   1.547   3.485   6.922
  822SOL     OW 3364   1.652   3.881   4.909
  822SOL    HW1 3365   1.552   3.871   4.906
  822SOL    HW2 3366   1.691   3.847   4.823
  823SOL     OW 3367   3.216   4.070   1.060
  823SOL    HW1 3368   3.144   4.139   1.052
  823SOL    HW2 3369   3.237   4.034   0.970
  824SOL     OW 3370   5.450   1.761   5.681
  824SOL    HW1 3371   5.494   1.743   5.593
  824SOL    HW2 3372   5.440   1.675   5.731
  825SOL     OW 3373   2.100   4.375   2.326
  825SOL    HW1 3374   2.198   4.389   2.341
  825SOL    HW2 3375   2.059   4.337   2.409
  826SOL     OW 3376   0.565   3.864   5.904
  826SOL    HW1 3377   0.665   3.869   5.908
  826SOL    HW2 3378   0.527   3.956   5.891
  827SOL     OW 3379   3.952   5.685   6.760
  827SOL    HW1 3380   3.986   5.691   6.853
  827SOL    HW2 3381   3.852   5.688   6.761
  828SOL     OW 3382   6.491   0.327   5.716
  828SOL    HW1 3383   6.423   0.385   5.670
  828SOL    HW2 3384   6.456   0.234   5.725
  829SOL     OW 3385   3.461   2.817   4.819
  829SOL    HW1 3386   3.491   2.753   4.890
  829SOL    HW2 3387   3.542   2.858   4.776
  830SOL     OW 3388   4.481   4.026   5.322
  830SOL    HW1 3389   4.386   4.022   5.293
  830SOL    HW2 3390   4.498   3.958   5.394
  831SOL     OW 3391   6.662   0.818   4.918
  831SOL    HW1 3392   6.613   0.834   4.832
  831SOL    HW2 3393   6.692   0.722   4.922
  832SOL     OW 3394   2.244   1.859   6.046
  832SOL    HW1 3395   2.145   1.872   6.053
  832SOL    HW2 3396   2.287   1.947   6.024
  833SOL     OW 3397   7.001   0.043   6.003
  833SOL    HW1 3398   6.946   6.993   5.967
  833SOL    HW2 3399   0.030   0.083   5.928
  834SOL     OW 3400   3.275   4.200   5.257
  834SOL    HW1 3401   3.197   4.261   5.268
  834SOL    HW2 3402   3.360   4.254   5.265
  835SOL     OW 3403   4.049   0.309   3.374
  835SOL    HW1 3404   4.085   0.221   3.406
  835SOL    HW2 3405   4.122   0.361   3.330
  836SOL     OW 3406   2.320   1.228   0.305
  836SOL    HW1 3407   2.301   1.265   0.214
  836SOL    HW2 3408   2.254   1.265   0.370
  837SOL     OW 3409   4.543   0.963   5.597
  837SOL    HW1 3410   4.629   0.913   5.592
  837SOL    HW2 3411   4.553   1.051   5.549
  838SOL     OW 3412   2.696   5.439   2.953
  838SOL    HW1 3413   2.787   5.474   2.929
  838SOL    HW2 3414   2.680   5.352   2.907
  839SOL     OW 3415   2.858   1.541   2.626
  839SOL    HW1 3416   2.802   1.468   2.587
  839SOL    HW2 3417   2.839   1.626   2.577
  840SOL     OW 3418   0.666   1.157   6.780
  840SOL    HW1 3419   0.594   1.104   6.824
  840SOL    HW2 3420   0.755   1.130   6.817
  841SOL     OW 3421   0.670   3.601   6.743
  841SOL    HW1 3422   0.576   3.625   6.765
  841SOL    HW2 3423   0.729   3.681   6.757
  842SOL     OW 3424   3.631   5.557   3.293
  842SOL    HW1 3425   3.639   5.648   3.335
  842SOL    HW2 3426   3.702   5.546   3.223
  843SOL     OW 3427   6.381   2.286   1.918
  843SOL    HW1 3428   6.283   2.268   1.931
  843SOL    HW2 3429   6.403   2.280   1.820
  844SOL     OW 3430   5.451   5.424   0.492
  844SOL    HW1 3431   5.386   5.393   0.561
  844SOL    HW2 3432   5.444   5.523   0.481
  845SOL     OW 3433   0.775   4.266   5.268
  845SOL    HW1 3434   0.819   4.334   5.326
  845SOL    HW2 3435   0.787   4.290   5.172
  846SOL     OW 3436   6.125   1.796   6.429
  846SOL    HW1 3437   6.197   1.759   6.370
  846SOL    HW2 3438   6.104   1.729   6.502
  847SOL     OW 3439   4.944   3.447   2.128
  847SOL    HW1 3440   4.871   3.492   2.077
  847SOL    HW2 3441   4.929   3.348   2.127
  848SOL     OW 3442   6.028   0.326   5.857
  848SOL    HW1 3443   6.055   0.287   5.945
  848SOL    HW2 3444   6.058   0.421   5.852
  849SOL     OW 3445   0.135   5.235   4.451
  849SOL    HW1 3446   0.214   5.198   4.401
  849SOL    HW2 3447   0.166   5.300   4.520
  850SOL     OW 3448   3.647   0.652   2.925
  850SOL    HW1 3449   3.714   0.648   2.851
  850SOL    HW2 3450   3.563   0.695   2.891
  851SOL     OW 3451   0.795   0.738   6.329
  851SOL    HW1 3452   0.804   0.802   6.252
  851SOL    HW2 3453   0.783   0.645   6.293
  852SOL     OW 3454   2.254   4.096   6.614
  852SOL    HW1 3455   2.250   4.193   6.637
  852SOL    HW2 3456   2.348   4.062   6.627
  853SOL     OW 3457   1.706   3.822   1.437
  853SOL    HW1 3458   1.689   3.818   1.338
  853SOL    HW2 3459   1.748   3.910   1.460
  854SOL     OW 3460   5.571   5.068   1.747
  854SOL    HW1 3461   5.615   5.153   1.718
  854SOL    HW2 3462   5.631   5.022   1.813
  855SOL     OW 3463   5.369   0.088   1.843
  855SOL    HW1 3464   5.438   0.126   1.782
  855SOL    HW2 3465   5.318   0.017   1.794
  856SOL     OW 3466   1.802   7.021   5.327
  856SOL    HW1 3467   1.865   7.001   5.252
  856SOL    HW2 3468   1.752   6.939   5.352
  857SOL     OW 3469   6.777   3.628   2.192
  857SOL    HW1 3470   6.871   3.651   2.166
  857SOL    HW2 3471   6.758   3.665   2.283
  858SOL     OW 3472   3.018   4.335   1.094
  858SOL    HW1 3473   3.041   4.325   0.997
  858SOL    HW2 3474   3.094   4.379   1.142
  859SOL     OW 3475   6.741   4.769   6.851
  859SOL    HW1 3476   6.693   4.846   6.810
  859SOL    HW2 3477   6.748   4.694   6.784
  860SOL     OW 3478   2.178   4.815   1.828
  860SOL    HW1 3479   2.135   4.784   1.743
  860SOL    HW2 3480   2.265   4.768   1.841
  861SOL     OW 3481   3.157   5.497   5.473
  861SOL    HW1 3482   3.099   5.483   5.553
  861SOL    HW2 3483   3.252   5.502   5.502
  862SOL     OW 3484   4.431   4.667   4.482
  862SOL    HW1 3485   4.381   4.731   4.540
  862SOL    HW2 3486   4.441   4.579   4.530
  863SOL     OW 3487   5.785   1.268   1.297
  863SOL    HW1 3488   5.685   1.255   1.296
  863SOL    HW2 3489   5.826   1.204   1.361
  864SOL     OW 3490   5.994   4.474   2.898
  864SOL    HW1 3491   6.044   4.561   2.900
  864SOL    HW2 3492   5.896   4.491   2.912
  865SOL     OW 3493   1.484   0.155   4.529
  865SOL    HW1 3494   1.568   0.162   4.475
  865SOL    HW2 3495   1.405   0.174   4.470
  866SOL     OW 3496   3.435   1.879   1.375
  866SOL    HW1 3497   3.463   1.891   1.279
  866SOL    HW2 3498   3.367   1.948   1.398
  867SOL     OW 3499   1.355   2.607   5.976
  867SOL    HW1 3500   1.278   2.658   5.937
  867SOL    HW2 3501   1.432   2.610   5.913
  868SOL     OW 3502   5.092   2.548   3.177
  868SOL    HW1 3503   5.077   2.487   3.099
  868SOL    HW2 3504   5.169   2.514   3.232
  869SOL     OW 3505   6.669   4.702   2.879
  869SOL    HW1 3506   6.662   4.603   2.897
  869SOL    HW2 3507   6.762   4.723   2.848
  870SOL     OW 3508   6.959   1.966   0.974
  870SOL    HW1 3509   6.908   1.907   1.035
  870SOL    HW2 3510   6.988   2.049   1.022
  871SOL     OW 3511   6.297   3.331   0.591
  871SOL    HW1 3512   6.366   3.401   0.610
  871SOL    HW2 3513   6.324   3.281   0.509
  872SOL     OW 3514   6.039   2.502   2.740
  872SOL    HW1 3515   6.098   2.500   2.821
  872SOL    HW2 3516   6.049   2.417   2.689
  873SOL     OW 3517   4.614   6.665   5.471
  873SOL    HW1 3518   4.564   6.650   5.556
  873SOL    HW2 3519   4.585   6.597   5.403
  874SOL     OW 3520   0.629   3.962   6.199
  874SOL    HW1 3521   0.594   4.027   6.132
  874SOL    HW2 3522   0.649   3.875   6.154
  875SOL     OW 3523   6.177   4.619   6.777
  875SOL    HW1 3524   6.184   4.519   6.772
  875SOL    HW2 3525   6.124   4.652   6.699
  876SOL     OW 3526   0.942   3.325   1.971
  876SOL    HW1 3527   0.972   3.301   2.063
  876SOL    HW2 3528   0.849   3.363   1.974
  877SOL     OW 3529   5.482   5.699   0.460
  877SOL    HW1 3530   5.499   5.795   0.483
  877SOL    HW2 3531   5.562   5.661   0.414
  878SOL     OW 3532   2.981   3.842   0.254
  878SOL    HW1 3533   3.059   3.781   0.265
  878SOL    HW2 3534   2.975   3.872   0.159
  879SOL     OW 3535   4.578   2.147   2.154
  879SOL    HW1 3536   4.597   2.215   2.083
  879SOL    HW2 3537   4.542   2.193   2.235
  880SOL     OW 3538   4.176   5.525   0.766
  880SOL    HW1 3539   4.082   5.553   0.788
  880SOL    HW2 3540   4.229   5.518   0.850
  881SOL     OW 3541   4.317   5.225   4.897
  881SOL    HW1 3542   4.262   5.237   4.979
  881SOL    HW2 3543   4.316   5.310   4.844
  882SOL     OW 3544   0.901   1.150   4.851
  882SOL    HW1 3545   0.921   1.058   4.885
  882SOL    HW2 3546   0.983   1.188   4.807
  883SOL     OW 3547   3.226   5.105   6.407
  883SOL    HW1 3548   3.227   5.138   6.312
  883SOL    HW2 3549   3.179   5.017   6.410
  884SOL     OW 3550   4.873   3.884   1.487
  884SOL    HW1 3551   4.881   3.958   1.419
  884SOL    HW2 3552   4.816   3.915   1.563
  885SOL     OW 3553   4.318   5.958   0.022
  885SOL    HW1 3554   4.365   6.020   0.085
  885SOL    HW2 3555   4.229   5.933   0.061
  886SOL     OW 3556   4.758   1.614   6.051
  886SOL    HW1 3557   4.671   1.565   6.059
  886SOL    HW2 3558   4.753   1.680   5.977
  887SOL     OW 3559   4.919   0.574   6.133
  887SOL    HW1 3560   5.005   0.625   6.122
  887SOL    HW2 3561   4.850   0.610   6.072
  888SOL     OW 3562   6.074   6.315   3.397
  888SOL    HW1 3563   6.003   6.375   3.434
  888SOL    HW2 3564   6.036   6.257   3.326
  889SOL     OW 3565   0.920   6.777   4.672
  889SOL    HW1 3566   0.923   6.758   4.574
  889SOL    HW2 3567   0.833   6.822   4.695
  890SOL     OW 3568   2.478   4.885   1.825
  890SOL    HW1 3569   2.426   4.818   1.878
  890SOL    HW2 3570   2.575   4.874   1.844
  891SOL     OW 3571   6.115   3.235   6.264
  891SOL    HW1 3572   6.174   3.154   6.268
  891SOL    HW2 3573   6.097   3.258   6.169
  892SOL     OW 3574   2.897   5.141   1.830
  892SOL    HW1 3575   2.988   5.176   1.808
  892SOL    HW2 3576   2.896   5.111   1.925
  893SOL     OW 3577   1.999   0.646   0.499
  893SOL    HW1 3578   2.069   0.611   0.437
  893SOL    HW2 3579   1.965   0.571   0.556
  894SOL     OW 3580   0.829   5.531   3.614
  894SOL    HW1 3581   0.895   5.562   3.545
  894SOL    HW2 3582   0.803   5.437   3.596
  895SOL     OW 3583   1.981   0.094   4.869
  895SOL    HW1 3584   1.994   0.001   4.835
  895SOL    HW2 3585   1.889   0.104   4.906
  896SOL     OW 3586   5.400   6.690   3.303
  896SOL    HW1 3587   5.500   6.701   3.305
  896SOL    HW2 3588   5.356   6.777   3.323
  897SOL     OW 3589   5.399   2.846   5.941
  897SOL    HW1 3590   5.493   2.827   5.912
  897SOL    HW2 3591   5.361   2.919   5.884
  898SOL     OW 3592   6.157   6.643   4.213
  898SOL    HW1 3593   6.222   6.576   4.176
  898SOL    HW2 3594   6.154   6.722   4.152
  899SOL     OW 3595   0.932   5.135   6.732
  899SOL    HW1 3596   1.003   5.134   6.802
  899SOL    HW2 3597   0.866   5.062   6.751
  900SOL     OW 3598   0.891   5.785   3.940
  900SOL    HW1 3599   0.990   5.789   3.946
  900SOL    HW2 3600   0.861   5.841   3.862
  901SOL     OW 3601   5.562   2.537   3.264
  901SOL    HW1 3602   5.468   2.513   3.286
  901SOL    HW2 3603   5.620   2.522   3.345
  902SOL     OW 3604   6.984   6.312   0.058
  902SOL    HW1 3605   0.001   6.351   0.140
  902SOL    HW2 3606   6.892   6.350   0.047
  903SOL     OW 3607   0.730   4.411   0.545
  903SOL    HW1 3608   0.649   4.372   0.588
  903SOL    HW2 3609   0.810   4.356   0.567
  904SOL     OW 3610   1.609   1.593   3.281
  904SOL    HW1 3611   1.565   1.504   3.294
  904SOL    HW2 3612   1.705   1.580   3.257
  905SOL     OW 3613   5.651   1.537   5.422
  905SOL    HW1 3614   5.568   1.484   5.405
  905SOL    HW2 3615   5.725   1.501   5.366
  906SOL     OW 3616   6.209   3.945   5.166
  906SOL    HW1 3617   6.194   4.043   5.178
  906SOL    HW2 3618   6.239   3.905   5.252
  907SOL     OW 3619   6.612   3.353   1.523
  907SOL    HW1 3620   6.697   3.349   1.471
  907SOL    HW2 3621   6.633   3.357   1.621
  908SOL     OW 3622   1.439   0.618   3.292
  908SOL    HW1 3623   1.440   0.601   3.391
  908SOL    HW2 3624   1.388   0.545   3.247
  909SOL     OW 3625   3.773   0.377   1.105
  909SOL    HW1 3626   3.774   0.309   1.032
  909SOL    HW2 3627   3.853   0.365   1.163
  910SOL     OW 3628   1.980   1.691   1.638
  910SOL    HW1 3629   2.026   1.779   1.631
  910SOL    HW2 3630   2.048   1.620   1.658
  911SOL     OW 3631   0.320   4.259   1.071
  911SOL    HW1 3632   0.405   4.294   1.032
  911SOL    HW2 3633   0.341   4.201   1.149
  912SOL     OW 3634   0.748   0.503   6.147
  912SOL    HW1 3635   0.716   0.412   6.119
  912SOL    HW2 3636   0.761   0.560   6.066
  913SOL     OW 3637   2.475   1.239   1.611
  913SOL    HW1 3638   2.440   1.225   1.703
  913SOL    HW2 3639   2.415   1.194   1.545
  914SOL     OW 3640   2.937   6.708   3.265
  914SOL    HW1 3641   2.893   6.688   3.178
  914SOL    HW2 3642   3.033   6.731   3.250
  915SOL     OW 3643   1.032   2.214   6.773
  915SOL    HW1 3644   0.956   2.153   6.796
  915SOL    HW2 3645   1.111   2.159   6.745
  916SOL     OW 3646   1.434   3.237   3.123
  916SOL    HW1 3647   1.516   3.291   3.107
  916SOL    HW2 3648   1.398   3.203   3.037
  917SOL     OW 3649   3.419   2.466   6.564
  917SOL    HW1 3650   3.362   2.385   6.553
  917SOL    HW2 3651   3.436   2.481   6.662
  918SOL     OW 3652   1.176   0.887   5.523
  918SOL    HW1 3653   1.249   0.901   5.590
  918SOL    HW2 3654   1.100   0.949   5.544
  919SOL     OW 3655   2.344   6.580   1.162
  919SOL    HW1 3656   2.359   6.651   1.230
  919SOL    HW2 3657   2.251   6.544   1.171
  920SOL     OW 3658   2.037   0.483   4.585
  920SOL    HW1 3659   2.106   0.455   4.517
  920SOL    HW2 3660   1.998   0.571   4.558
  921SOL     OW 3661   5.255   5.187   6.365
  921SOL    HW1 3662   5.199   5.270   6.358
  921SOL    HW2 3663   5.252   5.138   6.278
  922SOL     OW 3664   2.305   3.671   6.310
  922SOL    HW1 3665   2.210   3.642   6.299
  922SOL    HW2 3666   2.320   3.755   6.258
  923SOL     OW 3667   4.037   1.057   6.564
  923SOL    HW1 3668   4.029   1.109   6.649
  923SOL    HW2 3669   4.000   0.965   6.577
  924SOL     OW 3670   6.196   3.990   3.299
  924SOL    HW1 3671   6.250   3.906   3.298
  924SOL    HW2 3672   6.107   3.973   3.257
  925SOL     OW 3673   5.984   2.258   2.994
  925SOL    HW1 3674   6.067   2.202   2.997
  925SOL    HW2 3675   5.912   2.209   2.945
  926SOL     OW 3676   5.419   6.316   0.631
  926SOL    HW1 3677   5.332   6.281   0.665
  926SOL    HW2 3678   5.475   6.347   0.707
  927SOL     OW 3679   4.538   5.077   4.982
  927SOL    HW1 3680   4.526   4.979   4.996
  927SOL    HW2 3681   4.454   5.116   4.944
  928SOL     OW 3682   0.800   1.046   1.560
  928SOL    HW1 3683   0.770   0.953   1.539
  928SOL    HW2 3684   0.812   1.056   1.659
  929SOL     OW 3685   0.763   2.557   2.662
  929SOL    HW1 3686   0.791   2.510   2.746
  929SOL    HW2 3687   0.697   2.500   2.613
  930SOL     OW 3688   4.906   6.240   3.370
  930SOL    HW1 3689   4.935   6.149   3.342
  930SOL    HW2 3690   4.857   6.235   3.457
  931SOL     OW 3691   1.760   2.833   2.192
  931SOL    HW1 3692   1.757   2.897   2.115
  931SOL    HW2 3693   1.668   2.802   2.213
  932SOL     OW 3694   4.614   6.405   1.092
  932SOL    HW1 3695   4.589   6.376   1.000
  932SOL    HW2 3696   4.544   6.468   1.127
  933SOL     OW 3697   1.815   6.224   3.307
  933SOL    HW1 3698   1.881   6.151   3.288
  933SOL    HW2 3699   1.727   6.202   3.264
  934SOL     OW 3700   3.040   1.257   5.593
  934SOL    HW1 3701   2.993   1.175   5.560
  934SOL    HW2 3702   3.001   1.338   5.549
  935SOL     OW 3703   2.607   3.052   6.573
  935SOL    HW1 3704   2.706   3.038   6.580
  935SOL    HW2 3705   2.570   3.074   6.663
  936SOL     OW 3706   0.033   1.573   1.903
  936SOL    HW1 3707   0.042   1.585   1.804
  936SOL    HW2 3708   6.970   1.531   1.924
  937SOL     OW 3709   4.689   2.372   3.910
  937SOL    HW1 3710   4.722   2.386   4.004
  937SOL    HW2 3711   4.762   2.332   3.855
  938SOL     OW 3712   6.791   2.243   0.319
  938SOL    HW1 3713   6.873   2.230   0.375
  938SOL    HW2 3714   6.812   2.222   0.224
  939SOL     OW 3715   6.335   0.834   6.141
  939SOL    HW1 3716   6.325   0.924   6.100
  939SOL    HW2 3717   6.324   0.763   6.072
  940SOL     OW 3718   0.566   0.869   4.481
  940SOL    HW1 3719   0.612   0.955   4.459
  940SOL    HW2 3720   0.468   0.880   4.471
  941SOL     OW 3721   5.309   3.007   5.019
  941SOL    HW1 3722   5.286   2.955   5.101
  941SOL    HW2 3723   5.285   2.953   4.938
  942SOL     OW 3724   5.095   0.045   5.396
  942SOL    HW1 3725   5.061   6.986   5.355
  942SOL    HW2 3726   5.023   0.115   5.394
  943SOL     OW 3727   5.847   1.933   6.925
  943SOL    HW1 3728   5.912   1.906   6.854
  943SOL    HW2 3729   5.811   1.852   6.971
  944SOL     OW 3730   5.981   3.940   4.724
  944SOL    HW1 3731   6.050   3.882   4.767
  944SOL    HW2 3732   6.013   4.035   4.724
  945SOL     OW 3733   5.303   3.876   5.274
  945SOL    HW1 3734   5.284   3.779   5.265
  945SOL    HW2 3735   5.379   3.901   5.215
  946SOL     OW 3736   6.014   3.204   5.779
  946SOL    HW1 3737   5.923   3.239   5.802
  946SOL    HW2 3738   6.015   3.105   5.787
  947SOL     OW 3739   1.609   3.043   5.549
  947SOL    HW1 3740   1.697   3.086   5.532
  947SOL    HW2 3741   1.536   3.100   5.514
  948SOL     OW 3742   3.919   1.836   0.369
  948SOL    HW1 3743   3.885   1.880   0.286
  948SOL    HW2 3744   3.851   1.844   0.442
  949SOL     OW 3745   5.984   5.877   6.491
  949SOL    HW1 3746   5.885   5.890   6.492
  949SOL    HW2 3747   6.021   5.906   6.403
  950SOL     OW 3748   4.129   5.416   1.112
  950SOL    HW1 3749   4.212   5.446   1.065
  950SOL    HW2 3750   4.140   5.322   1.144
  951SOL     OW 3751   1.120   2.364   3.327
  951SOL    HW1 3752   1.145   2.460   3.312
  951SOL    HW2 3753   1.037   2.343   3.274
  952SOL     OW 3754   5.383   1.607   1.574
  952SOL    HW1 3755   5.416   1.675   1.508
  952SOL    HW2 3756   5.461   1.559   1.614
  953SOL     OW 3757   3.664   0.069   6.253
  953SOL    HW1 3758   3.598   7.022   6.232
  953SOL    HW2 3759   3.675   0.128   6.173
  954SOL     OW 3760   0.563   6.326   1.170
  954SOL    HW1 3761   0.517   6.335   1.082
  954SOL    HW2 3762   0.512   6.264   1.228
  955SOL     OW 3763   6.374   6.883   2.039
  955SOL    HW1 3764   6.381   6.970   2.088
  955SOL    HW2 3765   6.355   6.809   2.103
  956SOL     OW 3766   0.439   2.512   0.272
  956SOL    HW1 3767   0.498   2.590   0.249
  956SOL    HW2 3768   0.379   2.493   0.194
  957SOL     OW 3769   2.717   6.347   5.571
  957SOL    HW1 3770   2.681   6.378   5.482
  957SOL    HW2 3771   2.707   6.248   5.578
  958SOL     OW 3772   4.919   2.409   0.177
  958SOL    HW1 3773   4.921   2.314   0.146
  958SOL    HW2 3774   5.004   2.431   0.225
  959SOL     OW 3775   1.468   4.366   2.471
  959SOL    HW1 3776   1.558   4.401   2.444
  959SOL    HW2 3777   1.479   4.300   2.545
  960SOL     OW 3778   1.589   5.725   5.417
  960SOL    HW1 3779   1.638   5.704   5.332
  960SOL    HW2 3780   1.656   5.747   5.489
  961SOL     OW 3781   3.830   0.137   1.940
  961SOL    HW1 3782   3.900   0.185   1.887
  961SOL    HW2 3783   3.819   0.183   2.028
  962SOL     OW 3784   1.284   6.533   4.008
  962SOL    HW1 3785   1.348   6.477   3.955
  962SOL    HW2 3786   1.334   6.609   4.050
  963SOL     OW 3787   5.845   0.694   1.797
  963SOL    HW1 3788   5.874   0.745   1.878
  963SOL    HW2 3789   5.837   0.757   1.719
  964SOL     OW 3790   5.071   4.058   1.209
  964SOL    HW1 3791   5.134   4.134   1.225
  964SOL    HW2 3792   4.982   4.080   1.249
  965SOL     OW 3793   1.403   2.091   0.918
  965SOL    HW1 3794   1.394   2.140   1.005
  965SOL    HW2 3795   1.412   2.157   0.844
  966SOL     OW 3796   0.326   1.771   1.509
  966SOL    HW1 3797   0.421   1.750   1.484
  966SOL    HW2 3798   0.274   1.795   1.427
  967SOL     OW 3799   0.621   5.860   2.443
  967SOL    HW1 3800   0.626   5.959   2.451
  967SOL    HW2 3801   0.704   5.826   2.399
  968SOL     OW 3802   6.300   4.117   2.387
  968SOL    HW1 3803   6.329   4.156   2.300
  968SOL    HW2 3804   6.201   4.131   2.399
  969SOL     OW 3805   4.555   6.350   6.263
  969SOL    HW1 3806   4.462   6.333   6.231
  969SOL    HW2 3807   4.554   6.414   6.340
  970SOL     OW 3808   4.426   2.454   5.403
  970SOL    HW1 3809   4.456   2.452   5.499
  970SOL    HW2 3810   4.476   2.525   5.354
  971SOL     OW 3811   0.321   2.260   1.688
  971SOL    HW1 3812   0.254   2.321   1.731
  971SOL    HW2 3813   0.293   2.165   1.703
  972SOL     OW 3814   6.875   5.724   1.721
  972SOL    HW1 3815   6.863   5.822   1.708
  972SOL    HW2 3816   6.786   5.679   1.728
  973SOL     OW 3817   6.264   4.171   5.391
  973SOL    HW1 3818   6.221   4.113   5.461
  973SOL    HW2 3819   6.361   4.183   5.412
  974SOL     OW 3820   2.746   1.339   4.271
  974SOL    HW1 3821   2.657   1.332   4.227
  974SOL    HW2 3822   2.752   1.426   4.320
  975SOL     OW 3823   3.822   6.833   5.582
  975SOL    HW1 3824   3.801   6.788   5.669
  975SOL    HW2 3825   3.920   6.850   5.576
  976SOL     OW 3826   0.237   5.705   3.627
  976SOL    HW1 3827   0.235   5.654   3.541
  976SOL    HW2 3828   0.307   5.667   3.687
  977SOL     OW 3829   1.201   2.194   2.972
  977SOL    HW1 3830   1.231   2.132   3.045
  977SOL    HW2 3831   1.102   2.189   2.964
  978SOL     OW 3832   5.778   3.095   4.807
  978SOL    HW1 3833   5.855   3.109   4.746
  978SOL    HW2 3834   5.750   3.183   4.847
  979SOL     OW 3835   5.339   0.734   3.384
  979SOL    HW1 3836   5.320   0.704   3.291
  979SOL    HW2 3837   5.255   0.729   3.438
  980SOL     OW 3838   6.165   0.776   4.711
  980SOL    HW1 3839   6.085   0.797   4.767
  980SOL    HW2 3840   6.140   0.712   4.639
  981SOL     OW 3841   0.154   3.098   5.513
  981SOL    HW1 3842   0.095   3.064   5.439
  981SOL    HW2 3843   0.245   3.117   5.476
  982SOL     OW 3844   1.391   3.080   1.598
  982SOL    HW1 3845   1.317   3.134   1.558
  982SOL    HW2 3846   1.401   2.995   1.547
  983SOL     OW 3847   5.608   1.552   2.871
  983SOL    HW1 3848   5.678   1.512   2.930
  983SOL    HW2 3849   5.535   1.485   2.855
  984SOL     OW 3850   4.839   1.263   4.417
  984SOL    HW1 3851   4.755   1.295   4.461
  984SOL    HW2 3852   4.816   1.224   4.327
  985SOL     OW 3853   3.103   5.271   0.084
  985SOL    HW1 3854   3.180   5.295   0.025
  985SOL    HW2 3855   3.135   5.213   0.159
  986SOL     OW 3856   4.615   5.098   6.457
  986SOL    HW1 3857   4.646   5.009   6.491
  986SOL    HW2 3858   4.689   5.143   6.407
  987SOL     OW 3859   3.363   6.700   2.513
  987SOL    HW1 3860   3.373   6.674   2.417
  987SOL    HW2 3861   3.435   6.765   2.537
  988SOL     OW 3862   3.655   4.024   1.946
  988SOL    HW1 3863   3.605   4.067   1.871
  988SOL    HW2 3864   3.637   4.072   2.031
  989SOL     OW 3865   1.054   0.096   4.611
  989SOL    HW1 3866   1.085   0.045   4.691
  989SOL    HW2 3867   1.101   0.062   4.529
  990SOL     OW 3868   4.767   6.044   3.759
  990SOL    HW1 3869   4.721   6.126   3.792
  990SOL    HW2 3870   4.829   6.010   3.829
  991SOL     OW 3871   6.340   1.370   4.933
  991SOL    HW1 3872   6.380   1.306   4.998
  991SOL    HW2 3873   6.368   1.464   4.956
  992SOL     OW 3874   0.379   3.476   0.989
  992SOL    HW1 3875   0.421   3.496   0.901
  992SOL    HW2 3876   0.293   3.427   0.975
  993SOL     OW 3877   3.577   4.898   3.970
  993SOL    HW1 3878   3.642   4.924   4.041
  993SOL    HW2 3879   3.622   4.837   3.904
  994SOL     OW 3880   2.871   3.424   2.240
  994SOL    HW1 3881   2.920   3.343   2.207
  994SOL    HW2 3882   2.775   3.417   2.215
  995SOL     OW 3883   0.993   1.556   4.950
  995SOL    HW1 3884   1.062   1.518   5.012
  995SOL    HW2 3885   0.906   1.566   4.999
  996SOL     OW 3886   1.348   3.929   2.352
  996SOL    HW1 3887   1.269   3.919   2.413
  996SOL    HW2 3888   1.356   3.848   2.293
  997SOL     OW 3889   6.566   0.902   1.595
  997SOL    HW1 3890   6.502   0.975   1.619
  997SOL    HW2 3891   6.516   0.816   1.587
  998SOL     OW 3892   5.206   0.370   3.063
  998SOL    HW1 3893   5.295   0.381   3.107
  998SOL    HW2 3894   5.136   0.417   3.118
  999SOL     OW 3895   0.110   5.726   0.984
  999SOL    HW1 3896   0.177   5.653   0.995
  999SOL    HW2 3897   0.042   5.699   0.915
 1000SOL     OW 3898   3.850   1.644   3.709
 1000SOL    HW1 3899   3.823   1.575   3.642
 1000SOL    HW2 3900   3.790   1.638   3.789
 1001SOL     OW 3901   4.501   0.207   5.616
 1001SOL    HW1 3902   4.516   0.110   5.637
 1001SOL    HW2 3903   4.439   0.247   5.684
 1002SOL     OW 3904   6.730   1.460   0.906
 1002SOL    HW1 3905   6.651   1.468   0.967
 1002SOL    HW2 3906   6.763   1.365   0.906
 1003SOL     OW 3907   4.414   5.524   2.354
 1003SOL    HW1 3908   4.327   5.477   2.340
 1003SOL    HW2 3909   4.431   5.536   2.452
 1004SOL     OW 3910   6.031   5.755   0.145
 1004SOL    HW1 3911   6.035   5.788   0.051
 1004SOL    HW2 3912   6.088   5.674   0.155
 1005SOL     OW 3913   6.588   6.418   3.970
 1005SOL    HW1 3914   6.594   6.472   3.886
 1005SOL    HW2 3915   6.662   6.444   4.031
 1006SOL     OW 3916   2.347   4.147   1.155
 1006SOL    HW1 3917   2.290   4.225   1.181
 1006SOL    HW2 3918   2.415   4.130   1.226
 1007SOL     OW 3919   0.477   0.809   3.284
 1007SOL    HW1 3920   0.569   0.827   3.250
 1007SOL    HW2 3921   0.478   0.726   3.341
 1008SOL     OW 3922   2.192   3.024   3.384
 1008SOL    HW1 3923   2.181   3.123   3.384
 1008SOL    HW2 3924   2.138   2.985   3.458
 1009SOL     OW 3925   1.620   5.864   4.924
 1009SOL    HW1 3926   1.637   5.930   4.852
 1009SOL    HW2 3927   1.552   5.900   4.988
 1010SOL     OW 3928   5.015   1.255   0.044
 1010SOL    HW1 3929   5.017   1.345   0.001
 1010SOL    HW2 3930   4.947   1.197   7.023
 1011SOL     OW 3931   3.510   6.175   3.546
 1011SOL    HW1 3932   3.439   6.182   3.476
 1011SOL    HW2 3933   3.574   6.103   3.520
 1012SOL     OW 3934   5.076   5.501   0.167
 1012SOL    HW1 3935   5.088   5.551   0.252
 1012SOL    HW2 3936   5.038   5.563   0.097
 1013SOL     OW 3937   0.616   1.086   1.328
 1013SOL    HW1 3938   0.703   1.094   1.376
 1013SOL    HW2 3939   0.619   1.139   1.243
 1014SOL     OW 3940   4.635   0.333   5.914
 1014SOL    HW1 3941   4.666   0.271   5.843
 1014SOL    HW2 3942   4.689   0.320   5.997
 1015SOL     OW 3943   3.183   6.055   4.088
 1015SOL    HW1 3944   3.281   6.032   4.091
 1015SOL    HW2 3945   3.172   6.154   4.079
 1016SOL     OW 3946   4.674   2.829   1.470
 1016SOL    HW1 3947   4.769   2.856   1.455
 1016SOL    HW2 3948   4.651   2.839   1.567
 1017SOL     OW 3949   4.326   1.916   6.749
 1017SOL    HW1 3950   4.293   1.862   6.672
 1017SOL    HW2 3951   4.400   1.977   6.719
 1018SOL     OW 3952   1.457   3.631   2.496
 1018SOL    HW1 3953   1.506   3.579   2.566
 1018SOL    HW2 3954   1.359   3.610   2.501
 1019SOL     OW 3955   6.510   0.980   0.646
 1019SOL    HW1 3956   6.589   0.932   0.684
 1019SOL    HW2 3957   6.503   1.071   0.686
 1020SOL     OW 3958   2.799   1.537   1.617
 1020SOL    HW1 3959   2.845   1.473   1.680
 1020SOL    HW2 3960   2.867   1.588   1.566
 1021SOL     OW 3961   6.709   1.453   1.295
 1021SOL    HW1 3962   6.800   1.480   1.262
 1021SOL    HW2 3963   6.696   1.487   1.388
 1022SOL     OW 3964   4.158   2.988   6.681
 1022SOL    HW1 3965   4.151   3.040   6.596
 1022SOL    HW2 3966   4.255   2.974   6.703
 1023SOL     OW 3967   5.381   1.353   3.859
 1023SOL    HW1 3968   5.409   1.448   3.869
 1023SOL    HW2 3969   5.409   1.319   3.770
 1024SOL     OW 3970   6.175   1.469   3.531
 1024SOL    HW1 3971   6.174   1.473   3.431
 1024SOL    HW2 3972   6.270   1.471   3.563
 1025SOL     OW 3973   3.122   4.685   1.251
 1025SOL    HW1 3974   3.129   4.759   1.319
 1025SOL    HW2 3975   3.122   4.597   1.298
 1026SOL     OW 3976   1.022   2.718   0.019
 1026SOL    HW1 3977   1.074   2.646   6.998
 1026SOL    HW2 3978   1.026   2.704   0.118
 1027SOL     OW 3979   2.830   4.959   2.638
 1027SOL    HW1 3980   2.811   4.881   2.698
 1027SOL    HW2 3981   2.859   4.926   2.548
 1028SOL     OW 3982   1.791   6.287   0.653
 1028SOL    HW1 3983   1.868   6.243   0.701
 1028SOL    HW2 3984   1.803   6.277   0.555
 1029SOL     OW 3985   2.690   1.030   6.239
 1029SOL    HW1 3986   2.663   0.938   6.211
 1029SOL    HW2 3987   2.789   1.040   6.232
 1030SOL     OW 3988   3.362   4.070   4.713
 1030SOL    HW1 3989   3.423   4.137   4.755
 1030SOL    HW2 3990   3.400   3.978   4.726
 1031SOL     OW 3991   2.265   5.215   1.135
 1031SOL    HW1 3992   2.239   5.282   1.204
 1031SOL    HW2 3993   2.245   5.251   1.044
 1032SOL     OW 3994   1.920   0.739   4.443
 1032SOL    HW1 3995   1.826   0.708   4.455
 1032SOL    HW2 3996   1.936   0.759   4.346
 1033SOL     OW 3997   2.056   5.950   3.598
 1033SOL    HW1 3998   2.125   6.006   3.643
 1033SOL    HW2 3999   2.056   5.968   3.500
 1034SOL     OW 4000   1.366   5.143   3.442
 1034SOL    HW1 4001   1.267   5.144   3.429
 1034SOL    HW2 4002   1.388   5.186   3.529
 1035SOL     OW 4003   2.480   1.410   4.533
 1035SOL    HW1 4004   2.398   1.419   4.590
 1035SOL    HW2 4005   2.483   1.318   4.494
 1036SOL     OW 4006   5.056   1.899   0.072
 1036SOL    HW1 4007   5.133   1.849   0.033
 1036SOL    HW2 4008   5.091   1.971   0.133
 1037SOL     OW 4009   2.839   2.289   6.758
 1037SOL    HW1 4010   2.933   2.312   6.786
 1037SOL    HW2 4011   2.837   2.198   6.718
 1038SOL     OW 4012   2.353   1.207   4.207
 1038SOL    HW1 4013   2.435   1.247   4.167
 1038SOL    HW2 4014   2.375   1.165   4.295
 1039SOL     OW 4015   4.113   1.301   3.459
 1039SOL    HW1 4016   4.072   1.366   3.394
 1039SOL    HW2 4017   4.195   1.342   3.499
 1040SOL     OW 4018   6.591   4.311   3.303
 1040SOL    HW1 4019   6.498   4.278   3.287
 1040SOL    HW2 4020   6.643   4.242   3.354
 1041SOL     OW 4021   0.493   6.687   4.492
 1041SOL    HW1 4022   0.527   6.772   4.531
 1041SOL    HW2 4023   0.569   6.623   4.481
 1042SOL     OW 4024   5.280   4.160   0.741
 1042SOL    HW1 4025   5.304   4.255   0.764
 1042SOL    HW2 4026   5.235   4.117   0.820
 1043SOL     OW 4027   2.890   1.169   6.503
 1043SOL    HW1 4028   2.909   1.267   6.511
 1043SOL    HW2 4029   2.921   1.137   6.413
 1044SOL     OW 4030   4.189   3.533   1.774
 1044SOL    HW1 4031   4.143   3.482   1.700
 1044SOL    HW2 4032   4.263   3.587   1.735
 1045SOL     OW 4033   3.247   1.385   3.338
 1045SOL    HW1 4034   3.201   1.428   3.260
 1045SOL    HW2 4035   3.292   1.455   3.393
 1046SOL     OW 4036   3.641   0.896   2.066
 1046SOL    HW1 4037   3.554   0.850   2.083
 1046SOL    HW2 4038   3.625   0.994   2.053
 1047SOL     OW 4039   1.108   5.143   2.233
 1047SOL    HW1 4040   1.045   5.209   2.274
 1047SOL    HW2 4041   1.075   5.116   2.143
 1048SOL     OW 4042   6.059   4.560   5.661
 1048SOL    HW1 4043   6.036   4.476   5.612
 1048SOL    HW2 4044   6.017   4.559   5.752
 1049SOL     OW 4045   0.720   3.180   4.900
 1049SOL    HW1 4046   0.746   3.123   4.821
 1049SOL    HW2 4047   0.719   3.276   4.873
 1050SOL     OW 4048   3.377   0.461   6.663
 1050SOL    HW1 4049   3.310   0.440   6.592
 1050SOL    HW2 4050   3.375   0.559   6.683
 1051SOL     OW 4051   4.357   4.719   1.760
 1051SOL    HW1 4052   4.455   4.702   1.774
 1051SOL    HW2 4053   4.310   4.633   1.744
 1052SOL     OW 4054   3.574   6.863   4.566
 1052SOL    HW1 4055   3.488   6.861   4.617
 1052SOL    HW2 4056   3.591   6.955   4.532
 1053SOL     OW 4057   4.233   4.696   3.204
 1053SOL    HW1 4058   4.250   4.717   3.108
 1053SOL    HW2 4059   4.320   4.695   3.254
 1054SOL     OW 4060   3.485   6.161   4.221
 1054SOL    HW1 4061   3.471   6.097   4.296
 1054SOL    HW2 4062   3.475   6.113   4.134
 1055SOL     OW 4063   4.513   5.246   4.612
 1055SOL    HW1 4064   4.590   5.230   4.675
 1055SOL    HW2 4065   4.477   5.338   4.627
 1056SOL     OW 4066   1.375   6.550   4.898
 1056SOL    HW1 4067   1.373   6.602   4.983
 1056SOL    HW2 4068   1.429   6.601   4.830
 1057SOL     OW 4069   3.886   3.935   1.817
 1057SOL    HW1 4070   3.966   3.917   1.874
 1057SOL    HW2 4071   3.809   3.959   1.876
 1058SOL     OW 4072   3.678   0.937   1.451
 1058SOL    HW1 4073   3.654   0.897   1.362
 1058SOL    HW2 4074   3.775   0.923   1.468
 1059SOL     OW 4075   3.120   1.411   1.166
 1059SOL    HW1 4076   3.093   1.352   1.090
 1059SOL    HW2 4077   3.052   1.483   1.177
 1060SOL     OW 4078   2.631   2.415   4.937
 1060SOL    HW1 4079   2.670   2.335   4.981
 1060SOL    HW2 4080   2.662   2.498   4.983
 1061SOL     OW 4081   3.125   6.102   1.655
 1061SOL    HW1 4082   3.112   6.142   1.746
 1061SOL    HW2 4083   3.120   6.174   1.586
 1062SOL     OW 4084   5.016   4.389   5.169
 1062SOL    HW1 4085   5.111   4.372   5.143
 1062SOL    HW2 4086   5.013   4.442   5.254
 1063SOL     OW 4087   2.161   2.533   5.897
 1063SOL    HW1 4088   2.261   2.539   5.901
 1063SOL    HW2 4089   2.134   2.449   5.849
 1064SOL     OW 4090   0.068   3.364   1.481
 1064SOL    HW1 4091   0.120   3.447   1.465
 1064SOL    HW2 4092   0.108   3.313   1.557
 1065SOL     OW 4093   5.891   6.086   5.288
 1065SOL    HW1 4094   5.937   6.072   5.375
 1065SOL    HW2 4095   5.954   6.128   5.223
 1066SOL     OW 4096   3.751   0.370   3.728
 1066SOL    HW1 4097   3.765   0.279   3.689
 1066SOL    HW2 4098   3.828   0.393   3.788
 1067SOL     OW 4099   1.747   3.194   1.696
 1067SOL    HW1 4100   1.816   3.163   1.762
 1067SOL    HW2 4101   1.667   3.229   1.746
 1068SOL     OW 4102   0.995   3.776   1.672
 1068SOL    HW1 4103   0.951   3.861   1.703
 1068SOL    HW2 4104   1.092   3.794   1.655
 1069SOL     OW 4105   3.680   4.069   1.540
 1069SOL    HW1 4106   3.598   4.061   1.597
 1069SOL    HW2 4107   3.669   4.145   1.476
 1070SOL     OW 4108   1.967   0.720   6.745
 1070SOL    HW1 4109   1.929   0.634   6.781
 1070SOL    HW2 4110   2.061   0.703   6.713
 1071SOL     OW 4111   3.764   6.332   3.545
 1071SOL    HW1 4112   3.671   6.297   3.560
 1071SOL    HW2 4113   3.779   6.412   3.602
 1072SOL     OW 4114   3.477   5.829   3.061
 1072SOL    HW1 4115   3.525   5.841   3.148
 1072SOL    HW2 4116   3.523   5.882   2.990
 1073SOL     OW 4117   2.814   4.743   2.807
 1073SOL    HW1 4118   2.856   4.828   2.837
 1073SOL    HW2 4119   2.767   4.699   2.884
 1074SOL     OW 4120   1.428   5.275   2.377
 1074SOL    HW1 4121   1.475   5.321   2.302
 1074SOL    HW2 4122   1.479   5.192   2.402
 1075SOL     OW 4123   0.143   4.277   2.912
 1075SOL    HW1 4124   0.220   4.233   2.866
 1075SOL    HW2 4125   0.177   4.347   2.975
 1076SOL     OW 4126   0.107   4.937   3.636
 1076SOL    HW1 4127   0.130   4.869   3.567
 1076SOL    HW2 4128   0.116   5.028   3.597
 1077SOL     OW 4129   4.515   0.387   0.765
 1077SOL    HW1 4130   4.541   0.312   0.825
 1077SOL    HW2 4131   4.437   0.436   0.804
 1078SOL     OW 4132   1.194   2.212   1.596
 1078SOL    HW1 4133   1.103   2.252   1.593
 1078SOL    HW2 4134   1.196   2.137   1.662
 1079SOL     OW 4135   2.448   5.125   2.928
 1079SOL    HW1 4136   2.487   5.046   2.880
 1079SOL    HW2 4137   2.497   5.208   2.900
 1080SOL     OW 4138   1.492   5.481   4.114
 1080SOL    HW1 4139   1.583   5.522   4.121
 1080SOL    HW2 4140   1.485   5.404   4.177
 1081SOL     OW 4141   1.337   1.097   0.122
 1081SOL    HW1 4142   1.329   1.125   0.027
 1081SOL    HW2 4143   1.280   1.156   0.180
 1082SOL     OW 4144   2.276   0.062   0.007
 1082SOL    HW1 4145   2.196   0.122   0.006
 1082SOL    HW2 4146   2.274   0.001   6.953
 1083SOL     OW 4147   3.849   2.810   1.182
 1083SOL    HW1 4148   3.774   2.811   1.249
 1083SOL    HW2 4149   3.931   2.848   1.223
 1084SOL     OW 4150   6.718   3.942   0.302
 1084SOL    HW1 4151   6.737   4.024   0.248
 1084SOL    HW2 4152   6.676   3.968   0.389
 1085SOL     OW 4153   2.195   3.840   3.931
 1085SOL    HW1 4154   2.159   3.757   3.890
 1085SOL    HW2 4155   2.212   3.909   3.860
 1086SOL     OW 4156   4.206   5.321   2.096
 1086SOL    HW1 4157   4.165   5.354   2.181
 1086SOL    HW2 4158   4.281   5.382   2.069
 1087SOL     OW 4159   4.168   2.934   5.353
 1087SOL    HW1 4160   4.081   2.886   5.339
 1087SOL    HW2 4161   4.163   3.025   5.312
 1088SOL     OW 4162   5.114   3.790   3.534
 1088SOL    HW1 4163   5.089   3.695   3.514
 1088SOL    HW2 4164   5.158   3.794   3.624
 1089SOL     OW 4165   6.171   0.270   2.940
 1089SOL    HW1 4166   6.161   0.319   2.854
 1089SOL    HW2 4167   6.081   0.257   2.982
 1090SOL     OW 4168   0.969   1.999   5.215
 1090SOL    HW1 4169   0.955   1.905   5.247
 1090SOL    HW2 4170   0.964   2.061   5.293
 1091SOL     OW 4171   1.192   2.170   4.775
 1091SOL    HW1 4172   1.256   2.095   4.790
 1091SOL    HW2 4173   1.243   2.254   4.756
 1092SOL     OW 4174   2.262   4.533   1.238
 1092SOL    HW1 4175   2.211   4.618   1.247
 1092SOL    HW2 4176   2.342   4.536   1.298
 1093SOL     OW 4177   0.142   1.738   2.840
 1093SOL    HW1 4178   0.119   1.828   2.877
 1093SOL    HW2 4179   0.155   1.744   2.741
 1094SOL     OW 4180   0.858   6.292   1.669
 1094SOL    HW1 4181   0.853   6.391   1.684
 1094SOL    HW2 4182   0.917   6.251   1.739
 1095SOL     OW 4183   6.345   3.797   5.815
 1095SOL    HW1 4184   6.436   3.837   5.802
 1095SOL    HW2 4185   6.330   3.780   5.913
 1096SOL     OW 4186   3.480   4.109   1.729
 1096SOL    HW1 4187   3.453   4.199   1.696
 1096SOL    HW2 4188   3.428   4.038   1.681
 1097SOL     OW 4189   1.687   4.658   5.445
 1097SOL    HW1 4190   1.757   4.628   5.509
 1097SOL    HW2 4191   1.607   4.691   5.496
 1098SOL     OW 4192   3.791   1.084   3.301
 1098SOL    HW1 4193   3.784   0.984   3.302
 1098SOL    HW2 4194   3.865   1.112   3.240
 1099SOL     OW 4195   3.549   1.663   2.689
 1099SOL    HW1 4196   3.530   1.722   2.611
 1099SOL    HW2 4197   3.608   1.711   2.754
 1100SOL     OW 4198   0.795   0.155   0.855
 1100SOL    HW1 4199   0.847   0.240   0.863
 1100SOL    HW2 4200   0.739   0.159   0.772
 1101SOL     OW 4201   5.719   2.471   0.641
 1101SOL    HW1 4202   5.680   2.531   0.572
 1101SOL    HW2 4203   5.688   2.500   0.732
 1102SOL     OW 4204   0.592   4.665   3.802
 1102SOL    HW1 4205   0.630   4.589   3.750
 1102SOL    HW2 4206   0.525   4.631   3.868
 1103SOL     OW 4207   0.891   3.117   1.424
 1103SOL    HW1 4208   0.804   3.075   1.450
 1103SOL    HW2 4209   0.936   3.153   1.506
 1104SOL     OW 4210   2.979   5.104   5.847
 1104SOL    HW1 4211   2.912   5.179   5.853
 1104SOL    HW2 4212   3.071   5.140   5.861
 1105SOL     OW 4213   4.140   5.621   6.979
 1105SOL    HW1 4214   4.125   5.663   0.044
 1105SOL    HW2 4215   4.238   5.606   6.966
 1106SOL     OW 4216   0.867   2.005   5.996
 1106SOL    HW1 4217   0.830   1.925   5.948
 1106SOL    HW2 4218   0.875   2.081   5.932
 1107SOL     OW 4219   1.225   0.470   1.506
 1107SOL    HW1 4220   1.168   0.542   1.467
 1107SOL    HW2 4221   1.299   0.512   1.560
 1108SOL     OW 4222   1.025   1.864   6.189
 1108SOL    HW1 4223   0.980   1.914   6.116
 1108SOL    HW2 4224   1.047   1.772   6.158
 1109SOL     OW 4225   4.667   1.255   3.924
 1109SOL    HW1 4226   4.647   1.312   3.844
 1109SOL    HW2 4227   4.733   1.302   3.982
 1110SOL     OW 4228   3.789   3.011   2.016
 1110SOL    HW1 4229   3.849   2.994   1.938
 1110SOL    HW2 4230   3.730   2.932   2.031
 1111SOL     OW 4231   5.452   0.061   6.973
 1111SOL    HW1 4232   5.546   0.093   6.969
 1111SOL    HW2 4233   5.450   6.993   7.009
 1112SOL     OW 4234   6.630   1.175   2.962
 1112SOL    HW1 4235   6.677   1.090   2.938
 1112SOL    HW2 4236   6.697   1.242   2.993
 1113SOL     OW 4237   6.166   3.856   1.320
 1113SOL    HW1 4238   6.210   3.781   1.270
 1113SOL    HW2 4239   6.189   3.848   1.417
 1114SOL     OW 4240   5.506   1.724   4.928
 1114SOL    HW1 4241   5.574   1.797   4.918
 1114SOL    HW2 4242   5.553   1.637   4.942
 1115SOL     OW 4243   2.452   3.120   0.502
 1115SOL    HW1 4244   2.446   3.141   0.600
 1115SOL    HW2 4245   2.381   3.171   0.453
 1116SOL     OW 4246   4.205   5.556   4.969
 1116SOL    HW1 4247   4.212   5.513   4.879
 1116SOL    HW2 4248   4.215   5.486   5.040
 1117SOL     OW 4249   2.665   3.218   1.137
 1117SOL    HW1 4250   2.731   3.149   1.107
 1117SOL    HW2 4251   2.576   3.199   1.097
 1118SOL     OW 4252   1.832   3.688   3.499
 1118SOL    HW1 4253   1.842   3.628   3.579
 1118SOL    HW2 4254   1.903   3.758   3.500
 1119SOL     OW 4255   3.243   4.146   2.319
 1119SOL    HW1 4256   3.242   4.232   2.268
 1119SOL    HW2 4257   3.193   4.076   2.268
 1120SOL     OW 4258   4.181   0.452   4.616
 1120SOL    HW1 4259   4.281   0.454   4.610
 1120SOL    HW2 4260   4.142   0.472   4.526
 1121SOL     OW 4261   5.260   3.227   2.384
 1121SOL    HW1 4262   5.198   3.305   2.389
 1121SOL    HW2 4263   5.314   3.231   2.300
 1122SOL     OW 4264   5.156   4.889   6.989
 1122SOL    HW1 4265   5.095   4.855   0.035
 1122SOL    HW2 4266   5.120   4.865   6.899
 1123SOL     OW 4267   3.862   1.011   1.794
 1123SOL    HW1 4268   3.923   1.063   1.734
 1123SOL    HW2 4269   3.878   1.037   1.889
 1124SOL     OW 4270   1.166   4.613   4.762
 1124SOL    HW1 4271   1.074   4.648   4.782
 1124SOL    HW2 4272   1.184   4.618   4.664
 1125SOL     OW 4273   4.039   3.394   4.947
 1125SOL    HW1 4274   3.970   3.323   4.958
 1125SOL    HW2 4275   4.091   3.378   4.862
 1126SOL     OW 4276   5.702   6.799   2.447
 1126SOL    HW1 4277   5.654   6.870   2.395
 1126SOL    HW2 4278   5.789   6.836   2.480
 1127SOL     OW 4279   1.336   4.935   6.828
 1127SOL    HW1 4280   1.276   4.933   6.748
 1127SOL    HW2 4281   1.284   4.909   6.909
 1128SOL     OW 4282   3.209   1.622   4.868
 1128SOL    HW1 4283   3.263   1.563   4.808
 1128SOL    HW2 4284   3.268   1.693   4.906
 1129SOL     OW 4285   5.279   0.121   6.763
 1129SOL    HW1 4286   5.265   0.218   6.746
 1129SOL    HW2 4287   5.337   0.109   6.843
 1130SOL     OW 4288   0.366   4.828   5.895
 1130SOL    HW1 4289   0.276   4.805   5.932
 1130SOL    HW2 4290   0.415   4.887   5.959
 1131SOL     OW 4291   0.601   5.254   6.018
 1131SOL    HW1 4292   0.690   5.287   5.986
 1131SOL    HW2 4293   0.529   5.293   5.959
 1132SOL     OW 4294   4.739   0.076   5.831
 1132SOL    HW1 4295   4.671   0.019   5.783
 1132SOL    HW2 4296   4.784   0.022   5.901
 1133SOL     OW 4297   0.905   2.765   0.817
 1133SOL    HW1 4298   0.946   2.808   0.898
 1133SOL    HW2 4299   0.960   2.786   0.736
 1134SOL     OW 4300   6.454   3.128   5.713
 1134SOL    HW1 4301   6.392   3.166   5.645
 1134SOL    HW2 4302   6.531   3.190   5.727
 1135SOL     OW 4303   5.032   1.680   3.295
 1135SOL    HW1 4304   4.986   1.648   3.212
 1135SOL    HW2 4305   5.074   1.602   3.342
 1136SOL     OW 4306   3.708   5.344   4.181
 1136SOL    HW1 4307   3.745   5.406   4.111
 1136SOL    HW2 4308   3.782   5.294   4.224
 1137SOL     OW 4309   1.722   1.217   5.657
 1137SOL    HW1 4310   1.789   1.145   5.641
 1137SOL    HW2 4311   1.766   1.294   5.703
 1138SOL     OW 4312   0.431   4.043   5.617
 1138SOL    HW1 4313   0.409   4.092   5.532
 1138SOL    HW2 4314   0.530   4.037   5.628
 1139SOL     OW 4315   1.232   6.585   1.876
 1139SOL    HW1 4316   1.259   6.489   1.870
 1139SOL    HW2 4317   1.306   6.639   1.916
 1140SOL     OW 4318   3.327   1.590   3.522
 1140SOL    HW1 4319   3.405   1.557   3.576
 1140SOL    HW2 4320   3.301   1.681   3.554
 1141SOL     OW 4321   6.607   5.814   5.946
 1141SOL    HW1 4322   6.699   5.834   5.979
 1141SOL    HW2 4323   6.574   5.730   5.990
 1142SOL     OW 4324   5.938   0.890   3.878
 1142SOL    HW1 4325   5.909   0.831   3.953
 1142SOL    HW2 4326   5.867   0.958   3.859
 1143SOL     OW 4327   4.359   1.602   2.691
 1143SOL    HW1 4328   4.294   1.668   2.653
 1143SOL    HW2 4329   4.451   1.640   2.687
 1144SOL     OW 4330   0.703   6.143   5.171
 1144SOL    HW1 4331   0.689   6.222   5.111
 1144SOL    HW2 4332   0.712   6.061   5.116
 1145SOL     OW 4333   1.312   5.152   5.571
 1145SOL    HW1 4334   1.305   5.223   5.501
 1145SOL    HW2 4335   1.221   5.118   5.593
 1146SOL     OW 4336   5.760   1.992   0.688
 1146SOL    HW1 4337   5.765   2.089   0.713
 1146SOL    HW2 4338   5.830   1.941   0.739
 1147SOL     OW 4339   6.350   2.709   1.809
 1147SOL    HW1 4340   6.441   2.675   1.832
 1147SOL    HW2 4341   6.340   2.712   1.709
 1148SOL     OW 4342   4.436   0.597   0.274
 1148SOL    HW1 4343   4.512   0.662   0.267
 1148SOL    HW2 4344   4.423   0.571   0.370
 1149SOL     OW 4345   0.470   3.635   2.794
 1149SOL    HW1 4346   0.381   3.646   2.837
 1149SOL    HW2 4347   0.465   3.666   2.699
 1150SOL     OW 4348   1.229   4.651   6.028
 1150SOL    HW1 4349   1.310   4.702   6.056
 1150SOL    HW2 4350   1.221   4.568   6.083
 1151SOL     OW 4351   4.685   5.551   0.094
 1151SOL    HW1 4352   4.756   5.556   0.165
 1151SOL    HW2 4353   4.673   5.456   0.065
 1152SOL     OW 4354   0.462   0.674   5.158
 1152SOL    HW1 4355   0.366   0.653   5.145
 1152SOL    HW2 4356   0.479   0.699   5.254
 1153SOL     OW 4357   2.168   5.152   2.893
 1153SOL    HW1 4358   2.130   5.171   2.803
 1153SOL    HW2 4359   2.265   5.131   2.885
 1154SOL     OW 4360   1.784   4.905   2.050
 1154SOL    HW1 4361   1.701   4.857   2.078
 1154SOL    HW2 4362   1.864   4.854   2.083
 1155SOL     OW 4363   2.999   5.697   1.893
 1155SOL    HW1 4364   2.950   5.739   1.969
 1155SOL    HW2 4365   3.049   5.617   1.926
 1156SOL     OW 4366   2.046   0.920   4.207
 1156SOL    HW1 4367   1.971   0.903   4.143
 1156SOL    HW2 4368   2.126   0.951   4.155
 1157SOL     OW 4369   1.558   1.934   4.026
 1157SOL    HW1 4370   1.610   1.972   3.950
 1157SOL    HW2 4371   1.528   1.841   4.004
 1158SOL     OW 4372   4.442   5.226   5.735
 1158SOL    HW1 4373   4.519   5.165   5.751
 1158SOL    HW2 4374   4.424   5.231   5.636
 1159SOL     OW 4375   5.317   5.114   3.124
 1159SOL    HW1 4376   5.393   5.126   3.188
 1159SOL    HW2 4377   5.268   5.030   3.146
 1160SOL     OW 4378   2.719   2.965   0.664
 1160SOL    HW1 4379   2.722   3.048   0.609
 1160SOL    HW2 4380   2.764   2.891   0.615
 1161SOL     OW 4381   4.205   0.157   4.218
 1161SOL    HW1 4382   4.139   0.192   4.151
 1161SOL    HW2 4383   4.183   0.194   4.308
 1162SOL     OW 4384   3.679   4.389   1.739
 1162SOL    HW1 4385   3.763   4.335   1.730
 1162SOL    HW2 4386   3.599   4.330   1.727
 1163SOL     OW 4387   4.581   2.311   2.626
 1163SOL    HW1 4388   4.507   2.253   2.592
 1163SOL    HW2 4389   4.601   2.383   2.559
 1164SOL     OW 4390   6.142   3.138   3.880
 1164SOL    HW1 4391   6.133   3.203   3.804
 1164SOL    HW2 4392   6.204   3.064   3.854
 1165SOL     OW 4393   1.545   4.639   1.875
 1165SOL    HW1 4394   1.511   4.723   1.919
 1165SOL    HW2 4395   1.490   4.561   1.905
 1166SOL     OW 4396   3.755   3.103   6.144
 1166SOL    HW1 4397   3.691   3.136   6.074
 1166SOL    HW2 4398   3.811   3.029   6.106
 1167SOL     OW 4399   4.329   1.648   4.238
 1167SOL    HW1 4400   4.288   1.666   4.148
 1167SOL    HW2 4401   4.392   1.722   4.261
 1168SOL     OW 4402   6.282   5.737   3.521
 1168SOL    HW1 4403   6.222   5.792   3.579
 1168SOL    HW2 4404   6.228   5.690   3.452
 1169SOL     OW 4405   1.020   3.433   1.705
 1169SOL    HW1 4406   1.014   3.425   1.804
 1169SOL    HW2 4407   0.932   3.460   1.667
 1170SOL     OW 4408   2.752   0.329   0.544
 1170SOL    HW1 4409   2.755   0.251   0.482
 1170SOL    HW2 4410   2.834   0.385   0.531
 1171SOL     OW 4411   2.411   0.163   0.524
 1171SOL    HW1 4412   2.365   0.250   0.534
 1171SOL    HW2 4413   2.406   0.133   0.428
 1172SOL     OW 4414   3.277   3.426   5.060
 1172SOL    HW1 4415   3.327   3.446   5.144
 1172SOL    HW2 4416   3.333   3.454   4.981
 1173SOL     OW 4417   4.728   1.051   6.140
 1173SOL    HW1 4418   4.766   1.138   6.108
 1173SOL    HW2 4419   4.800   0.995   6.181
 1174SOL     OW 4420   3.339   6.714   1.060
 1174SOL    HW1 4421   3.295   6.642   1.114
 1174SOL    HW2 4422   3.421   6.677   1.015
 1175SOL     OW 4423   6.503   5.060   5.122
 1175SOL    HW1 4424   6.602   5.056   5.137
 1175SOL    HW2 4425   6.456   5.063   5.210
 1176SOL     OW 4426   6.458   3.653   1.012
 1176SOL    HW1 4427   6.551   3.673   1.040
 1176SOL    HW2 4428   6.450   3.665   0.913
 1177SOL     OW 4429   6.409   3.357   0.103
 1177SOL    HW1 4430   6.493   3.327   0.147
 1177SOL    HW2 4431   6.419   3.451   0.069
 1178SOL     OW 4432   5.639   4.042   2.051
 1178SOL    HW1 4433   5.738   4.029   2.059
 1178SOL    HW2 4434   5.609   4.115   2.114
 1179SOL     OW 4435   2.429   5.725   6.764
 1179SOL    HW1 4436   2.349   5.749   6.709
 1179SOL    HW2 4437   2.484   5.657   6.715
 1180SOL     OW 4438   2.691   1.836   4.014
 1180SOL    HW1 4439   2.762   1.807   4.078
 1180SOL    HW2 4440   2.602   1.807   4.048
 1181SOL     OW 4441   2.445   4.468   3.060
 1181SOL    HW1 4442   2.532   4.417   3.060
 1181SOL    HW2 4443   2.406   4.466   3.152
 1182SOL     OW 4444   1.416   4.685   3.093
 1182SOL    HW1 4445   1.372   4.705   3.006
 1182SOL    HW2 4446   1.366   4.730   3.167
 1183SOL     OW 4447   4.666   5.313   1.226
 1183SOL    HW1 4448   4.590   5.313   1.161
 1183SOL    HW2 4449   4.719   5.228   1.216
 1184SOL     OW 4450   3.111   2.988   5.584
 1184SOL    HW1 4451   3.078   3.055   5.517
 1184SOL    HW2 4452   3.046   2.981   5.660
 1185SOL     OW 4453   1.935   2.094   0.203
 1185SOL    HW1 4454   2.005   2.134   0.144
 1185SOL    HW2 4455   1.966   2.097   0.298
 1186SOL     OW 4456   4.002   1.071   5.258
 1186SOL    HW1 4457   3.920   1.106   5.211
 1186SOL    HW2 4458   4.080   1.128   5.233
 1187SOL     OW 4459   6.878   1.021   5.318
 1187SOL    HW1 4460   6.831   1.008   5.231
 1187SOL    HW2 4461   6.973   0.992   5.309
 1188SOL     OW 4462   1.271   6.980   5.509
 1188SOL    HW1 4463   1.318   7.025   5.585
 1188SOL    HW2 4464   1.218   0.023   5.458
 1189SOL     OW 4465   6.808   0.821   1.528
 1189SOL    HW1 4466   6.852   0.894   1.476
 1189SOL    HW2 4467   6.710   0.840   1.536
 1190SOL     OW 4468   4.502   4.828   3.008
 1190SOL    HW1 4469   4.409   4.807   2.978
 1190SOL    HW2 4470   4.501   4.910   3.066
 1191SOL     OW 4471   3.772   4.710   6.743
 1191SOL    HW1 4472   3.719   4.697   6.659
 1191SOL    HW2 4473   3.713   4.700   6.822
 1192SOL     OW 4474   4.670   5.027   2.526
 1192SOL    HW1 4475   4.749   5.086   2.544
 1192SOL    HW2 4476   4.613   5.021   2.608
 1193SOL     OW 4477   4.216   6.660   3.989
 1193SOL    HW1 4478   4.304   6.640   4.030
 1193SOL    HW2 4479   4.144   6.609   4.037
 1194SOL     OW 4480   6.184   0.359   1.200
 1194SOL    HW1 4481   6.195   0.312   1.288
 1194SOL    HW2 4482   6.201   0.456   1.212
 1195SOL     OW 4483   4.085   0.691   6.740
 1195SOL    HW1 4484   3.990   0.709   6.764
 1195SOL    HW2 4485   4.104   0.726   6.648
 1196SOL     OW 4486   6.633   5.446   2.365
 1196SOL    HW1 4487   6.565   5.389   2.412
 1196SOL    HW2 4488   6.719   5.396   2.357
 1197SOL     OW 4489   3.185   5.550   6.270
 1197SOL    HW1 4490   3.258   5.486   6.296
 1197SOL    HW2 4491   3.127   5.567   6.350
 1198SOL     OW 4492   3.254   1.261   2.902
 1198SOL    HW1 4493   3.322   1.230   2.968
 1198SOL    HW2 4494   3.205   1.340   2.940
 1199SOL     OW 4495   3.665   4.129   3.356
 1199SOL    HW1 4496   3.634   4.157   3.447
 1199SOL    HW2 4497   3.587   4.098   3.302
 1200SOL     OW 4498   3.940   4.126   0.246
 1200SOL    HW1 4499   4.029   4.133   0.201
 1200SOL    HW2 4500   3.870   4.170   0.190
 1201SOL     OW 4501   1.401   0.929   4.600
 1201SOL    HW1 4502   1.409   0.880   4.687
 1201SOL    HW2 4503   1.305   0.936   4.575
 1202SOL     OW 4504   6.134   0.110   4.829
 1202SOL    HW1 4505   6.212   0.156   4.787
 1202SOL    HW2 4506   6.143   0.114   4.928
 1203SOL     OW 4507   5.809   6.858   1.754
 1203SOL    HW1 4508   5.782   6.764   1.773
 1203SOL    HW2 4509   5.735   6.920   1.782
 1204SOL     OW 4510   3.046   0.446   0.282
 1204SOL    HW1 4511   2.975   0.510   0.252
 1204SOL    HW2 4512   3.035   0.359   0.234
 1205SOL     OW 4513   0.491   2.469   4.985
 1205SOL    HW1 4514   0.524   2.392   4.931
 1205SOL    HW2 4515   0.568   2.511   5.032
 1206SOL     OW 4516   0.617   1.662   4.624
 1206SOL    HW1 4517   0.587   1.729   4.692
 1206SOL    HW2 4518   0.578   1.573   4.645
 1207SOL     OW 4519   5.546   6.044   6.732
 1207SOL    HW1 4520   5.534   6.097   6.648
 1207SOL    HW2 4521   5.471   6.065   6.796
 1208SOL     OW 4522   3.872   3.951   3.520
 1208SOL    HW1 4523   3.799   3.884   3.536
 1208SOL    HW2 4524   3.838   4.024   3.461
 1209SOL     OW 4525   6.216   5.055   4.733
 1209SOL    HW1 4526   6.270   4.975   4.761
 1209SOL    HW2 4527   6.260   5.100   4.656
 1210SOL     OW 4528   2.741   6.782   2.739
 1210SOL    HW1 4529   2.756   6.779   2.837
 1210SOL    HW2 4530   2.826   6.763   2.691
 1211SOL     OW 4531   1.115   3.467   4.347
 1211SOL    HW1 4532   1.059   3.549   4.353
 1211SOL    HW2 4533   1.124   3.439   4.251
 1212SOL     OW 4534   2.034   3.952   4.932
 1212SOL    HW1 4535   1.968   4.024   4.911
 1212SOL    HW2 4536   2.125   3.993   4.944
 1213SOL     OW 4537   5.932   3.163   5.462
 1213SOL    HW1 4538   5.899   3.120   5.378
 1213SOL    HW2 4539   5.875   3.134   5.539
 1214SOL     OW 4540   1.987   2.368   3.109
 1214SOL    HW1 4541   1.988   2.318   3.196
 1214SOL    HW2 4542   1.931   2.450   3.119
 1215SOL     OW 4543   0.435   5.228   1.840
 1215SOL    HW1 4544   0.450   5.326   1.855
 1215SOL    HW2 4545   0.357   5.197   1.894
 1216SOL     OW 4546   3.096   0.296   1.860
 1216SOL    HW1 4547   3.075   0.298   1.762
 1216SOL    HW2 4548   3.156   0.373   1.882
 1217SOL     OW 4549   1.420   1.388   2.691
 1217SOL    HW1 4550   1.355   1.318   2.659
 1217SOL    HW2 4551   1.468   1.355   2.772
 1218SOL     OW 4552   0.376   3.766   4.340
 1218SOL    HW1 4553   0.321   3.707   4.282
 1218SOL    HW2 4554   0.387   3.856   4.296
 1219SOL     OW 4555   2.570   5.950   3.041
 1219SOL    HW1 4556   2.572   5.857   3.004
 1219SOL    HW2 4557   2.552   6.015   2.967
 1220SOL     OW 4558   6.757   4.298   2.834
 1220SOL    HW1 4559   6.712   4.353   2.905
 1220SOL    HW2 4560   6.696   4.224   2.806
 1221SOL     OW 4561   4.764   3.192   7.015
 1221SOL    HW1 4562   4.694   3.163   0.055
 1221SOL    HW2 4563   4.845   3.222   0.040
 1222SOL     OW 4564   6.279   6.373   0.991
 1222SOL    HW1 4565   6.290   6.441   0.918
 1222SOL    HW2 4566   6.251   6.420   1.075
 1223SOL     OW 4567   6.019   5.730   5.312
 1223SOL    HW1 4568   6.059   5.772   5.230
 1223SOL    HW2 4569   6.035   5.790   5.391
 1224SOL     OW 4570   4.950   4.625   1.910
 1224SOL    HW1 4571   4.909   4.542   1.949
 1224SOL    HW2 4572   4.951   4.697   1.979
 1225SOL     OW 4573   5.156   1.277   0.273
 1225SOL    HW1 4574   5.121   1.217   0.345
 1225SOL    HW2 4575   5.123   1.245   0.184
 1226SOL     OW 4576   5.085   4.654   0.500
 1226SOL    HW1 4577   5.116   4.731   0.557
 1226SOL    HW2 4578   5.020   4.687   0.433
 1227SOL     OW 4579   5.345   4.782   6.727
 1227SOL    HW1 4580   5.396   4.729   6.659
 1227SOL    HW2 4581   5.284   4.845   6.681
 1228SOL     OW 4582   3.710   3.498   4.226
 1228SOL    HW1 4583   3.636   3.563   4.206
 1228SOL    HW2 4584   3.695   3.414   4.175
 1229SOL     OW 4585   2.093   5.582   2.957
 1229SOL    HW1 4586   2.062   5.666   3.002
 1229SOL    HW2 4587   2.134   5.605   2.869
 1230SOL     OW 4588   5.297   5.077   1.809
 1230SOL    HW1 4589   5.279   5.117   1.899
 1230SOL    HW2 4590   5.392   5.095   1.784
 1231SOL     OW 4591   1.798   2.216   6.833
 1231SOL    HW1 4592   1.823   2.212   6.736
 1231SOL    HW2 4593   1.874   2.257   6.884
 1232SOL     OW 4594   3.007   0.704   5.032
 1232SOL    HW1 4595   2.915   0.739   5.051
 1232SOL    HW2 4596   3.034   0.642   5.106
 1233SOL     OW 4597   0.158   4.956   5.308
 1233SOL    HW1 4598   0.242   4.901   5.302
 1233SOL    HW2 4599   0.135   4.972   5.404
 1234SOL     OW 4600   6.728   3.679   6.952
 1234SOL    HW1 4601   6.797   3.617   6.915
 1234SOL    HW2 4602   6.647   3.677   6.894
 1235SOL     OW 4603   6.173   4.952   1.049
 1235SOL    HW1 4604   6.164   4.944   1.148
 1235SOL    HW2 4605   6.246   4.891   1.017
 1236SOL     OW 4606   1.430   1.656   2.796
 1236SOL    HW1 4607   1.439   1.559   2.773
 1236SOL    HW2 4608   1.508   1.706   2.759
 1237SOL     OW 4609   0.570   6.776   5.141
 1237SOL    HW1 4610   0.530   6.853   5.190
 1237SOL    HW2 4611   0.632   6.810   5.070
 1238SOL     OW 4612   0.881   0.521   4.281
 1238SOL    HW1 4613   0.835   0.565   4.358
 1238SOL    HW2 4614   0.913   0.430   4.310
 1239SOL     OW 4615   5.351   4.912   4.505
 1239SOL    HW1 4616   5.302   4.898   4.591
 1239SOL    HW2 4617   5.423   4.980   4.518
 1240SOL     OW 4618   0.952   3.752   2.155
 1240SOL    HW1 4619   0.926   3.810   2.232
 1240SOL    HW2 4620   0.916   3.659   2.170
 1241SOL     OW 4621   4.191   5.289   5.395
 1241SOL    HW1 4622   4.131   5.243   5.461
 1241SOL    HW2 4623   4.286   5.267   5.415
 1242SOL     OW 4624   2.366   4.152   0.815
 1242SOL    HW1 4625   2.389   4.155   0.912
 1242SOL    HW2 4626   2.317   4.235   0.789
 1243SOL     OW 4627   0.820   4.008   4.862
 1243SOL    HW1 4628   0.722   3.991   4.861
 1243SOL    HW2 4629   0.838   4.100   4.898
 1244SOL     OW 4630   6.052   0.431   5.404
 1244SOL    HW1 4631   6.105   0.436   5.319
 1244SOL    HW2 4632   5.976   0.495   5.400
 1245SOL     OW 4633   4.648   5.950   1.355
 1245SOL    HW1 4634   4.629   5.949   1.257
 1245SOL    HW2 4635   4.747   5.942   1.370
 1246SOL     OW 4636   4.988   0.886   0.290
 1246SOL    HW1 4637   5.063   0.933   0.337
 1246SOL    HW2 4638   5.001   0.892   0.191
 1247SOL     OW 4639   6.657   0.037   2.898
 1247SOL    HW1 4640   6.690   6.969   2.882
 1247SOL    HW2 4641   6.735   0.097   2.918
 1248SOL     OW 4642   1.548   6.684   4.714
 1248SOL    HW1 4643   1.522   6.767   4.664
 1248SOL    HW2 4644   1.602   6.710   4.794
 1249SOL     OW 4645   5.446   5.834   6.409
 1249SOL    HW1 4646   5.410   5.927   6.400
 1249SOL    HW2 4647   5.521   5.835   6.475
 1250SOL     OW 4648   0.084   3.078   4.653
 1250SOL    HW1 4649   0.029   2.997   4.632
 1250SOL    HW2 4650   0.026   3.159   4.657
 1251SOL     OW 4651   2.788   1.164   2.819
 1251SOL    HW1 4652   2.732   1.091   2.780
 1251SOL    HW2 4653   2.872   1.124   2.856
 1252SOL     OW 4654   1.859   5.972   6.264
 1252SOL    HW1 4655   1.864   6.050   6.202
 1252SOL    HW2 4656   1.934   5.976   6.329
 1253SOL     OW 4657   3.339   6.951   0.345
 1253SOL    HW1 4658   3.273   6.943   0.420
 1253SOL    HW2 4659   3.347   0.022   0.318
 1254SOL     OW 4660   5.888   0.228   3.011
 1254SOL    HW1 4661   5.881   0.161   3.085
 1254SOL    HW2 4662   5.855   0.317   3.043
 1255SOL     OW 4663   5.369   1.258   5.467
 1255SOL    HW1 4664   5.359   1.298   5.376
 1255SOL    HW2 4665   5.283   1.268   5.518
 1256SOL     OW 4666   0.411   5.819   4.668
 1256SOL    HW1 4667   0.340   5.757   4.701
 1256SOL    HW2 4668   0.491   5.766   4.638
 1257SOL     OW 4669   0.770   6.394   3.634
 1257SOL    HW1 4670   0.704   6.332   3.594
 1257SOL    HW2 4671   0.856   6.346   3.650
 1258SOL     OW 4672   4.385   6.082   6.089
 1258SOL    HW1 4673   4.450   6.084   6.013
 1258SOL    HW2 4674   4.417   6.018   6.159
 1259SOL     OW 4675   5.679   0.438   5.427
 1259SOL    HW1 4676   5.719   0.527   5.446
 1259SOL    HW2 4677   5.589   0.449   5.384
 1260SOL     OW 4678   2.825   1.435   1.095
 1260SOL    HW1 4679   2.887   1.415   1.018
 1260SOL    HW2 4680   2.805   1.351   1.144
 1261SOL     OW 4681   6.566   4.363   5.417
 1261SOL    HW1 4682   6.475   4.397   5.395
 1261SOL    HW2 4683   6.560   4.267   5.444
 1262SOL     OW 4684   3.922   4.654   1.261
 1262SOL    HW1 4685   3.878   4.715   1.195
 1262SOL    HW2 4686   3.974   4.584   1.213
 1263SOL     OW 4687   6.358   2.183   0.966
 1263SOL    HW1 4688   6.414   2.178   0.882
 1263SOL    HW2 4689   6.395   2.255   1.026
 1264SOL     OW 4690   0.052   2.935   3.924
 1264SOL    HW1 4691   0.079   2.876   3.848
 1264SOL    HW2 4692   0.109   3.017   3.924
 1265SOL     OW 4693   0.014   5.850   4.730
 1265SOL    HW1 4694   6.942   5.832   4.745
 1265SOL    HW2 4695   0.042   5.812   4.642
 1266SOL     OW 4696   2.110   1.368   4.530
 1266SOL    HW1 4697   2.118   1.270   4.509
 1266SOL    HW2 4698   2.017   1.398   4.509
 1267SOL     OW 4699   6.270   4.863   2.293
 1267SOL    HW1 4700   6.286   4.949   2.342
 1267SOL    HW2 4701   6.175   4.835   2.304
 1268SOL     OW 4702   6.391   3.625   0.004
 1268SOL    HW1 4703   6.429   3.695   0.065
 1268SOL    HW2 4704   6.383   3.662   6.937
 1269SOL     OW 4705   6.811   5.554   6.102
 1269SOL    HW1 4706   6.828   5.641   6.057
 1269SOL    HW2 4707   6.748   5.500   6.046
 1270SOL     OW 4708   1.668   2.534   5.056
 1270SOL    HW1 4709   1.688   2.524   5.153
 1270SOL    HW2 4710   1.684   2.629   5.028
 1271SOL     OW 4711   5.199   2.009   3.010
 1271SOL    HW1 4712   5.162   1.990   3.101
 1271SOL    HW2 4713   5.183   1.931   2.950
 1272SOL     OW 4714   0.380   6.433   1.786
 1272SOL    HW1 4715   0.322   6.515   1.788
 1272SOL    HW2 4716   0.411   6.412   1.878
 1273SOL     OW 4717   2.320   6.818   6.444
 1273SOL    HW1 4718   2.292   6.756   6.371
 1273SOL    HW2 4719   2.414   6.848   6.427
 1274SOL     OW 4720   6.682   2.879   1.739
 1274SOL    HW1 4721   6.722   2.797   1.777
 1274SOL    HW2 4722   6.710   2.959   1.793
 1275SOL     OW 4723   3.724   1.457   3.939
 1275SOL    HW1 4724   3.729   1.482   4.036
 1275SOL    HW2 4725   3.804   1.403   3.914
 1276SOL     OW 4726   6.352   0.176   3.334
 1276SOL    HW1 4727   6.374   0.172   3.237
 1276SOL    HW2 4728   6.410   0.244   3.378
 1277SOL     OW 4729   0.417   1.095   5.224
 1277SOL    HW1 4730   0.329   1.094   5.176
 1277SOL    HW2 4731   0.419   1.022   5.293
 1278SOL     OW 4732   2.523   1.772   5.352
 1278SOL    HW1 4733   2.613   1.787   5.312
 1278SOL    HW2 4734   2.482   1.860   5.376
 1279SOL     OW 4735   2.628   5.306   6.930
 1279SOL    HW1 4736   2.717   5.282   6.969
 1279SOL    HW2 4737   2.641   5.372   6.856
 1280SOL     OW 4738   1.949   6.499   3.251
 1280SOL    HW1 4739   1.912   6.458   3.167
 1280SOL    HW2 4740   1.923   6.442   3.329
 1281SOL     OW 4741   0.823   0.075   3.720
 1281SOL    HW1 4742   0.857   0.018   3.795
 1281SOL    HW2 4743   0.766   0.020   3.659
 1282SOL     OW 4744   1.126   0.720   2.286
 1282SOL    HW1 4745   1.191   0.651   2.318
 1282SOL    HW2 4746   1.033   0.692   2.312
 1283SOL     OW 4747   5.136   5.344   5.949
 1283SOL    HW1 4748   5.218   5.394   5.974
 1283SOL    HW2 4749   5.056   5.389   5.988
 1284SOL     OW 4750   2.350   2.090   1.768
 1284SOL    HW1 4751   2.263   2.138   1.770
 1284SOL    HW2 4752   2.398   2.110   1.683
 1285SOL     OW 4753   4.710   2.257   5.457
 1285SOL    HW1 4754   4.686   2.205   5.539
 1285SOL    HW2 4755   4.801   2.296   5.468
 1286SOL     OW 4756   6.281   5.461   1.851
 1286SOL    HW1 4757   6.273   5.520   1.770
 1286SOL    HW2 4758   6.223   5.380   1.839
 1287SOL     OW 4759   6.616   4.647   6.148
 1287SOL    HW1 4760   6.583   4.561   6.188
 1287SOL    HW2 4761   6.567   4.724   6.190
 1288SOL     OW 4762   6.846   2.829   2.439
 1288SOL    HW1 4763   6.903   2.781   2.505
 1288SOL    HW2 4764   6.834   2.772   2.357
 1289SOL     OW 4765   6.375   6.240   2.565
 1289SOL    HW1 4766   6.286   6.197   2.580
 1289SOL    HW2 4767   6.362   6.326   2.516
 1290SOL     OW 4768   0.640   6.695   1.777
 1290SOL    HW1 4769   0.572   6.735   1.839
 1290SOL    HW2 4770   0.682   6.768   1.723
 1291SOL     OW 4771   2.367   6.526   0.483
 1291SOL    HW1 4772   2.405   6.452   0.539
 1291SOL    HW2 4773   2.326   6.595   0.543
 1292SOL     OW 4774   1.256   5.920   0.533
 1292SOL    HW1 4775   1.227   5.825   0.529
 1292SOL    HW2 4776   1.354   5.924   0.552
 1293SOL     OW 4777   0.331   2.847   5.660
 1293SOL    HW1 4778   0.267   2.899   5.717
 1293SOL    HW2 4779   0.424   2.857   5.696
 1294SOL     OW 4780   0.196   2.069   2.613
 1294SOL    HW1 4781   0.256   2.057   2.534
 1294SOL    HW2 4782   0.104   2.035   2.591
 1295SOL     OW 4783   6.202   3.129   1.804
 1295SOL    HW1 4784   6.285   3.117   1.748
 1295SOL    HW2 4785   6.170   3.040   1.835
 1296SOL     OW 4786   4.035   2.411   6.385
 1296SOL    HW1 4787   4.025   2.352   6.305
 1296SOL    HW2 4788   4.001   2.502   6.364
 1297SOL     OW 4789   6.682   1.619   5.804
 1297SOL    HW1 4790   6.710   1.623   5.709
 1297SOL    HW2 4791   6.704   1.530   5.843
 1298SOL     OW 4792   5.445   3.156   3.685
 1298SOL    HW1 4793   5.467   3.060   3.667
 1298SOL    HW2 4794   5.357   3.161   3.733
 1299SOL     OW 4795   0.781   4.049   3.967
 1299SOL    HW1 4796   0.771   3.967   4.023
 1299SOL    HW2 4797   0.741   4.127   4.015
 1300SOL     OW 4798   2.765   3.402   1.322
 1300SOL    HW1 4799   2.857   3.363   1.321
 1300SOL    HW2 4800   2.706   3.348   1.262
 1301SOL     OW 4801   0.529   0.214   3.051
 1301SOL    HW1 4802   0.602   0.263   3.003
 1301SOL    HW2 4803   0.459   0.186   2.986
 1302SOL     OW 4804   2.841   5.945   4.939
 1302SOL    HW1 4805   2.895   5.978   4.861
 1302SOL    HW2 4806   2.780   5.872   4.908
 1303SOL     OW 4807   3.804   1.316   1.464
 1303SOL    HW1 4808   3.709   1.288   1.479
 1303SOL    HW2 4809   3.857   1.237   1.433
 1304SOL     OW 4810   2.759   0.778   6.630
 1304SOL    HW1 4811   2.736   0.708   6.563
 1304SOL    HW2 4812   2.759   0.868   6.586
 1305SOL     OW 4813   4.964   6.705   4.825
 1305SOL    HW1 4814   5.045   6.705   4.883
 1305SOL    HW2 4815   4.902   6.778   4.854
 1306SOL     OW 4816   0.854   4.641   3.919
 1306SOL    HW1 4817   0.861   4.562   3.857
 1306SOL    HW2 4818   0.775   4.697   3.892
 1307SOL     OW 4819   1.804   1.672   4.540
 1307SOL    HW1 4820   1.873   1.744   4.545
 1307SOL    HW2 4821   1.826   1.610   4.465
 1308SOL     OW 4822   4.992   6.153   2.901
 1308SOL    HW1 4823   5.076   6.126   2.855
 1308SOL    HW2 4824   4.913   6.120   2.848
 1309SOL     OW 4825   5.410   2.831   4.655
 1309SOL    HW1 4826   5.412   2.746   4.602
 1309SOL    HW2 4827   5.316   2.867   4.657
 1310SOL     OW 4828   4.817   3.769   5.328
 1310SOL    HW1 4829   4.788   3.765   5.423
 1310SOL    HW2 4830   4.758   3.710   5.272
 1311SOL     OW 4831   5.065   5.693   5.123
 1311SOL    HW1 4832   4.993   5.710   5.189
 1311SOL    HW2 4833   5.146   5.658   5.170
 1312SOL     OW 4834   0.535   6.609   1.110
 1312SOL    HW1 4835   0.574   6.602   1.018
 1312SOL    HW2 4836   0.486   6.525   1.132
 1313SOL     OW 4837   3.433   5.160   5.306
 1313SOL    HW1 4838   3.344   5.147   5.350
 1313SOL    HW2 4839   3.449   5.086   5.240
 1314SOL     OW 4840   6.208   1.790   4.737
 1314SOL    HW1 4841   6.252   1.879   4.749
 1314SOL    HW2 4842   6.195   1.772   4.640
 1315SOL     OW 4843   2.194   1.022   2.921
 1315SOL    HW1 4844   2.211   1.009   2.823
 1315SOL    HW2 4845   2.110   1.076   2.933
 1316SOL     OW 4846   2.956   6.723   2.601
 1316SOL    HW1 4847   2.928   6.694   2.510
 1316SOL    HW2 4848   3.026   6.795   2.594
 1317SOL     OW 4849   0.049   5.832   3.932
 1317SOL    HW1 4850   0.057   5.921   3.888
 1317SOL    HW2 4851   0.017   5.844   4.026
 1318SOL     OW 4852   6.803   6.586   0.721
 1318SOL    HW1 4853   6.794   6.494   0.757
 1318SOL    HW2 4854   6.721   6.639   0.743
 1319SOL     OW 4855   6.308   0.866   7.015
 1319SOL    HW1 4856   6.280   0.940   6.954
 1319SOL    HW2 4857   6.364   0.904   0.063
 1320SOL     OW 4858   5.539   5.266   6.435
 1320SOL    HW1 4859   5.619   5.254   6.494
 1320SOL    HW2 4860   5.474   5.192   6.452
 1321SOL     OW 4861   3.789   2.403   6.734
 1321SOL    HW1 4862   3.730   2.351   6.672
 1321SOL    HW2 4863   3.878   2.358   6.740
 1322SOL     OW 4864   5.858   1.486   5.210
 1322SOL    HW1 4865   5.802   1.410   5.178
 1322SOL    HW2 4866   5.954   1.467   5.192
 1323SOL     OW 4867   6.537   1.913   4.642
 1323SOL    HW1 4868   6.501   2.004   4.625
 1323SOL    HW2 4869   6.569   1.873   4.556
 1324SOL     OW 4870   1.365   3.943   0.649
 1324SOL    HW1 4871   1.438   3.983   0.705
 1324SOL    HW2 4872   1.315   4.016   0.602
 1325SOL     OW 4873   3.345   5.864   2.754
 1325SOL    HW1 4874   3.429   5.910   2.784
 1325SOL    HW2 4875   3.351   5.766   2.774
 1326SOL     OW 4876   5.784   3.381   4.328
 1326SOL    HW1 4877   5.838   3.348   4.405
 1326SOL    HW2 4878   5.713   3.315   4.306
 1327SOL     OW 4879   3.226   5.161   3.331
 1327SOL    HW1 4880   3.168   5.116   3.263
 1327SOL    HW2 4881   3.268   5.092   3.390
 1328SOL     OW 4882   1.568   2.469   6.690
 1328SOL    HW1 4883   1.598   2.402   6.757
 1328SOL    HW2 4884   1.508   2.536   6.735
 1329SOL     OW 4885   0.915   0.391   0.945
 1329SOL    HW1 4886   0.941   0.426   0.856
 1329SOL    HW2 4887   0.996   0.381   1.003
 1330SOL     OW 4888   6.210   6.420   1.257
 1330SOL    HW1 4889   6.129   6.372   1.291
 1330SOL    HW2 4890   6.188   6.516   1.242
 1331SOL     OW 4891   5.679   0.276   2.073
 1331SOL    HW1 4892   5.662   0.249   1.978
 1331SOL    HW2 4893   5.595   0.312   2.113
 1332SOL     OW 4894   4.215   1.629   1.491
 1332SOL    HW1 4895   4.276   1.557   1.525
 1332SOL    HW2 4896   4.134   1.587   1.450
 1333SOL     OW 4897   3.871   4.445   5.300
 1333SOL    HW1 4898   3.917   4.361   5.269
 1333SOL    HW2 4899   3.865   4.446   5.399
 1334SOL     OW 4900   0.297   3.769   4.627
 1334SOL    HW1 4901   0.302   3.771   4.527
 1334SOL    HW2 4902   0.219   3.824   4.657
 1335SOL     OW 4903   2.760   5.114   2.947
 1335SOL    HW1 4904   2.713   5.047   3.004
 1335SOL    HW2 4905   2.855   5.085   2.933
 1336SOL     OW 4906   0.640   0.364   5.359
 1336SOL    HW1 4907   0.620   0.434   5.427
 1336SOL    HW2 4908   0.585   0.282   5.379
 1337SOL     OW 4909   2.416   1.424   6.162
 1337SOL    HW1 4910   2.395   1.330   6.136
 1337SOL    HW2 4911   2.384   1.486   6.091
 1338SOL     OW 4912   3.844   5.662   0.516
 1338SOL    HW1 4913   3.910   5.734   0.494
 1338SOL    HW2 4914   3.789   5.642   0.435
 1339SOL     OW 4915   0.196   4.436   4.526
 1339SOL    HW1 4916   0.235   4.361   4.473
 1339SOL    HW2 4917   0.117   4.473   4.478
 1340SOL     OW 4918   1.977   1.857   6.112
 1340SOL    HW1 4919   1.894   1.829   6.064
 1340SOL    HW2 4920   1.987   1.805   6.197
 1341SOL     OW 4921   4.055   1.807   3.391
 1341SOL    HW1 4922   4.110   1.886   3.367
 1341SOL    HW2 4923   3.983   1.834   3.455
 1342SOL     OW 4924   0.445   6.371   0.910
 1342SOL    HW1 4925   0.360   6.421   0.894
 1342SOL    HW2 4926   0.453   6.297   0.843
 1343SOL     OW 4927   3.979   4.881   2.931
 1343SOL    HW1 4928   3.896   4.824   2.929
 1343SOL    HW2 4929   3.964   4.965   2.880
 1344SOL     OW 4930   6.004   1.134   2.382
 1344SOL    HW1 4931   6.039   1.050   2.423
 1344SOL    HW2 4932   5.904   1.133   2.383
 1345SOL     OW 4933   0.814   6.901   3.514
 1345SOL    HW1 4934   0.725   6.941   3.488
 1345SOL    HW2 4935   0.817   6.805   3.488
 1346SOL     OW 4936   0.140   0.813   3.986
 1346SOL    HW1 4937   0.102   0.765   3.907
 1346SOL    HW2 4938   0.124   0.759   4.069
 1347SOL     OW 4939   5.836   0.482   3.074
 1347SOL    HW1 4940   5.927   0.522   3.061
 1347SOL    HW2 4941   5.796   0.517   3.159
 1348SOL     OW 4942   5.210   4.387   4.556
 1348SOL    HW1 4943   5.195   4.486   4.551
 1348SOL    HW2 4944   5.301   4.369   4.593
 1349SOL     OW 4945   4.660   2.760   6.863
 1349SOL    HW1 4946   4.669   2.694   6.938
 1349SOL    HW2 4947   4.597   2.723   6.795
 1350SOL     OW 4948   3.377   0.254   5.654
 1350SOL    HW1 4949   3.346   0.330   5.597
 1350SOL    HW2 4950   3.393   0.287   5.747
 1351SOL     OW 4951   0.747   0.659   4.501
 1351SOL    HW1 4952   0.687   0.738   4.494
 1351SOL    HW2 4953   0.721   0.604   4.581
 1352SOL     OW 4954   0.123   0.669   3.744
 1352SOL    HW1 4955   0.103   0.677   3.646
 1352SOL    HW2 4956   0.218   0.693   3.761
 1353SOL     OW 4957   1.455   4.706   3.971
 1353SOL    HW1 4958   1.518   4.780   3.996
 1353SOL    HW2 4959   1.408   4.729   3.886
 1354SOL     OW 4960   0.522   0.468   1.918
 1354SOL    HW1 4961   0.540   0.519   1.834
 1354SOL    HW2 4962   0.466   0.524   1.979
 1355SOL     OW 4963   4.731   2.982   6.346
 1355SOL    HW1 4964   4.648   3.016   6.390
 1355SOL    HW2 4965   4.708   2.938   6.259
 1356SOL     OW 4966   3.102   3.945   2.167
 1356SOL    HW1 4967   3.024   3.883   2.178
 1356SOL    HW2 4968   3.129   3.946   2.071
 1357SOL     OW 4969   2.827   2.758   5.500
 1357SOL    HW1 4970   2.808   2.661   5.518
 1357SOL    HW2 4971   2.888   2.765   5.421
 1358SOL     OW 4972   2.289   2.466   5.300
 1358SOL    HW1 4973   2.243   2.554   5.310
 1358SOL    HW2 4974   2.301   2.445   5.203
 1359SOL     OW 4975   6.988   1.039   0.631
 1359SOL    HW1 4976   6.932   1.089   0.565
 1359SOL    HW2 4977   0.031   0.984   0.581
 1360SOL     OW 4978   3.296   3.429   4.416
 1360SOL    HW1 4979   3.231   3.408   4.489
 1360SOL    HW2 4980   3.346   3.512   4.439
 1361SOL     OW 4981   1.108   6.089   0.661
 1361SOL    HW1 4982   1.161   6.016   0.617
 1361SOL    HW2 4983   1.126   6.089   0.759
 1362SOL     OW 4984   3.155   2.946   6.199
 1362SOL    HW1 4985   3.231   2.924   6.260
 1362SOL    HW2 4986   3.179   2.921   6.105
 1363SOL     OW 4987   5.865   6.490   2.216
 1363SOL    HW1 4988   5.808   6.543   2.154
 1363SOL    HW2 4989   5.863   6.394   2.188
 1364SOL     OW 4990   0.688   3.515   1.290
 1364SOL    HW1 4991   0.767   3.460   1.317
 1364SOL    HW2 4992   0.640   3.470   1.214
 1365SOL     OW 4993   0.378   3.706   5.498
 1365SOL    HW1 4994   0.450   3.697   5.566
 1365SOL    HW2 4995   0.416   3.746   5.415
 1366SOL     OW 4996   5.121   0.774   1.088
 1366SOL    HW1 4997   5.215   0.742   1.101
 1366SOL    HW2 4998   5.113   0.820   1.000
 1367SOL     OW 4999   0.732   6.303   4.258
 1367SOL    HW1 5000   0.720   6.259   4.169
 1367SOL    HW2 5001   0.748   6.233   4.328
 1368SOL     OW 5002   1.061   6.366   5.727
 1368SOL    HW1 5003   1.130   6.438   5.716
 1368SOL    HW2 5004   1.055   6.312   5.644
 1369SOL     OW 5005   2.833   6.498   3.469
 1369SOL    HW1 5006   2.855   6.579   3.416
 1369SOL    HW2 5007   2.753   6.453   3.429
 1370SOL     OW 5008   6.496   2.389   2.766
 1370SOL    HW1 5009   6.500   2.474   2.714
 1370SOL    HW2 5010   6.589   2.357   2.783
 1371SOL     OW 5011   5.896   1.975   5.648
 1371SOL    HW1 5012   5.813   1.988   5.702
 1371SOL    HW2 5013   5.893   1.885   5.605
 1372SOL     OW 5014   6.546   2.933   0.130
 1372SOL    HW1 5015   6.542   2.912   0.228
 1372SOL    HW2 5016   6.593   2.859   0.082
 1373SOL     OW 5017   5.167   2.411   1.960
 1373SOL    HW1 5018   5.237   2.454   2.018
 1373SOL    HW2 5019   5.078   2.420   2.003
 1374SOL     OW 5020   4.161   3.766   0.365
 1374SOL    HW1 5021   4.165   3.687   0.425
 1374SOL    HW2 5022   4.253   3.788   0.332
 1375SOL     OW 5023   5.544   5.644   4.144
 1375SOL    HW1 5024   5.559   5.659   4.242
 1375SOL    HW2 5025   5.448   5.619   4.129
 1376SOL     OW 5026   2.574   4.950   6.028
 1376SOL    HW1 5027   2.489   4.939   5.976
 1376SOL    HW2 5028   2.645   4.985   5.967
 1377SOL     OW 5029   1.652   1.307   3.109
 1377SOL    HW1 5030   1.743   1.272   3.127
 1377SOL    HW2 5031   1.658   1.397   3.067
 1378SOL     OW 5032   4.480   2.228   4.194
 1378SOL    HW1 5033   4.477   2.324   4.168
 1378SOL    HW2 5034   4.391   2.200   4.228
 1379SOL     OW 5035   5.001   5.633   1.033
 1379SOL    HW1 5036   5.001   5.579   1.118
 1379SOL    HW2 5037   5.029   5.727   1.053
 1380SOL     OW 5038   7.023   6.364   1.852
 1380SOL    HW1 5039   0.036   6.435   1.911
 1380SOL    HW2 5040   0.072   6.302   1.823
 1381SOL     OW 5041   6.458   2.210   5.742
 1381SOL    HW1 5042   6.454   2.286   5.807
 1381SOL    HW2 5043   6.499   2.131   5.787
 1382SOL     OW 5044   4.757   2.583   0.037
 1382SOL    HW1 5045   4.827   2.533   0.087
 1382SOL    HW2 5046   4.707   2.642   0.101
 1383SOL     OW 5047   0.661   1.491   2.203
 1383SOL    HW1 5048   0.595   1.553   2.246
 1383SOL    HW2 5049   0.720   1.452   2.273
 1384SOL     OW 5050   5.921   1.868   1.296
 1384SOL    HW1 5051   5.977   1.904   1.370
 1384SOL    HW2 5052   5.879   1.782   1.324
 1385SOL     OW 5053   0.887   5.881   1.750
 1385SOL    HW1 5054   0.954   5.896   1.677
 1385SOL    HW2 5055   0.804   5.933   1.730
 1386SOL     OW 5056   2.303   5.739   4.464
 1386SOL    HW1 5057   2.266   5.743   4.371
 1386SOL    HW2 5058   2.353   5.653   4.476
 1387SOL     OW 5059   2.783   5.750   2.228
 1387SOL    HW1 5060   2.866   5.694   2.233
 1387SOL    HW2 5061   2.793   5.831   2.285
 1388SOL     OW 5062   6.676   0.689   1.845
 1388SOL    HW1 5063   6.694   0.776   1.798
 1388SOL    HW2 5064   6.687   0.613   1.781
 1389SOL     OW 5065   6.091   0.926   2.522
 1389SOL    HW1 5066   6.170   0.867   2.534
 1389SOL    HW2 5067   6.037   0.927   2.607
 1390SOL     OW 5068   0.574   1.958   6.100
 1390SOL    HW1 5069   0.604   1.863   6.099
 1390SOL    HW2 5070   0.650   2.018   6.127
 1391SOL     OW 5071   0.715   2.975   2.600
 1391SOL    HW1 5072   0.731   2.921   2.682
 1391SOL    HW2 5073   0.737   3.071   2.619
 1392SOL     OW 5074   5.039   4.545   5.435
 1392SOL    HW1 5075   5.108   4.599   5.386
 1392SOL    HW2 5076   5.083   4.494   5.508
 1393SOL     OW 5077   3.996   6.402   5.760
 1393SOL    HW1 5078   4.036   6.462   5.690
 1393SOL    HW2 5079   4.050   6.407   5.843
 1394SOL     OW 5080   2.276   6.059   5.836
 1394SOL    HW1 5081   2.363   6.011   5.837
 1394SOL    HW2 5082   2.287   6.147   5.789
 1395SOL     OW 5083   3.264   4.645   5.675
 1395SOL    HW1 5084   3.248   4.555   5.634
 1395SOL    HW2 5085   3.178   4.695   5.680
 1396SOL     OW 5086   5.713   6.047   4.270
 1396SOL    HW1 5087   5.646   6.017   4.203
 1396SOL    HW2 5088   5.716   6.147   4.272
 1397SOL     OW 5089   4.249   6.049   4.860
 1397SOL    HW1 5090   4.255   5.950   4.844
 1397SOL    HW2 5091   4.238   6.065   4.958
 1398SOL     OW 5092   1.560   1.417   4.930
 1398SOL    HW1 5093   1.594   1.337   4.879
 1398SOL    HW2 5094   1.480   1.455   4.883
 1399SOL     OW 5095   3.263   6.558   1.717
 1399SOL    HW1 5096   3.298   6.465   1.715
 1399SOL    HW2 5097   3.189   6.568   1.651
 1400SOL     OW 5098   0.881   0.565   2.109
 1400SOL    HW1 5099   0.817   0.626   2.156
 1400SOL    HW2 5100   0.834   0.521   2.032
 1401SOL     OW 5101   0.071   1.197   4.776
 1401SOL    HW1 5102   0.162   1.238   4.778
 1401SOL    HW2 5103   0.003   1.268   4.761
 1402SOL     OW 5104   6.974   3.091   0.169
 1402SOL    HW1 5105   0.039   3.106   0.209
 1402SOL    HW2 5106   6.904   3.126   0.233
 1403SOL     OW 5107   2.250   0.467   2.011
 1403SOL    HW1 5108   2.347   0.453   2.028
 1403SOL    HW2 5109   2.215   0.538   2.072
 1404SOL     OW 5110   5.989   0.545   0.463
 1404SOL    HW1 5111   5.969   0.451   0.493
 1404SOL    HW2 5112   5.916   0.606   0.493
 1405SOL     OW 5113   2.317   3.660   1.231
 1405SOL    HW1 5114   2.388   3.628   1.168
 1405SOL    HW2 5115   2.278   3.745   1.197
 1406SOL     OW 5116   1.738   4.027   1.023
 1406SOL    HW1 5117   1.670   4.027   1.097
 1406SOL    HW2 5118   1.735   3.940   0.975
 1407SOL     OW 5119   6.626   2.065   2.462
 1407SOL    HW1 5120   6.649   2.073   2.559
 1407SOL    HW2 5121   6.636   1.970   2.433
 1408SOL     OW 5122   6.118   0.520   6.766
 1408SOL    HW1 5123   6.044   0.588   6.769
 1408SOL    HW2 5124   6.204   0.565   6.745
 1409SOL     OW 5125   0.389   0.604   4.707
 1409SOL    HW1 5126   0.369   0.512   4.672
 1409SOL    HW2 5127   0.398   0.601   4.806
 1410SOL     OW 5128   0.456   3.001   6.890
 1410SOL    HW1 5129   0.428   2.996   6.985
 1410SOL    HW2 5130   0.522   2.928   6.871
 1411SOL     OW 5131   1.379   6.792   1.918
 1411SOL    HW1 5132   1.389   6.794   1.819
 1411SOL    HW2 5133   1.399   6.883   1.955
 1412SOL     OW 5134   0.773   2.633   0.256
 1412SOL    HW1 5135   0.843   2.662   0.321
 1412SOL    HW2 5136   0.809   2.557   0.201
 1413SOL     OW 5137   2.258   0.551   4.158
 1413SOL    HW1 5138   2.292   0.593   4.242
 1413SOL    HW2 5139   2.318   0.575   4.082
 1414SOL     OW 5140   2.034   1.772   1.982
 1414SOL    HW1 5141   1.984   1.852   1.950
 1414SOL    HW2 5142   2.130   1.797   1.999
 1415SOL     OW 5143   4.057   6.142   5.949
 1415SOL    HW1 5144   4.111   6.127   5.866
 1415SOL    HW2 5145   4.068   6.064   6.010
 1416SOL     OW 5146   4.445   5.448   2.099
 1416SOL    HW1 5147   4.472   5.353   2.119
 1416SOL    HW2 5148   4.461   5.505   2.179
 1417SOL     OW 5149   2.730   2.076   6.239
 1417SOL    HW1 5150   2.714   2.131   6.157
 1417SOL    HW2 5151   2.710   1.980   6.219
 1418SOL     OW 5152   3.474   4.153   3.055
 1418SOL    HW1 5153   3.568   4.184   3.064
 1418SOL    HW2 5154   3.425   4.171   3.141
 1419SOL     OW 5155   4.196   6.329   5.024
 1419SOL    HW1 5156   4.226   6.304   4.933
 1419SOL    HW2 5157   4.238   6.268   5.091
 1420SOL     OW 5158   0.763   5.733   2.258
 1420SOL    HW1 5159   0.714   5.646   2.264
 1420SOL    HW2 5160   0.856   5.722   2.294
 1421SOL     OW 5161   3.109   1.744   2.375
 1421SOL    HW1 5162   3.116   1.697   2.463
 1421SOL    HW2 5163   3.064   1.683   2.308
 1422SOL     OW 5164   2.935   5.280   0.403
 1422SOL    HW1 5165   2.917   5.250   0.497
 1422SOL    HW2 5166   2.921   5.204   0.340
 1423SOL     OW 5167   4.800   0.055   2.736
 1423SOL    HW1 5168   4.888   0.009   2.725
 1423SOL    HW2 5169   4.726   7.015   2.716
 1424SOL     OW 5170   5.852   5.526   5.014
 1424SOL    HW1 5171   5.901   5.553   4.931
 1424SOL    HW2 5172   5.766   5.577   5.019
 1425SOL     OW 5173   2.410   6.641   4.154
 1425SOL    HW1 5174   2.395   6.543   4.142
 1425SOL    HW2 5175   2.345   6.691   4.097
 1426SOL     OW 5176   1.131   1.428   5.585
 1426SOL    HW1 5177   1.075   1.374   5.522
 1426SOL    HW2 5178   1.071   1.481   5.646
 1427SOL     OW 5179   5.784   0.621   3.874
 1427SOL    HW1 5180   5.728   0.700   3.851
 1427SOL    HW2 5181   5.817   0.630   3.968
 1428SOL     OW 5182   5.881   2.294   6.574
 1428SOL    HW1 5183   5.960   2.259   6.625
 1428SOL    HW2 5184   5.826   2.351   6.634
 1429SOL     OW 5185   0.133   0.849   0.468
 1429SOL    HW1 5186   0.216   0.825   0.517
 1429SOL    HW2 5187   0.154   0.866   0.372
 1430SOL     OW 5188   1.677   4.980   3.147
 1430SOL    HW1 5189   1.708   4.957   3.239
 1430SOL    HW2 5190   1.592   5.033   3.153
 1431SOL     OW 5191   2.520   0.674   1.044
 1431SOL    HW1 5192   2.476   0.636   1.125
 1431SOL    HW2 5193   2.473   0.641   0.962
 1432SOL     OW 5194   1.970   1.393   2.542
 1432SOL    HW1 5195   1.963   1.440   2.454
 1432SOL    HW2 5196   1.951   1.296   2.529
 1433SOL     OW 5197   3.855   0.568   4.210
 1433SOL    HW1 5198   3.894   0.660   4.211
 1433SOL    HW2 5199   3.767   0.569   4.162
 1434SOL     OW 5200   1.043   1.118   5.555
 1434SOL    HW1 5201   1.041   1.170   5.641
 1434SOL    HW2 5202   0.983   1.162   5.488
 1435SOL     OW 5203   6.246   1.916   2.567
 1435SOL    HW1 5204   6.302   1.835   2.582
 1435SOL    HW2 5205   6.295   1.997   2.600
 1436SOL     OW 5206   4.020   3.532   0.185
 1436SOL    HW1 5207   4.034   3.618   0.235
 1436SOL    HW2 5208   4.106   3.505   0.141
 1437SOL     OW 5209   3.127   0.738   2.501
 1437SOL    HW1 5210   3.051   0.788   2.543
 1437SOL    HW2 5211   3.152   0.781   2.415
 1438SOL     OW 5212   3.214   6.903   1.541
 1438SOL    HW1 5213   3.259   6.959   1.610
 1438SOL    HW2 5214   3.119   6.932   1.531
 1439SOL     OW 5215   0.445   5.809   2.237
 1439SOL    HW1 5216   0.494   5.798   2.323
 1439SOL    HW2 5217   0.394   5.726   2.216
 1440SOL     OW 5218   2.954   3.038   1.345
 1440SOL    HW1 5219   3.003   3.054   1.260
 1440SOL    HW2 5220   2.946   2.939   1.360
 1441SOL     OW 5221   5.632   6.429   1.100
 1441SOL    HW1 5222   5.729   6.414   1.116
 1441SOL    HW2 5223   5.614   6.526   1.087
 1442SOL     OW 5224   6.118   5.096   0.590
 1442SOL    HW1 5225   6.069   5.063   0.510
 1442SOL    HW2 5226   6.120   5.196   0.589
 1443SOL     OW 5227   1.005   2.640   2.987
 1443SOL    HW1 5228   0.915   2.598   2.971
 1443SOL    HW2 5229   0.999   2.701   3.066
 1444SOL     OW 5230   6.162   5.518   0.226
 1444SOL    HW1 5231   6.094   5.496   0.295
 1444SOL    HW2 5232   6.163   5.447   0.156
 1445SOL     OW 5233   1.199   3.528   2.855
 1445SOL    HW1 5234   1.212   3.569   2.764
 1445SOL    HW2 5235   1.109   3.554   2.891
 1446SOL     OW 5236   6.366   0.329   6.749
 1446SOL    HW1 5237   6.344   0.357   6.842
 1446SOL    HW2 5238   6.282   0.327   6.694
 1447SOL     OW 5239   5.974   5.046   4.611
 1447SOL    HW1 5240   5.933   5.138   4.610
 1447SOL    HW2 5241   6.061   5.049   4.659
 1448SOL     OW 5242   1.185   3.411   5.935
 1448SOL    HW1 5243   1.132   3.353   5.997
 1448SOL    HW2 5244   1.263   3.450   5.984
 1449SOL     OW 5245   2.053   4.196   4.554
 1449SOL    HW1 5246   1.986   4.266   4.579
 1449SOL    HW2 5247   2.107   4.229   4.477
 1450SOL     OW 5248   2.187   2.209   4.458
 1450SOL    HW1 5249   2.131   2.208   4.375
 1450SOL    HW2 5250   2.130   2.234   4.536
 1451SOL     OW 5251   2.351   0.188   1.876
 1451SOL    HW1 5252   2.352   0.259   1.805
 1451SOL    HW2 5253   2.261   0.187   1.920
 1452SOL     OW 5254   4.999   2.827   5.654
 1452SOL    HW1 5255   5.047   2.902   5.609
 1452SOL    HW2 5256   4.949   2.861   5.733
 1453SOL     OW 5257   0.715   4.744   5.063
 1453SOL    HW1 5258   0.789   4.707   5.008
 1453SOL    HW2 5259   0.750   4.776   5.151
 1454SOL     OW 5260   3.279   1.884   3.618
 1454SOL    HW1 5261   3.207   1.875   3.549
 1454SOL    HW2 5262   3.239   1.920   3.703
 1455SOL     OW 5263   1.123   5.827   2.121
 1455SOL    HW1 5264   1.209   5.813   2.169
 1455SOL    HW2 5265   1.141   5.836   2.023
 1456SOL     OW 5266   6.072   5.437   5.473
 1456SOL    HW1 5267   6.108   5.452   5.381
 1456SOL    HW2 5268   6.123   5.362   5.517
 1457SOL     OW 5269   0.340   4.590   6.120
 1457SOL    HW1 5270   0.395   4.573   6.038
 1457SOL    HW2 5271   0.396   4.635   6.189
 1458SOL     OW 5272   5.152   4.905   5.075
 1458SOL    HW1 5273   5.168   4.928   5.170
 1458SOL    HW2 5274   5.239   4.891   5.029
 1459SOL     OW 5275   5.271   6.589   5.483
 1459SOL    HW1 5276   5.300   6.616   5.391
 1459SOL    HW2 5277   5.314   6.649   5.550
 1460SOL     OW 5278   1.631   6.388   5.404
 1460SOL    HW1 5279   1.592   6.300   5.375
 1460SOL    HW2 5280   1.711   6.371   5.462
 1461SOL     OW 5281   0.429   3.092   3.318
 1461SOL    HW1 5282   0.368   3.018   3.345
 1461SOL    HW2 5283   0.432   3.098   3.218
 1462SOL     OW 5284   0.684   0.106   0.438
 1462SOL    HW1 5285   0.642   0.163   0.508
 1462SOL    HW2 5286   0.668   0.146   0.347
 1463SOL     OW 5287   1.908   5.482   6.563
 1463SOL    HW1 5288   1.950   5.391   6.559
 1463SOL    HW2 5289   1.862   5.502   6.477
 1464SOL     OW 5290   0.575   4.512   4.373
 1464SOL    HW1 5291   0.498   4.475   4.321
 1464SOL    HW2 5292   0.546   4.530   4.467
 1465SOL     OW 5293   1.195   2.111   3.259
 1465SOL    HW1 5294   1.178   2.209   3.271
 1465SOL    HW2 5295   1.258   2.079   3.331
 1466SOL     OW 5296   4.357   2.045   1.380
 1466SOL    HW1 5297   4.310   2.069   1.465
 1466SOL    HW2 5298   4.363   1.946   1.372
 1467SOL     OW 5299   1.256   1.055   4.239
 1467SOL    HW1 5300   1.338   1.112   4.234
 1467SOL    HW2 5301   1.180   1.109   4.275
 1468SOL     OW 5302   2.443   6.221   2.487
 1468SOL    HW1 5303   2.465   6.134   2.442
 1468SOL    HW2 5304   2.526   6.261   2.525
 1469SOL     OW 5305   6.395   4.837   3.249
 1469SOL    HW1 5306   6.405   4.785   3.163
 1469SOL    HW2 5307   6.299   4.860   3.263
 1470SOL     OW 5308   6.119   1.956   0.524
 1470SOL    HW1 5309   6.072   1.868   0.520
 1470SOL    HW2 5310   6.065   2.025   0.475
 1471SOL     OW 5311   5.140   6.679   1.482
 1471SOL    HW1 5312   5.088   6.730   1.414
 1471SOL    HW2 5313   5.186   6.743   1.543
 1472SOL     OW 5314   1.571   0.113   6.344
 1472SOL    HW1 5315   1.605   0.207   6.354
 1472SOL    HW2 5316   1.475   0.115   6.317
 1473SOL     OW 5317   2.660   5.125   4.588
 1473SOL    HW1 5318   2.575   5.111   4.638
 1473SOL    HW2 5319   2.719   5.188   4.638
 1474SOL     OW 5320   3.461   5.367   1.328
 1474SOL    HW1 5321   3.503   5.439   1.384
 1474SOL    HW2 5322   3.438   5.288   1.386
 1475SOL     OW 5323   5.097   0.348   0.191
 1475SOL    HW1 5324   5.181   0.297   0.172
 1475SOL    HW2 5325   5.051   0.370   0.105
 1476SOL     OW 5326   4.254   0.683   1.436
 1476SOL    HW1 5327   4.322   0.636   1.492
 1476SOL    HW2 5328   4.191   0.733   1.494
 1477SOL     OW 5329   4.129   4.863   1.202
 1477SOL    HW1 5330   4.049   4.811   1.171
 1477SOL    HW2 5331   4.167   4.820   1.284
 1478SOL     OW 5332   5.038   5.671   6.023
 1478SOL    HW1 5333   5.009   5.735   5.952
 1478SOL    HW2 5334   4.988   5.585   6.012
 1479SOL     OW 5335   3.817   3.965   1.319
 1479SOL    HW1 5336   3.803   3.986   1.416
 1479SOL    HW2 5337   3.849   3.871   1.309
 1480SOL     OW 5338   2.988   0.199   4.823
 1480SOL    HW1 5339   2.954   0.157   4.738
 1480SOL    HW2 5340   2.913   0.250   4.866
 1481SOL     OW 5341   5.261   2.191   5.623
 1481SOL    HW1 5342   5.280   2.126   5.697
 1481SOL    HW2 5343   5.175   2.166   5.578
 1482SOL     OW 5344   4.508   1.040   0.253
 1482SOL    HW1 5345   4.477   1.036   0.348
 1482SOL    HW2 5346   4.605   1.063   0.251
 1483SOL     OW 5347   5.321   1.241   5.836
 1483SOL    HW1 5348   5.407   1.247   5.785
 1483SOL    HW2 5349   5.246   1.270   5.777
 1484SOL     OW 5350   3.310   5.300   5.086
 1484SOL    HW1 5351   3.333   5.249   5.169
 1484SOL    HW2 5352   3.390   5.307   5.028
 1485SOL     OW 5353   5.308   2.381   2.791
 1485SOL    HW1 5354   5.301   2.322   2.710
 1485SOL    HW2 5355   5.321   2.476   2.762
 1486SOL     OW 5356   4.911   0.072   3.968
 1486SOL    HW1 5357   4.984   0.012   3.933
 1486SOL    HW2 5358   4.835   0.074   3.902
 1487SOL     OW 5359   6.918   0.154   0.875
 1487SOL    HW1 5360   6.870   0.123   0.957
 1487SOL    HW2 5361   6.866   0.227   0.831
 1488SOL     OW 5362   5.933   0.927   2.742
 1488SOL    HW1 5363   5.924   0.827   2.744
 1488SOL    HW2 5364   5.844   0.968   2.724
 1489SOL     OW 5365   3.889   4.511   6.365
 1489SOL    HW1 5366   3.930   4.467   6.445
 1489SOL    HW2 5367   3.884   4.609   6.381
 1490SOL     OW 5368   0.231   2.261   2.829
 1490SOL    HW1 5369   0.246   2.354   2.795
 1490SOL    HW2 5370   0.265   2.195   2.762
 1491SOL     OW 5371   6.899   3.274   2.553
 1491SOL    HW1 5372   6.828   3.344   2.543
 1491SOL    HW2 5373   6.961   3.300   2.627
 1492SOL     OW 5374   6.046   1.575   2.899
 1492SOL    HW1 5375   6.102   1.607   2.822
 1492SOL    HW2 5376   6.074   1.622   2.982
 1493SOL     OW 5377   4.597   2.901   5.805
 1493SOL    HW1 5378   4.673   2.905   5.871
 1493SOL    HW2 5379   4.617   2.832   5.736
 1494SOL     OW 5380   6.341   4.516   5.369
 1494SOL    HW1 5381   6.337   4.582   5.444
 1494SOL    HW2 5382   6.375   4.563   5.287
 1495SOL     OW 5383   6.137   4.477   4.373
 1495SOL    HW1 5384   6.151   4.452   4.277
 1495SOL    HW2 5385   6.148   4.576   4.384
 1496SOL     OW 5386   6.224   5.728   6.647
 1496SOL    HW1 5387   6.215   5.821   6.611
 1496SOL    HW2 5388   6.236   5.731   6.746
 1497SOL     OW 5389   5.744   3.292   2.870
 1497SOL    HW1 5390   5.660   3.295   2.815
 1497SOL    HW2 5391   5.811   3.234   2.824
 1498SOL     OW 5392   3.188   4.606   0.912
 1498SOL    HW1 5393   3.217   4.510   0.906
 1498SOL    HW2 5394   3.104   4.618   0.860
 1499SOL     OW 5395   0.641   3.962   5.405
 1499SOL    HW1 5396   0.656   4.018   5.323
 1499SOL    HW2 5397   0.566   3.898   5.388
 1500SOL     OW 5398   0.786   5.500   1.953
 1500SOL    HW1 5399   0.862   5.563   1.967
 1500SOL    HW2 5400   0.730   5.532   1.877
 1501SOL     OW 5401   6.088   1.731   0.080
 1501SOL    HW1 5402   6.115   1.688   7.018
 1501SOL    HW2 5403   6.162   1.789   0.113
 1502SOL     OW 5404   6.310   7.016   6.588
 1502SOL    HW1 5405   6.399   0.036   6.590
 1502SOL    HW2 5406   6.253   0.027   6.661
 1503SOL     OW 5407   0.682   4.471   1.867
 1503SOL    HW1 5408   0.611   4.533   1.832
 1503SOL    HW2 5409   0.732   4.517   1.941
 1504SOL     OW 5410   0.574   0.592   2.502
 1504SOL    HW1 5411   0.488   0.623   2.462
 1504SOL    HW2 5412   0.571   0.600   2.601
 1505SOL     OW 5413   4.861   5.629   4.928
 1505SOL    HW1 5414   4.848   5.687   4.847
 1505SOL    HW2 5415   4.948   5.651   4.971
 1506SOL     OW 5416   0.601   1.105   0.596
 1506SOL    HW1 5417   0.608   1.044   0.516
 1506SOL    HW2 5418   0.595   1.200   0.565
 1507SOL     OW 5419   1.902   2.373   4.443
 1507SOL    HW1 5420   1.852   2.456   4.469
 1507SOL    HW2 5421   1.926   2.321   4.525
 1508SOL     OW 5422   1.395   0.821   0.586
 1508SOL    HW1 5423   1.477   0.796   0.637
 1508SOL    HW2 5424   1.419   0.888   0.515
 1509SOL     OW 5425   5.080   0.907   3.993
 1509SOL    HW1 5426   5.122   0.828   4.039
 1509SOL    HW2 5427   5.019   0.874   3.921
 1510SOL     OW 5428   3.718   5.740   3.806
 1510SOL    HW1 5429   3.785   5.710   3.738
 1510SOL    HW2 5430   3.626   5.736   3.767
 1511SOL     OW 5431   3.684   3.205   4.675
 1511SOL    HW1 5432   3.713   3.223   4.581
 1511SOL    HW2 5433   3.587   3.180   4.676
 1512SOL     OW 5434   6.633   6.311   1.299
 1512SOL    HW1 5435   6.557   6.318   1.364
 1512SOL    HW2 5436   6.638   6.217   1.264
 1513SOL     OW 5437   3.266   0.200   6.383
 1513SOL    HW1 5438   3.323   0.263   6.330
 1513SOL    HW2 5439   3.291   0.106   6.360
 1514SOL     OW 5440   3.445   1.843   5.640
 1514SOL    HW1 5441   3.480   1.932   5.610
 1514SOL    HW2 5442   3.420   1.848   5.737
 1515SOL     OW 5443   6.080   1.807   1.901
 1515SOL    HW1 5444   6.086   1.883   1.966
 1515SOL    HW2 5445   5.992   1.812   1.853
 1516SOL     OW 5446   5.870   0.060   4.896
 1516SOL    HW1 5447   5.875   6.987   4.883
 1516SOL    HW2 5448   5.963   0.098   4.900
 1517SOL     OW 5449   4.011   6.242   3.914
 1517SOL    HW1 5450   4.010   6.176   3.990
 1517SOL    HW2 5451   3.934   6.305   3.923
 1518SOL     OW 5452   0.229   2.730   0.088
 1518SOL    HW1 5453   0.148   2.681   0.054
 1518SOL    HW2 5454   0.310   2.675   0.073
 1519SOL     OW 5455   6.825   4.357   6.812
 1519SOL    HW1 5456   6.835   4.276   6.755
 1519SOL    HW2 5457   6.770   4.335   6.893
 1520SOL     OW 5458   6.878   6.105   2.178
 1520SOL    HW1 5459   6.976   6.115   2.166
 1520SOL    HW2 5460   6.857   6.013   2.213
 1521SOL     OW 5461   2.052   4.710   6.347
 1521SOL    HW1 5462   2.045   4.625   6.296
 1521SOL    HW2 5463   2.016   4.785   6.292
 1522SOL     OW 5464   4.761   5.220   4.141
 1522SOL    HW1 5465   4.789   5.143   4.199
 1522SOL    HW2 5466   4.692   5.274   4.189
 1523SOL     OW 5467   3.814   5.823   0.109
 1523SOL    HW1 5468   3.755   5.875   0.170
 1523SOL    HW2 5469   3.800   5.854   0.015
 1524SOL     OW 5470   2.311   1.626   2.291
 1524SOL    HW1 5471   2.245   1.677   2.346
 1524SOL    HW2 5472   2.264   1.555   2.238
 1525SOL     OW 5473   5.984   2.535   6.948
 1525SOL    HW1 5474   6.049   2.463   6.927
 1525SOL    HW2 5475   6.026   2.624   6.933
 1526SOL     OW 5476   0.946   0.945   0.354
 1526SOL    HW1 5477   1.027   0.890   0.373
 1526SOL    HW2 5478   0.942   1.023   0.417
 1527SOL     OW 5479   3.999   1.049   4.033
 1527SOL    HW1 5480   4.059   1.079   3.958
 1527SOL    HW2 5481   3.908   1.029   3.997
 1528SOL     OW 5482   4.697   3.591   1.214
 1528SOL    HW1 5483   4.760   3.526   1.171
 1528SOL    HW2 5484   4.713   3.593   1.313
 1529SOL     OW 5485   4.848   1.255   5.722
 1529SOL    HW1 5486   4.793   1.336   5.744
 1529SOL    HW2 5487   4.817   1.217   5.634
 1530SOL     OW 5488   3.427   6.303   1.920
 1530SOL    HW1 5489   3.447   6.302   1.822
 1530SOL    HW2 5490   3.418   6.397   1.951
 1531SOL     OW 5491   3.374   6.454   4.679
 1531SOL    HW1 5492   3.317   6.411   4.608
 1531SOL    HW2 5493   3.366   6.553   4.672
 1532SOL     OW 5494   2.513   5.409   6.209
 1532SOL    HW1 5495   2.466   5.493   6.238
 1532SOL    HW2 5496   2.450   5.332   6.217
 1533SOL     OW 5497   5.699   5.371   1.453
 1533SOL    HW1 5498   5.726   5.276   1.443
 1533SOL    HW2 5499   5.600   5.379   1.439
 1534SOL     OW 5500   3.795   5.374   6.654
 1534SOL    HW1 5501   3.774   5.461   6.610
 1534SOL    HW2 5502   3.712   5.337   6.696
 1535SOL     OW 5503   5.808   6.966   4.530
 1535SOL    HW1 5504   5.840   6.917   4.449
 1535SOL    HW2 5505   5.709   6.957   4.537
 1536SOL     OW 5506   4.478   3.878   6.793
 1536SOL    HW1 5507   4.394   3.929   6.774
 1536SOL    HW2 5508   4.496   3.814   6.718
 1537SOL     OW 5509   3.108   5.144   4.084
 1537SOL    HW1 5510   3.016   5.167   4.053
 1537SOL    HW2 5511   3.175   5.181   4.020
 1538SOL     OW 5512   2.984   1.438   6.854
 1538SOL    HW1 5513   3.003   1.415   6.949
 1538SOL    HW2 5514   2.890   1.410   6.831
 1539SOL     OW 5515   5.724   3.224   0.838
 1539SOL    HW1 5516   5.764   3.266   0.920
 1539SOL    HW2 5517   5.636   3.182   0.861
 1540SOL     OW 5518   3.099   0.196   5.142
 1540SOL    HW1 5519   3.172   0.241   5.090
 1540SOL    HW2 5520   3.134   0.114   5.187
 1541SOL     OW 5521   3.845   3.229   4.898
 1541SOL    HW1 5522   3.791   3.226   4.814
 1541SOL    HW2 5523   3.832   3.144   4.949
 1542SOL     OW 5524   6.894   0.187   2.943
 1542SOL    HW1 5525   6.960   0.202   3.016
 1542SOL    HW2 5526   6.857   0.275   2.913
 1543SOL     OW 5527   3.110   4.763   6.701
 1543SOL    HW1 5528   3.201   4.784   6.666
 1543SOL    HW2 5529   3.046   4.836   6.676
 1544SOL     OW 5530   4.067   3.321   4.174
 1544SOL    HW1 5531   4.033   3.246   4.116
 1544SOL    HW2 5532   4.137   3.285   4.236
 1545SOL     OW 5533   6.214   6.745   2.529
 1545SOL    HW1 5534   6.218   6.678   2.455
 1545SOL    HW2 5535   6.291   6.731   2.591
 1546SOL     OW 5536   5.255   6.519   5.906
 1546SOL    HW1 5537   5.227   6.596   5.849
 1546SOL    HW2 5538   5.186   6.502   5.977
 1547SOL     OW 5539   1.565   3.482   6.599
 1547SOL    HW1 5540   1.559   3.399   6.545
 1547SOL    HW2 5541   1.620   3.550   6.550
 1548SOL     OW 5542   6.110   2.230   6.692
 1548SOL    HW1 5543   6.132   2.276   6.606
 1548SOL    HW2 5544   6.138   2.287   6.769
 1549SOL     OW 5545   4.465   1.166   5.036
 1549SOL    HW1 5546   4.378   1.125   5.009
 1549SOL    HW2 5547   4.494   1.232   4.968
 1550SOL     OW 5548   3.641   2.959   3.027
 1550SOL    HW1 5549   3.571   2.895   2.995
 1550SOL    HW2 5550   3.727   2.942   2.978
 1551SOL     OW 5551   6.966   5.332   5.855
 1551SOL    HW1 5552   6.962   5.366   5.950
 1551SOL    HW2 5553   6.948   5.408   5.793
 1552SOL     OW 5554   2.352   4.347   1.997
 1552SOL    HW1 5555   2.322   4.268   2.051
 1552SOL    HW2 5556   2.415   4.316   1.926
 1553SOL     OW 5557   0.356   1.991   5.764
 1553SOL    HW1 5558   0.344   2.028   5.855
 1553SOL    HW2 5559   0.277   1.935   5.739
 1554SOL     OW 5560   2.544   1.733   3.674
 1554SOL    HW1 5561   2.614   1.706   3.740
 1554SOL    HW2 5562   2.513   1.653   3.624
 1555SOL     OW 5563   0.085   3.361   6.445
 1555SOL    HW1 5564   0.136   3.348   6.361
 1555SOL    HW2 5565   0.050   3.273   6.477
 1556SOL     OW 5566   1.975   1.300   5.973
 1556SOL    HW1 5567   2.013   1.385   5.936
 1556SOL    HW2 5568   1.971   1.231   5.901
 1557SOL     OW 5569   0.367   3.316   6.649
 1557SOL    HW1 5570   0.451   3.355   6.688
 1557SOL    HW2 5571   0.290   3.335   6.711
 1558SOL     OW 5572   6.581   0.526   4.985
 1558SOL    HW1 5573   6.540   0.439   4.956
 1558SOL    HW2 5574   6.549   0.548   5.077
 1559SOL     OW 5575   0.370   2.306   5.833
 1559SOL    HW1 5576   0.281   2.300   5.789
 1559SOL    HW2 5577   0.363   2.273   5.927
 1560SOL     OW 5578   6.911   0.708   6.514
 1560SOL    HW1 5579   6.945   0.751   6.598
 1560SOL    HW2 5580   6.813   0.725   6.505
 1561SOL     OW 5581   5.644   5.869   2.774
 1561SOL    HW1 5582   5.548   5.840   2.777
 1561SOL    HW2 5583   5.650   5.966   2.797
 1562SOL     OW 5584   5.788   0.657   3.290
 1562SOL    HW1 5585   5.759   0.690   3.380
 1562SOL    HW2 5586   5.825   0.733   3.236
 1563SOL     OW 5587   3.460   0.949   5.846
 1563SOL    HW1 5588   3.451   0.884   5.922
 1563SOL    HW2 5589   3.554   0.947   5.812
 1564SOL     OW 5590   1.442   2.219   2.863
 1564SOL    HW1 5591   1.352   2.205   2.907
 1564SOL    HW2 5592   1.438   2.187   2.769
 1565SOL     OW 5593   5.101   3.626   2.004
 1565SOL    HW1 5594   5.067   3.560   2.071
 1565SOL    HW2 5595   5.027   3.685   1.974
 1566SOL     OW 5596   5.381   4.139   3.535
 1566SOL    HW1 5597   5.451   4.187   3.588
 1566SOL    HW2 5598   5.291   4.160   3.572
 1567SOL     OW 5599   6.972   5.565   5.711
 1567SOL    HW1 5600   6.891   5.611   5.676
 1567SOL    HW2 5601   0.027   5.594   5.659
 1568SOL     OW 5602   0.398   0.389   0.958
 1568SOL    HW1 5603   0.429   0.350   1.045
 1568SOL    HW2 5604   0.376   0.315   0.895
 1569SOL     OW 5605   3.523   5.882   5.590
 1569SOL    HW1 5606   3.513   5.857   5.686
 1569SOL    HW2 5607   3.619   5.880   5.564
 1570SOL     OW 5608   3.234   2.043   1.515
 1570SOL    HW1 5609   3.262   2.099   1.593
 1570SOL    HW2 5610   3.152   1.991   1.539
 1571SOL     OW 5611   6.741   3.927   1.440
 1571SOL    HW1 5612   6.767   3.992   1.512
 1571SOL    HW2 5613   6.794   3.948   1.357
 1572SOL     OW 5614   1.471   6.974   2.148
 1572SOL    HW1 5615   1.392   6.914   2.165
 1572SOL    HW2 5616   1.533   6.971   2.226
 1573SOL     OW 5617   4.206   0.365   1.797
 1573SOL    HW1 5618   4.206   0.283   1.740
 1573SOL    HW2 5619   4.115   0.406   1.797
 1574SOL     OW 5620   6.881   2.483   1.948
 1574SOL    HW1 5621   6.856   2.386   1.949
 1574SOL    HW2 5622   6.839   2.528   1.869
 1575SOL     OW 5623   1.883   2.269   0.648
 1575SOL    HW1 5624   1.909   2.359   0.685
 1575SOL    HW2 5625   1.953   2.237   0.585
 1576SOL     OW 5626   6.188   6.191   4.182
 1576SOL    HW1 5627   6.093   6.219   4.171
 1576SOL    HW2 5628   6.208   6.115   4.120
 1577SOL     OW 5629   2.721   0.106   6.330
 1577SOL    HW1 5630   2.680   0.104   6.239
 1577SOL    HW2 5631   2.812   0.146   6.326
 1578SOL     OW 5632   6.072   4.463   5.356
 1578SOL    HW1 5633   6.070   4.389   5.289
 1578SOL    HW2 5634   6.167   4.480   5.384
 1579SOL     OW 5635   1.105   0.527   3.512
 1579SOL    HW1 5636   1.150   0.552   3.597
 1579SOL    HW2 5637   1.077   0.430   3.516
 1580SOL     OW 5638   3.200   4.408   5.544
 1580SOL    HW1 5639   3.281   4.356   5.570
 1580SOL    HW2 5640   3.171   4.379   5.452
 1581SOL     OW 5641   6.647   4.402   4.425
 1581SOL    HW1 5642   6.609   4.415   4.516
 1581SOL    HW2 5643   6.576   4.366   4.364
 1582SOL     OW 5644   6.615   5.480   4.618
 1582SOL    HW1 5645   6.552   5.510   4.689
 1582SOL    HW2 5646   6.564   5.451   4.537
 1583SOL     OW 5647   1.619   2.955   2.754
 1583SOL    HW1 5648   1.563   3.026   2.797
 1583SOL    HW2 5649   1.711   2.957   2.792
 1584SOL     OW 5650   2.440   6.880   6.163
 1584SOL    HW1 5651   2.340   6.892   6.162
 1584SOL    HW2 5652   2.472   6.870   6.069
 1585SOL     OW 5653   5.127   1.526   4.672
 1585SOL    HW1 5654   5.052   1.590   4.663
 1585SOL    HW2 5655   5.100   1.436   4.637
 1586SOL     OW 5656   3.515   3.811   2.971
 1586SOL    HW1 5657   3.598   3.849   3.012
 1586SOL    HW2 5658   3.452   3.885   2.948
 1587SOL     OW 5659   3.468   6.673   6.733
 1587SOL    HW1 5660   3.455   6.592   6.677
 1587SOL    HW2 5661   3.434   6.754   6.685
 1588SOL     OW 5662   5.795   3.186   1.872
 1588SOL    HW1 5663   5.742   3.184   1.787
 1588SOL    HW2 5664   5.885   3.224   1.853
 1589SOL     OW 5665   5.907   4.121   3.849
 1589SOL    HW1 5666   5.921   4.211   3.891
 1589SOL    HW2 5667   5.963   4.053   3.896
 1590SOL     OW 5668   1.620   1.026   6.050
 1590SOL    HW1 5669   1.577   0.935   6.050
 1590SOL    HW2 5670   1.663   1.043   6.139
 1591SOL     OW 5671   1.164   4.659   1.615
 1591SOL    HW1 5672   1.157   4.609   1.702
 1591SOL    HW2 5673   1.253   4.640   1.574
 1592SOL     OW 5674   3.202   3.421   2.862
 1592SOL    HW1 5675   3.128   3.369   2.818
 1592SOL    HW2 5676   3.247   3.364   2.930
 1593SOL     OW 5677   0.942   5.469   5.236
 1593SOL    HW1 5678   0.934   5.511   5.327
 1593SOL    HW2 5679   0.992   5.530   5.175
 1594SOL     OW 5680   6.722   5.064   2.728
 1594SOL    HW1 5681   6.804   5.092   2.777
 1594SOL    HW2 5682   6.660   5.016   2.790
 1595SOL     OW 5683   6.477   4.831   6.259
 1595SOL    HW1 5684   6.459   4.761   6.328
 1595SOL    HW2 5685   6.468   4.921   6.300
 1596SOL     OW 5686   2.916   4.940   6.046
 1596SOL    HW1 5687   3.003   4.897   6.068
 1596SOL    HW2 5688   2.927   5.000   5.966
 1597SOL     OW 5689   2.773   6.802   1.455
 1597SOL    HW1 5690   2.740   6.777   1.546
 1597SOL    HW2 5691   2.847   6.868   1.464
 1598SOL     OW 5692   6.976   5.459   1.360
 1598SOL    HW1 5693   7.019   5.540   1.401
 1598SOL    HW2 5694   7.025   5.434   1.276
 1599SOL     OW 5695   3.808   4.820   0.151
 1599SOL    HW1 5696   3.860   4.857   0.074
 1599SOL    HW2 5697   3.860   4.746   0.193
 1600SOL     OW 5698   3.528   1.414   4.483
 1600SOL    HW1 5699   3.534   1.314   4.479
 1600SOL    HW2 5700   3.478   1.447   4.403
 1601SOL     OW 5701   0.592   5.134   3.743
 1601SOL    HW1 5702   0.632   5.158   3.831
 1601SOL    HW2 5703   0.515   5.070   3.757
 1602SOL     OW 5704   1.420   4.883   3.490
 1602SOL    HW1 5705   1.422   4.980   3.463
 1602SOL    HW2 5706   1.377   4.830   3.417
 1603SOL     OW 5707   6.837   6.797   1.574
 1603SOL    HW1 5708   6.825   6.763   1.481
 1603SOL    HW2 5709   6.832   6.721   1.638
 1604SOL     OW 5710   0.734   5.584   6.194
 1604SOL    HW1 5711   0.755   5.603   6.098
 1604SOL    HW2 5712   0.637   5.565   6.204
 1605SOL     OW 5713   5.219   6.508   3.334
 1605SOL    HW1 5714   5.280   6.581   3.364
 1605SOL    HW2 5715   5.174   6.535   3.249
 1606SOL     OW 5716   5.192   6.707   6.299
 1606SOL    HW1 5717   5.271   6.661   6.339
 1606SOL    HW2 5718   5.192   6.803   6.328
 1607SOL     OW 5719   4.042   1.781   0.799
 1607SOL    HW1 5720   4.050   1.701   0.740
 1607SOL    HW2 5721   3.946   1.807   0.807
 1608SOL     OW 5722   2.725   0.107   0.370
 1608SOL    HW1 5723   2.808   0.092   0.317
 1608SOL    HW2 5724   2.694   0.021   0.410
 1609SOL     OW 5725   4.832   2.012   5.327
 1609SOL    HW1 5726   4.816   2.076   5.403
 1609SOL    HW2 5727   4.755   1.948   5.321
 1610SOL     OW 5728   6.156   5.429   4.678
 1610SOL    HW1 5729   6.144   5.355   4.745
 1610SOL    HW2 5730   6.106   5.510   4.708
 1611SOL     OW 5731   2.780   3.592   1.636
 1611SOL    HW1 5732   2.848   3.541   1.583
 1611SOL    HW2 5733   2.709   3.627   1.575
 1612SOL     OW 5734   3.080   0.769   4.516
 1612SOL    HW1 5735   3.156   0.725   4.467
 1612SOL    HW2 5736   2.996   0.760   4.462
 1613SOL     OW 5737   2.300   5.958   0.608
 1613SOL    HW1 5738   2.363   5.882   0.591
 1613SOL    HW2 5739   2.234   5.964   0.534
 1614SOL     OW 5740   6.212   2.342   6.967
 1614SOL    HW1 5741   6.177   2.317   0.033
 1614SOL    HW2 5742   6.296   2.396   6.978
 1615SOL     OW 5743   6.586   5.033   6.769
 1615SOL    HW1 5744   6.585   5.126   6.731
 1615SOL    HW2 5745   6.494   5.009   6.801
 1616SOL     OW 5746   2.969   2.055   5.617
 1616SOL    HW1 5747   2.969   1.973   5.675
 1616SOL    HW2 5748   3.064   2.079   5.595
 1617SOL     OW 5749   4.478   6.987   3.646
 1617SOL    HW1 5750   4.480   0.026   3.569
 1617SOL    HW2 5751   4.436   0.006   3.725
 1618SOL     OW 5752   5.583   2.561   0.871
 1618SOL    HW1 5753   5.545   2.480   0.915
 1618SOL    HW2 5754   5.588   2.635   0.938
 1619SOL     OW 5755   1.564   3.294   4.543
 1619SOL    HW1 5756   1.570   3.394   4.554
 1619SOL    HW2 5757   1.633   3.264   4.477
 1620SOL     OW 5758   3.203   5.623   1.239
 1620SOL    HW1 5759   3.179   5.526   1.245
 1620SOL    HW2 5760   3.219   5.659   1.331
 1621SOL     OW 5761   1.860   1.003   1.529
 1621SOL    HW1 5762   1.933   1.029   1.466
 1621SOL    HW2 5763   1.883   0.915   1.571
 1622SOL     OW 5764   2.058   1.955   4.248
 1622SOL    HW1 5765   1.980   1.897   4.224
 1622SOL    HW2 5766   2.142   1.902   4.240
 1623SOL     OW 5767   2.896   2.248   5.287
 1623SOL    HW1 5768   2.962   2.185   5.326
 1623SOL    HW2 5769   2.919   2.342   5.313
 1624SOL     OW 5770   1.936   1.286   0.368
 1624SOL    HW1 5771   1.966   1.334   0.450
 1624SOL    HW2 5772   1.941   1.347   0.290
 1625SOL     OW 5773   0.572   5.070   2.024
 1625SOL    HW1 5774   0.528   5.130   1.957
 1625SOL    HW2 5775   0.613   4.992   1.977
 1626SOL     OW 5776   1.916   2.096   6.574
 1626SOL    HW1 5777   1.896   2.177   6.519
 1626SOL    HW2 5778   2.013   2.095   6.596
 1627SOL     OW 5779   5.617   3.276   3.903
 1627SOL    HW1 5780   5.601   3.179   3.882
 1627SOL    HW2 5781   5.710   3.301   3.877
 1628SOL     OW 5782   3.226   3.704   0.192
 1628SOL    HW1 5783   3.160   3.639   0.154
 1628SOL    HW2 5784   3.276   3.748   0.117
 1629SOL     OW 5785   4.154   2.244   3.424
 1629SOL    HW1 5786   4.084   2.214   3.490
 1629SOL    HW2 5787   4.201   2.325   3.460
 1630SOL     OW 5788   0.161   4.868   4.342
 1630SOL    HW1 5789   0.159   4.959   4.301
 1630SOL    HW2 5790   0.254   4.848   4.374
 1631SOL     OW 5791   0.679   6.825   5.603
 1631SOL    HW1 5792   0.579   6.818   5.606
 1631SOL    HW2 5793   0.717   6.787   5.687
 1632SOL     OW 5794   5.686   0.677   1.309
 1632SOL    HW1 5795   5.725   0.620   1.237
 1632SOL    HW2 5796   5.658   0.765   1.271
 1633SOL     OW 5797   5.188   2.750   3.977
 1633SOL    HW1 5798   5.166   2.760   4.074
 1633SOL    HW2 5799   5.134   2.675   3.938
 1634SOL     OW 5800   3.544   1.012   6.721
 1634SOL    HW1 5801   3.517   0.983   6.812
 1634SOL    HW2 5802   3.489   1.090   6.693
 1635SOL     OW 5803   0.316   5.697   3.929
 1635SOL    HW1 5804   0.235   5.755   3.930
 1635SOL    HW2 5805   0.292   5.606   3.895
 1636SOL     OW 5806   2.119   6.029   0.983
 1636SOL    HW1 5807   2.146   5.993   1.072
 1636SOL    HW2 5808   2.199   6.065   0.936
 1637SOL     OW 5809   6.917   3.381   1.833
 1637SOL    HW1 5810   6.999   3.420   1.876
 1637SOL    HW2 5811   6.884   3.305   1.889
 1638SOL     OW 5812   1.186   2.745   4.640
 1638SOL    HW1 5813   1.089   2.737   4.661
 1638SOL    HW2 5814   1.209   2.841   4.624
 1639SOL     OW 5815   5.040   4.832   2.077
 1639SOL    HW1 5816   4.969   4.899   2.057
 1639SOL    HW2 5817   5.122   4.879   2.111
 1640SOL     OW 5818   5.771   0.367   1.494
 1640SOL    HW1 5819   5.798   0.359   1.399
 1640SOL    HW2 5820   5.705   0.442   1.504
 1641SOL     OW 5821   6.365   2.285   5.402
 1641SOL    HW1 5822   6.338   2.250   5.312
 1641SOL    HW2 5823   6.463   2.301   5.403
 1642SOL     OW 5824   0.073   2.583   2.083
 1642SOL    HW1 5825   0.066   2.677   2.116
 1642SOL    HW2 5826   7.012   2.555   2.040
 1643SOL     OW 5827   4.189   0.392   5.518
 1643SOL    HW1 5828   4.238   0.462   5.465
 1643SOL    HW2 5829   4.191   0.417   5.615
 1644SOL     OW 5830   3.278   0.571   0.996
 1644SOL    HW1 5831   3.337   0.540   1.071
 1644SOL    HW2 5832   3.184   0.540   1.014
 1645SOL     OW 5833   2.209   0.381   6.685
 1645SOL    HW1 5834   2.264   0.299   6.670
 1645SOL    HW2 5835   2.158   0.372   6.771
 1646SOL     OW 5836   1.004   3.917   1.227
 1646SOL    HW1 5837   0.974   3.853   1.157
 1646SOL    HW2 5838   1.032   3.866   1.309
 1647SOL     OW 5839   6.000   3.379   3.659
 1647SOL    HW1 5840   5.975   3.291   3.700
 1647SOL    HW2 5841   5.980   3.377   3.561
 1648SOL     OW 5842   4.499   0.182   2.417
 1648SOL    HW1 5843   4.442   0.246   2.364
 1648SOL    HW2 5844   4.520   0.222   2.506
 1649SOL     OW 5845   2.952   0.669   3.111
 1649SOL    HW1 5846   3.048   0.646   3.093
 1649SOL    HW2 5847   2.948   0.746   3.175
 1650SOL     OW 5848   2.715   5.987   3.684
 1650SOL    HW1 5849   2.713   5.899   3.733
 1650SOL    HW2 5850   2.738   6.060   3.748
 1651SOL     OW 5851   1.641   6.976   0.848
 1651SOL    HW1 5852   1.699   6.987   0.929
 1651SOL    HW2 5853   1.545   6.974   0.876
 1652SOL     OW 5854   3.203   2.701   1.351
 1652SOL    HW1 5855   3.212   2.771   1.421
 1652SOL    HW2 5856   3.189   2.612   1.394
 1653SOL     OW 5857   0.877   6.189   1.433
 1653SOL    HW1 5858   0.872   6.249   1.513
 1653SOL    HW2 5859   0.819   6.224   1.360
 1654SOL     OW 5860   0.603   3.404   2.896
 1654SOL    HW1 5861   0.585   3.432   2.991
 1654SOL    HW2 5862   0.564   3.472   2.834
 1655SOL     OW 5863   4.852   5.169   6.335
 1655SOL    HW1 5864   4.908   5.092   6.305
 1655SOL    HW2 5865   4.876   5.193   6.429
 1656SOL     OW 5866   0.140   5.083   3.337
 1656SOL    HW1 5867   0.161   5.124   3.426
 1656SOL    HW2 5868   0.170   5.143   3.264
 1657SOL     OW 5869   1.208   0.547   5.138
 1657SOL    HW1 5870   1.227   0.576   5.232
 1657SOL    HW2 5871   1.148   0.614   5.094
 1658SOL     OW 5872   6.120   6.129   2.719
 1658SOL    HW1 5873   6.181   6.167   2.790
 1658SOL    HW2 5874   6.112   6.030   2.732
 1659SOL     OW 5875   4.254   2.177   5.840
 1659SOL    HW1 5876   4.276   2.121   5.920
 1659SOL    HW2 5877   4.161   2.154   5.809
 1660SOL     OW 5878   1.227   5.678   3.342
 1660SOL    HW1 5879   1.162   5.606   3.367
 1660SOL    HW2 5880   1.266   5.718   3.425
 1661SOL     OW 5881   2.812   0.271   2.498
 1661SOL    HW1 5882   2.789   0.279   2.401
 1661SOL    HW2 5883   2.794   0.358   2.543
 1662SOL     OW 5884   0.559   0.692   2.924
 1662SOL    HW1 5885   0.517   0.753   2.991
 1662SOL    HW2 5886   0.492   0.671   2.853
 1663SOL     OW 5887   2.737   6.853   3.407
 1663SOL    HW1 5888   2.703   6.777   3.462
 1663SOL    HW2 5889   2.818   6.823   3.356
 1664SOL     OW 5890   2.226   5.942   4.875
 1664SOL    HW1 5891   2.141   5.929   4.825
 1664SOL    HW2 5892   2.302   5.903   4.822
 1665SOL     OW 5893   0.065   0.284   4.140
 1665SOL    HW1 5894   0.137   0.253   4.202
 1665SOL    HW2 5895   0.105   0.308   4.051
 1666SOL     OW 5896   5.960   2.513   5.817
 1666SOL    HW1 5897   5.876   2.504   5.870
 1666SOL    HW2 5898   6.028   2.446   5.849
 1667SOL     OW 5899   6.575   0.733   6.208
 1667SOL    HW1 5900   6.486   0.763   6.173
 1667SOL    HW2 5901   6.628   0.694   6.133
 1668SOL     OW 5902   3.582   1.021   5.444
 1668SOL    HW1 5903   3.526   1.001   5.525
 1668SOL    HW2 5904   3.534   0.992   5.362
 1669SOL     OW 5905   5.895   6.771   6.515
 1669SOL    HW1 5906   5.805   6.805   6.488
 1669SOL    HW2 5907   5.909   6.680   6.476
 1670SOL     OW 5908   5.774   4.425   5.781
 1670SOL    HW1 5909   5.840   4.476   5.836
 1670SOL    HW2 5910   5.807   4.331   5.769
 1671SOL     OW 5911   5.894   3.862   0.399
 1671SOL    HW1 5912   5.902   3.961   0.391
 1671SOL    HW2 5913   5.820   3.839   0.462
 1672SOL     OW 5914   1.511   4.963   2.402
 1672SOL    HW1 5915   1.576   5.004   2.338
 1672SOL    HW2 5916   1.538   4.868   2.419
 1673SOL     OW 5917   6.862   1.929   4.073
 1673SOL    HW1 5918   6.924   1.927   4.151
 1673SOL    HW2 5919   6.908   1.888   3.993
 1674SOL     OW 5920   0.410   4.407   6.552
 1674SOL    HW1 5921   0.317   4.429   6.582
 1674SOL    HW2 5922   0.418   4.423   6.454
 1675SOL     OW 5923   4.936   2.170   6.704
 1675SOL    HW1 5924   4.917   2.106   6.779
 1675SOL    HW2 5925   4.852   2.189   6.654
 1676SOL     OW 5926   1.286   0.273   3.257
 1676SOL    HW1 5927   1.229   0.197   3.227
 1676SOL    HW2 5928   1.233   0.357   3.255
 1677SOL     OW 5929   6.010   1.479   5.679
 1677SOL    HW1 5930   5.979   1.440   5.766
 1677SOL    HW2 5931   6.061   1.409   5.628
 1678SOL     OW 5932   5.152   0.001   1.678
 1678SOL    HW1 5933   5.118   6.932   1.680
 1678SOL    HW2 5934   5.110   0.049   1.601
 1679SOL     OW 5935   0.360   3.588   6.800
 1679SOL    HW1 5936   0.347   3.685   6.820
 1679SOL    HW2 5937   0.373   3.538   6.886
 1680SOL     OW 5938   1.188   1.486   4.445
 1680SOL    HW1 5939   1.217   1.581   4.446
 1680SOL    HW2 5940   1.134   1.467   4.527
 1681SOL     OW 5941   6.474   5.472   1.124
 1681SOL    HW1 5942   6.501   5.453   1.218
 1681SOL    HW2 5943   6.434   5.390   1.083
 1682SOL     OW 5944   6.641   3.382   5.487
 1682SOL    HW1 5945   6.554   3.432   5.486
 1682SOL    HW2 5946   6.651   3.334   5.574
 1683SOL     OW 5947   5.435   5.644   0.741
 1683SOL    HW1 5948   5.351   5.696   0.726
 1683SOL    HW2 5949   5.503   5.669   0.672
 1684SOL     OW 5950   0.776   5.899   5.070
 1684SOL    HW1 5951   0.677   5.903   5.083
 1684SOL    HW2 5952   0.802   5.811   5.032
 1685SOL     OW 5953   1.323   1.479   0.376
 1685SOL    HW1 5954   1.271   1.403   0.415
 1685SOL    HW2 5955   1.415   1.449   0.352
 1686SOL     OW 5956   1.913   7.003   0.290
 1686SOL    HW1 5957   1.904   6.950   0.206
 1686SOL    HW2 5958   1.988   6.965   0.345
 1687SOL     OW 5959   1.514   0.049   1.642
 1687SOL    HW1 5960   1.464   0.118   1.591
 1687SOL    HW2 5961   1.471   6.985   1.629
 1688SOL     OW 5962   0.794   2.110   3.361
 1688SOL    HW1 5963   0.760   2.188   3.413
 1688SOL    HW2 5964   0.730   2.034   3.369
 1689SOL     OW 5965   1.915   1.322   3.194
 1689SOL    HW1 5966   1.952   1.277   3.275
 1689SOL    HW2 5967   1.925   1.421   3.203
 1690SOL     OW 5968   0.921   1.385   0.999
 1690SOL    HW1 5969   0.915   1.422   1.092
 1690SOL    HW2 5970   1.011   1.343   0.986
 1691SOL     OW 5971   5.336   4.309   2.175
 1691SOL    HW1 5972   5.311   4.212   2.170
 1691SOL    HW2 5973   5.277   4.355   2.241
 1692SOL     OW 5974   1.440   0.601   3.565
 1692SOL    HW1 5975   1.378   0.657   3.620
 1692SOL    HW2 5976   1.466   0.520   3.618
 1693SOL     OW 5977   2.749   2.179   3.437
 1693SOL    HW1 5978   2.753   2.250   3.507
 1693SOL    HW2 5979   2.740   2.090   3.482
 1694SOL     OW 5980   4.689   5.695   5.171
 1694SOL    HW1 5981   4.741   5.753   5.233
 1694SOL    HW2 5982   4.746   5.670   5.092
 1695SOL     OW 5983   2.757   2.261   5.607
 1695SOL    HW1 5984   2.731   2.261   5.703
 1695SOL    HW2 5985   2.846   2.218   5.596
 1696SOL     OW 5986   3.909   5.619   0.792
 1696SOL    HW1 5987   3.876   5.643   0.701
 1696SOL    HW2 5988   3.831   5.607   0.854
 1697SOL     OW 5989   0.628   1.074   2.233
 1697SOL    HW1 5990   0.720   1.038   2.249
 1697SOL    HW2 5991   0.631   1.143   2.161
 1698SOL     OW 5992   4.872   2.195   1.059
 1698SOL    HW1 5993   4.877   2.154   0.968
 1698SOL    HW2 5994   4.957   2.242   1.079
 1699SOL     OW 5995   2.176   3.344   1.144
 1699SOL    HW1 5996   2.191   3.341   1.243
 1699SOL    HW2 5997   2.085   3.309   1.123
 1700SOL     OW 5998   6.402   3.457   3.607
 1700SOL    HW1 5999   6.432   3.395   3.535
 1700SOL    HW2 6000   6.402   3.410   3.695
 1701SOL     OW 6001   5.618   3.001   4.562
 1701SOL    HW1 6002   5.550   2.935   4.593
 1701SOL    HW2 6003   5.647   3.058   4.638
 1702SOL     OW 6004   4.825   2.944   0.255
 1702SOL    HW1 6005   4.875   3.013   0.308
 1702SOL    HW2 6006   4.764   2.989   0.191
 1703SOL     OW 6007   1.953   3.763   0.224
 1703SOL    HW1 6008   1.991   3.807   0.143
 1703SOL    HW2 6009   1.871   3.711   0.199
 1704SOL     OW 6010   0.908   1.170   2.172
 1704SOL    HW1 6011   0.999   1.209   2.155
 1704SOL    HW2 6012   0.917   1.073   2.195
 1705SOL     OW 6013   4.410   3.099   1.697
 1705SOL    HW1 6014   4.322   3.090   1.745
 1705SOL    HW2 6015   4.483   3.065   1.756
 1706SOL     OW 6016   2.745   1.115   6.933
 1706SOL    HW1 6017   2.763   1.160   7.020
 1706SOL    HW2 6018   2.654   1.073   6.935
 1707SOL     OW 6019   5.400   2.239   3.266
 1707SOL    HW1 6020   5.375   2.231   3.169
 1707SOL    HW2 6021   5.351   2.169   3.319
 1708SOL     OW 6022   6.904   5.140   2.917
 1708SOL    HW1 6023   6.864   5.209   2.977
 1708SOL    HW2 6024   6.999   5.162   2.899
 1709SOL     OW 6025   2.925   5.983   2.820
 1709SOL    HW1 6026   2.829   5.965   2.801
 1709SOL    HW2 6027   2.940   6.082   2.821
 1710SOL     OW 6028   0.104   6.075   3.829
 1710SOL    HW1 6029   0.132   6.136   3.903
 1710SOL    HW2 6030   0.044   6.124   3.766
 1711SOL     OW 6031   1.467   4.369   5.670
 1711SOL    HW1 6032   1.411   4.451   5.683
 1711SOL    HW2 6033   1.548   4.376   5.728
 1712SOL     OW 6034   0.770   4.643   0.673
 1712SOL    HW1 6035   0.809   4.625   0.763
 1712SOL    HW2 6036   0.759   4.557   0.623
 1713SOL     OW 6037   1.183   3.155   0.865
 1713SOL    HW1 6038   1.219   3.117   0.951
 1713SOL    HW2 6039   1.247   3.134   0.791
 1714SOL     OW 6040   3.140   1.780   0.509
 1714SOL    HW1 6041   3.100   1.699   0.551
 1714SOL    HW2 6042   3.237   1.762   0.489
 1715SOL     OW 6043   0.273   3.306   3.557
 1715SOL    HW1 6044   0.300   3.402   3.547
 1715SOL    HW2 6045   0.352   3.247   3.541
 1716SOL     OW 6046   0.454   6.354   0.409
 1716SOL    HW1 6047   0.538   6.357   0.355
 1716SOL    HW2 6048   0.419   6.447   0.422
 1717SOL     OW 6049   3.422   0.434   6.963
 1717SOL    HW1 6050   3.462   0.343   6.963
 1717SOL    HW2 6051   3.383   0.453   6.873
 1718SOL     OW 6052   1.059   4.643   5.822
 1718SOL    HW1 6053   1.114   4.625   5.740
 1718SOL    HW2 6054   1.114   4.626   5.903
 1719SOL     OW 6055   2.147   3.596   1.726
 1719SOL    HW1 6056   2.142   3.555   1.635
 1719SOL    HW2 6057   2.198   3.536   1.787
 1720SOL     OW 6058   6.562   1.227   1.221
 1720SOL    HW1 6059   6.627   1.293   1.260
 1720SOL    HW2 6060   6.471   1.267   1.217
 1721SOL     OW 6061   1.764   6.253   3.854
 1721SOL    HW1 6062   1.791   6.231   3.761
 1721SOL    HW2 6063   1.664   6.246   3.862
 1722SOL     OW 6064   6.132   6.281   2.251
 1722SOL    HW1 6065   6.035   6.259   2.238
 1722SOL    HW2 6066   6.141   6.352   2.321
 1723SOL     OW 6067   6.035   1.498   2.404
 1723SOL    HW1 6068   5.935   1.502   2.405
 1723SOL    HW2 6069   6.070   1.547   2.324
 1724SOL     OW 6070   4.968   0.651   6.885
 1724SOL    HW1 6071   4.887   0.700   6.919
 1724SOL    HW2 6072   5.046   0.670   6.945
 1725SOL     OW 6073   3.828   4.562   1.489
 1725SOL    HW1 6074   3.891   4.485   1.493
 1725SOL    HW2 6075   3.856   4.624   1.416
 1726SOL     OW 6076   0.910   4.679   4.454
 1726SOL    HW1 6077   0.893   4.672   4.356
 1726SOL    HW2 6078   1.008   4.681   4.471
 1727SOL     OW 6079   3.221   3.769   5.306
 1727SOL    HW1 6080   3.123   3.756   5.321
 1727SOL    HW2 6081   3.239   3.779   5.208
 1728SOL     OW 6082   4.555   4.565   3.072
 1728SOL    HW1 6083   4.516   4.656   3.057
 1728SOL    HW2 6084   4.518   4.527   3.157
 1729SOL     OW 6085   2.126   3.503   3.315
 1729SOL    HW1 6086   2.111   3.526   3.218
 1729SOL    HW2 6087   2.138   3.587   3.367
 1730SOL     OW 6088   6.027   2.733   4.933
 1730SOL    HW1 6089   6.017   2.758   5.030
 1730SOL    HW2 6090   5.951   2.772   4.881
 1731SOL     OW 6091   1.831   5.301   0.613
 1731SOL    HW1 6092   1.899   5.227   0.612
 1731SOL    HW2 6093   1.778   5.298   0.528
 1732SOL     OW 6094   0.481   4.893   6.901
 1732SOL    HW1 6095   0.458   4.926   6.810
 1732SOL    HW2 6096   0.546   4.817   6.894
 1733SOL     OW 6097   1.636   3.887   0.497
 1733SOL    HW1 6098   1.624   3.947   0.576
 1733SOL    HW2 6099   1.659   3.794   0.529
 1734SOL     OW 6100   4.795   2.739   0.589
 1734SOL    HW1 6101   4.869   2.694   0.540
 1734SOL    HW2 6102   4.781   2.695   0.677
 1735SOL     OW 6103   6.108   5.248   1.691
 1735SOL    HW1 6104   6.176   5.268   1.620
 1735SOL    HW2 6105   6.055   5.331   1.710
 1736SOL     OW 6106   3.884   3.351   0.969
 1736SOL    HW1 6107   3.939   3.276   1.004
 1736SOL    HW2 6108   3.873   3.342   0.870
 1737SOL     OW 6109   1.796   6.615   3.659
 1737SOL    HW1 6110   1.895   6.610   3.669
 1737SOL    HW2 6111   1.753   6.608   3.749
 1738SOL     OW 6112   1.821   2.659   2.395
 1738SOL    HW1 6113   1.811   2.710   2.310
 1738SOL    HW2 6114   1.917   2.660   2.424
 1739SOL     OW 6115   4.080   1.597   4.911
 1739SOL    HW1 6116   4.171   1.636   4.928
 1739SOL    HW2 6117   4.010   1.665   4.932
 1740SOL     OW 6118   0.593   1.352   5.939
 1740SOL    HW1 6119   0.560   1.403   6.018
 1740SOL    HW2 6120   0.586   1.410   5.857
 1741SOL     OW 6121   1.254   0.053   2.946
 1741SOL    HW1 6122   1.281   6.999   2.892
 1741SOL    HW2 6123   1.228   0.023   3.038
 1742SOL     OW 6124   6.024   0.535   4.743
 1742SOL    HW1 6125   6.091   0.474   4.700
 1742SOL    HW2 6126   5.946   0.548   4.682
 1743SOL     OW 6127   4.128   1.144   0.887
 1743SOL    HW1 6128   4.089   1.236   0.894
 1743SOL    HW2 6129   4.154   1.126   0.792
 1744SOL     OW 6130   2.664   0.553   0.669
 1744SOL    HW1 6131   2.731   0.612   0.624
 1744SOL    HW2 6132   2.668   0.462   0.627
 1745SOL     OW 6133   0.065   2.502   3.150
 1745SOL    HW1 6134   0.003   2.426   3.171
 1745SOL    HW2 6135   0.031   2.586   3.192
 1746SOL     OW 6136   2.851   0.866   6.016
 1746SOL    HW1 6137   2.754   0.844   6.005
 1746SOL    HW2 6138   2.906   0.814   5.950
 1747SOL     OW 6139   3.337   0.456   1.773
 1747SOL    HW1 6140   3.338   0.554   1.792
 1747SOL    HW2 6141   3.423   0.415   1.805
 1748SOL     OW 6142   5.741   2.257   2.019
 1748SOL    HW1 6143   5.655   2.220   1.983
 1748SOL    HW2 6144   5.752   2.351   1.989
 1749SOL     OW 6145   4.061   6.797   6.382
 1749SOL    HW1 6146   3.999   6.806   6.305
 1749SOL    HW2 6147   4.117   6.715   6.371
 1750SOL     OW 6148   4.819   0.555   3.881
 1750SOL    HW1 6149   4.884   0.519   3.813
 1750SOL    HW2 6150   4.869   0.601   3.954
 1751SOL     OW 6151   2.049   5.684   3.715
 1751SOL    HW1 6152   2.072   5.778   3.692
 1751SOL    HW2 6153   2.054   5.627   3.632
 1752SOL     OW 6154   5.980   2.172   0.436
 1752SOL    HW1 6155   5.892   2.171   0.389
 1752SOL    HW2 6156   5.967   2.204   0.530
 1753SOL     OW 6157   2.100   0.218   1.972
 1753SOL    HW1 6158   2.033   0.178   2.034
 1753SOL    HW2 6159   2.121   0.312   2.002
 1754SOL     OW 6160   4.255   3.291   1.055
 1754SOL    HW1 6161   4.223   3.335   1.139
 1754SOL    HW2 6162   4.200   3.208   1.039
 1755SOL     OW 6163   5.172   3.857   0.633
 1755SOL    HW1 6164   5.238   3.822   0.700
 1755SOL    HW2 6165   5.094   3.896   0.681
 1756SOL     OW 6166   6.557   5.796   4.693
 1756SOL    HW1 6167   6.656   5.805   4.692
 1756SOL    HW2 6168   6.527   5.766   4.784
 1757SOL     OW 6169   3.036   6.580   4.600
 1757SOL    HW1 6170   2.940   6.604   4.582
 1757SOL    HW2 6171   3.088   6.588   4.515
 1758SOL     OW 6172   1.929   0.577   3.123
 1758SOL    HW1 6173   1.833   0.553   3.139
 1758SOL    HW2 6174   1.943   0.674   3.144
 1759SOL     OW 6175   0.995   5.698   6.513
 1759SOL    HW1 6176   0.933   5.626   6.480
 1759SOL    HW2 6177   1.087   5.680   6.478
 1760SOL     OW 6178   5.836   0.538   2.443
 1760SOL    HW1 6179   5.934   0.519   2.434
 1760SOL    HW2 6180   5.821   0.637   2.436
 1761SOL     OW 6181   6.569   2.630   1.172
 1761SOL    HW1 6182   6.483   2.680   1.179
 1761SOL    HW2 6183   6.638   2.675   1.229
 1762SOL     OW 6184   6.339   1.777   6.183
 1762SOL    HW1 6185   6.371   1.710   6.250
 1762SOL    HW2 6186   6.379   1.757   6.094
 1763SOL     OW 6187   2.281   4.133   4.028
 1763SOL    HW1 6188   2.228   4.061   3.982
 1763SOL    HW2 6189   2.296   4.208   3.964
 1764SOL     OW 6190   6.822   2.962   3.847
 1764SOL    HW1 6191   6.919   2.936   3.847
 1764SOL    HW2 6192   6.792   2.979   3.941
 1765SOL     OW 6193   2.795   2.643   6.091
 1765SOL    HW1 6194   2.788   2.593   6.178
 1765SOL    HW2 6195   2.717   2.704   6.082
 1766SOL     OW 6196   5.513   3.232   5.214
 1766SOL    HW1 6197   5.505   3.294   5.136
 1766SOL    HW2 6198   5.435   3.244   5.274
 1767SOL     OW 6199   5.963   3.354   2.635
 1767SOL    HW1 6200   5.949   3.268   2.685
 1767SOL    HW2 6201   5.897   3.360   2.560
 1768SOL     OW 6202   5.365   6.979   4.213
 1768SOL    HW1 6203   5.460   7.001   4.190
 1768SOL    HW2 6204   5.324   6.927   4.139
 1769SOL     OW 6205   4.111   1.670   2.356
 1769SOL    HW1 6206   4.160   1.754   2.331
 1769SOL    HW2 6207   4.029   1.661   2.301
 1770SOL     OW 6208   2.083   5.653   5.505
 1770SOL    HW1 6209   2.169   5.611   5.478
 1770SOL    HW2 6210   2.100   5.723   5.574
 1771SOL     OW 6211   4.769   5.839   6.735
 1771SOL    HW1 6212   4.818   5.768   6.784
 1771SOL    HW2 6213   4.770   5.820   6.637
 1772SOL     OW 6214   3.461   6.504   2.871
 1772SOL    HW1 6215   3.469   6.532   2.967
 1772SOL    HW2 6216   3.366   6.509   2.843
 1773SOL     OW 6217   1.235   5.366   6.428
 1773SOL    HW1 6218   1.250   5.464   6.420
 1773SOL    HW2 6219   1.156   5.349   6.487
 1774SOL     OW 6220   4.185   5.267   1.637
 1774SOL    HW1 6221   4.092   5.253   1.672
 1774SOL    HW2 6222   4.220   5.355   1.669
 1775SOL     OW 6223   1.003   4.222   2.381
 1775SOL    HW1 6224   0.953   4.254   2.301
 1775SOL    HW2 6225   1.101   4.223   2.363
 1776SOL     OW 6226   3.289   5.701   4.955
 1776SOL    HW1 6227   3.360   5.739   5.015
 1776SOL    HW2 6228   3.226   5.645   5.009
 1777SOL     OW 6229   4.313   5.894   0.493
 1777SOL    HW1 6230   4.290   5.918   0.587
 1777SOL    HW2 6231   4.371   5.812   0.492
 1778SOL     OW 6232   5.575   3.559   5.740
 1778SOL    HW1 6233   5.506   3.488   5.749
 1778SOL    HW2 6234   5.533   3.648   5.759
 1779SOL     OW 6235   3.397   6.811   4.954
 1779SOL    HW1 6236   3.392   6.730   5.011
 1779SOL    HW2 6237   3.306   6.852   4.945
 1780SOL     OW 6238   3.055   3.261   6.245
 1780SOL    HW1 6239   3.033   3.277   6.342
 1780SOL    HW2 6240   3.154   3.250   6.234
 1781SOL     OW 6241   3.618   5.530   2.963
 1781SOL    HW1 6242   3.540   5.548   3.023
 1781SOL    HW2 6243   3.684   5.474   3.012
 1782SOL     OW 6244   3.017   1.673   3.672
 1782SOL    HW1 6245   3.017   1.730   3.590
 1782SOL    HW2 6246   3.005   1.731   3.753
 1783SOL     OW 6247   1.912   5.920   6.676
 1783SOL    HW1 6248   1.901   5.990   6.747
 1783SOL    HW2 6249   1.921   5.830   6.720
 1784SOL     OW 6250   3.559   6.764   5.694
 1784SOL    HW1 6251   3.567   6.779   5.793
 1784SOL    HW2 6252   3.583   6.670   5.673
 1785SOL     OW 6253   6.572   4.152   2.489
 1785SOL    HW1 6254   6.504   4.154   2.563
 1785SOL    HW2 6255   6.542   4.087   2.419
 1786SOL     OW 6256   3.353   2.318   0.720
 1786SOL    HW1 6257   3.382   2.412   0.703
 1786SOL    HW2 6258   3.403   2.281   0.799
 1787SOL     OW 6259   3.303   0.836   6.129
 1787SOL    HW1 6260   3.242   0.871   6.058
 1787SOL    HW2 6261   3.256   0.840   6.217
 1788SOL     OW 6262   1.748   5.031   5.582
 1788SOL    HW1 6263   1.813   5.084   5.528
 1788SOL    HW2 6264   1.656   5.039   5.542
 1789SOL     OW 6265   6.765   1.705   0.274
 1789SOL    HW1 6266   6.681   1.718   0.327
 1789SOL    HW2 6267   6.745   1.646   0.196
 1790SOL     OW 6268   3.660   6.823   3.960
 1790SOL    HW1 6269   3.562   6.840   3.957
 1790SOL    HW2 6270   3.699   6.837   3.869
 1791SOL     OW 6271   6.708   6.780   2.838
 1791SOL    HW1 6272   6.645   6.774   2.760
 1791SOL    HW2 6273   6.655   6.780   2.923
 1792SOL     OW 6274   1.164   3.234   4.952
 1792SOL    HW1 6275   1.233   3.302   4.977
 1792SOL    HW2 6276   1.117   3.202   5.034
 1793SOL     OW 6277   6.722   0.024   3.895
 1793SOL    HW1 6278   6.718   0.076   3.809
 1793SOL    HW2 6279   6.777   0.075   3.961
 1794SOL     OW 6280   4.651   5.082   6.134
 1794SOL    HW1 6281   4.604   5.008   6.086
 1794SOL    HW2 6282   4.703   5.045   6.211
 1795SOL     OW 6283   0.635   2.679   0.840
 1795SOL    HW1 6284   0.724   2.722   0.832
 1795SOL    HW2 6285   0.641   2.584   0.811
 1796SOL     OW 6286   3.013   0.604   6.290
 1796SOL    HW1 6287   3.046   0.698   6.296
 1796SOL    HW2 6288   3.051   0.560   6.209
 1797SOL     OW 6289   1.253   6.650   0.326
 1797SOL    HW1 6290   1.208   6.575   0.278
 1797SOL    HW2 6291   1.303   6.614   0.405
 1798SOL     OW 6292   4.304   2.430   2.902
 1798SOL    HW1 6293   4.404   2.430   2.900
 1798SOL    HW2 6294   4.273   2.469   2.989
 1799SOL     OW 6295   1.201   2.151   6.346
 1799SOL    HW1 6296   1.205   2.194   6.256
 1799SOL    HW2 6297   1.160   2.215   6.411
 1800SOL     OW 6298   4.032   4.949   1.650
 1800SOL    HW1 6299   3.980   5.025   1.688
 1800SOL    HW2 6300   4.024   4.950   1.550
 1801SOL     OW 6301   6.735   6.788   1.906
 1801SOL    HW1 6302   6.764   6.722   1.837
 1801SOL    HW2 6303   6.643   6.822   1.883
 1802SOL     OW 6304   5.600   5.752   5.050
 1802SOL    HW1 6305   5.619   5.732   5.147
 1802SOL    HW2 6306   5.637   5.842   5.027
 1803SOL     OW 6307   0.279   5.954   0.805
 1803SOL    HW1 6308   0.285   5.887   0.879
 1803SOL    HW2 6309   0.291   5.909   0.717
 1804SOL     OW 6310   2.898   3.764   5.046
 1804SOL    HW1 6311   2.837   3.757   4.968
 1804SOL    HW2 6312   2.958   3.684   5.049
 1805SOL     OW 6313   4.915   3.154   5.903
 1805SOL    HW1 6314   4.940   3.165   5.999
 1805SOL    HW2 6315   4.883   3.061   5.887
 1806SOL     OW 6316   0.892   6.693   1.377
 1806SOL    HW1 6317   0.829   6.615   1.370
 1806SOL    HW2 6318   0.964   6.672   1.443
 1807SOL     OW 6319   6.108   1.548   4.811
 1807SOL    HW1 6320   6.177   1.476   4.800
 1807SOL    HW2 6321   6.149   1.636   4.789
 1808SOL     OW 6322   0.852   4.143   4.330
 1808SOL    HW1 6323   0.822   4.054   4.295
 1808SOL    HW2 6324   0.840   4.213   4.260
 1809SOL     OW 6325   3.522   1.594   5.577
 1809SOL    HW1 6326   3.619   1.571   5.576
 1809SOL    HW2 6327   3.511   1.690   5.604
 1810SOL     OW 6328   2.745   6.424   2.961
 1810SOL    HW1 6329   2.845   6.421   2.957
 1810SOL    HW2 6330   2.708   6.414   2.869
 1811SOL     OW 6331   5.883   5.390   3.404
 1811SOL    HW1 6332   5.848   5.429   3.320
 1811SOL    HW2 6333   5.810   5.341   3.452
 1812SOL     OW 6334   4.274   5.431   6.497
 1812SOL    HW1 6335   4.293   5.333   6.498
 1812SOL    HW2 6336   4.243   5.460   6.587
 1813SOL     OW 6337   6.433   4.614   6.903
 1813SOL    HW1 6338   6.487   4.580   6.826
 1813SOL    HW2 6339   6.340   4.633   6.872
 1814SOL     OW 6340   4.684   6.474   2.925
 1814SOL    HW1 6341   4.605   6.470   2.985
 1814SOL    HW2 6342   4.711   6.569   2.912
 1815SOL     OW 6343   0.121   0.139   3.086
 1815SOL    HW1 6344   0.166   0.221   3.121
 1815SOL    HW2 6345   0.147   0.125   2.991
 1816SOL     OW 6346   1.120   4.322   0.192
 1816SOL    HW1 6347   1.107   4.223   0.198
 1816SOL    HW2 6348   1.144   4.347   0.099
 1817SOL     OW 6349   2.135   5.364   2.295
 1817SOL    HW1 6350   2.037   5.377   2.287
 1817SOL    HW2 6351   2.164   5.290   2.234
 1818SOL     OW 6352   1.886   1.047   3.805
 1818SOL    HW1 6353   1.957   1.117   3.798
 1818SOL    HW2 6354   1.898   0.980   3.732
 1819SOL     OW 6355   1.402   4.579   1.466
 1819SOL    HW1 6356   1.412   4.611   1.372
 1819SOL    HW2 6357   1.438   4.486   1.474
 1820SOL     OW 6358   4.890   0.523   2.789
 1820SOL    HW1 6359   4.988   0.540   2.799
 1820SOL    HW2 6360   4.872   0.489   2.696
 1821SOL     OW 6361   2.615   1.830   2.814
 1821SOL    HW1 6362   2.644   1.892   2.741
 1821SOL    HW2 6363   2.540   1.871   2.865
 1822SOL     OW 6364   3.257   2.911   1.504
 1822SOL    HW1 6365   3.203   2.993   1.519
 1822SOL    HW2 6366   3.346   2.921   1.549
 1823SOL     OW 6367   4.119   6.637   2.380
 1823SOL    HW1 6368   4.209   6.606   2.411
 1823SOL    HW2 6369   4.063   6.661   2.460
 1824SOL     OW 6370   4.936   2.648   1.322
 1824SOL    HW1 6371   4.945   2.745   1.348
 1824SOL    HW2 6372   4.899   2.597   1.399
 1825SOL     OW 6373   1.485   0.675   1.889
 1825SOL    HW1 6374   1.390   0.689   1.918
 1825SOL    HW2 6375   1.542   0.750   1.923
 1826SOL     OW 6376   3.528   6.807   6.977
 1826SOL    HW1 6377   3.533   6.753   6.893
 1826SOL    HW2 6378   3.490   6.897   6.957
 1827SOL     OW 6379   0.236   6.218   1.731
 1827SOL    HW1 6380   0.266   6.152   1.662
 1827SOL    HW2 6381   0.303   6.292   1.739
 1828SOL     OW 6382   0.752   2.344   6.467
 1828SOL    HW1 6383   0.704   2.313   6.385
 1828SOL    HW2 6384   0.850   2.339   6.453
 1829SOL     OW 6385   5.391   5.771   2.734
 1829SOL    HW1 6386   5.401   5.782   2.635
 1829SOL    HW2 6387   5.307   5.721   2.754
 1830SOL     OW 6388   4.586   6.276   3.487
 1830SOL    HW1 6389   4.605   6.372   3.507
 1830SOL    HW2 6390   4.620   6.253   3.396
 1831SOL     OW 6391   5.283   6.666   2.303
 1831SOL    HW1 6392   5.373   6.682   2.261
 1831SOL    HW2 6393   5.214   6.721   2.255
 1832SOL     OW 6394   4.518   2.732   0.977
 1832SOL    HW1 6395   4.566   2.645   0.980
 1832SOL    HW2 6396   4.580   2.806   1.005
 1833SOL     OW 6397   4.931   0.944   4.821
 1833SOL    HW1 6398   4.919   0.914   4.915
 1833SOL    HW2 6399   5.028   0.960   4.803
 1834SOL     OW 6400   3.340   3.407   1.022
 1834SOL    HW1 6401   3.435   3.376   1.026
 1834SOL    HW2 6402   3.336   3.507   1.025
 1835SOL     OW 6403   1.787   5.358   0.919
 1835SOL    HW1 6404   1.731   5.441   0.922
 1835SOL    HW2 6405   1.806   5.334   0.824
 1836SOL     OW 6406   0.748   6.567   0.916
 1836SOL    HW1 6407   0.761   6.475   0.880
 1836SOL    HW2 6408   0.780   6.634   0.848
 1837SOL     OW 6409   0.932   2.108   4.760
 1837SOL    HW1 6410   0.896   2.127   4.851
 1837SOL    HW2 6411   1.025   2.146   4.752
 1838SOL     OW 6412   6.937   2.644   3.970
 1838SOL    HW1 6413   6.889   2.724   4.009
 1838SOL    HW2 6414   0.007   2.645   4.000
 1839SOL     OW 6415   6.837   2.436   5.551
 1839SOL    HW1 6416   6.916   2.492   5.525
 1839SOL    HW2 6417   6.869   2.346   5.583
 1840SOL     OW 6418   2.852   6.127   0.587
 1840SOL    HW1 6419   2.809   6.045   0.551
 1840SOL    HW2 6420   2.876   6.189   0.512
 1841SOL     OW 6421   2.118   2.773   3.219
 1841SOL    HW1 6422   2.089   2.803   3.129
 1841SOL    HW2 6423   2.174   2.844   3.262
 1842SOL     OW 6424   0.847   4.795   0.446
 1842SOL    HW1 6425   0.826   4.738   0.526
 1842SOL    HW2 6426   0.815   4.888   0.463
 1843SOL     OW 6427   2.705   1.740   4.798
 1843SOL    HW1 6428   2.704   1.796   4.881
 1843SOL    HW2 6429   2.781   1.674   4.804
 1844SOL     OW 6430   4.267   2.306   3.917
 1844SOL    HW1 6431   4.331   2.353   3.856
 1844SOL    HW2 6432   4.215   2.239   3.865
 1845SOL     OW 6433   4.689   0.556   0.154
 1845SOL    HW1 6434   4.590   0.567   0.161
 1845SOL    HW2 6435   4.729   0.639   0.114
 1846SOL     OW 6436   2.967   1.798   6.011
 1846SOL    HW1 6437   3.066   1.802   6.026
 1846SOL    HW2 6438   2.949   1.753   5.923
 1847SOL     OW 6439   0.065   0.530   0.667
 1847SOL    HW1 6440   0.090   0.433   0.679
 1847SOL    HW2 6441   0.072   0.554   0.571
 1848SOL     OW 6442   2.944   6.928   1.931
 1848SOL    HW1 6443   3.039   6.960   1.925
 1848SOL    HW2 6444   2.899   6.975   2.007
 1849SOL     OW 6445   3.213   1.803   6.109
 1849SOL    HW1 6446   3.217   1.704   6.123
 1849SOL    HW2 6447   3.189   1.847   6.196
 1850SOL     OW 6448   6.405   2.805   2.558
 1850SOL    HW1 6449   6.348   2.724   2.542
 1850SOL    HW2 6450   6.438   2.840   2.470
 1851SOL     OW 6451   0.392   2.897   2.614
 1851SOL    HW1 6452   0.458   2.941   2.554
 1851SOL    HW2 6453   0.438   2.832   2.674
 1852SOL     OW 6454   4.506   3.290   0.196
 1852SOL    HW1 6455   4.487   3.203   0.240
 1852SOL    HW2 6456   4.601   3.316   0.214
 1853SOL     OW 6457   1.095   4.738   1.185
 1853SOL    HW1 6458   1.023   4.808   1.184
 1853SOL    HW2 6459   1.103   4.697   1.094
 1854SOL     OW 6460   2.468   5.603   4.968
 1854SOL    HW1 6461   2.490   5.529   5.032
 1854SOL    HW2 6462   2.448   5.686   5.020
 1855SOL     OW 6463   5.231   5.066   0.810
 1855SOL    HW1 6464   5.330   5.057   0.826
 1855SOL    HW2 6465   5.211   5.160   0.783
 1856SOL     OW 6466   5.554   2.315   4.915
 1856SOL    HW1 6467   5.571   2.407   4.878
 1856SOL    HW2 6468   5.469   2.315   4.967
 1857SOL     OW 6469   4.489   0.957   3.455
 1857SOL    HW1 6470   4.397   0.986   3.482
 1857SOL    HW2 6471   4.485   0.916   3.364
 1858SOL     OW 6472   4.904   3.234   3.715
 1858SOL    HW1 6473   4.894   3.139   3.745
 1858SOL    HW2 6474   4.876   3.296   3.788
 1859SOL     OW 6475   4.720   2.225   3.018
 1859SOL    HW1 6476   4.796   2.164   2.994
 1859SOL    HW2 6477   4.733   2.312   2.972
 1860SOL     OW 6478   5.721   0.914   4.611
 1860SOL    HW1 6479   5.817   0.913   4.585
 1860SOL    HW2 6480   5.666   0.876   4.536
 1861SOL     OW 6481   5.296   6.255   3.052
 1861SOL    HW1 6482   5.276   6.194   2.975
 1861SOL    HW2 6483   5.234   6.333   3.050
 1862SOL     OW 6484   2.091   1.891   0.527
 1862SOL    HW1 6485   2.014   1.830   0.507
 1862SOL    HW2 6486   2.086   1.920   0.622
 1863SOL     OW 6487   3.312   2.760   1.092
 1863SOL    HW1 6488   3.282   2.734   1.184
 1863SOL    HW2 6489   3.240   2.739   1.026
 1864SOL     OW 6490   1.463   6.892   4.529
 1864SOL    HW1 6491   1.536   6.897   4.460
 1864SOL    HW2 6492   1.447   6.983   4.567
 1865SOL     OW 6493   4.526   2.487   6.334
 1865SOL    HW1 6494   4.542   2.566   6.392
 1865SOL    HW2 6495   4.482   2.414   6.387
 1866SOL     OW 6496   4.754   4.752   2.417
 1866SOL    HW1 6497   4.721   4.689   2.487
 1866SOL    HW2 6498   4.694   4.832   2.413
 1867SOL     OW 6499   0.591   4.244   0.124
 1867SOL    HW1 6500   0.536   4.294   0.057
 1867SOL    HW2 6501   0.635   4.309   0.186
 1868SOL     OW 6502   5.949   4.583   5.905
 1868SOL    HW1 6503   6.033   4.603   5.956
 1868SOL    HW2 6504   5.871   4.624   5.951
 1869SOL     OW 6505   6.366   1.151   5.131
 1869SOL    HW1 6506   6.412   1.085   5.189
 1869SOL    HW2 6507   6.301   1.104   5.071
 1870SOL     OW 6508   1.499   5.719   4.329
 1870SOL    HW1 6509   1.569   5.712   4.258
 1870SOL    HW2 6510   1.497   5.634   4.382
 1871SOL     OW 6511   2.165   0.276   0.847
 1871SOL    HW1 6512   2.249   0.247   0.891
 1871SOL    HW2 6513   2.086   0.238   0.895
 1872SOL     OW 6514   2.128   4.170   0.045
 1872SOL    HW1 6515   2.204   4.216   0.091
 1872SOL    HW2 6516   2.164   4.103   7.006
 1873SOL     OW 6517   4.885   1.788   6.719
 1873SOL    HW1 6518   4.936   1.706   6.695
 1873SOL    HW2 6519   4.818   1.809   6.648
 1874SOL     OW 6520   0.963   1.946   2.660
 1874SOL    HW1 6521   1.037   1.892   2.700
 1874SOL    HW2 6522   0.876   1.914   2.696
 1875SOL     OW 6523   1.196   6.367   6.664
 1875SOL    HW1 6524   1.255   6.315   6.726
 1875SOL    HW2 6525   1.104   6.373   6.703
 1876SOL     OW 6526   3.080   6.914   4.010
 1876SOL    HW1 6527   3.137   6.988   3.975
 1876SOL    HW2 6528   3.087   6.835   3.950
 1877SOL     OW 6529   0.466   6.783   3.144
 1877SOL    HW1 6530   0.557   6.780   3.103
 1877SOL    HW2 6531   0.433   6.877   3.144
 1878SOL     OW 6532   6.515   2.690   4.806
 1878SOL    HW1 6533   6.516   2.600   4.848
 1878SOL    HW2 6534   6.425   2.732   4.820
 1879SOL     OW 6535   1.397   3.702   5.390
 1879SOL    HW1 6536   1.495   3.688   5.401
 1879SOL    HW2 6537   1.347   3.630   5.439
 1880SOL     OW 6538   5.954   0.995   5.745
 1880SOL    HW1 6539   5.977   1.004   5.648
 1880SOL    HW2 6540   5.974   1.081   5.793
 1881SOL     OW 6541   6.523   2.158   0.774
 1881SOL    HW1 6542   6.486   2.199   0.691
 1881SOL    HW2 6543   6.618   2.130   0.758
 1882SOL     OW 6544   1.000   3.956   6.296
 1882SOL    HW1 6545   0.928   4.024   6.281
 1882SOL    HW2 6546   1.076   3.999   6.345
 1883SOL     OW 6547   0.158   2.240   3.582
 1883SOL    HW1 6548   0.194   2.302   3.651
 1883SOL    HW2 6549   0.207   2.253   3.496
 1884SOL     OW 6550   0.294   2.406   1.416
 1884SOL    HW1 6551   0.286   2.371   1.510
 1884SOL    HW2 6552   0.348   2.490   1.416
 1885SOL     OW 6553   2.387   1.856   5.079
 1885SOL    HW1 6554   2.375   1.773   5.135
 1885SOL    HW2 6555   2.341   1.932   5.123
 1886SOL     OW 6556   0.952   6.297   3.388
 1886SOL    HW1 6557   0.913   6.216   3.346
 1886SOL    HW2 6558   1.035   6.272   3.438
 1887SOL     OW 6559   1.390   5.805   6.700
 1887SOL    HW1 6560   1.430   5.740   6.636
 1887SOL    HW2 6561   1.448   5.886   6.707
 1888SOL     OW 6562   2.484   0.785   1.592
 1888SOL    HW1 6563   2.494   0.825   1.683
 1888SOL    HW2 6564   2.573   0.755   1.559
 1889SOL     OW 6565   1.500   3.393   3.441
 1889SOL    HW1 6566   1.551   3.310   3.421
 1889SOL    HW2 6567   1.530   3.431   3.528
 1890SOL     OW 6568   0.509   5.988   3.497
 1890SOL    HW1 6569   0.455   5.990   3.413
 1890SOL    HW2 6570   0.449   5.982   3.576
 1891SOL     OW 6571   4.069   3.818   2.670
 1891SOL    HW1 6572   4.142   3.886   2.665
 1891SOL    HW2 6573   3.985   3.861   2.704
 1892SOL     OW 6574   0.366   0.618   2.091
 1892SOL    HW1 6575   0.285   0.628   2.032
 1892SOL    HW2 6576   0.340   0.640   2.185
 1893SOL     OW 6577   3.427   3.290   3.423
 1893SOL    HW1 6578   3.362   3.366   3.417
 1893SOL    HW2 6579   3.508   3.311   3.368
 1894SOL     OW 6580   3.438   3.875   4.391
 1894SOL    HW1 6581   3.525   3.843   4.351
 1894SOL    HW2 6582   3.392   3.936   4.327
 1895SOL     OW 6583   3.332   6.459   0.019
 1895SOL    HW1 6584   3.342   6.549   0.062
 1895SOL    HW2 6585   3.254   6.460   6.982
 1896SOL     OW 6586   5.593   2.471   1.244
 1896SOL    HW1 6587   5.686   2.479   1.207
 1896SOL    HW2 6588   5.529   2.518   1.183
 1897SOL     OW 6589   2.174   5.071   3.827
 1897SOL    HW1 6590   2.153   5.167   3.806
 1897SOL    HW2 6591   2.252   5.041   3.771
 1898SOL     OW 6592   1.532   5.930   3.664
 1898SOL    HW1 6593   1.631   5.921   3.678
 1898SOL    HW2 6594   1.512   6.018   3.623
 1899SOL     OW 6595   6.951   0.170   2.057
 1899SOL    HW1 6596   6.954   0.099   1.987
 1899SOL    HW2 6597   6.905   0.135   2.139
 1900SOL     OW 6598   2.857   6.848   0.266
 1900SOL    HW1 6599   2.877   6.750   0.255
 1900SOL    HW2 6600   2.883   6.877   0.358
 1901SOL     OW 6601   2.918   3.793   1.403
 1901SOL    HW1 6602   3.001   3.738   1.412
 1901SOL    HW2 6603   2.838   3.733   1.413
 1902SOL     OW 6604   1.420   6.427   4.554
 1902SOL    HW1 6605   1.458   6.497   4.494
 1902SOL    HW2 6606   1.477   6.420   4.636
 1903SOL     OW 6607   1.531   2.506   4.384
 1903SOL    HW1 6608   1.436   2.529   4.402
 1903SOL    HW2 6609   1.591   2.567   4.437
 1904SOL     OW 6610   5.384   5.432   2.374
 1904SOL    HW1 6611   5.310   5.493   2.401
 1904SOL    HW2 6612   5.469   5.461   2.418
 1905SOL     OW 6613   6.804   0.277   3.777
 1905SOL    HW1 6614   6.861   0.360   3.780
 1905SOL    HW2 6615   6.711   0.300   3.805
 1906SOL     OW 6616   2.344   0.283   5.412
 1906SOL    HW1 6617   2.392   0.369   5.394
 1906SOL    HW2 6618   2.404   0.206   5.389
 1907SOL     OW 6619   5.483   2.837   0.234
 1907SOL    HW1 6620   5.406   2.831   0.298
 1907SOL    HW2 6621   5.499   2.933   0.210
 1908SOL     OW 6622   3.587   1.246   1.094
 1908SOL    HW1 6623   3.556   1.160   1.053
 1908SOL    HW2 6624   3.511   1.288   1.144
 1909SOL     OW 6625   6.842   4.334   5.047
 1909SOL    HW1 6626   6.940   4.315   5.047
 1909SOL    HW2 6627   6.806   4.325   4.955
 1910SOL     OW 6628   6.610   6.591   5.878
 1910SOL    HW1 6629   6.565   6.502   5.874
 1910SOL    HW2 6630   6.549   6.661   5.839
 1911SOL     OW 6631   6.634   5.026   4.232
 1911SOL    HW1 6632   6.639   5.018   4.331
 1911SOL    HW2 6633   6.569   5.098   4.208
 1912SOL     OW 6634   2.822   5.487   2.504
 1912SOL    HW1 6635   2.856   5.561   2.561
 1912SOL    HW2 6636   2.852   5.399   2.542
 1913SOL     OW 6637   2.767   4.323   5.300
 1913SOL    HW1 6638   2.671   4.349   5.310
 1913SOL    HW2 6639   2.819   4.399   5.262
 1914SOL     OW 6640   2.425   4.114   6.327
 1914SOL    HW1 6641   2.397   4.110   6.231
 1914SOL    HW2 6642   2.440   4.021   6.362
 1915SOL     OW 6643   4.701   2.103   6.249
 1915SOL    HW1 6644   4.624   2.102   6.185
 1915SOL    HW2 6645   4.787   2.112   6.199
 1916SOL     OW 6646   3.805   0.818   2.305
 1916SOL    HW1 6647   3.758   0.856   2.226
 1916SOL    HW2 6648   3.840   0.893   2.362
 1917SOL     OW 6649   2.596   4.047   1.686
 1917SOL    HW1 6650   2.562   4.130   1.729
 1917SOL    HW2 6651   2.639   4.070   1.598
 1918SOL     OW 6652   6.095   2.422   3.967
 1918SOL    HW1 6653   6.024   2.488   3.991
 1918SOL    HW2 6654   6.073   2.333   4.007
 1919SOL     OW 6655   0.917   1.845   1.268
 1919SOL    HW1 6656   0.823   1.878   1.262
 1919SOL    HW2 6657   0.962   1.855   1.179
 1920SOL     OW 6658   5.181   2.199   0.493
 1920SOL    HW1 6659   5.245   2.142   0.544
 1920SOL    HW2 6660   5.122   2.249   0.557
 1921SOL     OW 6661   1.799   2.842   0.328
 1921SOL    HW1 6662   1.772   2.850   0.232
 1921SOL    HW2 6663   1.899   2.836   0.334
 1922SOL     OW 6664   3.199   3.283   2.360
 1922SOL    HW1 6665   3.151   3.213   2.308
 1922SOL    HW2 6666   3.189   3.265   2.458
 1923SOL     OW 6667   3.835   0.169   5.273
 1923SOL    HW1 6668   3.740   0.191   5.295
 1923SOL    HW2 6669   3.880   0.248   5.232
 1924SOL     OW 6670   4.054   0.224   0.712
 1924SOL    HW1 6671   4.025   0.137   0.672
 1924SOL    HW2 6672   4.153   0.223   0.726
 1925SOL     OW 6673   1.557   4.484   1.137
 1925SOL    HW1 6674   1.466   4.523   1.124
 1925SOL    HW2 6675   1.554   4.415   1.210
 1926SOL     OW 6676   3.568   0.323   1.902
 1926SOL    HW1 6677   3.648   0.303   1.960
 1926SOL    HW2 6678   3.573   0.268   1.819
 1927SOL     OW 6679   2.098   5.287   1.543
 1927SOL    HW1 6680   2.169   5.322   1.482
 1927SOL    HW2 6681   2.100   5.187   1.542
 1928SOL     OW 6682   5.492   4.197   2.836
 1928SOL    HW1 6683   5.452   4.193   2.927
 1928SOL    HW2 6684   5.437   4.258   2.778
 1929SOL     OW 6685   3.169   6.942   2.888
 1929SOL    HW1 6686   3.259   6.955   2.930
 1929SOL    HW2 6687   3.172   6.973   2.793
 1930SOL     OW 6688   4.591   3.314   6.530
 1930SOL    HW1 6689   4.548   3.404   6.527
 1930SOL    HW2 6690   4.650   3.308   6.610
 1931SOL     OW 6691   0.705   1.696   4.155
 1931SOL    HW1 6692   0.674   1.749   4.234
 1931SOL    HW2 6693   0.729   1.757   4.080
 1932SOL     OW 6694   4.381   2.408   2.064
 1932SOL    HW1 6695   4.429   2.446   1.984
 1932SOL    HW2 6696   4.301   2.358   2.034
 1933SOL     OW 6697   1.348   1.430   1.158
 1933SOL    HW1 6698   1.387   1.518   1.186
 1933SOL    HW2 6699   1.419   1.376   1.112
 1934SOL     OW 6700   0.096   0.366   6.345
 1934SOL    HW1 6701   7.025   0.356   6.323
 1934SOL    HW2 6702   0.112   0.456   6.386
 1935SOL     OW 6703   6.217   5.583   4.103
 1935SOL    HW1 6704   6.278   5.600   4.180
 1935SOL    HW2 6705   6.248   5.502   4.053
 1936SOL     OW 6706   4.685   3.073   5.281
 1936SOL    HW1 6707   4.750   3.086   5.356
 1936SOL    HW2 6708   4.596   3.112   5.306
 1937SOL     OW 6709   5.531   5.081   6.680
 1937SOL    HW1 6710   5.431   5.089   6.684
 1937SOL    HW2 6711   5.573   5.158   6.728
 1938SOL     OW 6712   0.385   3.063   6.517
 1938SOL    HW1 6713   0.288   3.042   6.519
 1938SOL    HW2 6714   0.400   3.156   6.550
 1939SOL     OW 6715   0.762   0.399   4.727
 1939SOL    HW1 6716   0.773   0.487   4.773
 1939SOL    HW2 6717   0.843   0.380   4.671
 1940SOL     OW 6718   6.847   4.947   0.617
 1940SOL    HW1 6719   6.898   5.033   0.609
 1940SOL    HW2 6720   6.774   4.958   0.684
 1941SOL     OW 6721   6.232   1.985   4.149
 1941SOL    HW1 6722   6.320   1.940   4.132
 1941SOL    HW2 6723   6.213   1.984   4.247
 1942SOL     OW 6724   6.193   3.696   2.692
 1942SOL    HW1 6725   6.279   3.668   2.736
 1942SOL    HW2 6726   6.192   3.795   2.679
 1943SOL     OW 6727   0.806   1.548   2.833
 1943SOL    HW1 6728   0.893   1.508   2.803
 1943SOL    HW2 6729   0.810   1.647   2.824
 1944SOL     OW 6730   0.172   2.867   3.031
 1944SOL    HW1 6731   0.082   2.835   3.004
 1944SOL    HW2 6732   0.173   2.886   3.130
 1945SOL     OW 6733   4.549   1.295   2.267
 1945SOL    HW1 6734   4.580   1.334   2.181
 1945SOL    HW2 6735   4.467   1.344   2.298
 1946SOL     OW 6736   6.030   5.337   1.244
 1946SOL    HW1 6737   6.079   5.383   1.170
 1946SOL    HW2 6738   6.063   5.244   1.254
 1947SOL     OW 6739   5.970   4.673   3.592
 1947SOL    HW1 6740   6.066   4.679   3.621
 1947SOL    HW2 6741   5.930   4.765   3.590
 1948SOL     OW 6742   5.102   3.225   3.186
 1948SOL    HW1 6743   5.034   3.285   3.144
 1948SOL    HW2 6744   5.061   3.179   3.265
 1949SOL     OW 6745   3.899   4.474   6.892
 1949SOL    HW1 6746   3.936   4.562   6.864
 1949SOL    HW2 6747   3.801   4.471   6.872
 1950SOL     OW 6748   3.005   3.743   3.316
 1950SOL    HW1 6749   2.919   3.739   3.367
 1950SOL    HW2 6750   2.985   3.752   3.218
 1951SOL     OW 6751   5.904   4.965   5.832
 1951SOL    HW1 6752   5.900   4.948   5.734
 1951SOL    HW2 6753   5.886   4.879   5.881
 1952SOL     OW 6754   6.029   5.027   0.324
 1952SOL    HW1 6755   6.089   5.004   0.248
 1952SOL    HW2 6756   5.959   4.956   0.334
 1953SOL     OW 6757   0.644   0.694   7.016
 1953SOL    HW1 6758   0.671   0.626   0.058
 1953SOL    HW2 6759   0.701   0.776   0.001
 1954SOL     OW 6760   3.999   6.751   2.175
 1954SOL    HW1 6761   4.052   6.711   2.250
 1954SOL    HW2 6762   3.976   6.845   2.197
 1955SOL     OW 6763   0.277   2.162   3.071
 1955SOL    HW1 6764   0.215   2.186   3.145
 1955SOL    HW2 6765   0.249   2.210   2.987
 1956SOL     OW 6766   5.550   0.468   1.769
 1956SOL    HW1 6767   5.581   0.500   1.680
 1956SOL    HW2 6768   5.510   0.544   1.820
 1957SOL     OW 6769   5.415   2.069   4.490
 1957SOL    HW1 6770   5.503   2.116   4.476
 1957SOL    HW2 6771   5.423   1.975   4.457
 1958SOL     OW 6772   4.481   1.868   0.749
 1958SOL    HW1 6773   4.525   1.957   0.761
 1958SOL    HW2 6774   4.540   1.809   0.695
 1959SOL     OW 6775   0.575   0.924   5.068
 1959SOL    HW1 6776   0.499   0.984   5.044
 1959SOL    HW2 6777   0.541   0.831   5.079
 1960SOL     OW 6778   6.137   4.451   3.929
 1960SOL    HW1 6779   6.164   4.375   3.988
 1960SOL    HW2 6780   6.163   4.431   3.835
 1961SOL     OW 6781   0.064   3.941   4.167
 1961SOL    HW1 6782   7.006   3.983   4.204
 1961SOL    HW2 6783   0.076   3.850   4.206
 1962SOL     OW 6784   1.156   0.487   2.620
 1962SOL    HW1 6785   1.124   0.393   2.626
 1962SOL    HW2 6786   1.180   0.508   2.525
 1963SOL     OW 6787   0.478   2.607   1.440
 1963SOL    HW1 6788   0.436   2.698   1.443
 1963SOL    HW2 6789   0.576   2.615   1.458
 1964SOL     OW 6790   5.762   3.652   1.066
 1964SOL    HW1 6791   5.822   3.671   1.144
 1964SOL    HW2 6792   5.794   3.703   0.987
 1965SOL     OW 6793   0.001   4.364   4.070
 1965SOL    HW1 6794   0.055   4.280   4.058
 1965SOL    HW2 6795   6.988   4.391   3.982
 1966SOL     OW 6796   1.757   5.084   0.178
 1966SOL    HW1 6797   1.856   5.079   0.195
 1966SOL    HW2 6798   1.742   5.101   0.081
 1967SOL     OW 6799   6.578   3.587   3.340
 1967SOL    HW1 6800   6.607   3.500   3.378
 1967SOL    HW2 6801   6.633   3.661   3.380
 1968SOL     OW 6802   2.682   1.083   4.933
 1968SOL    HW1 6803   2.766   1.131   4.958
 1968SOL    HW2 6804   2.629   1.140   4.870
 1969SOL     OW 6805   2.643   6.488   0.075
 1969SOL    HW1 6806   2.611   6.498   7.005
 1969SOL    HW2 6807   2.565   6.472   0.135
 1970SOL     OW 6808   5.812   5.551   5.285
 1970SOL    HW1 6809   5.825   5.496   5.202
 1970SOL    HW2 6810   5.890   5.613   5.297
 1971SOL     OW 6811   1.892   5.695   4.743
 1971SOL    HW1 6812   1.886   5.738   4.653
 1971SOL    HW2 6813   1.894   5.767   4.813
 1972SOL     OW 6814   6.429   2.917   2.792
 1972SOL    HW1 6815   6.439   2.852   2.717
 1972SOL    HW2 6816   6.411   3.008   2.756
 1973SOL     OW 6817   2.349   3.076   0.166
 1973SOL    HW1 6818   2.441   3.042   0.187
 1973SOL    HW2 6819   2.322   3.045   0.074
 1974SOL     OW 6820   3.043   6.599   4.896
 1974SOL    HW1 6821   3.042   6.609   4.796
 1974SOL    HW2 6822   3.117   6.537   4.922
 1975SOL     OW 6823   1.954   2.742   3.623
 1975SOL    HW1 6824   1.948   2.827   3.676
 1975SOL    HW2 6825   2.022   2.682   3.665
 1976SOL     OW 6826   6.969   0.023   6.294
 1976SOL    HW1 6827   6.974   0.051   6.198
 1976SOL    HW2 6828   0.031   7.007   6.321
 1977SOL     OW 6829   2.167   4.440   5.585
 1977SOL    HW1 6830   2.241   4.503   5.565
 1977SOL    HW2 6831   2.105   4.481   5.653
 1978SOL     OW 6832   2.669   0.102   1.407
 1978SOL    HW1 6833   2.668   0.004   1.428
 1978SOL    HW2 6834   2.696   0.115   1.312
 1979SOL     OW 6835   6.981   4.935   6.125
 1979SOL    HW1 6836   6.945   4.905   6.214
 1979SOL    HW2 6837   0.020   4.866   6.091
 1980SOL     OW 6838   3.504   1.811   0.259
 1980SOL    HW1 6839   3.604   1.811   0.260
 1980SOL    HW2 6840   3.470   1.902   0.236
 1981SOL     OW 6841   2.927   2.275   2.932
 1981SOL    HW1 6842   2.975   2.222   3.002
 1981SOL    HW2 6843   2.928   2.371   2.956
 1982SOL     OW 6844   0.766   2.954   5.077
 1982SOL    HW1 6845   0.758   3.047   5.041
 1982SOL    HW2 6846   0.682   2.929   5.125
 1983SOL     OW 6847   0.206   0.446   2.551
 1983SOL    HW1 6848   0.119   0.484   2.582
 1983SOL    HW2 6849   0.189   0.362   2.500
 1984SOL     OW 6850   4.852   2.872   5.944
 1984SOL    HW1 6851   4.818   2.778   5.955
 1984SOL    HW2 6852   4.926   2.888   6.009
 1985SOL     OW 6853   6.133   3.607   2.390
 1985SOL    HW1 6854   6.043   3.592   2.348
 1985SOL    HW2 6855   6.204   3.575   2.327
 1986SOL     OW 6856   4.406   2.714   1.608
 1986SOL    HW1 6857   4.426   2.622   1.575
 1986SOL    HW2 6858   4.488   2.752   1.651
 1987SOL     OW 6859   2.722   1.194   1.213
 1987SOL    HW1 6860   2.749   1.125   1.280
 1987SOL    HW2 6861   2.623   1.206   1.215
 1988SOL     OW 6862   0.030   2.058   1.367
 1988SOL    HW1 6863   0.050   2.068   1.465
 1988SOL    HW2 6864   0.092   2.118   1.315
 1989SOL     OW 6865   2.245   4.789   4.584
 1989SOL    HW1 6866   2.336   4.758   4.559
 1989SOL    HW2 6867   2.232   4.883   4.552
 1990SOL     OW 6868   4.051   0.207   0.255
 1990SOL    HW1 6869   4.097   0.185   0.169
 1990SOL    HW2 6870   3.994   0.289   0.242
 1991SOL     OW 6871   2.615   5.215   0.843
 1991SOL    HW1 6872   2.648   5.123   0.821
 1991SOL    HW2 6873   2.574   5.216   0.934
 1992SOL     OW 6874   0.564   6.536   1.553
 1992SOL    HW1 6875   0.487   6.477   1.577
 1992SOL    HW2 6876   0.601   6.578   1.636
 1993SOL     OW 6877   2.446   2.514   3.636
 1993SOL    HW1 6878   2.372   2.496   3.571
 1993SOL    HW2 6879   2.425   2.597   3.688
 1994SOL     OW 6880   3.712   2.657   0.911
 1994SOL    HW1 6881   3.682   2.596   0.984
 1994SOL    HW2 6882   3.807   2.637   0.888
 1995SOL     OW 6883   5.871   2.116   3.891
 1995SOL    HW1 6884   5.905   2.157   3.976
 1995SOL    HW2 6885   5.939   2.051   3.856
 1996SOL     OW 6886   3.746   1.413   0.982
 1996SOL    HW1 6887   3.698   1.423   0.895
 1996SOL    HW2 6888   3.693   1.354   1.042
 1997SOL     OW 6889   3.987   0.295   4.071
 1997SOL    HW1 6890   3.981   0.395   4.071
 1997SOL    HW2 6891   3.912   0.257   4.125
 1998SOL     OW 6892   1.910   3.575   1.443
 1998SOL    HW1 6893   1.866   3.662   1.421
 1998SOL    HW2 6894   1.855   3.525   1.510
 1999SOL     OW 6895   1.728   0.069   0.084
 1999SOL    HW1 6896   1.781   0.111   0.011
 1999SOL    HW2 6897   1.731   0.126   0.166
 2000SOL     OW 6898   3.715   4.278   5.686
 2000SOL    HW1 6899   3.757   4.213   5.750
 2000SOL    HW2 6900   3.785   4.340   5.652
 2001SOL     OW 6901   2.017   2.014   0.758
 2001SOL    HW1 6902   1.969   1.945   0.813
 2001SOL    HW2 6903   1.950   2.078   0.720
 2002SOL     OW 6904   0.175   4.819   0.401
 2002SOL    HW1 6905   0.186   4.784   0.308
 2002SOL    HW2 6906   0.185   4.919   0.400
 2003SOL     OW 6907   6.572   4.941   2.935
 2003SOL    HW1 6908   6.616   4.970   3.020
 2003SOL    HW2 6909   6.597   4.847   2.914
 2004SOL     OW 6910   3.427   6.908   3.552
 2004SOL    HW1 6911   3.351   6.955   3.597
 2004SOL    HW2 6912   3.439   6.945   3.460
 2005SOL     OW 6913   1.580   6.442   0.364
 2005SOL    HW1 6914   1.669   6.398   0.369
 2005SOL    HW2 6915   1.530   6.406   0.285
 2006SOL     OW 6916   5.714   6.259   2.472
 2006SOL    HW1 6917   5.745   6.221   2.560
 2006SOL    HW2 6918   5.702   6.358   2.481
 2007SOL     OW 6919   5.670   4.423   6.700
 2007SOL    HW1 6920   5.605   4.391   6.769
 2007SOL    HW2 6921   5.759   4.437   6.742
 2008SOL     OW 6922   1.617   3.856   4.039
 2008SOL    HW1 6923   1.706   3.902   4.033
 2008SOL    HW2 6924   1.550   3.921   4.075
 2009SOL     OW 6925   6.402   0.205   3.061
 2009SOL    HW1 6926   6.439   0.123   3.018
 2009SOL    HW2 6927   6.321   0.235   3.010
 2010SOL     OW 6928   1.122   1.788   1.739
 2010SOL    HW1 6929   1.208   1.830   1.711
 2010SOL    HW2 6930   1.127   1.689   1.723
 2011SOL     OW 6931   1.321   6.535   5.689
 2011SOL    HW1 6932   1.349   6.564   5.597
 2011SOL    HW2 6933   1.336   6.610   5.753
 2012SOL     OW 6934   1.657   2.908   1.759
 2012SOL    HW1 6935   1.601   2.976   1.711
 2012SOL    HW2 6936   1.689   2.947   1.846
 2013SOL     OW 6937   0.800   3.476   2.243
 2013SOL    HW1 6938   0.880   3.421   2.223
 2013SOL    HW2 6939   0.795   3.492   2.342
 2014SOL     OW 6940   3.698   0.758   4.617
 2014SOL    HW1 6941   3.748   0.695   4.677
 2014SOL    HW2 6942   3.758   0.790   4.544
 2015SOL     OW 6943   4.514   0.824   2.268
 2015SOL    HW1 6944   4.544   0.813   2.363
 2015SOL    HW2 6945   4.438   0.760   2.250
 2016SOL     OW 6946   1.702   0.493   5.326
 2016SOL    HW1 6947   1.675   0.411   5.376
 2016SOL    HW2 6948   1.620   0.543   5.298
 2017SOL     OW 6949   3.580   6.658   3.454
 2017SOL    HW1 6950   3.649   6.608   3.403
 2017SOL    HW2 6951   3.565   6.613   3.542
 2018SOL     OW 6952   1.167   0.975   3.587
 2018SOL    HW1 6953   1.176   0.965   3.488
 2018SOL    HW2 6954   1.071   0.965   3.613
 2019SOL     OW 6955   5.831   5.441   6.269
 2019SOL    HW1 6956   5.792   5.530   6.293
 2019SOL    HW2 6957   5.819   5.377   6.345
 2020SOL     OW 6958   1.874   6.107   6.894
 2020SOL    HW1 6959   1.890   6.052   6.976
 2020SOL    HW2 6960   1.923   6.194   6.902
 2021SOL     OW 6961   6.679   5.925   4.265
 2021SOL    HW1 6962   6.642   5.833   4.272
 2021SOL    HW2 6963   6.688   5.951   4.169
 2022SOL     OW 6964   1.918   4.211   4.833
 2022SOL    HW1 6965   1.843   4.243   4.775
 2022SOL    HW2 6966   1.979   4.288   4.854
 2023SOL     OW 6967   6.638   6.705   0.350
 2023SOL    HW1 6968   6.632   6.655   0.436
 2023SOL    HW2 6969   6.643   6.803   0.369
 2024SOL     OW 6970   0.338   6.060   4.761
 2024SOL    HW1 6971   0.238   6.056   4.763
 2024SOL    HW2 6972   0.374   5.977   4.717
 2025SOL     OW 6973   1.233   6.358   4.214
 2025SOL    HW1 6974   1.194   6.271   4.184
 2025SOL    HW2 6975   1.246   6.417   4.135
 2026SOL     OW 6976   6.773   0.301   6.031
 2026SOL    HW1 6977   6.784   0.288   6.130
 2026SOL    HW2 6978   6.835   0.240   5.982
 2027SOL     OW 6979   6.849   6.170   1.923
 2027SOL    HW1 6980   6.855   6.165   2.023
 2027SOL    HW2 6981   6.906   6.245   1.890
 2028SOL     OW 6982   3.375   5.287   4.316
 2028SOL    HW1 6983   3.356   5.328   4.405
 2028SOL    HW2 6984   3.316   5.208   4.302
 2029SOL     OW 6985   6.455   2.657   6.304
 2029SOL    HW1 6986   6.356   2.641   6.302
 2029SOL    HW2 6987   6.489   2.666   6.210
 2030SOL     OW 6988   2.234   6.759   1.795
 2030SOL    HW1 6989   2.219   6.858   1.786
 2030SOL    HW2 6990   2.164   6.710   1.744
 2031SOL     OW 6991   6.973   5.898   4.227
 2031SOL    HW1 6992   0.035   5.944   4.244
 2031SOL    HW2 6993   6.898   5.963   4.242
 2032SOL     OW 6994   2.735   2.207   5.882
 2032SOL    HW1 6995   2.739   2.107   5.887
 2032SOL    HW2 6996   2.695   2.244   5.966
 2033SOL     OW 6997   2.283   2.120   0.744
 2033SOL    HW1 6998   2.322   2.104   0.653
 2033SOL    HW2 6999   2.198   2.069   0.753
 2034SOL     OW 7000   6.861   4.029   4.293
 2034SOL    HW1 7001   6.806   4.107   4.262
 2034SOL    HW2 7002   6.811   3.980   4.364
 2035SOL     OW 7003   5.413   0.110   2.820
 2035SOL    HW1 7004   5.359   0.145   2.744
 2035SOL    HW2 7005   5.398   0.011   2.829
 2036SOL     OW 7006   0.819   4.462   0.913
 2036SOL    HW1 7007   0.914   4.460   0.884
 2036SOL    HW2 7008   0.805   4.537   0.977
 2037SOL     OW 7009   0.561   2.072   6.697
 2037SOL    HW1 7010   0.510   2.043   6.779
 2037SOL    HW2 7011   0.518   2.155   6.660
 2038SOL     OW 7012   1.522   1.096   6.666
 2038SOL    HW1 7013   1.538   1.188   6.702
 2038SOL    HW2 7014   1.448   1.053   6.716
 2039SOL     OW 7015   5.659   6.127   2.857
 2039SOL    HW1 7016   5.739   6.163   2.809
 2039SOL    HW2 7017   5.580   6.185   2.839
 2040SOL     OW 7018   1.579   2.424   0.888
 2040SOL    HW1 7019   1.611   2.515   0.860
 2040SOL    HW2 7020   1.544   2.429   0.982
 2041SOL     OW 7021   2.243   0.662   6.685
 2041SOL    HW1 7022   2.232   0.563   6.675
 2041SOL    HW2 7023   2.298   0.697   6.609
 2042SOL     OW 7024   5.524   1.267   5.680
 2042SOL    HW1 7025   5.458   1.259   5.606
 2042SOL    HW2 7026   5.567   1.357   5.677
 2043SOL     OW 7027   0.296   3.887   1.247
 2043SOL    HW1 7028   0.330   3.800   1.213
 2043SOL    HW2 7029   0.329   3.902   1.340
 2044SOL     OW 7030   4.068   0.657   1.032
 2044SOL    HW1 7031   4.003   0.588   1.000
 2044SOL    HW2 7032   4.019   0.738   1.063
 2045SOL     OW 7033   1.074   6.416   5.306
 2045SOL    HW1 7034   1.077   6.338   5.368
 2045SOL    HW2 7035   0.997   6.475   5.330
 2046SOL     OW 7036   1.056   1.865   4.762
 2046SOL    HW1 7037   0.997   1.940   4.732
 2046SOL    HW2 7038   1.038   1.784   4.707
 2047SOL     OW 7039   0.378   0.738   0.534
 2047SOL    HW1 7040   0.460   0.784   0.568
 2047SOL    HW2 7041   0.404   0.653   0.487
 2048SOL     OW 7042   0.943   2.061   4.336
 2048SOL    HW1 7043   0.962   2.100   4.245
 2048SOL    HW2 7044   1.029   2.051   4.386
 2049SOL     OW 7045   4.766   1.812   4.968
 2049SOL    HW1 7046   4.747   1.893   4.913
 2049SOL    HW2 7047   4.847   1.829   5.025
 2050SOL     OW 7048   0.452   1.155   3.991
 2050SOL    HW1 7049   0.514   1.168   4.069
 2050SOL    HW2 7050   0.363   1.124   4.023
 2051SOL     OW 7051   3.003   6.647   6.997
 2051SOL    HW1 7052   3.001   6.724   6.934
 2051SOL    HW2 7053   3.042   6.567   6.951
 2052SOL     OW 7054   1.687   4.250   6.397
 2052SOL    HW1 7055   1.736   4.163   6.397
 2052SOL    HW2 7056   1.696   4.294   6.487
 2053SOL     OW 7057   6.723   6.205   3.392
 2053SOL    HW1 7058   6.641   6.148   3.393
 2053SOL    HW2 7059   6.721   6.265   3.311
 2054SOL     OW 7060   2.917   3.442   3.001
 2054SOL    HW1 7061   2.853   3.487   3.063
 2054SOL    HW2 7062   2.978   3.511   2.960
 2055SOL     OW 7063   3.392   2.455   5.715
 2055SOL    HW1 7064   3.360   2.476   5.808
 2055SOL    HW2 7065   3.313   2.436   5.657
 2056SOL     OW 7066   4.024   4.395   1.124
 2056SOL    HW1 7067   4.001   4.298   1.131
 2056SOL    HW2 7068   4.121   4.408   1.146
 2057SOL     OW 7069   4.930   2.519   4.389
 2057SOL    HW1 7070   4.840   2.544   4.426
 2057SOL    HW2 7071   4.979   2.464   4.456
 2058SOL     OW 7072   0.075   6.905   3.002
 2058SOL    HW1 7073   0.091   6.995   3.043
 2058SOL    HW2 7074   7.023   6.861   3.048
 2059SOL     OW 7075   1.166   0.614   5.432
 2059SOL    HW1 7076   1.205   0.571   5.514
 2059SOL    HW2 7077   1.171   0.714   5.442
 2060SOL     OW 7078   1.465   2.747   0.092
 2060SOL    HW1 7079   1.560   2.778   0.104
 2060SOL    HW2 7080   1.402   2.813   0.131
 2061SOL     OW 7081   2.056   2.621   2.526
 2061SOL    HW1 7082   2.057   2.658   2.620
 2061SOL    HW2 7083   2.150   2.604   2.497
 2062SOL     OW 7084   0.109   4.886   4.973
 2062SOL    HW1 7085   0.153   4.843   5.051
 2062SOL    HW2 7086   0.157   4.971   4.951
 2063SOL     OW 7087   1.042   1.447   4.669
 2063SOL    HW1 7088   1.005   1.512   4.737
 2063SOL    HW2 7089   1.066   1.362   4.715
 2064SOL     OW 7090   1.004   3.291   3.766
 2064SOL    HW1 7091   0.954   3.268   3.850
 2064SOL    HW2 7092   1.097   3.319   3.788
 2065SOL     OW 7093   4.167   3.738   5.492
 2065SOL    HW1 7094   4.249   3.682   5.480
 2065SOL    HW2 7095   4.142   3.741   5.589
 2066SOL     OW 7096   0.750   3.028   6.014
 2066SOL    HW1 7097   0.676   3.062   6.073
 2066SOL    HW2 7098   0.734   3.056   5.920
 2067SOL     OW 7099   6.399   5.245   1.566
 2067SOL    HW1 7100   6.469   5.234   1.637
 2067SOL    HW2 7101   6.369   5.341   1.564
 2068SOL     OW 7102   4.304   0.748   4.959
 2068SOL    HW1 7103   4.377   0.679   4.967
 2068SOL    HW2 7104   4.234   0.716   4.895
 2069SOL     OW 7105   0.256   1.430   3.684
 2069SOL    HW1 7106   0.312   1.358   3.645
 2069SOL    HW2 7107   0.267   1.430   3.784
 2070SOL     OW 7108   0.914   4.940   1.187
 2070SOL    HW1 7109   0.945   5.034   1.204
 2070SOL    HW2 7110   0.839   4.918   1.250
 2071SOL     OW 7111   0.322   1.644   5.501
 2071SOL    HW1 7112   0.330   1.737   5.464
 2071SOL    HW2 7113   0.360   1.579   5.436
 2072SOL     OW 7114   4.932   4.272   5.668
 2072SOL    HW1 7115   5.030   4.285   5.654
 2072SOL    HW2 7116   4.899   4.199   5.608
 2073SOL     OW 7117   2.979   5.124   6.583
 2073SOL    HW1 7118   2.988   5.101   6.680
 2073SOL    HW2 7119   3.063   5.097   6.535
 2074SOL     OW 7120   1.766   4.299   6.142
 2074SOL    HW1 7121   1.692   4.279   6.078
 2074SOL    HW2 7122   1.731   4.292   6.236
 2075SOL     OW 7123   6.377   2.823   1.180
 2075SOL    HW1 7124   6.280   2.799   1.180
 2075SOL    HW2 7125   6.413   2.820   1.273
 2076SOL     OW 7126   6.411   6.527   4.578
 2076SOL    HW1 7127   6.431   6.508   4.674
 2076SOL    HW2 7128   6.320   6.491   4.555
 2077SOL     OW 7129   6.265   4.691   0.917
 2077SOL    HW1 7130   6.331   4.702   0.843
 2077SOL    HW2 7131   6.180   4.652   0.880
 2078SOL     OW 7132   0.758   3.249   5.512
 2078SOL    HW1 7133   0.856   3.263   5.526
 2078SOL    HW2 7134   0.735   3.267   5.416
 2079SOL     OW 7135   5.019   1.135   2.456
 2079SOL    HW1 7136   5.111   1.155   2.420
 2079SOL    HW2 7137   4.952   1.151   2.384
 2080SOL     OW 7138   2.675   3.048   6.205
 2080SOL    HW1 7139   2.765   3.030   6.245
 2080SOL    HW2 7140   2.627   3.115   6.262
 2081SOL     OW 7141   6.180   5.557   2.283
 2081SOL    HW1 7142   6.130   5.621   2.341
 2081SOL    HW2 7143   6.278   5.572   2.294
 2082SOL     OW 7144   6.540   6.406   4.392
 2082SOL    HW1 7145   6.493   6.468   4.454
 2082SOL    HW2 7146   6.474   6.341   4.353
 2083SOL     OW 7147   0.212   6.783   3.749
 2083SOL    HW1 7148   0.116   6.759   3.735
 2083SOL    HW2 7149   0.265   6.700   3.760
 2084SOL     OW 7150   6.337   2.651   0.573
 2084SOL    HW1 7151   6.399   2.619   0.644
 2084SOL    HW2 7152   6.276   2.721   0.611
 2085SOL     OW 7153   5.868   5.657   1.239
 2085SOL    HW1 7154   5.800   5.585   1.226
 2085SOL    HW2 7155   5.948   5.619   1.286
 2086SOL     OW 7156   4.995   0.970   0.015
 2086SOL    HW1 7157   4.955   0.969   6.949
 2086SOL    HW2 7158   5.090   1.001   0.011
 2087SOL     OW 7159   4.023   1.418   6.457
 2087SOL    HW1 7160   4.103   1.365   6.486
 2087SOL    HW2 7161   3.944   1.394   6.514
 2088SOL     OW 7162   0.913   5.635   5.471
 2088SOL    HW1 7163   0.848   5.658   5.543
 2088SOL    HW2 7164   0.915   5.709   5.403
 2089SOL     OW 7165   2.344   3.355   0.131
 2089SOL    HW1 7166   2.427   3.360   0.076
 2089SOL    HW2 7167   2.336   3.264   0.170
 2090SOL     OW 7168   5.545   2.907   5.587
 2090SOL    HW1 7169   5.579   2.845   5.517
 2090SOL    HW2 7170   5.519   2.854   5.668
 2091SOL     OW 7171   5.283   6.459   1.028
 2091SOL    HW1 7172   5.230   6.487   0.948
 2091SOL    HW2 7173   5.272   6.360   1.042
 2092SOL     OW 7174   3.932   3.808   1.584
 2092SOL    HW1 7175   3.935   3.865   1.665
 2092SOL    HW2 7176   3.866   3.734   1.597
 2093SOL     OW 7177   4.171   1.047   1.476
 2093SOL    HW1 7178   4.213   1.068   1.388
 2093SOL    HW2 7179   4.241   1.017   1.540
 2094SOL     OW 7180   5.303   1.975   5.806
 2094SOL    HW1 7181   5.294   1.922   5.890
 2094SOL    HW2 7182   5.362   1.925   5.742
 2095SOL     OW 7183   5.183   5.740   4.012
 2095SOL    HW1 7184   5.160   5.646   3.986
 2095SOL    HW2 7185   5.272   5.764   3.973
 2096SOL     OW 7186   3.956   6.682   1.893
 2096SOL    HW1 7187   3.926   6.587   1.880
 2096SOL    HW2 7188   3.964   6.702   1.990
 2097SOL     OW 7189   0.770   6.023   6.154
 2097SOL    HW1 7190   0.838   5.950   6.158
 2097SOL    HW2 7191   0.757   6.061   6.246
 2098SOL     OW 7192   2.991   5.751   3.675
 2098SOL    HW1 7193   3.053   5.672   3.667
 2098SOL    HW2 7194   2.899   5.718   3.697
 2099SOL     OW 7195   4.831   1.510   6.503
 2099SOL    HW1 7196   4.751   1.545   6.551
 2099SOL    HW2 7197   4.845   1.562   6.419
 2100SOL     OW 7198   5.046   6.745   1.820
 2100SOL    HW1 7199   5.139   6.749   1.785
 2100SOL    HW2 7200   4.982   6.779   1.750
 2101SOL     OW 7201   0.475   0.270   2.677
 2101SOL    HW1 7202   0.484   0.173   2.652
 2101SOL    HW2 7203   0.548   0.323   2.635
 2102SOL     OW 7204   3.996   2.158   1.056
 2102SOL    HW1 7205   3.932   2.092   1.095
 2102SOL    HW2 7206   4.069   2.177   1.122
 2103SOL     OW 7207   2.341   6.229   0.395
 2103SOL    HW1 7208   2.440   6.240   0.387
 2103SOL    HW2 7209   2.295   6.307   0.352
 2104SOL     OW 7210   1.715   4.275   3.557
 2104SOL    HW1 7211   1.691   4.291   3.653
 2104SOL    HW2 7212   1.686   4.353   3.501
 2105SOL     OW 7213   5.496   6.147   5.039
 2105SOL    HW1 7214   5.504   6.193   4.950
 2105SOL    HW2 7215   5.409   6.098   5.043
 2106SOL     OW 7216   4.400   3.031   0.803
 2106SOL    HW1 7217   4.358   3.101   0.745
 2106SOL    HW2 7218   4.465   2.978   0.749
 2107SOL     OW 7219   5.484   4.546   5.211
 2107SOL    HW1 7220   5.517   4.557   5.305
 2107SOL    HW2 7221   5.398   4.496   5.211
 2108SOL     OW 7222   4.774   0.054   5.280
 2108SOL    HW1 7223   4.748   0.047   5.376
 2108SOL    HW2 7224   4.840   0.129   5.269
 2109SOL     OW 7225   2.560   6.715   2.152
 2109SOL    HW1 7226   2.614   6.799   2.146
 2109SOL    HW2 7227   2.536   6.685   2.059
 2110SOL     OW 7228   3.825   6.547   0.009
 2110SOL    HW1 7229   3.821   6.586   6.942
 2110SOL    HW2 7230   3.771   6.463   0.012
 2111SOL     OW 7231   0.968   2.155   5.773
 2111SOL    HW1 7232   1.047   2.094   5.766
 2111SOL    HW2 7233   0.928   2.168   5.682
 2112SOL     OW 7234   0.942   0.553   6.953
 2112SOL    HW1 7235   0.846   0.545   6.979
 2112SOL    HW2 7236   0.973   0.468   6.911
 2113SOL     OW 7237   0.264   1.225   4.444
 2113SOL    HW1 7238   0.260   1.291   4.519
 2113SOL    HW2 7239   0.175   1.181   4.434
 2114SOL     OW 7240   1.694   1.517   6.413
 2114SOL    HW1 7241   1.716   1.586   6.344
 2114SOL    HW2 7242   1.775   1.497   6.468
 2115SOL     OW 7243   6.356   6.214   3.180
 2115SOL    HW1 7244   6.408   6.272   3.244
 2115SOL    HW2 7245   6.360   6.253   3.089
 2116SOL     OW 7246   1.241   1.871   6.996
 2116SOL    HW1 7247   1.197   1.939   0.029
 2116SOL    HW2 7248   1.243   1.905   6.901
 2117SOL     OW 7249   6.429   1.718   2.545
 2117SOL    HW1 7250   6.420   1.619   2.552
 2117SOL    HW2 7251   6.509   1.741   2.490
 2118SOL     OW 7252   6.739   2.645   2.644
 2118SOL    HW1 7253   6.720   2.612   2.551
 2118SOL    HW2 7254   6.753   2.743   2.642
 2119SOL     OW 7255   1.269   1.189   0.381
 2119SOL    HW1 7256   1.356   1.147   0.408
 2119SOL    HW2 7257   1.198   1.161   0.445
 2120SOL     OW 7258   6.207   1.444   0.929
 2120SOL    HW1 7259   6.190   1.520   0.991
 2120SOL    HW2 7260   6.155   1.364   0.958
 2121SOL     OW 7261   1.687   0.776   6.964
 2121SOL    HW1 7262   1.705   0.865   6.923
 2121SOL    HW2 7263   1.768   0.745   7.014
 2122SOL     OW 7264   6.164   1.119   4.434
 2122SOL    HW1 7265   6.223   1.126   4.354
 2122SOL    HW2 7266   6.195   1.184   4.504
 2123SOL     OW 7267   1.162   5.300   2.766
 2123SOL    HW1 7268   1.230   5.345   2.823
 2123SOL    HW2 7269   1.195   5.210   2.738
 2124SOL     OW 7270   4.117   3.779   6.285
 2124SOL    HW1 7271   4.056   3.823   6.351
 2124SOL    HW2 7272   4.194   3.736   6.333
 2125SOL     OW 7273   1.579   5.897   4.503
 2125SOL    HW1 7274   1.587   5.988   4.464
 2125SOL    HW2 7275   1.529   5.838   4.440
 2126SOL     OW 7276   2.576   3.812   6.723
 2126SOL    HW1 7277   2.667   3.819   6.682
 2126SOL    HW2 7278   2.585   3.802   6.822
 2127SOL     OW 7279   0.893   2.551   4.478
 2127SOL    HW1 7280   0.955   2.507   4.414
 2127SOL    HW2 7281   0.800   2.521   4.460
 2128SOL     OW 7282   5.261   3.324   1.397
 2128SOL    HW1 7283   5.305   3.249   1.446
 2128SOL    HW2 7284   5.253   3.301   1.300
 2129SOL     OW 7285   5.554   4.063   4.575
 2129SOL    HW1 7286   5.454   4.070   4.568
 2129SOL    HW2 7287   5.593   4.154   4.592
 2130SOL     OW 7288   3.285   1.063   1.153
 2130SOL    HW1 7289   3.186   1.076   1.148
 2130SOL    HW2 7290   3.306   0.966   1.159
 2131SOL     OW 7291   5.399   0.188   5.092
 2131SOL    HW1 7292   5.417   0.217   4.998
 2131SOL    HW2 7293   5.409   0.266   5.153
 2132SOL     OW 7294   1.918   2.401   0.370
 2132SOL    HW1 7295   1.982   2.469   0.407
 2132SOL    HW2 7296   1.959   2.310   0.377
 2133SOL     OW 7297   3.375   2.536   1.615
 2133SOL    HW1 7298   3.424   2.457   1.651
 2133SOL    HW2 7299   3.290   2.506   1.571
 2134SOL     OW 7300   2.398   6.442   5.423
 2134SOL    HW1 7301   2.359   6.521   5.375
 2134SOL    HW2 7302   2.497   6.439   5.406
 2135SOL     OW 7303   0.866   6.531   4.178
 2135SOL    HW1 7304   0.922   6.581   4.243
 2135SOL    HW2 7305   0.792   6.483   4.228
 2136SOL     OW 7306   1.320   4.727   3.711
 2136SOL    HW1 7307   1.315   4.636   3.670
 2136SOL    HW2 7308   1.313   4.796   3.639
 2137SOL     OW 7309   1.165   1.243   4.790
 2137SOL    HW1 7310   1.206   1.153   4.800
 2137SOL    HW2 7311   1.221   1.310   4.840
 2138SOL     OW 7312   1.018   2.387   6.395
 2138SOL    HW1 7313   1.002   2.398   6.296
 2138SOL    HW2 7314   1.011   2.476   6.440
 2139SOL     OW 7315   2.158   0.851   4.522
 2139SOL    HW1 7316   2.142   0.847   4.621
 2139SOL    HW2 7317   2.085   0.801   4.474
 2140SOL     OW 7318   1.595   5.655   3.722
 2140SOL    HW1 7319   1.600   5.754   3.703
 2140SOL    HW2 7320   1.665   5.631   3.790
 2141SOL     OW 7321   7.017   1.354   0.027
 2141SOL    HW1 7322   6.943   1.400   7.003
 2141SOL    HW2 7323   0.051   1.422   0.070
 2142SOL     OW 7324   2.647   1.561   3.323
 2142SOL    HW1 7325   2.561   1.543   3.371
 2142SOL    HW2 7326   2.675   1.479   3.273
 2143SOL     OW 7327   3.731   6.348   6.789
 2143SOL    HW1 7328   3.823   6.309   6.790
 2143SOL    HW2 7329   3.735   6.441   6.753
 2144SOL     OW 7330   7.023   0.597   2.718
 2144SOL    HW1 7331   7.009   0.666   2.789
 2144SOL    HW2 7332   7.000   0.635   2.629
 2145SOL     OW 7333   4.104   5.488   3.016
 2145SOL    HW1 7334   4.064   5.552   3.081
 2145SOL    HW2 7335   4.154   5.417   3.065
 2146SOL     OW 7336   3.877   2.554   1.154
 2146SOL    HW1 7337   3.876   2.653   1.137
 2146SOL    HW2 7338   3.787   2.526   1.188
 2147SOL     OW 7339   0.112   0.936   5.231
 2147SOL    HW1 7340   0.137   0.845   5.197
 2147SOL    HW2 7341   0.130   1.004   5.160
 2148SOL     OW 7342   4.896   2.790   2.805
 2148SOL    HW1 7343   4.875   2.697   2.774
 2148SOL    HW2 7344   4.830   2.817   2.875
 2149SOL     OW 7345   3.518   0.719   3.426
 2149SOL    HW1 7346   3.587   0.772   3.476
 2149SOL    HW2 7347   3.519   0.745   3.330
 2150SOL     OW 7348   3.753   1.398   2.358
 2150SOL    HW1 7349   3.828   1.432   2.414
 2150SOL    HW2 7350   3.666   1.433   2.392
 2151SOL     OW 7351   3.613   2.907   5.796
 2151SOL    HW1 7352   3.575   2.839   5.733
 2151SOL    HW2 7353   3.551   2.985   5.802
 2152SOL     OW 7354   6.050   6.011   1.982
 2152SOL    HW1 7355   6.129   6.060   2.019
 2152SOL    HW2 7356   6.029   6.045   1.891
 2153SOL     OW 7357   4.804   2.545   2.709
 2153SOL    HW1 7358   4.751   2.536   2.624
 2153SOL    HW2 7359   4.854   2.460   2.727
 2154SOL     OW 7360   4.412   5.711   5.102
 2154SOL    HW1 7361   4.510   5.726   5.085
 2154SOL    HW2 7362   4.368   5.681   5.017
 2155SOL     OW 7363   6.003   3.885   6.555
 2155SOL    HW1 7364   6.049   3.886   6.644
 2155SOL    HW2 7365   6.071   3.879   6.482
 2156SOL     OW 7366   1.199   1.100   1.798
 2156SOL    HW1 7367   1.152   1.158   1.865
 2156SOL    HW2 7368   1.161   1.116   1.707
 2157SOL     OW 7369   0.353   1.251   4.770
 2157SOL    HW1 7370   0.418   1.308   4.719
 2157SOL    HW2 7371   0.386   1.157   4.774
 2158SOL     OW 7372   4.594   6.487   2.481
 2158SOL    HW1 7373   4.635   6.430   2.553
 2158SOL    HW2 7374   4.625   6.456   2.392
 2159SOL     OW 7375   1.864   6.258   5.122
 2159SOL    HW1 7376   1.955   6.237   5.085
 2159SOL    HW2 7377   1.860   6.232   5.218
 2160SOL     OW 7378   2.846   3.267   0.786
 2160SOL    HW1 7379   2.800   3.335   0.844
 2160SOL    HW2 7380   2.850   3.179   0.834
 2161SOL     OW 7381   4.926   2.320   3.786
 2161SOL    HW1 7382   4.949   2.377   3.864
 2161SOL    HW2 7383   4.971   2.231   3.795
 2162SOL     OW 7384   1.285   1.415   6.807
 2162SOL    HW1 7385   1.261   1.471   6.887
 2162SOL    HW2 7386   1.295   1.474   6.727
 2163SOL     OW 7387   2.730   2.370   0.651
 2163SOL    HW1 7388   2.696   2.402   0.739
 2163SOL    HW2 7389   2.686   2.421   0.577
 2164SOL     OW 7390   0.952   0.246   1.375
 2164SOL    HW1 7391   0.863   0.247   1.330
 2164SOL    HW2 7392   0.978   0.152   1.397
 2165SOL     OW 7393   2.958   7.008   1.525
 2165SOL    HW1 7394   2.978   0.073   1.486
 2165SOL    HW2 7395   2.888   7.018   1.596
 2166SOL     OW 7396   6.107   2.383   6.211
 2166SOL    HW1 7397   6.045   2.374   6.289
 2166SOL    HW2 7398   6.114   2.295   6.164
 2167SOL     OW 7399   2.543   0.496   1.888
 2167SOL    HW1 7400   2.591   0.410   1.874
 2167SOL    HW2 7401   2.456   0.495   1.839
 2168SOL     OW 7402   5.886   5.866   4.921
 2168SOL    HW1 7403   5.808   5.910   4.965
 2168SOL    HW2 7404   5.961   5.858   4.987
 2169SOL     OW 7405   5.946   2.120   5.073
 2169SOL    HW1 7406   5.999   2.039   5.097
 2169SOL    HW2 7407   5.887   2.145   5.150
 2170SOL     OW 7408   5.510   5.283   4.385
 2170SOL    HW1 7409   5.413   5.275   4.363
 2170SOL    HW2 7410   5.533   5.379   4.398
 2171SOL     OW 7411   6.437   2.971   0.539
 2171SOL    HW1 7412   6.379   3.022   0.476
 2171SOL    HW2 7413   6.495   2.907   0.488
 2172SOL     OW 7414   2.392   0.668   0.706
 2172SOL    HW1 7415   2.386   0.608   0.786
 2172SOL    HW2 7416   2.474   0.645   0.654
 2173SOL     OW 7417   5.276   1.866   5.007
 2173SOL    HW1 7418   5.301   1.926   4.931
 2173SOL    HW2 7419   5.344   1.793   5.017
 2174SOL     OW 7420   1.119   5.254   4.622
 2174SOL    HW1 7421   1.123   5.338   4.568
 2174SOL    HW2 7422   1.132   5.276   4.718
 2175SOL     OW 7423   2.115   6.350   5.386
 2175SOL    HW1 7424   2.204   6.368   5.346
 2175SOL    HW2 7425   2.066   6.436   5.400
 2176SOL     OW 7426   1.985   2.301   2.258
 2176SOL    HW1 7427   2.056   2.238   2.226
 2176SOL    HW2 7428   2.007   2.394   2.227
 2177SOL     OW 7429   6.649   0.975   2.245
 2177SOL    HW1 7430   6.719   1.046   2.233
 2177SOL    HW2 7431   6.677   0.893   2.196
 2178SOL     OW 7432   0.568   5.338   0.650
 2178SOL    HW1 7433   0.643   5.361   0.588
 2178SOL    HW2 7434   0.600   5.272   0.719
 2179SOL     OW 7435   1.223   4.754   4.172
 2179SOL    HW1 7436   1.296   4.705   4.124
 2179SOL    HW2 7437   1.249   4.850   4.183
 2180SOL     OW 7438   4.177   3.161   1.913
 2180SOL    HW1 7439   4.131   3.240   1.953
 2180SOL    HW2 7440   4.246   3.126   1.976
 2181SOL     OW 7441   4.738   6.276   0.453
 2181SOL    HW1 7442   4.659   6.215   0.440
 2181SOL    HW2 7443   4.789   6.283   0.367
 2182SOL     OW 7444   5.491   2.012   0.249
 2182SOL    HW1 7445   5.534   2.055   0.169
 2182SOL    HW2 7446   5.512   2.067   0.330
 2183SOL     OW 7447   2.604   2.693   1.096
 2183SOL    HW1 7448   2.587   2.770   1.157
 2183SOL    HW2 7449   2.532   2.625   1.107
 2184SOL     OW 7450   4.316   2.912   5.796
 2184SOL    HW1 7451   4.414   2.930   5.785
 2184SOL    HW2 7452   4.264   2.972   5.735
 2185SOL     OW 7453   1.240   0.621   1.144
 2185SOL    HW1 7454   1.334   0.622   1.180
 2185SOL    HW2 7455   1.184   0.687   1.194
 2186SOL     OW 7456   0.108   4.927   2.711
 2186SOL    HW1 7457   0.061   4.873   2.780
 2186SOL    HW2 7458   0.081   4.897   2.620
 2187SOL     OW 7459   0.833   1.425   6.622
 2187SOL    HW1 7460   0.847   1.400   6.718
 2187SOL    HW2 7461   0.797   1.519   6.618
 2188SOL     OW 7462   5.383   1.026   3.528
 2188SOL    HW1 7463   5.382   1.100   3.596
 2188SOL    HW2 7464   5.290   0.994   3.512
 2189SOL     OW 7465   2.938   0.343   6.778
 2189SOL    HW1 7466   2.979   0.419   6.828
 2189SOL    HW2 7467   2.903   0.275   6.843
 2190SOL     OW 7468   5.135   2.100   1.360
 2190SOL    HW1 7469   5.216   2.042   1.361
 2190SOL    HW2 7470   5.140   2.164   1.284
 2191SOL     OW 7471   2.922   1.745   6.980
 2191SOL    HW1 7472   2.824   1.753   6.964
 2191SOL    HW2 7473   2.971   1.759   6.894
 2192SOL     OW 7474   4.012   5.574   3.477
 2192SOL    HW1 7475   3.920   5.535   3.482
 2192SOL    HW2 7476   4.035   5.614   3.566
 2193SOL     OW 7477   0.418   5.224   5.725
 2193SOL    HW1 7478   0.513   5.244   5.702
 2193SOL    HW2 7479   0.405   5.125   5.728
 2194SOL     OW 7480   3.410   0.142   1.357
 2194SOL    HW1 7481   3.396   0.218   1.420
 2194SOL    HW2 7482   3.326   0.124   1.307
 2195SOL     OW 7483   1.230   4.906   2.373
 2195SOL    HW1 7484   1.324   4.941   2.369
 2195SOL    HW2 7485   1.173   4.957   2.309
 2196SOL     OW 7486   4.426   2.929   6.750
 2196SOL    HW1 7487   4.412   2.831   6.762
 2196SOL    HW2 7488   4.524   2.947   6.738
 2197SOL     OW 7489   4.335   4.112   0.376
 2197SOL    HW1 7490   4.280   4.194   0.359
 2197SOL    HW2 7491   4.310   4.041   0.310
 2198SOL     OW 7492   5.999   4.383   0.218
 2198SOL    HW1 7493   6.039   4.471   0.196
 2198SOL    HW2 7494   6.066   4.325   0.264
 2199SOL     OW 7495   4.334   0.395   2.259
 2199SOL    HW1 7496   4.264   0.355   2.200
 2199SOL    HW2 7497   4.297   0.475   2.306
 2200SOL     OW 7498   2.427   6.850   4.686
 2200SOL    HW1 7499   2.402   6.780   4.752
 2200SOL    HW2 7500   2.384   6.830   4.598
 2201SOL     OW 7501   4.862   4.101   2.747
 2201SOL    HW1 7502   4.887   4.196   2.763
 2201SOL    HW2 7503   4.778   4.097   2.693
 2202SOL     OW 7504   4.876   5.864   3.571
 2202SOL    HW1 7505   4.838   5.774   3.593
 2202SOL    HW2 7506   4.832   5.934   3.629
 2203SOL     OW 7507   3.218   2.049   2.620
 2203SOL    HW1 7508   3.129   2.085   2.649
 2203SOL    HW2 7509   3.222   2.047   2.520
 2204SOL     OW 7510   2.895   2.555   1.029
 2204SOL    HW1 7511   2.832   2.618   1.073
 2204SOL    HW2 7512   2.922   2.484   1.095
 2205SOL     OW 7513   2.262   0.506   1.261
 2205SOL    HW1 7514   2.283   0.410   1.280
 2205SOL    HW2 7515   2.189   0.512   1.192
 2206SOL     OW 7516   2.104   3.190   0.390
 2206SOL    HW1 7517   2.022   3.229   0.431
 2206SOL    HW2 7518   2.185   3.239   0.424
 2207SOL     OW 7519   0.506   4.600   4.637
 2207SOL    HW1 7520   0.573   4.656   4.685
 2207SOL    HW2 7521   0.415   4.615   4.677
 2208SOL     OW 7522   6.545   4.508   1.661
 2208SOL    HW1 7523   6.454   4.467   1.661
 2208SOL    HW2 7524   6.595   4.479   1.580
 2209SOL     OW 7525   1.304   6.876   1.395
 2209SOL    HW1 7526   1.354   6.947   1.346
 2209SOL    HW2 7527   1.242   6.828   1.333
 2210SOL     OW 7528   1.383   5.314   3.652
 2210SOL    HW1 7529   1.404   5.346   3.744
 2210SOL    HW2 7530   1.288   5.335   3.629
 2211SOL     OW 7531   0.357   1.247   5.518
 2211SOL    HW1 7532   0.280   1.185   5.507
 2211SOL    HW2 7533   0.341   1.308   5.596
 2212SOL     OW 7534   2.313   0.128   6.628
 2212SOL    HW1 7535   2.236   0.073   6.596
 2212SOL    HW2 7536   2.361   0.167   6.549
 2213SOL     OW 7537   3.230   1.265   3.598
 2213SOL    HW1 7538   3.231   1.330   3.523
 2213SOL    HW2 7539   3.193   1.178   3.566
 2214SOL     OW 7540   4.106   6.930   5.533
 2214SOL    HW1 7541   4.189   6.876   5.520
 2214SOL    HW2 7542   4.130   7.018   5.576
 2215SOL     OW 7543   5.475   2.586   4.799
 2215SOL    HW1 7544   5.495   2.682   4.782
 2215SOL    HW2 7545   5.377   2.575   4.819
 2216SOL     OW 7546   2.214   0.649   2.358
 2216SOL    HW1 7547   2.262   0.716   2.301
 2216SOL    HW2 7548   2.115   0.663   2.348
 2217SOL     OW 7549   4.116   0.935   1.980
 2217SOL    HW1 7550   4.115   1.020   1.926
 2217SOL    HW2 7551   4.167   0.950   2.064
 2218SOL     OW 7552   1.187   6.667   2.576
 2218SOL    HW1 7553   1.221   6.760   2.564
 2218SOL    HW2 7554   1.154   6.631   2.489
 2219SOL     OW 7555   1.291   1.918   2.950
 2219SOL    HW1 7556   1.237   1.870   2.881
 2219SOL    HW2 7557   1.339   1.852   3.007
 2220SOL     OW 7558   0.768   0.480   1.147
 2220SOL    HW1 7559   0.798   0.445   1.058
 2220SOL    HW2 7560   0.734   0.404   1.203
 2221SOL     OW 7561   0.452   1.805   0.178
 2221SOL    HW1 7562   0.541   1.758   0.175
 2221SOL    HW2 7563   0.437   1.843   0.269
 2222SOL     OW 7564   6.025   5.847   3.058
 2222SOL    HW1 7565   6.114   5.879   3.090
 2222SOL    HW2 7566   5.958   5.856   3.131
 2223SOL     OW 7567   5.953   5.450   1.474
 2223SOL    HW1 7568   5.998   5.418   1.390
 2223SOL    HW2 7569   5.853   5.444   1.462
 2224SOL     OW 7570   0.847   4.928   2.300
 2224SOL    HW1 7571   0.886   4.899   2.213
 2224SOL    HW2 7572   0.861   5.026   2.312
 2225SOL     OW 7573   0.218   4.718   1.258
 2225SOL    HW1 7574   0.188   4.623   1.257
 2225SOL    HW2 7575   0.152   4.775   1.209
 2226SOL     OW 7576   4.162   3.793   1.437
 2226SOL    HW1 7577   4.078   3.804   1.490
 2226SOL    HW2 7578   4.231   3.748   1.493
 2227SOL     OW 7579   0.576   3.125   4.366
 2227SOL    HW1 7580   0.652   3.117   4.301
 2227SOL    HW2 7581   0.541   3.034   4.387
 2228SOL     OW 7582   2.652   4.907   4.440
 2228SOL    HW1 7583   2.625   4.834   4.503
 2228SOL    HW2 7584   2.634   4.996   4.482
 2229SOL     OW 7585   5.641   0.017   3.104
 2229SOL    HW1 7586   5.678   0.106   3.130
 2229SOL    HW2 7587   5.549   0.029   3.066
 2230SOL     OW 7588   2.867   5.250   0.676
 2230SOL    HW1 7589   2.776   5.229   0.711
 2230SOL    HW2 7590   2.921   5.294   0.747
 2231SOL     OW 7591   2.387   5.770   1.038
 2231SOL    HW1 7592   2.290   5.774   1.012
 2231SOL    HW2 7593   2.428   5.687   1.002
 2232SOL     OW 7594   6.284   2.896   3.845
 2232SOL    HW1 7595   6.212   2.835   3.879
 2232SOL    HW2 7596   6.368   2.881   3.898
 2233SOL     OW 7597   2.991   2.151   6.401
 2233SOL    HW1 7598   3.044   2.076   6.363
 2233SOL    HW2 7599   2.896   2.143   6.370
 2234SOL     OW 7600   3.247   2.220   1.327
 2234SOL    HW1 7601   3.231   2.149   1.395
 2234SOL    HW2 7602   3.341   2.253   1.335
 2235SOL     OW 7603   2.241   0.882   1.160
 2235SOL    HW1 7604   2.319   0.847   1.108
 2235SOL    HW2 7605   2.180   0.933   1.098
 2236SOL     OW 7606   0.055   3.971   5.904
 2236SOL    HW1 7607   0.120   3.907   5.944
 2236SOL    HW2 7608   7.019   4.005   5.975
 2237SOL     OW 7609   6.324   2.905   4.191
 2237SOL    HW1 7610   6.256   2.832   4.188
 2237SOL    HW2 7611   6.280   2.992   4.166
 2238SOL     OW 7612   6.629   6.421   1.584
 2238SOL    HW1 7613   6.611   6.337   1.635
 2238SOL    HW2 7614   6.552   6.440   1.523
 2239SOL     OW 7615   5.591   5.535   2.765
 2239SOL    HW1 7616   5.519   5.592   2.726
 2239SOL    HW2 7617   5.637   5.584   2.839
 2240SOL     OW 7618   5.680   3.561   1.971
 2240SOL    HW1 7619   5.739   3.536   1.894
 2240SOL    HW2 7620   5.634   3.647   1.951
 2241SOL     OW 7621   0.795   6.940   2.353
 2241SOL    HW1 7622   0.802   6.910   2.448
 2241SOL    HW2 7623   0.720   7.005   2.344
 2242SOL     OW 7624   4.247   1.835   2.584
 2242SOL    HW1 7625   4.317   1.894   2.624
 2242SOL    HW2 7626   4.250   1.843   2.484
 2243SOL     OW 7627   3.099   6.243   5.823
 2243SOL    HW1 7628   3.099   6.145   5.843
 2243SOL    HW2 7629   3.004   6.274   5.809
 2244SOL     OW 7630   3.097   0.553   5.238
 2244SOL    HW1 7631   3.096   0.615   5.316
 2244SOL    HW2 7632   3.191   0.525   5.217
 2245SOL     OW 7633   0.097   2.056   1.941
 2245SOL    HW1 7634   0.148   2.088   2.021
 2245SOL    HW2 7635   0.000   2.075   1.953
 2246SOL     OW 7636   1.596   4.754   4.982
 2246SOL    HW1 7637   1.679   4.698   4.982
 2246SOL    HW2 7638   1.573   4.780   5.076
 2247SOL     OW 7639   1.977   1.453   5.392
 2247SOL    HW1 7640   1.958   1.513   5.470
 2247SOL    HW2 7641   1.892   1.412   5.360
 2248SOL     OW 7642   4.526   4.345   5.266
 2248SOL    HW1 7643   4.558   4.282   5.335
 2248SOL    HW2 7644   4.589   4.344   5.188
 2249SOL     OW 7645   4.285   5.465   4.729
 2249SOL    HW1 7646   4.352   5.534   4.702
 2249SOL    HW2 7647   4.230   5.439   4.650
 2250SOL     OW 7648   5.258   5.340   0.725
 2250SOL    HW1 7649   5.185   5.405   0.747
 2250SOL    HW2 7650   5.329   5.346   0.795
 2251SOL     OW 7651   0.180   0.589   6.088
 2251SOL    HW1 7652   0.112   0.637   6.144
 2251SOL    HW2 7653   0.261   0.647   6.078
 2252SOL     OW 7654   3.441   1.228   5.921
 2252SOL    HW1 7655   3.517   1.254   5.862
 2252SOL    HW2 7656   3.426   1.129   5.915
 2253SOL     OW 7657   1.462   2.496   6.178
 2253SOL    HW1 7658   1.459   2.559   6.256
 2253SOL    HW2 7659   1.418   2.539   6.099
 2254SOL     OW 7660   1.631   3.441   5.882
 2254SOL    HW1 7661   1.716   3.399   5.851
 2254SOL    HW2 7662   1.637   3.540   5.872
 2255SOL     OW 7663   5.232   3.522   0.510
 2255SOL    HW1 7664   5.150   3.552   0.558
 2255SOL    HW2 7665   5.217   3.529   0.411
 2256SOL     OW 7666   3.386   4.942   2.113
 2256SOL    HW1 7667   3.429   4.996   2.186
 2256SOL    HW2 7668   3.458   4.896   2.060
 2257SOL     OW 7669   2.117   3.588   4.129
 2257SOL    HW1 7670   2.173   3.510   4.101
 2257SOL    HW2 7671   2.138   3.612   4.223
 2258SOL     OW 7672   1.856   5.197   5.381
 2258SOL    HW1 7673   1.857   5.157   5.289
 2258SOL    HW2 7674   1.950   5.216   5.410
 2259SOL     OW 7675   6.679   3.067   6.350
 2259SOL    HW1 7676   6.612   3.138   6.330
 2259SOL    HW2 7677   6.636   2.994   6.402
 2260SOL     OW 7678   4.614   4.121   0.939
 2260SOL    HW1 7679   4.714   4.127   0.934
 2260SOL    HW2 7680   4.588   4.027   0.962
 2261SOL     OW 7681   3.690   6.370   5.037
 2261SOL    HW1 7682   3.779   6.332   5.063
 2261SOL    HW2 7683   3.618   6.303   5.058
 2262SOL     OW 7684   3.415   1.704   3.287
 2262SOL    HW1 7685   3.377   1.657   3.366
 2262SOL    HW2 7686   3.496   1.756   3.315
 2263SOL     OW 7687   0.135   4.275   5.359
 2263SOL    HW1 7688   0.103   4.357   5.406
 2263SOL    HW2 7689   0.106   4.193   5.410
 2264SOL     OW 7690   3.175   4.084   3.616
 2264SOL    HW1 7691   3.189   4.183   3.621
 2264SOL    HW2 7692   3.236   4.038   3.680
 2265SOL     OW 7693   0.742   6.756   3.016
 2265SOL    HW1 7694   0.686   6.782   2.937
 2265SOL    HW2 7695   0.803   6.832   3.040
 2266SOL     OW 7696   6.097   0.058   6.752
 2266SOL    HW1 7697   6.034   0.075   6.676
 2266SOL    HW2 7698   6.054   0.085   6.838
 2267SOL     OW 7699   5.284   1.802   5.301
 2267SOL    HW1 7700   5.274   1.895   5.267
 2267SOL    HW2 7701   5.379   1.786   5.328
 2268SOL     OW 7702   6.394   4.885   6.930
 2268SOL    HW1 7703   6.431   4.792   6.929
 2268SOL    HW2 7704   6.450   4.943   6.989
 2269SOL     OW 7705   0.318   5.948   3.681
 2269SOL    HW1 7706   0.280   5.859   3.656
 2269SOL    HW2 7707   0.249   6.003   3.728
 2270SOL     OW 7708   4.158   3.577   2.751
 2270SOL    HW1 7709   4.193   3.497   2.703
 2270SOL    HW2 7710   4.172   3.658   2.694
 2271SOL     OW 7711   0.556   4.498   2.678
 2271SOL    HW1 7712   0.523   4.587   2.646
 2271SOL    HW2 7713   0.544   4.492   2.777
 2272SOL     OW 7714   4.844   2.291   6.067
 2272SOL    HW1 7715   4.755   2.267   6.031
 2272SOL    HW2 7716   4.889   2.356   6.005
 2273SOL     OW 7717   0.742   0.586   3.594
 2273SOL    HW1 7718   0.711   0.667   3.643
 2273SOL    HW2 7719   0.822   0.548   3.641
 2274SOL     OW 7720   1.299   3.945   3.140
 2274SOL    HW1 7721   1.389   3.981   3.117
 2274SOL    HW2 7722   1.228   4.006   3.104
 2275SOL     OW 7723   4.931   6.501   3.309
 2275SOL    HW1 7724   4.965   6.534   3.221
 2275SOL    HW2 7725   4.941   6.402   3.314
 2276SOL     OW 7726   3.629   5.377   1.753
 2276SOL    HW1 7727   3.727   5.395   1.761
 2276SOL    HW2 7728   3.582   5.416   1.831
 2277SOL     OW 7729   3.746   3.521   1.336
 2277SOL    HW1 7730   3.776   3.434   1.296
 2277SOL    HW2 7731   3.647   3.523   1.343
 2278SOL     OW 7732   4.938   6.661   0.943
 2278SOL    HW1 7733   5.034   6.657   0.915
 2278SOL    HW2 7734   4.928   6.619   1.033
 2279SOL     OW 7735   5.295   3.946   4.960
 2279SOL    HW1 7736   5.228   4.000   4.910
 2279SOL    HW2 7737   5.330   3.999   5.038
 2280SOL     OW 7738   5.950   0.046   6.152
 2280SOL    HW1 7739   6.027   0.108   6.141
 2280SOL    HW2 7740   5.982   6.976   6.148
 2281SOL     OW 7741   3.578   2.898   0.349
 2281SOL    HW1 7742   3.488   2.864   0.375
 2281SOL    HW2 7743   3.648   2.850   0.400
 2282SOL     OW 7744   4.478   5.987   2.181
 2282SOL    HW1 7745   4.410   6.034   2.238
 2282SOL    HW2 7746   4.437   5.964   2.093
 2283SOL     OW 7747   0.161   3.915   1.840
 2283SOL    HW1 7748   0.139   3.827   1.880
 2283SOL    HW2 7749   0.080   3.951   1.793
 2284SOL     OW 7750   2.681   2.259   2.143
 2284SOL    HW1 7751   2.637   2.264   2.053
 2284SOL    HW2 7752   2.780   2.269   2.132
 2285SOL     OW 7753   1.758   3.617   6.461
 2285SOL    HW1 7754   1.815   3.590   6.383
 2285SOL    HW2 7755   1.811   3.675   6.522
 2286SOL     OW 7756   5.243   6.937   4.449
 2286SOL    HW1 7757   5.287   6.945   4.360
 2286SOL    HW2 7758   5.144   6.951   4.438
 2287SOL     OW 7759   2.190   2.587   1.462
 2287SOL    HW1 7760   2.107   2.637   1.487
 2287SOL    HW2 7761   2.199   2.506   1.521
 2288SOL     OW 7762   1.837   5.829   4.520
 2288SOL    HW1 7763   1.742   5.859   4.525
 2288SOL    HW2 7764   1.872   5.847   4.428
 2289SOL     OW 7765   4.431   1.648   0.368
 2289SOL    HW1 7766   4.375   1.679   0.445
 2289SOL    HW2 7767   4.440   1.721   0.301
 2290SOL     OW 7768   3.272   3.371   3.115
 2290SOL    HW1 7769   3.342   3.308   3.080
 2290SOL    HW2 7770   3.205   3.319   3.168
 2291SOL     OW 7771   1.354   2.922   6.224
 2291SOL    HW1 7772   1.312   2.831   6.224
 2291SOL    HW2 7773   1.392   2.941   6.134
 2292SOL     OW 7774   5.082   1.715   2.601
 2292SOL    HW1 7775   5.017   1.753   2.535
 2292SOL    HW2 7776   5.175   1.725   2.566
 2293SOL     OW 7777   0.450   0.536   0.390
 2293SOL    HW1 7778   0.383   0.593   0.343
 2293SOL    HW2 7779   0.477   0.460   0.331
 2294SOL     OW 7780   6.906   0.942   5.598
 2294SOL    HW1 7781   6.895   0.967   5.502
 2294SOL    HW2 7782   6.858   0.856   5.616
 2295SOL     OW 7783   6.120   6.064   1.139
 2295SOL    HW1 7784   6.075   6.085   1.052
 2295SOL    HW2 7785   6.148   6.149   1.184
 2296SOL     OW 7786   3.786   4.946   4.129
 2296SOL    HW1 7787   3.830   4.959   4.218
 2296SOL    HW2 7788   3.833   5.001   4.060
 2297SOL     OW 7789   5.082   3.923   5.419
 2297SOL    HW1 7790   5.163   3.901   5.365
 2297SOL    HW2 7791   5.000   3.905   5.364
 2298SOL     OW 7792   3.619   4.039   4.072
 2298SOL    HW1 7793   3.543   4.087   4.117
 2298SOL    HW2 7794   3.682   4.004   4.142
 2299SOL     OW 7795   5.710   2.946   4.178
 2299SOL    HW1 7796   5.661   3.031   4.195
 2299SOL    HW2 7797   5.767   2.923   4.257
 2300SOL     OW 7798   4.800   6.764   2.225
 2300SOL    HW1 7799   4.730   6.773   2.296
 2300SOL    HW2 7800   4.796   6.844   2.165
 2301SOL     OW 7801   3.746   2.970   5.005
 2301SOL    HW1 7802   3.758   2.894   5.069
 2301SOL    HW2 7803   3.735   2.934   4.912
 2302SOL     OW 7804   6.285   2.830   5.823
 2302SOL    HW1 7805   6.302   2.746   5.772
 2302SOL    HW2 7806   6.329   2.907   5.776
 2303SOL     OW 7807   2.878   2.636   0.278
 2303SOL    HW1 7808   2.895   2.564   0.345
 2303SOL    HW2 7809   2.913   2.607   0.188
 2304SOL     OW 7810   6.441   6.430   2.382
 2304SOL    HW1 7811   6.356   6.482   2.392
 2304SOL    HW2 7812   6.516   6.493   2.362
 2305SOL     OW 7813   2.842   0.055   4.646
 2305SOL    HW1 7814   2.793   7.007   4.694
 2305SOL    HW2 7815   2.851   0.031   4.549
 2306SOL     OW 7816   1.295   5.032   4.858
 2306SOL    HW1 7817   1.230   4.989   4.795
 2306SOL    HW2 7818   1.311   4.972   4.936
 2307SOL     OW 7819   6.684   3.207   5.264
 2307SOL    HW1 7820   6.677   3.282   5.331
 2307SOL    HW2 7821   6.594   3.166   5.250
 2308SOL     OW 7822   1.378   5.121   1.815
 2308SOL    HW1 7823   1.325   5.046   1.856
 2308SOL    HW2 7824   1.459   5.138   1.872
 2309SOL     OW 7825   2.070   0.253   5.104
 2309SOL    HW1 7826   2.150   0.310   5.089
 2309SOL    HW2 7827   2.017   0.245   5.019
 2310SOL     OW 7828   4.158   0.144   1.205
 2310SOL    HW1 7829   4.126   0.070   1.145
 2310SOL    HW2 7830   4.241   0.184   1.167
 2311SOL     OW 7831   2.529   5.262   1.096
 2311SOL    HW1 7832   2.585   5.229   1.171
 2311SOL    HW2 7833   2.432   5.248   1.117
 2312SOL     OW 7834   3.477   5.172   1.840
 2312SOL    HW1 7835   3.539   5.094   1.839
 2312SOL    HW2 7836   3.512   5.243   1.779
 2313SOL     OW 7837   5.427   5.720   1.023
 2313SOL    HW1 7838   5.498   5.762   1.080
 2313SOL    HW2 7839   5.463   5.705   0.931
 2314SOL     OW 7840   1.951   5.020   4.697
 2314SOL    HW1 7841   1.934   4.926   4.727
 2314SOL    HW2 7842   1.885   5.045   4.626
 2315SOL     OW 7843   4.574   2.709   6.468
 2315SOL    HW1 7844   4.481   2.740   6.488
 2315SOL    HW2 7845   4.638   2.784   6.484
 2316SOL     OW 7846   5.835   3.821   2.255
 2316SOL    HW1 7847   5.748   3.821   2.305
 2316SOL    HW2 7848   5.849   3.731   2.213
 2317SOL     OW 7849   0.321   5.965   3.294
 2317SOL    HW1 7850   0.302   6.052   3.248
 2317SOL    HW2 7851   0.236   5.919   3.317
 2318SOL     OW 7852   6.620   0.887   4.086
 2318SOL    HW1 7853   6.640   0.968   4.140
 2318SOL    HW2 7854   6.524   0.861   4.098
 2319SOL     OW 7855   0.811   5.681   2.823
 2319SOL    HW1 7856   0.770   5.646   2.739
 2319SOL    HW2 7857   0.872   5.612   2.862
 2320SOL     OW 7858   6.430   5.424   5.576
 2320SOL    HW1 7859   6.437   5.461   5.483
 2320SOL    HW2 7860   6.370   5.345   5.576
 2321SOL     OW 7861   3.852   5.070   5.130
 2321SOL    HW1 7862   3.880   5.165   5.123
 2321SOL    HW2 7863   3.752   5.063   5.126
 2322SOL     OW 7864   3.132   0.505   5.644
 2322SOL    HW1 7865   3.035   0.491   5.663
 2322SOL    HW2 7866   3.151   0.483   5.548
 2323SOL     OW 7867   5.343   3.740   2.081
 2323SOL    HW1 7868   5.396   3.665   2.121
 2323SOL    HW2 7869   5.249   3.710   2.065
 2324SOL     OW 7870   6.891   5.034   3.380
 2324SOL    HW1 7871   6.874   5.090   3.461
 2324SOL    HW2 7872   6.986   5.048   3.350
 2325SOL     OW 7873   0.595   2.434   0.728
 2325SOL    HW1 7874   0.665   2.423   0.658
 2325SOL    HW2 7875   0.545   2.348   0.739
 2326SOL     OW 7876   1.590   4.154   0.429
 2326SOL    HW1 7877   1.601   4.056   0.410
 2326SOL    HW2 7878   1.494   4.179   0.416
 2327SOL     OW 7879   5.623   2.029   3.784
 2327SOL    HW1 7880   5.602   2.056   3.690
 2327SOL    HW2 7881   5.714   2.063   3.809
 2328SOL     OW 7882   6.234   6.823   4.000
 2328SOL    HW1 7883   6.245   6.756   3.926
 2328SOL    HW2 7884   6.325   6.857   4.026
 2329SOL     OW 7885   6.427   5.763   3.266
 2329SOL    HW1 7886   6.357   5.699   3.233
 2329SOL    HW2 7887   6.421   5.771   3.365
 2330SOL     OW 7888   0.489   3.410   1.787
 2330SOL    HW1 7889   0.445   3.467   1.717
 2330SOL    HW2 7890   0.433   3.411   1.870
 2331SOL     OW 7891   0.918   5.027   5.830
 2331SOL    HW1 7892   0.834   5.050   5.881
 2331SOL    HW2 7893   0.901   4.945   5.774
 2332SOL     OW 7894   5.210   2.345   4.477
 2332SOL    HW1 7895   5.247   2.341   4.569
 2332SOL    HW2 7896   5.277   2.307   4.412
 2333SOL     OW 7897   2.594   4.571   3.477
 2333SOL    HW1 7898   2.536   4.515   3.537
 2333SOL    HW2 7899   2.536   4.624   3.416
 2334SOL     OW 7900   2.952   0.523   0.539
 2334SOL    HW1 7901   3.012   0.499   0.462
 2334SOL    HW2 7902   2.962   0.620   0.560
 2335SOL     OW 7903   4.441   5.224   4.096
 2335SOL    HW1 7904   4.493   5.288   4.153
 2335SOL    HW2 7905   4.384   5.166   4.155
 2336SOL     OW 7906   4.419   2.237   5.618
 2336SOL    HW1 7907   4.484   2.161   5.613
 2336SOL    HW2 7908   4.350   2.217   5.688
 2337SOL     OW 7909   5.970   0.587   4.083
 2337SOL    HW1 7910   5.957   0.491   4.109
 2337SOL    HW2 7911   6.046   0.626   4.134
 2338SOL     OW 7912   1.369   0.348   6.452
 2338SOL    HW1 7913   1.468   0.354   6.461
 2338SOL    HW2 7914   1.327   0.430   6.491
 2339SOL     OW 7915   4.762   4.500   6.340
 2339SOL    HW1 7916   4.785   4.530   6.433
 2339SOL    HW2 7917   4.754   4.400   6.339
 2340SOL     OW 7918   3.884   5.216   3.325
 2340SOL    HW1 7919   3.868   5.126   3.285
 2340SOL    HW2 7920   3.929   5.205   3.414
 2341SOL     OW 7921   5.943   5.090   6.068
 2341SOL    HW1 7922   5.949   5.055   5.975
 2341SOL    HW2 7923   6.004   5.038   6.128
 2342SOL     OW 7924   6.163   0.186   5.493
 2342SOL    HW1 7925   6.112   0.268   5.466
 2342SOL    HW2 7926   6.226   0.160   5.419
 2343SOL     OW 7927   1.111   6.909   0.718
 2343SOL    HW1 7928   1.044   6.941   0.651
 2343SOL    HW2 7929   1.133   6.813   0.701
 2344SOL     OW 7930   2.414   1.381   3.194
 2344SOL    HW1 7931   2.403   1.337   3.105
 2344SOL    HW2 7932   2.382   1.319   3.266
 2345SOL     OW 7933   1.026   1.524   3.234
 2345SOL    HW1 7934   1.056   1.540   3.328
 2345SOL    HW2 7935   1.089   1.566   3.170
 2346SOL     OW 7936   5.348   3.397   5.686
 2346SOL    HW1 7937   5.293   3.350   5.755
 2346SOL    HW2 7938   5.301   3.395   5.598
 2347SOL     OW 7939   1.357   3.653   1.120
 2347SOL    HW1 7940   1.330   3.623   1.212
 2347SOL    HW2 7941   1.348   3.576   1.057
 2348SOL     OW 7942   2.764   5.497   2.013
 2348SOL    HW1 7943   2.693   5.553   2.055
 2348SOL    HW2 7944   2.744   5.487   1.915
 2349SOL     OW 7945   4.295   4.709   6.087
 2349SOL    HW1 7946   4.217   4.745   6.138
 2349SOL    HW2 7947   4.342   4.640   6.142
 2350SOL     OW 7948   1.817   5.741   5.559
 2350SOL    HW1 7949   1.905   5.709   5.525
 2350SOL    HW2 7950   1.795   5.693   5.644
 2351SOL     OW 7951   2.640   5.399   3.228
 2351SOL    HW1 7952   2.677   5.421   3.138
 2351SOL    HW2 7953   2.546   5.365   3.219
 2352SOL     OW 7954   6.015   3.968   1.810
 2352SOL    HW1 7955   6.080   4.008   1.746
 2352SOL    HW2 7956   5.926   3.961   1.766
 2353SOL     OW 7957   2.835   3.806   6.325
 2353SOL    HW1 7958   2.788   3.761   6.249
 2353SOL    HW2 7959   2.920   3.847   6.291
 2354SOL     OW 7960   3.944   2.583   1.597
 2354SOL    HW1 7961   3.866   2.571   1.658
 2354SOL    HW2 7962   4.001   2.501   1.599
 2355SOL     OW 7963   6.889   1.070   1.374
 2355SOL    HW1 7964   6.809   1.105   1.325
 2355SOL    HW2 7965   6.943   1.147   1.408
 2356SOL     OW 7966   2.771   5.073   3.753
 2356SOL    HW1 7967   2.869   5.078   3.734
 2356SOL    HW2 7968   2.721   5.118   3.679
 2357SOL     OW 7969   6.620   4.168   0.817
 2357SOL    HW1 7970   6.587   4.108   0.890
 2357SOL    HW2 7971   6.672   4.243   0.857
 2358SOL     OW 7972   3.790   2.015   5.335
 2358SOL    HW1 7973   3.698   2.046   5.312
 2358SOL    HW2 7974   3.831   1.969   5.256
 2359SOL     OW 7975   1.845   1.825   5.765
 2359SOL    HW1 7976   1.879   1.749   5.710
 2359SOL    HW2 7977   1.894   1.909   5.741
 2360SOL     OW 7978   3.507   4.873   6.855
 2360SOL    HW1 7979   3.419   4.912   6.885
 2360SOL    HW2 7980   3.576   4.945   6.857
 2361SOL     OW 7981   4.065   5.660   1.850
 2361SOL    HW1 7982   4.051   5.744   1.902
 2361SOL    HW2 7983   4.155   5.622   1.870
 2362SOL     OW 7984   3.818   5.287   3.831
 2362SOL    HW1 7985   3.730   5.305   3.787
 2362SOL    HW2 7986   3.832   5.353   3.905
 2363SOL     OW 7987   1.885   3.930   0.418
 2363SOL    HW1 7988   1.921   3.887   0.335
 2363SOL    HW2 7989   1.803   3.881   0.448
 2364SOL     OW 7990   3.566   1.020   3.027
 2364SOL    HW1 7991   3.655   1.036   2.985
 2364SOL    HW2 7992   3.519   1.107   3.040
 2365SOL     OW 7993   4.895   4.453   3.302
 2365SOL    HW1 7994   4.983   4.410   3.321
 2365SOL    HW2 7995   4.826   4.382   3.288
 2366SOL     OW 7996   2.763   4.738   5.299
 2366SOL    HW1 7997   2.727   4.805   5.234
 2366SOL    HW2 7998   2.809   4.665   5.249
 2367SOL     OW 7999   5.672   5.525   6.013
 2367SOL    HW1 8000   5.681   5.482   6.103
 2367SOL    HW2 8001   5.595   5.590   6.015
 2368SOL     OW 8002   6.103   6.917   4.661
 2368SOL    HW1 8003   6.007   6.910   4.633
 2368SOL    HW2 8004   6.114   6.996   4.721
 2369SOL     OW 8005   3.319   2.161   4.312
 2369SOL    HW1 8006   3.396   2.116   4.358
 2369SOL    HW2 8007   3.252   2.189   4.381
 2370SOL     OW 8008   5.792   2.659   1.986
 2370SOL    HW1 8009   5.859   2.588   1.965
 2370SOL    HW2 8010   5.839   2.746   2.000
 2371SOL     OW 8011   0.661   6.160   2.593
 2371SOL    HW1 8012   0.696   6.071   2.624
 2371SOL    HW2 8013   0.734   6.228   2.596
 2372SOL     OW 8014   6.390   6.395   6.617
 2372SOL    HW1 8015   6.371   6.421   6.712
 2372SOL    HW2 8016   6.342   6.459   6.556
 2373SOL     OW 8017   6.415   5.117   6.158
 2373SOL    HW1 8018   6.326   5.159   6.139
 2373SOL    HW2 8019   6.441   5.136   6.253
 2374SOL     OW 8020   6.030   6.484   2.445
 2374SOL    HW1 8021   5.998   6.497   2.539
 2374SOL    HW2 8022   5.952   6.493   2.382
 2375SOL     OW 8023   1.645   0.724   4.461
 2375SOL    HW1 8024   1.643   0.824   4.454
 2375SOL    HW2 8025   1.584   0.695   4.534
 2376SOL     OW 8026   5.437   1.788   2.755
 2376SOL    HW1 8027   5.389   1.799   2.842
 2376SOL    HW2 8028   5.481   1.698   2.752
 2377SOL     OW 8029   4.728   4.117   5.815
 2377SOL    HW1 8030   4.725   4.018   5.824
 2377SOL    HW2 8031   4.818   4.145   5.780
 2378SOL     OW 8032   7.010   1.040   0.107
 2378SOL    HW1 8033   6.937   1.004   0.049
 2378SOL    HW2 8034   6.996   1.138   0.121
 2379SOL     OW 8035   6.447   5.301   2.454
 2379SOL    HW1 8036   6.413   5.219   2.408
 2379SOL    HW2 8037   6.375   5.340   2.512
 2380SOL     OW 8038   4.968   5.873   5.847
 2380SOL    HW1 8039   5.008   5.959   5.816
 2380SOL    HW2 8040   4.885   5.854   5.795
 2381SOL     OW 8041   2.185   4.533   4.591
 2381SOL    HW1 8042   2.251   4.476   4.542
 2381SOL    HW2 8043   2.214   4.629   4.588
 2382SOL     OW 8044   6.912   5.671   2.498
 2382SOL    HW1 8045   6.902   5.699   2.593
 2382SOL    HW2 8046   6.859   5.588   2.481
 2383SOL     OW 8047   5.019   4.601   5.905
 2383SOL    HW1 8048   5.062   4.685   5.937
 2383SOL    HW2 8049   5.042   4.526   5.968
 2384SOL     OW 8050   6.988   1.741   3.135
 2384SOL    HW1 8051   7.009   1.672   3.066
 2384SOL    HW2 8052   6.935   1.699   3.209
 2385SOL     OW 8053   0.599   1.250   0.856
 2385SOL    HW1 8054   0.641   1.336   0.827
 2385SOL    HW2 8055   0.612   1.181   0.785
 2386SOL     OW 8056   6.153   6.224   4.707
 2386SOL    HW1 8057   6.175   6.191   4.615
 2386SOL    HW2 8058   6.210   6.176   4.774
 2387SOL     OW 8059   0.835   1.343   3.728
 2387SOL    HW1 8060   0.875   1.302   3.646
 2387SOL    HW2 8061   0.778   1.421   3.702
 2388SOL     OW 8062   0.450   2.856   5.392
 2388SOL    HW1 8063   0.377   2.824   5.452
 2388SOL    HW2 8064   0.475   2.950   5.418
 2389SOL     OW 8065   4.104   4.788   3.602
 2389SOL    HW1 8066   4.186   4.838   3.573
 2389SOL    HW2 8067   4.121   4.743   3.689
 2390SOL     OW 8068   5.111   2.903   6.072
 2390SOL    HW1 8069   5.125   2.829   6.138
 2390SOL    HW2 8070   5.194   2.916   6.018
 2391SOL     OW 8071   3.260   4.023   5.700
 2391SOL    HW1 8072   3.264   3.928   5.733
 2391SOL    HW2 8073   3.263   4.024   5.600
 2392SOL     OW 8074   4.585   4.234   5.523
 2392SOL    HW1 8075   4.608   4.205   5.616
 2392SOL    HW2 8076   4.486   4.245   5.515
 2393SOL     OW 8077   4.300   4.506   1.390
 2393SOL    HW1 8078   4.393   4.517   1.427
 2393SOL    HW2 8079   4.278   4.409   1.382
 2394SOL     OW 8080   0.579   2.050   3.732
 2394SOL    HW1 8081   0.550   2.038   3.637
 2394SOL    HW2 8082   0.559   1.968   3.785
 2395SOL     OW 8083   1.129   2.402   4.356
 2395SOL    HW1 8084   1.148   2.423   4.260
 2395SOL    HW2 8085   1.173   2.316   4.380
 2396SOL     OW 8086   0.576   0.429   5.832
 2396SOL    HW1 8087   0.547   0.524   5.817
 2396SOL    HW2 8088   0.543   0.398   5.922
 2397SOL     OW 8089   0.009   3.775   4.962
 2397SOL    HW1 8090   6.937   3.763   4.983
 2397SOL    HW2 8091   0.057   3.689   4.975
 2398SOL     OW 8092   3.570   6.462   4.170
 2398SOL    HW1 8093   3.505   6.461   4.095
 2398SOL    HW2 8094   3.595   6.556   4.193
 2399SOL     OW 8095   3.171   2.147   3.462
 2399SOL    HW1 8096   3.267   2.119   3.468
 2399SOL    HW2 8097   3.164   2.233   3.411
 2400SOL     OW 8098   1.784   4.308   0.588
 2400SOL    HW1 8099   1.725   4.237   0.550
 2400SOL    HW2 8100   1.820   4.278   0.676
 2401SOL     OW 8101   1.633   0.348   6.472
 2401SOL    HW1 8102   1.713   0.291   6.489
 2401SOL    HW2 8103   1.661   0.444   6.466
 2402SOL     OW 8104   1.227   4.185   2.063
 2402SOL    HW1 8105   1.188   4.095   2.044
 2402SOL    HW2 8106   1.248   4.192   2.160
 2403SOL     OW 8107   4.155   3.553   3.919
 2403SOL    HW1 8108   4.111   3.571   4.007
 2403SOL    HW2 8109   4.137   3.459   3.891
 2404SOL     OW 8110   6.019   0.891   1.167
 2404SOL    HW1 8111   5.959   0.953   1.116
 2404SOL    HW2 8112   6.114   0.918   1.153
 2405SOL     OW 8113   2.003   3.363   0.784
 2405SOL    HW1 8114   2.034   3.270   0.804
 2405SOL    HW2 8115   1.932   3.389   0.849
 2406SOL     OW 8116   2.625   6.133   4.649
 2406SOL    HW1 8117   2.656   6.103   4.559
 2406SOL    HW2 8118   2.672   6.217   4.675
 2407SOL     OW 8119   2.555   1.081   3.292
 2407SOL    HW1 8120   2.509   1.003   3.248
 2407SOL    HW2 8121   2.564   1.063   3.390
 2408SOL     OW 8122   3.233   6.159   5.550
 2408SOL    HW1 8123   3.188   6.181   5.637
 2408SOL    HW2 8124   3.332   6.155   5.563
 2409SOL     OW 8125   1.203   3.486   0.115
 2409SOL    HW1 8126   1.267   3.410   0.108
 2409SOL    HW2 8127   1.192   3.513   0.211
 2410SOL     OW 8128   0.525   2.856   4.391
 2410SOL    HW1 8129   0.582   2.848   4.473
 2410SOL    HW2 8130   0.432   2.827   4.412
 2411SOL     OW 8131   3.443   2.092   0.156
 2411SOL    HW1 8132   3.355   2.081   0.111
 2411SOL    HW2 8133   3.474   2.187   0.147
 2412SOL     OW 8134   3.303   1.927   5.857
 2412SOL    HW1 8135   3.341   2.016   5.882
 2412SOL    HW2 8136   3.275   1.878   5.939
 2413SOL     OW 8137   0.268   3.569   0.310
 2413SOL    HW1 8138   0.366   3.586   0.299
 2413SOL    HW2 8139   0.236   3.508   0.237
 2414SOL     OW 8140   6.241   2.055   4.824
 2414SOL    HW1 8141   6.210   2.007   4.906
 2414SOL    HW2 8142   6.225   2.153   4.835
 2415SOL     OW 8143   2.718   5.166   6.538
 2415SOL    HW1 8144   2.813   5.135   6.540
 2415SOL    HW2 8145   2.706   5.243   6.601
 2416SOL     OW 8146   0.144   3.438   2.301
 2416SOL    HW1 8147   0.153   3.369   2.373
 2416SOL    HW2 8148   0.095   3.517   2.337
 2417SOL     OW 8149   3.003   2.670   1.771
 2417SOL    HW1 8150   3.080   2.695   1.831
 2417SOL    HW2 8151   2.945   2.604   1.819
 2418SOL     OW 8152   5.126   3.986   6.922
 2418SOL    HW1 8153   5.212   4.026   6.890
 2418SOL    HW2 8154   5.083   4.048   6.988
 2419SOL     OW 8155   2.899   0.269   3.425
 2419SOL    HW1 8156   2.904   0.330   3.346
 2419SOL    HW2 8157   2.939   0.315   3.504
 2420SOL     OW 8158   1.766   4.088   2.921
 2420SOL    HW1 8159   1.815   4.162   2.875
 2420SOL    HW2 8160   1.755   4.011   2.859
 2421SOL     OW 8161   3.172   6.783   3.187
 2421SOL    HW1 8162   3.214   6.872   3.167
 2421SOL    HW2 8163   3.146   6.738   3.101
 2422SOL     OW 8164   4.359   5.501   0.989
 2422SOL    HW1 8165   4.399   5.409   0.988
 2422SOL    HW2 8166   4.431   5.568   1.009
 2423SOL     OW 8167   2.371   5.901   2.759
 2423SOL    HW1 8168   2.387   5.857   2.670
 2423SOL    HW2 8169   2.274   5.920   2.769
 2424SOL     OW 8170   5.207   6.972   6.355
 2424SOL    HW1 8171   5.172   7.015   6.438
 2424SOL    HW2 8172   5.208   0.014   6.281
 2425SOL     OW 8173   5.096   5.574   4.654
 2425SOL    HW1 8174   5.140   5.664   4.662
 2425SOL    HW2 8175   5.081   5.536   4.746
 2426SOL     OW 8176   2.108   3.019   5.540
 2426SOL    HW1 8177   2.171   2.959   5.591
 2426SOL    HW2 8178   2.143   3.032   5.447
 2427SOL     OW 8179   5.768   0.679   0.554
 2427SOL    HW1 8180   5.786   0.776   0.567
 2427SOL    HW2 8181   5.694   0.650   0.614
 2428SOL     OW 8182   0.677   0.997   3.250
 2428SOL    HW1 8183   0.761   0.990   3.302
 2428SOL    HW2 8184   0.676   1.083   3.199
 2429SOL     OW 8185   5.534   4.742   1.291
 2429SOL    HW1 8186   5.564   4.802   1.365
 2429SOL    HW2 8187   5.504   4.655   1.329
 2430SOL     OW 8188   6.204   0.882   6.663
 2430SOL    HW1 8189   6.297   0.916   6.679
 2430SOL    HW2 8190   6.192   0.860   6.567
 2431SOL     OW 8191   0.666   3.318   1.992
 2431SOL    HW1 8192   0.612   3.302   1.909
 2431SOL    HW2 8193   0.608   3.307   2.073
 2432SOL     OW 8194   2.652   5.232   1.783
 2432SOL    HW1 8195   2.657   5.330   1.765
 2432SOL    HW2 8196   2.742   5.199   1.813
 2433SOL     OW 8197   0.013   4.055   5.443
 2433SOL    HW1 8198   0.073   3.980   5.469
 2433SOL    HW2 8199   6.993   4.034   5.357
 2434SOL     OW 8200   4.255   0.672   2.293
 2434SOL    HW1 8201   4.207   0.754   2.262
 2434SOL    HW2 8202   4.192   0.614   2.346
 2435SOL     OW 8203   6.201   6.906   6.940
 2435SOL    HW1 8204   6.170   6.927   6.848
 2435SOL    HW2 8205   6.129   6.856   6.988
 2436SOL     OW 8206   1.352   1.899   1.602
 2436SOL    HW1 8207   1.361   1.998   1.604
 2436SOL    HW2 8208   1.289   1.872   1.528
 2437SOL     OW 8209   6.900   4.224   3.095
 2437SOL    HW1 8210   6.856   4.216   3.006
 2437SOL    HW2 8211   6.977   4.160   3.101
 2438SOL     OW 8212   3.180   1.226   4.723
 2438SOL    HW1 8213   3.128   1.269   4.797
 2438SOL    HW2 8214   3.246   1.161   4.761
 2439SOL     OW 8215   1.461   6.052   1.642
 2439SOL    HW1 8216   1.365   6.081   1.649
 2439SOL    HW2 8217   1.477   5.976   1.705
 2440SOL     OW 8218   5.535   1.044   5.350
 2440SOL    HW1 8219   5.479   1.007   5.276
 2440SOL    HW2 8220   5.476   1.090   5.416
 2441SOL     OW 8221   6.226   0.282   0.475
 2441SOL    HW1 8222   6.199   0.220   0.402
 2441SOL    HW2 8223   6.149   0.340   0.500
 2442SOL     OW 8224   5.356   2.950   1.094
 2442SOL    HW1 8225   5.371   2.953   1.193
 2442SOL    HW2 8226   5.261   2.926   1.076
 2443SOL     OW 8227   1.201   3.054   2.193
 2443SOL    HW1 8228   1.281   3.064   2.253
 2443SOL    HW2 8229   1.139   3.132   2.207
 2444SOL     OW 8230   3.148   5.744   2.169
 2444SOL    HW1 8231   3.078   5.672   2.174
 2444SOL    HW2 8232   3.103   5.832   2.151
 2445SOL     OW 8233   0.677   2.952   1.483
 2445SOL    HW1 8234   0.726   2.871   1.515
 2445SOL    HW2 8235   0.613   2.925   1.411
 2446SOL     OW 8236   1.327   5.395   1.801
 2446SOL    HW1 8237   1.244   5.418   1.752
 2446SOL    HW2 8238   1.331   5.296   1.816
 2447SOL     OW 8239   2.605   6.804   0.193
 2447SOL    HW1 8240   2.577   6.889   0.148
 2447SOL    HW2 8241   2.699   6.813   0.225
 2448SOL     OW 8242   5.460   1.256   4.303
 2448SOL    HW1 8243   5.512   1.224   4.382
 2448SOL    HW2 8244   5.462   1.187   4.231
 2449SOL     OW 8245   1.624   4.190   1.889
 2449SOL    HW1 8246   1.650   4.152   1.800
 2449SOL    HW2 8247   1.635   4.120   1.959
 2450SOL     OW 8248   1.379   6.728   5.865
 2450SOL    HW1 8249   1.427   6.683   5.940
 2450SOL    HW2 8250   1.432   6.808   5.835
 2451SOL     OW 8251   0.583   6.154   4.834
 2451SOL    HW1 8252   0.656   6.085   4.827
 2451SOL    HW2 8253   0.496   6.114   4.805
 2452SOL     OW 8254   1.881   2.341   3.690
 2452SOL    HW1 8255   1.963   2.293   3.720
 2452SOL    HW2 8256   1.841   2.292   3.613
 2453SOL     OW 8257   0.416   0.712   6.139
 2453SOL    HW1 8258   0.436   0.725   6.236
 2453SOL    HW2 8259   0.492   0.663   6.096
 2454SOL     OW 8260   3.653   5.623   1.378
 2454SOL    HW1 8261   3.733   5.572   1.408
 2454SOL    HW2 8262   3.657   5.635   1.278
 2455SOL     OW 8263   4.209   2.579   0.602
 2455SOL    HW1 8264   4.142   2.509   0.578
 2455SOL    HW2 8265   4.252   2.555   0.689
 2456SOL     OW 8266   0.958   4.215   6.568
 2456SOL    HW1 8267   0.901   4.152   6.515
 2456SOL    HW2 8268   0.903   4.290   6.602
 2457SOL     OW 8269   4.671   2.050   4.809
 2457SOL    HW1 8270   4.735   2.116   4.849
 2457SOL    HW2 8271   4.599   2.100   4.762
 2458SOL     OW 8272   0.611   0.738   2.186
 2458SOL    HW1 8273   0.518   0.702   2.180
 2458SOL    HW2 8274   0.614   0.813   2.251
 2459SOL     OW 8275   2.965   0.177   0.239
 2459SOL    HW1 8276   3.035   0.130   0.293
 2459SOL    HW2 8277   2.943   0.123   0.158
 2460SOL     OW 8278   1.240   0.984   4.902
 2460SOL    HW1 8279   1.234   1.023   4.994
 2460SOL    HW2 8280   1.165   0.918   4.889
 2461SOL     OW 8281   4.445   6.719   3.624
 2461SOL    HW1 8282   4.444   6.812   3.660
 2461SOL    HW2 8283   4.358   6.675   3.644
 2462SOL     OW 8284   0.162   3.964   0.173
 2462SOL    HW1 8285   0.083   3.912   0.207
 2462SOL    HW2 8286   0.245   3.929   0.215
 2463SOL     OW 8287   0.040   0.503   6.918
 2463SOL    HW1 8288   0.081   0.592   6.898
 2463SOL    HW2 8289   0.102   0.450   6.976
 2464SOL     OW 8290   0.804   2.857   3.637
 2464SOL    HW1 8291   0.872   2.929   3.651
 2464SOL    HW2 8292   0.851   2.768   3.632
 2465SOL     OW 8293   0.056   6.374   5.847
 2465SOL    HW1 8294   6.985   6.357   5.867
 2465SOL    HW2 8295   0.077   6.470   5.864
 2466SOL     OW 8296   0.542   2.133   1.853
 2466SOL    HW1 8297   0.507   2.226   1.858
 2466SOL    HW2 8298   0.501   2.086   1.775
 2467SOL     OW 8299   5.759   2.109   5.284
 2467SOL    HW1 8300   5.742   2.116   5.382
 2467SOL    HW2 8301   5.678   2.073   5.239
 2468SOL     OW 8302   3.285   6.561   5.439
 2468SOL    HW1 8303   3.362   6.560   5.503
 2468SOL    HW2 8304   3.205   6.603   5.484
 2469SOL     OW 8305   3.425   2.160   5.942
 2469SOL    HW1 8306   3.419   2.255   5.970
 2469SOL    HW2 8307   3.518   2.140   5.910
 2470SOL     OW 8308   2.740   4.429   6.046
 2470SOL    HW1 8309   2.672   4.415   5.974
 2470SOL    HW2 8310   2.816   4.482   6.009
 2471SOL     OW 8311   2.986   5.949   2.105
 2471SOL    HW1 8312   2.888   5.932   2.117
 2471SOL    HW2 8313   3.000   6.019   2.035
 2472SOL     OW 8314   4.343   1.535   3.647
 2472SOL    HW1 8315   4.264   1.592   3.671
 2472SOL    HW2 8316   4.377   1.561   3.557
 2473SOL     OW 8317   0.547   3.926   4.895
 2473SOL    HW1 8318   0.539   3.827   4.880
 2473SOL    HW2 8319   0.488   3.974   4.830
 2474SOL     OW 8320   1.496   5.837   1.845
 2474SOL    HW1 8321   1.544   5.833   1.932
 2474SOL    HW2 8322   1.516   5.755   1.792
 2475SOL     OW 8323   4.905   0.865   0.844
 2475SOL    HW1 8324   4.912   0.939   0.911
 2475SOL    HW2 8325   4.833   0.802   0.872
 2476SOL     OW 8326   5.317   0.601   6.912
 2476SOL    HW1 8327   5.379   0.528   6.942
 2476SOL    HW2 8328   5.366   0.664   6.852
 2477SOL     OW 8329   3.745   0.211   3.383
 2477SOL    HW1 8330   3.838   0.244   3.370
 2477SOL    HW2 8331   3.737   0.168   3.473
 2478SOL     OW 8332   4.369   0.211   3.947
 2478SOL    HW1 8333   4.408   0.199   4.039
 2478SOL    HW2 8334   4.295   0.146   3.934
 2479SOL     OW 8335   6.479   3.335   6.670
 2479SOL    HW1 8336   6.542   3.380   6.733
 2479SOL    HW2 8337   6.395   3.311   6.718
 2480SOL     OW 8338   3.455   2.695   1.818
 2480SOL    HW1 8339   3.446   2.791   1.794
 2480SOL    HW2 8340   3.425   2.638   1.742
 2481SOL     OW 8341   3.341   0.118   0.841
 2481SOL    HW1 8342   3.419   0.118   0.904
 2481SOL    HW2 8343   3.312   0.023   0.825
 2482SOL     OW 8344   6.092   3.208   6.545
 2482SOL    HW1 8345   6.102   3.177   6.451
 2482SOL    HW2 8346   6.030   3.287   6.548
 2483SOL     OW 8347   0.960   2.497   0.766
 2483SOL    HW1 8348   0.918   2.462   0.682
 2483SOL    HW2 8349   0.947   2.596   0.770
 2484SOL     OW 8350   5.011   1.437   1.147
 2484SOL    HW1 8351   4.916   1.466   1.140
 2484SOL    HW2 8352   5.029   1.400   1.238
 2485SOL     OW 8353   6.181   2.375   5.830
 2485SOL    HW1 8354   6.155   2.280   5.811
 2485SOL    HW2 8355   6.256   2.376   5.896
 2486SOL     OW 8356   0.129   3.803   5.470
 2486SOL    HW1 8357   0.126   3.821   5.371
 2486SOL    HW2 8358   0.224   3.794   5.499
 2487SOL     OW 8359   4.548   5.859   0.146
 2487SOL    HW1 8360   4.462   5.854   0.094
 2487SOL    HW2 8361   4.590   5.768   0.148
 2488SOL     OW 8362   6.612   3.716   1.552
 2488SOL    HW1 8363   6.650   3.797   1.508
 2488SOL    HW2 8364   6.579   3.739   1.643
 2489SOL     OW 8365   0.310   6.486   4.268
 2489SOL    HW1 8366   0.261   6.526   4.191
 2489SOL    HW2 8367   0.399   6.530   4.278
 2490SOL     OW 8368   2.778   6.255   2.303
 2490SOL    HW1 8369   2.746   6.339   2.348
 2490SOL    HW2 8370   2.861   6.275   2.251
 2491SOL     OW 8371   3.631   4.834   1.537
 2491SOL    HW1 8372   3.664   4.800   1.449
 2491SOL    HW2 8373   3.531   4.835   1.537
 2492SOL     OW 8374   6.719   4.275   1.081
 2492SOL    HW1 8375   6.781   4.297   1.156
 2492SOL    HW2 8376   6.691   4.360   1.035
 2493SOL     OW 8377   6.473   6.747   1.617
 2493SOL    HW1 8378   6.425   6.660   1.630
 2493SOL    HW2 8379   6.525   6.744   1.532
 2494SOL     OW 8380   6.106   3.483   1.994
 2494SOL    HW1 8381   6.066   3.430   1.919
 2494SOL    HW2 8382   6.127   3.575   1.962
 2495SOL     OW 8383   6.290   5.030   4.284
 2495SOL    HW1 8384   6.331   4.946   4.247
 2495SOL    HW2 8385   6.222   5.064   4.219
 2496SOL     OW 8386   6.186   5.110   6.399
 2496SOL    HW1 8387   6.278   5.074   6.414
 2496SOL    HW2 8388   6.145   5.136   6.487
 2497SOL     OW 8389   0.203   0.140   2.042
 2497SOL    HW1 8390   0.267   0.157   2.117
 2497SOL    HW2 8391   0.111   0.169   2.068
 2498SOL     OW 8392   2.124   3.370   5.848
 2498SOL    HW1 8393   2.162   3.414   5.930
 2498SOL    HW2 8394   2.199   3.330   5.795
 2499SOL     OW 8395   6.855   3.413   1.388
 2499SOL    HW1 8396   6.859   3.513   1.380
 2499SOL    HW2 8397   6.937   3.381   1.435
 2500SOL     OW 8398   3.833   4.277   0.035
 2500SOL    HW1 8399   3.883   4.354   7.020
 2500SOL    HW2 8400   3.813   4.210   6.989
 2501SOL     OW 8401   6.035   6.021   0.291
 2501SOL    HW1 8402   6.009   5.936   0.245
 2501SOL    HW2 8403   6.103   6.000   0.362
 2502SOL     OW 8404   2.865   5.686   4.667
 2502SOL    HW1 8405   2.767   5.667   4.659
 2502SOL    HW2 8406   2.881   5.784   4.659
 2503SOL     OW 8407   2.355   6.457   5.846
 2503SOL    HW1 8408   2.359   6.422   5.753
 2503SOL    HW2 8409   2.409   6.399   5.907
 2504SOL     OW 8410   3.157   5.597   2.594
 2504SOL    HW1 8411   3.083   5.640   2.645
 2504SOL    HW2 8412   3.202   5.665   2.536
 2505SOL     OW 8413   6.873   5.700   2.777
 2505SOL    HW1 8414   6.964   5.724   2.810
 2505SOL    HW2 8415   6.807   5.769   2.806
 2506SOL     OW 8416   5.031   5.584   5.576
 2506SOL    HW1 8417   5.075   5.508   5.624
 2506SOL    HW2 8418   4.978   5.548   5.499
 2507SOL     OW 8419   7.021   3.556   0.375
 2507SOL    HW1 8420   6.999   3.564   0.472
 2507SOL    HW2 8421   0.095   3.557   0.363
 2508SOL     OW 8422   3.840   1.871   3.576
 2508SOL    HW1 8423   3.834   1.789   3.633
 2508SOL    HW2 8424   3.790   1.946   3.619
 2509SOL     OW 8425   0.145   3.659   5.783
 2509SOL    HW1 8426   0.133   3.613   5.695
 2509SOL    HW2 8427   0.065   3.641   5.841
 2510SOL     OW 8428   3.230   4.089   1.936
 2510SOL    HW1 8429   3.135   4.113   1.917
 2510SOL    HW2 8430   3.283   4.094   1.852
 2511SOL     OW 8431   2.644   0.994   5.210
 2511SOL    HW1 8432   2.671   1.010   5.115
 2511SOL    HW2 8433   2.713   0.937   5.255
 2512SOL     OW 8434   3.873   4.898   4.675
 2512SOL    HW1 8435   3.913   4.965   4.738
 2512SOL    HW2 8436   3.847   4.816   4.726
 2513SOL     OW 8437   2.211   6.145   6.344
 2513SOL    HW1 8438   2.290   6.102   6.301
 2513SOL    HW2 8439   2.157   6.076   6.392
 2514SOL     OW 8440   1.062   3.059   3.347
 2514SOL    HW1 8441   1.115   3.142   3.329
 2514SOL    HW2 8442   1.110   3.003   3.415
 2515SOL     OW 8443   1.669   1.406   1.415
 2515SOL    HW1 8444   1.724   1.424   1.496
 2515SOL    HW2 8445   1.632   1.313   1.420
 2516SOL     OW 8446   5.494   1.593   3.513
 2516SOL    HW1 8447   5.493   1.649   3.595
 2516SOL    HW2 8448   5.584   1.598   3.469
 2517SOL     OW 8449   1.124   1.326   4.209
 2517SOL    HW1 8450   1.177   1.384   4.271
 2517SOL    HW2 8451   1.037   1.301   4.252
 2518SOL     OW 8452   2.845   4.661   1.114
 2518SOL    HW1 8453   2.939   4.645   1.144
 2518SOL    HW2 8454   2.792   4.577   1.125
 2519SOL     OW 8455   1.729   1.320   0.677
 2519SOL    HW1 8456   1.793   1.375   0.624
 2519SOL    HW2 8457   1.691   1.376   0.751
 2520SOL     OW 8458   3.637   2.510   1.265
 2520SOL    HW1 8459   3.586   2.426   1.285
 2520SOL    HW2 8460   3.609   2.581   1.329
 2521SOL     OW 8461   4.551   1.641   5.219
 2521SOL    HW1 8462   4.499   1.725   5.203
 2521SOL    HW2 8463   4.584   1.605   5.131
 2522SOL     OW 8464   0.591   1.863   5.473
 2522SOL    HW1 8465   0.532   1.934   5.435
 2522SOL    HW2 8466   0.575   1.857   5.572
 2523SOL     OW 8467   1.605   4.849   0.172
 2523SOL    HW1 8468   1.664   4.929   0.180
 2523SOL    HW2 8469   1.510   4.878   0.166
 2524SOL     OW 8470   1.499   6.761   3.852
 2524SOL    HW1 8471   1.570   6.816   3.807
 2524SOL    HW2 8472   1.413   6.770   3.801
 2525SOL     OW 8473   0.428   2.154   4.185
 2525SOL    HW1 8474   0.491   2.223   4.149
 2525SOL    HW2 8475   0.479   2.071   4.207
 2526SOL     OW 8476   1.076   6.300   0.482
 2526SOL    HW1 8477   1.105   6.241   0.557
 2526SOL    HW2 8478   1.107   6.262   0.395
 2527SOL     OW 8479   5.077   5.417   6.767
 2527SOL    HW1 8480   5.139   5.444   6.693
 2527SOL    HW2 8481   5.130   5.392   6.848
 2528SOL     OW 8482   4.717   4.926   6.869
 2528SOL    HW1 8483   4.626   4.954   6.899
 2528SOL    HW2 8484   4.786   4.960   6.933
 2529SOL     OW 8485   0.271   0.119   6.104
 2529SOL    HW1 8486   0.202   0.096   6.035
 2529SOL    HW2 8487   0.229   0.113   6.195
 2530SOL     OW 8488   2.349   5.997   5.487
 2530SOL    HW1 8489   2.254   5.980   5.460
 2530SOL    HW2 8490   2.411   5.954   5.421
 2531SOL     OW 8491   6.253   5.248   5.953
 2531SOL    HW1 8492   6.334   5.307   5.952
 2531SOL    HW2 8493   6.177   5.296   5.997
 2532SOL     OW 8494   0.343   6.882   0.782
 2532SOL    HW1 8495   0.427   6.882   0.727
 2532SOL    HW2 8496   0.367   6.895   0.879
 2533SOL     OW 8497   5.440   0.640   3.005
 2533SOL    HW1 8498   5.465   0.559   3.057
 2533SOL    HW2 8499   5.483   0.721   3.045
 2534SOL     OW 8500   4.737   1.866   2.034
 2534SOL    HW1 8501   4.649   1.870   2.080
 2534SOL    HW2 8502   4.765   1.771   2.022
 2535SOL     OW 8503   3.779   2.755   6.243
 2535SOL    HW1 8504   3.696   2.735   6.190
 2535SOL    HW2 8505   3.754   2.775   6.337
 2536SOL     OW 8506   1.506   0.798   6.743
 2536SOL    HW1 8507   1.445   0.836   6.813
 2536SOL    HW2 8508   1.589   0.764   6.787
 2537SOL     OW 8509   4.159   1.335   0.099
 2537SOL    HW1 8510   4.086   1.403   0.108
 2537SOL    HW2 8511   4.180   1.322   0.002
 2538SOL     OW 8512   6.781   3.730   3.810
 2538SOL    HW1 8513   6.717   3.790   3.762
 2538SOL    HW2 8514   6.731   3.666   3.869
 2539SOL     OW 8515   5.363   1.234   4.660
 2539SOL    HW1 8516   5.290   1.255   4.595
 2539SOL    HW2 8517   5.446   1.209   4.609
 2540SOL     OW 8518   3.469   1.795   2.445
 2540SOL    HW1 8519   3.529   1.838   2.378
 2540SOL    HW2 8520   3.378   1.837   2.440
 2541SOL     OW 8521   3.631   6.100   5.358
 2541SOL    HW1 8522   3.680   6.015   5.374
 2541SOL    HW2 8523   3.574   6.092   5.276
 2542SOL     OW 8524   1.178   4.876   0.017
 2542SOL    HW1 8525   1.155   4.969   7.015
 2542SOL    HW2 8526   1.225   4.877   0.106
 2543SOL     OW 8527   1.324   1.703   4.232
 2543SOL    HW1 8528   1.372   1.782   4.269
 2543SOL    HW2 8529   1.250   1.734   4.172
 2544SOL     OW 8530   0.745   5.417   0.470
 2544SOL    HW1 8531   0.791   5.348   0.415
 2544SOL    HW2 8532   0.813   5.478   0.511
 2545SOL     OW 8533   2.015   6.034   3.288
 2545SOL    HW1 8534   1.969   5.945   3.280
 2545SOL    HW2 8535   2.111   6.024   3.262
 2546SOL     OW 8536   6.132   1.674   1.058
 2546SOL    HW1 8537   6.189   1.739   1.108
 2546SOL    HW2 8538   6.037   1.705   1.059
 2547SOL     OW 8539   0.174   3.869   5.224
 2547SOL    HW1 8540   0.217   3.910   5.143
 2547SOL    HW2 8541   0.085   3.831   5.199
 2548SOL     OW 8542   0.191   6.520   3.995
 2548SOL    HW1 8543   0.183   6.613   4.033
 2548SOL    HW2 8544   0.209   6.526   3.897
 2549SOL     OW 8545   0.553   0.859   1.767
 2549SOL    HW1 8546   0.565   0.764   1.738
 2549SOL    HW2 8547   0.615   0.878   1.843
 2550SOL     OW 8548   6.210   6.266   0.514
 2550SOL    HW1 8549   6.296   6.314   0.496
 2550SOL    HW2 8550   6.138   6.306   0.458
 2551SOL     OW 8551   2.065   3.918   6.668
 2551SOL    HW1 8552   1.978   3.964   6.650
 2551SOL    HW2 8553   2.140   3.969   6.626
 2552SOL     OW 8554   2.960   5.341   3.099
 2552SOL    HW1 8555   2.890   5.286   3.053
 2552SOL    HW2 8556   2.941   5.345   3.197
 2553SOL     OW 8557   4.022   3.596   6.097
 2553SOL    HW1 8558   4.055   3.676   6.147
 2553SOL    HW2 8559   4.028   3.614   5.998
 2554SOL     OW 8560   1.435   1.708   0.754
 2554SOL    HW1 8561   1.415   1.768   0.677
 2554SOL    HW2 8562   1.398   1.748   0.838
 2555SOL     OW 8563   5.318   2.456   5.614
 2555SOL    HW1 8564   5.277   2.366   5.629
 2555SOL    HW2 8565   5.254   2.527   5.643
 2556SOL     OW 8566   3.633   5.694   1.120
 2556SOL    HW1 8567   3.660   5.767   1.059
 2556SOL    HW2 8568   3.684   5.611   1.098
 2557SOL     OW 8569   2.166   3.973   6.336
 2557SOL    HW1 8570   2.224   4.022   6.401
 2557SOL    HW2 8571   2.184   4.005   6.243
 2558SOL     OW 8572   4.665   1.209   5.502
 2558SOL    HW1 8573   4.692   1.205   5.406
 2558SOL    HW2 8574   4.606   1.288   5.517
 2559SOL     OW 8575   0.527   4.488   5.434
 2559SOL    HW1 8576   0.508   4.396   5.401
 2559SOL    HW2 8577   0.622   4.493   5.467
 2560SOL     OW 8578   5.914   1.783   5.928
 2560SOL    HW1 8579   5.820   1.759   5.906
 2560SOL    HW2 8580   5.933   1.761   6.024
 2561SOL     OW 8581   2.589   5.674   4.735
 2561SOL    HW1 8582   2.556   5.650   4.826
 2561SOL    HW2 8583   2.548   5.761   4.707
 2562SOL     OW 8584   1.943   3.646   0.505
 2562SOL    HW1 8585   1.975   3.711   0.436
 2562SOL    HW2 8586   2.021   3.599   0.546
 2563SOL     OW 8587   2.271   1.398   0.087
 2563SOL    HW1 8588   2.231   1.489   0.095
 2563SOL    HW2 8589   2.238   1.354   0.004
 2564SOL     OW 8590   1.843   4.860   1.574
 2564SOL    HW1 8591   1.756   4.824   1.609
 2564SOL    HW2 8592   1.828   4.951   1.536
 2565SOL     OW 8593   1.452   0.543   1.661
 2565SOL    HW1 8594   1.472   0.607   1.735
 2565SOL    HW2 8595   1.499   0.456   1.678
 2566SOL     OW 8596   2.186   6.707   6.937
 2566SOL    HW1 8597   2.257   6.650   6.896
 2566SOL    HW2 8598   2.221   6.799   6.950
 2567SOL     OW 8599   1.811   6.555   0.773
 2567SOL    HW1 8600   1.795   6.467   0.729
 2567SOL    HW2 8601   1.724   6.594   0.802
 2568SOL     OW 8602   4.338   2.242   6.913
 2568SOL    HW1 8603   4.436   2.221   6.902
 2568SOL    HW2 8604   4.287   2.156   6.914
 2569SOL     OW 8605   3.515   0.334   3.907
 2569SOL    HW1 8606   3.442   0.401   3.922
 2569SOL    HW2 8607   3.585   0.374   3.848
 2570SOL     OW 8608   5.451   1.628   6.152
 2570SOL    HW1 8609   5.444   1.647   6.250
 2570SOL    HW2 8610   5.408   1.539   6.133
 2571SOL     OW 8611   1.718   5.059   3.735
 2571SOL    HW1 8612   1.625   5.076   3.702
 2571SOL    HW2 8613   1.778   5.040   3.657
 2572SOL     OW 8614   2.668   4.952   3.187
 2572SOL    HW1 8615   2.683   4.860   3.224
 2572SOL    HW2 8616   2.571   4.964   3.166
 2573SOL     OW 8617   0.368   0.989   1.273
 2573SOL    HW1 8618   0.350   1.004   1.175
 2573SOL    HW2 8619   0.457   1.027   1.296
 2574SOL     OW 8620   6.034   3.431   0.450
 2574SOL    HW1 8621   6.113   3.404   0.506
 2574SOL    HW2 8622   6.060   3.508   0.392
 2575SOL     OW 8623   6.765   5.743   6.947
 2575SOL    HW1 8624   6.710   5.792   6.879
 2575SOL    HW2 8625   6.730   5.763   0.013
 2576SOL     OW 8626   5.384   6.130   3.705
 2576SOL    HW1 8627   5.441   6.065   3.756
 2576SOL    HW2 8628   5.297   6.143   3.753
 2577SOL     OW 8629   2.754   4.814   2.163
 2577SOL    HW1 8630   2.700   4.876   2.105
 2577SOL    HW2 8631   2.796   4.744   2.106
 2578SOL     OW 8632   3.545   1.891   3.653
 2578SOL    HW1 8633   3.558   1.846   3.742
 2578SOL    HW2 8634   3.448   1.886   3.628
 2579SOL     OW 8635   0.541   6.743   3.625
 2579SOL    HW1 8636   0.619   6.692   3.661
 2579SOL    HW2 8637   0.538   6.734   3.525
 2580SOL     OW 8638   2.266   2.781   0.179
 2580SOL    HW1 8639   2.257   2.803   0.082
 2580SOL    HW2 8640   2.355   2.740   0.196
 2581SOL     OW 8641   2.735   0.161   5.645
 2581SOL    HW1 8642   2.665   0.134   5.580
 2581SOL    HW2 8643   2.812   0.096   5.641
 2582SOL     OW 8644   0.090   3.192   1.233
 2582SOL    HW1 8645   0.024   3.267   1.235
 2582SOL    HW2 8646   0.123   3.173   1.326
 2583SOL     OW 8647   6.151   6.673   1.187
 2583SOL    HW1 8648   6.060   6.701   1.219
 2583SOL    HW2 8649   6.155   6.681   1.087
 2584SOL     OW 8650   4.612   4.635   5.355
 2584SOL    HW1 8651   4.661   4.650   5.441
 2584SOL    HW2 8652   4.678   4.623   5.280
 2585SOL     OW 8653   3.411   4.747   6.621
 2585SOL    HW1 8654   3.373   4.657   6.642
 2585SOL    HW2 8655   3.454   4.785   6.703
 2586SOL     OW 8656   1.726   0.786   5.464
 2586SOL    HW1 8657   1.797   0.730   5.420
 2586SOL    HW2 8658   1.641   0.735   5.469
 2587SOL     OW 8659   6.414   1.633   3.349
 2587SOL    HW1 8660   6.437   1.602   3.441
 2587SOL    HW2 8661   6.389   1.554   3.292
 2588SOL     OW 8662   4.533   1.333   4.779
 2588SOL    HW1 8663   4.438   1.363   4.773
 2588SOL    HW2 8664   4.554   1.273   4.702
 2589SOL     OW 8665   1.684   6.933   0.446
 2589SOL    HW1 8666   1.760   6.957   0.387
 2589SOL    HW2 8667   1.605   6.906   0.390
 2590SOL     OW 8668   2.865   5.201   0.039
 2590SOL    HW1 8669   2.867   5.103   0.055
 2590SOL    HW2 8670   2.952   5.241   0.068
 2591SOL     OW 8671   5.756   5.320   3.994
 2591SOL    HW1 8672   5.662   5.288   4.006
 2591SOL    HW2 8673   5.810   5.294   4.074
 2592SOL     OW 8674   2.787   4.378   6.595
 2592SOL    HW1 8675   2.779   4.412   6.501
 2592SOL    HW2 8676   2.740   4.290   6.603
 2593SOL     OW 8677   2.987   4.514   0.715
 2593SOL    HW1 8678   3.026   4.477   0.631
 2593SOL    HW2 8679   2.921   4.449   0.753
 2594SOL     OW 8680   1.927   3.982   4.656
 2594SOL    HW1 8681   1.956   4.077   4.665
 2594SOL    HW2 8682   2.005   3.926   4.627
 2595SOL     OW 8683   1.724   0.626   3.464
 2595SOL    HW1 8684   1.631   0.589   3.452
 2595SOL    HW2 8685   1.783   0.555   3.502
 2596SOL     OW 8686   0.849   2.463   0.065
 2596SOL    HW1 8687   0.852   2.496   6.995
 2596SOL    HW2 8688   0.816   2.368   0.066
 2597SOL     OW 8689   0.195   6.107   6.539
 2597SOL    HW1 8690   0.176   6.075   6.446
 2597SOL    HW2 8691   0.199   6.028   6.601
 2598SOL     OW 8692   5.758   2.714   2.509
 2598SOL    HW1 8693   5.804   2.712   2.598
 2598SOL    HW2 8694   5.680   2.651   2.511
 2599SOL     OW 8695   2.395   6.571   2.324
 2599SOL    HW1 8696   2.423   6.651   2.271
 2599SOL    HW2 8697   2.373   6.599   2.418
 2600SOL     OW 8698   6.099   3.973   4.228
 2600SOL    HW1 8699   6.092   3.920   4.144
 2600SOL    HW2 8700   6.121   3.913   4.304
 2601SOL     OW 8701   0.538   2.149   3.020
 2601SOL    HW1 8702   0.568   2.139   2.925
 2601SOL    HW2 8703   0.439   2.155   3.024
 2602SOL     OW 8704   1.809   5.595   3.873
 2602SOL    HW1 8705   1.821   5.497   3.855
 2602SOL    HW2 8706   1.875   5.647   3.818
 2603SOL     OW 8707   3.182   0.514   2.880
 2603SOL    HW1 8708   3.176   0.482   2.975
 2603SOL    HW2 8709   3.143   0.445   2.819
 2604SOL     OW 8710   4.460   1.963   2.720
 2604SOL    HW1 8711   4.557   1.939   2.718
 2604SOL    HW2 8712   4.448   2.046   2.774
 2605SOL     OW 8713   1.472   3.628   1.936
 2605SOL    HW1 8714   1.396   3.675   1.982
 2605SOL    HW2 8715   1.534   3.695   1.897
 2606SOL     OW 8716   4.263   3.956   0.882
 2606SOL    HW1 8717   4.313   3.963   0.795
 2606SOL    HW2 8718   4.234   4.047   0.912
 2607SOL     OW 8719   2.727   2.141   1.058
 2607SOL    HW1 8720   2.780   2.057   1.070
 2607SOL    HW2 8721   2.693   2.146   0.964
 2608SOL     OW 8722   2.352   5.638   6.289
 2608SOL    HW1 8723   2.254   5.621   6.305
 2608SOL    HW2 8724   2.362   5.720   6.233
 2609SOL     OW 8725   0.157   0.719   1.154
 2609SOL    HW1 8726   0.129   0.803   1.202
 2609SOL    HW2 8727   0.180   0.741   1.060
 2610SOL     OW 8728   1.484   4.752   4.748
 2610SOL    HW1 8729   1.451   4.658   4.758
 2610SOL    HW2 8730   1.544   4.774   4.825
 2611SOL     OW 8731   5.665   6.944   6.429
 2611SOL    HW1 8732   5.586   6.982   6.478
 2611SOL    HW2 8733   5.708   7.016   6.375
 2612SOL     OW 8734   5.835   0.250   5.660
 2612SOL    HW1 8735   5.816   0.305   5.579
 2612SOL    HW2 8736   5.920   0.283   5.703
 2613SOL     OW 8737   1.187   5.591   0.020
 2613SOL    HW1 8738   1.188   5.615   6.949
 2613SOL    HW2 8739   1.230   5.664   0.073
 2614SOL     OW 8740   0.105   1.815   0.082
 2614SOL    HW1 8741   0.154   1.899   0.065
 2614SOL    HW2 8742   0.055   1.822   0.169
 2615SOL     OW 8743   1.035   3.073   0.315
 2615SOL    HW1 8744   0.989   3.124   0.243
 2615SOL    HW2 8745   1.116   3.123   0.345
 2616SOL     OW 8746   1.413   0.436   5.340
 2616SOL    HW1 8747   1.350   0.365   5.373
 2616SOL    HW2 8748   1.407   0.441   5.240
 2617SOL     OW 8749   5.265   0.103   1.222
 2617SOL    HW1 8750   5.253   0.202   1.218
 2617SOL    HW2 8751   5.185   0.061   1.263
 2618SOL     OW 8752   1.955   6.614   6.370
 2618SOL    HW1 8753   1.956   6.530   6.317
 2618SOL    HW2 8754   2.018   6.605   6.448
 2619SOL     OW 8755   4.508   1.105   2.482
 2619SOL    HW1 8756   4.548   1.173   2.544
 2619SOL    HW2 8757   4.484   1.149   2.395
 2620SOL     OW 8758   6.462   7.007   1.483
 2620SOL    HW1 8759   6.538   7.001   1.547
 2620SOL    HW2 8760   6.413   6.919   1.482
 2621SOL     OW 8761   1.845   5.988   2.132
 2621SOL    HW1 8762   1.838   6.083   2.100
 2621SOL    HW2 8763   1.762   5.938   2.107
 2622SOL     OW 8764   3.667   3.339   6.334
 2622SOL    HW1 8765   3.619   3.337   6.421
 2622SOL    HW2 8766   3.689   3.245   6.306
 2623SOL     OW 8767   0.547   6.643   3.367
 2623SOL    HW1 8768   0.645   6.632   3.381
 2623SOL    HW2 8769   0.531   6.714   3.298
 2624SOL     OW 8770   0.027   1.888   4.293
 2624SOL    HW1 8771   0.121   1.905   4.321
 2624SOL    HW2 8772   7.001   1.847   4.369
 2625SOL     OW 8773   1.564   5.283   6.065
 2625SOL    HW1 8774   1.586   5.377   6.089
 2625SOL    HW2 8775   1.629   5.250   5.996
 2626SOL     OW 8776   6.675   5.142   6.063
 2626SOL    HW1 8777   6.589   5.110   6.105
 2626SOL    HW2 8778   6.700   5.080   5.989
 2627SOL     OW 8779   1.639   6.820   5.616
 2627SOL    HW1 8780   1.544   6.806   5.643
 2627SOL    HW2 8781   1.662   6.759   5.540
 2628SOL     OW 8782   0.648   4.774   1.936
 2628SOL    HW1 8783   0.669   4.735   2.025
 2628SOL    HW2 8784   0.549   4.787   1.928
 2629SOL     OW 8785   3.189   3.515   3.446
 2629SOL    HW1 8786   3.151   3.605   3.423
 2629SOL    HW2 8787   3.120   3.445   3.432
 2630SOL     OW 8788   3.800   0.747   3.534
 2630SOL    HW1 8789   3.882   0.781   3.579
 2630SOL    HW2 8790   3.794   0.648   3.546
 2631SOL     OW 8791   6.208   0.727   0.419
 2631SOL    HW1 8792   6.282   0.667   0.446
 2631SOL    HW2 8793   6.121   0.689   0.450
 2632SOL     OW 8794   5.453   3.981   2.369
 2632SOL    HW1 8795   5.406   4.000   2.283
 2632SOL    HW2 8796   5.438   3.885   2.395
 2633SOL     OW 8797   0.154   2.934   5.933
 2633SOL    HW1 8798   0.087   2.896   5.997
 2633SOL    HW2 8799   0.111   3.008   5.881
 2634SOL     OW 8800   6.794   1.113   5.803
 2634SOL    HW1 8801   6.748   1.037   5.848
 2634SOL    HW2 8802   6.867   1.078   5.745
 2635SOL     OW 8803   5.424   4.974   3.489
 2635SOL    HW1 8804   5.431   5.008   3.583
 2635SOL    HW2 8805   5.385   4.882   3.489
 2636SOL     OW 8806   3.953   6.128   5.397
 2636SOL    HW1 8807   3.856   6.148   5.409
 2636SOL    HW2 8808   3.994   6.104   5.485
 2637SOL     OW 8809   0.982   1.921   3.305
 2637SOL    HW1 8810   0.909   1.989   3.310
 2637SOL    HW2 8811   1.070   1.966   3.294
 2638SOL     OW 8812   1.145   6.331   4.498
 2638SOL    HW1 8813   1.238   6.370   4.503
 2638SOL    HW2 8814   1.110   6.342   4.405
 2639SOL     OW 8815   4.268   4.708   5.409
 2639SOL    HW1 8816   4.183   4.733   5.362
 2639SOL    HW2 8817   4.283   4.769   5.486
 2640SOL     OW 8818   1.287   6.766   4.326
 2640SOL    HW1 8819   1.349   6.752   4.248
 2640SOL    HW2 8820   1.341   6.785   4.408
 2641SOL     OW 8821   5.919   2.970   6.530
 2641SOL    HW1 8822   5.954   3.055   6.567
 2641SOL    HW2 8823   5.899   2.981   6.433
 2642SOL     OW 8824   6.365   1.231   3.870
 2642SOL    HW1 8825   6.266   1.219   3.877
 2642SOL    HW2 8826   6.391   1.241   3.774
 2643SOL     OW 8827   2.608   4.860   3.552
 2643SOL    HW1 8828   2.691   4.808   3.570
 2643SOL    HW2 8829   2.570   4.833   3.464
 2644SOL     OW 8830   4.829   4.969   4.268
 2644SOL    HW1 8831   4.768   4.928   4.336
 2644SOL    HW2 8832   4.812   4.928   4.179
 2645SOL     OW 8833   5.249   5.405   3.109
 2645SOL    HW1 8834   5.315   5.474   3.082
 2645SOL    HW2 8835   5.295   5.316   3.119
 2646SOL     OW 8836   0.551   2.740   6.828
 2646SOL    HW1 8837   0.550   2.730   6.928
 2646SOL    HW2 8838   0.490   2.673   6.787
 2647SOL     OW 8839   5.057   0.887   1.580
 2647SOL    HW1 8840   4.995   0.853   1.651
 2647SOL    HW2 8841   5.018   0.869   1.490
 2648SOL     OW 8842   1.021   7.008   6.510
 2648SOL    HW1 8843   1.108   6.982   6.552
 2648SOL    HW2 8844   0.949   6.949   6.546
 2649SOL     OW 8845   5.187   2.112   2.113
 2649SOL    HW1 8846   5.178   2.015   2.091
 2649SOL    HW2 8847   5.151   2.167   2.037
 2650SOL     OW 8848   3.024   6.234   4.431
 2650SOL    HW1 8849   2.993   6.144   4.400
 2650SOL    HW2 8850   2.968   6.305   4.388
 2651SOL     OW 8851   3.979   2.088   4.044
 2651SOL    HW1 8852   4.058   2.149   4.047
 2651SOL    HW2 8853   4.008   1.995   4.067
 2652SOL     OW 8854   4.816   4.525   5.742
 2652SOL    HW1 8855   4.842   4.432   5.715
 2652SOL    HW2 8856   4.886   4.563   5.802
 2653SOL     OW 8857   2.447   5.885   0.217
 2653SOL    HW1 8858   2.478   5.803   0.265
 2653SOL    HW2 8859   2.351   5.874   0.190
 2654SOL     OW 8860   6.544   0.937   0.160
 2654SOL    HW1 8861   6.591   1.025   0.165
 2654SOL    HW2 8862   6.498   0.918   0.246
 2655SOL     OW 8863   4.911   6.385   2.528
 2655SOL    HW1 8864   5.002   6.375   2.568
 2655SOL    HW2 8865   4.842   6.366   2.598
 2656SOL     OW 8866   3.883   6.259   2.714
 2656SOL    HW1 8867   3.864   6.289   2.807
 2656SOL    HW2 8868   3.975   6.289   2.688
 2657SOL     OW 8869   0.953   4.016   0.686
 2657SOL    HW1 8870   1.042   3.984   0.719
 2657SOL    HW2 8871   0.950   4.116   0.691
 2658SOL     OW 8872   3.616   5.127   6.913
 2658SOL    HW1 8873   3.604   5.176   6.827
 2658SOL    HW2 8874   3.708   5.143   6.948
 2659SOL     OW 8875   0.547   2.235   4.834
 2659SOL    HW1 8876   0.447   2.233   4.837
 2659SOL    HW2 8877   0.578   2.213   4.742
 2660SOL     OW 8878   0.596   2.094   2.483
 2660SOL    HW1 8879   0.672   2.123   2.425
 2660SOL    HW2 8880   0.538   2.030   2.433
 2661SOL     OW 8881   1.879   1.164   0.905
 2661SOL    HW1 8882   1.820   1.086   0.924
 2661SOL    HW2 8883   1.858   1.200   0.814
 2662SOL     OW 8884   2.328   0.802   2.156
 2662SOL    HW1 8885   2.274   0.874   2.112
 2662SOL    HW2 8886   2.422   0.805   2.122
 2663SOL     OW 8887   4.314   6.345   0.677
 2663SOL    HW1 8888   4.249   6.269   0.677
 2663SOL    HW2 8889   4.404   6.312   0.707
 2664SOL     OW 8890   4.482   3.843   5.532
 2664SOL    HW1 8891   4.415   3.877   5.598
 2664SOL    HW2 8892   4.564   3.814   5.580
 2665SOL     OW 8893   1.713   3.836   4.634
 2665SOL    HW1 8894   1.696   3.804   4.541
 2665SOL    HW2 8895   1.788   3.902   4.633
 2666SOL     OW 8896   2.093   3.941   2.249
 2666SOL    HW1 8897   1.993   3.942   2.248
 2666SOL    HW2 8898   2.126   3.876   2.181
 2667SOL     OW 8899   6.870   3.234   4.672
 2667SOL    HW1 8900   6.817   3.261   4.752
 2667SOL    HW2 8901   6.849   3.139   4.648
 2668SOL     OW 8902   6.507   0.352   3.770
 2668SOL    HW1 8903   6.454   0.434   3.793
 2668SOL    HW2 8904   6.446   0.273   3.768
 2669SOL     OW 8905   2.462   0.353   6.979
 2669SOL    HW1 8906   2.474   0.283   6.909
 2669SOL    HW2 8907   2.511   0.326   0.037
 2670SOL     OW 8908   0.355   6.807   6.852
 2670SOL    HW1 8909   0.279   6.747   6.876
 2670SOL    HW2 8910   0.381   6.792   6.757
 2671SOL     OW 8911   4.990   4.530   6.202
 2671SOL    HW1 8912   4.906   4.520   6.255
 2671SOL    HW2 8913   5.032   4.440   6.190
 2672SOL     OW 8914   3.345   0.765   1.799
 2672SOL    HW1 8915   3.427   0.818   1.780
 2672SOL    HW2 8916   3.264   0.820   1.778
 2673SOL     OW 8917   4.262   0.350   2.777
 2673SOL    HW1 8918   4.227   0.435   2.738
 2673SOL    HW2 8919   4.191   0.279   2.771
 2674SOL     OW 8920   0.275   5.108   2.059
 2674SOL    HW1 8921   0.367   5.083   2.091
 2674SOL    HW2 8922   0.208   5.043   2.094
 2675SOL     OW 8923   5.571   0.081   4.086
 2675SOL    HW1 8924   5.603   0.175   4.093
 2675SOL    HW2 8925   5.627   0.032   4.019
 2676SOL     OW 8926   3.771   4.035   3.039
 2676SOL    HW1 8927   3.784   4.134   3.035
 2676SOL    HW2 8928   3.842   3.995   3.097
 2677SOL     OW 8929   2.501   4.922   1.327
 2677SOL    HW1 8930   2.457   4.904   1.239
 2677SOL    HW2 8931   2.431   4.923   1.399
 2678SOL     OW 8932   4.068   1.950   2.972
 2678SOL    HW1 8933   4.040   2.034   2.927
 2678SOL    HW2 8934   4.162   1.928   2.946
 2679SOL     OW 8935   2.234   3.907   3.302
 2679SOL    HW1 8936   2.245   3.860   3.214
 2679SOL    HW2 8937   2.190   3.996   3.287
 2680SOL     OW 8938   6.317   1.255   0.453
 2680SOL    HW1 8939   6.414   1.231   0.454
 2680SOL    HW2 8940   6.266   1.185   0.402
 2681SOL     OW 8941   1.960   1.779   4.921
 2681SOL    HW1 8942   1.941   1.709   4.990
 2681SOL    HW2 8943   1.890   1.776   4.850
 2682SOL     OW 8944   4.213   3.980   1.732
 2682SOL    HW1 8945   4.173   3.913   1.795
 2682SOL    HW2 8946   4.217   3.941   1.641
 2683SOL     OW 8947   2.607   4.617   1.984
 2683SOL    HW1 8948   2.706   4.603   1.981
 2683SOL    HW2 8949   2.574   4.609   2.078
 2684SOL     OW 8950   6.643   6.577   3.763
 2684SOL    HW1 8951   6.638   6.669   3.802
 2684SOL    HW2 8952   6.642   6.583   3.663
 2685SOL     OW 8953   1.390   5.762   5.742
 2685SOL    HW1 8954   1.378   5.697   5.667
 2685SOL    HW2 8955   1.465   5.825   5.721
 2686SOL     OW 8956   0.522   1.453   5.099
 2686SOL    HW1 8957   0.583   1.373   5.105
 2686SOL    HW2 8958   0.576   1.533   5.072
 2687SOL     OW 8959   4.065   1.852   1.433
 2687SOL    HW1 8960   4.145   1.795   1.453
 2687SOL    HW2 8961   4.030   1.831   1.343
 2688SOL     OW 8962   3.904   2.897   6.048
 2688SOL    HW1 8963   3.876   2.823   6.109
 2688SOL    HW2 8964   3.892   2.869   5.953
 2689SOL     OW 8965   1.196   4.077   3.401
 2689SOL    HW1 8966   1.168   4.015   3.327
 2689SOL    HW2 8967   1.251   4.151   3.363
 2690SOL     OW 8968   3.840   1.446   5.578
 2690SOL    HW1 8969   3.890   1.532   5.566
 2690SOL    HW2 8970   3.903   1.369   5.575
 2691SOL     OW 8971   6.561   4.096   4.226
 2691SOL    HW1 8972   6.527   4.040   4.151
 2691SOL    HW2 8973   6.646   4.141   4.199
 2692SOL     OW 8974   2.509   5.926   2.366
 2692SOL    HW1 8975   2.550   5.970   2.286
 2692SOL    HW2 8976   2.579   5.914   2.437
 2693SOL     OW 8977   1.819   5.457   2.924
 2693SOL    HW1 8978   1.899   5.513   2.899
 2693SOL    HW2 8979   1.806   5.460   3.023
 2694SOL     OW 8980   2.778   0.668   2.850
 2694SOL    HW1 8981   2.830   0.661   2.935
 2694SOL    HW2 8982   2.690   0.711   2.869
 2695SOL     OW 8983   0.053   5.764   3.158
 2695SOL    HW1 8984   0.126   5.770   3.090
 2695SOL    HW2 8985   0.000   5.680   3.142
 2696SOL     OW 8986   5.580   4.655   6.236
 2696SOL    HW1 8987   5.540   4.715   6.306
 2696SOL    HW2 8988   5.563   4.560   6.260
 2697SOL     OW 8989   4.420   2.488   0.058
 2697SOL    HW1 8990   4.353   2.559   0.078
 2697SOL    HW2 8991   4.383   2.425   7.015
 2698SOL     OW 8992   1.945   4.489   6.228
 2698SOL    HW1 8993   1.973   4.430   6.304
 2698SOL    HW2 8994   1.880   4.440   6.171
 2699SOL     OW 8995   2.782   6.346   1.903
 2699SOL    HW1 8996   2.691   6.353   1.945
 2699SOL    HW2 8997   2.784   6.400   1.819
 2700SOL     OW 8998   3.405   1.787   1.858
 2700SOL    HW1 8999   3.439   1.880   1.870
 2700SOL    HW2 9000   3.357   1.781   1.770
 2701SOL     OW 9001   5.247   3.290   4.917
 2701SOL    HW1 9002   5.200   3.299   4.829
 2701SOL    HW2 9003   5.245   3.194   4.947
 2702SOL     OW 9004   2.871   0.897   4.712
 2702SOL    HW1 9005   2.845   0.834   4.785
 2702SOL    HW2 9006   2.971   0.906   4.710
 2703SOL     OW 9007   1.875   6.665   2.731
 2703SOL    HW1 9008   1.848   6.632   2.821
 2703SOL    HW2 9009   1.821   6.746   2.707
 2704SOL     OW 9010   5.241   0.380   3.764
 2704SOL    HW1 9011   5.286   0.343   3.846
 2704SOL    HW2 9012   5.246   0.312   3.690
 2705SOL     OW 9013   0.242   0.435   5.627
 2705SOL    HW1 9014   0.214   0.526   5.596
 2705SOL    HW2 9015   0.236   0.431   5.726
 2706SOL     OW 9016   0.198   3.598   3.508
 2706SOL    HW1 9017   0.193   3.612   3.409
 2706SOL    HW2 9018   0.105   3.588   3.544
 2707SOL     OW 9019   4.255   0.885   3.052
 2707SOL    HW1 9020   4.177   0.880   2.989
 2707SOL    HW2 9021   4.300   0.974   3.041
 2708SOL     OW 9022   6.247   3.523   6.135
 2708SOL    HW1 9023   6.211   3.443   6.085
 2708SOL    HW2 9024   6.265   3.497   6.230
 2709SOL     OW 9025   5.002   1.464   5.411
 2709SOL    HW1 9026   4.913   1.504   5.391
 2709SOL    HW2 9027   5.071   1.502   5.349
 2710SOL     OW 9028   1.177   2.963   4.139
 2710SOL    HW1 9029   1.079   2.943   4.137
 2710SOL    HW2 9030   1.228   2.882   4.168
 2711SOL     OW 9031   3.237   1.118   1.927
 2711SOL    HW1 9032   3.220   1.129   1.829
 2711SOL    HW2 9033   3.335   1.109   1.943
 2712SOL     OW 9034   4.003   6.065   2.140
 2712SOL    HW1 9035   3.924   6.040   2.195
 2712SOL    HW2 9036   3.996   6.161   2.114
 2713SOL     OW 9037   3.970   5.001   6.164
 2713SOL    HW1 9038   3.933   5.089   6.193
 2713SOL    HW2 9039   3.953   4.933   6.234
 2714SOL     OW 9040   3.127   4.828   6.163
 2714SOL    HW1 9041   3.205   4.765   6.170
 2714SOL    HW2 9042   3.105   4.864   6.253
 2715SOL     OW 9043   3.964   1.102   6.945
 2715SOL    HW1 9044   3.954   1.021   7.002
 2715SOL    HW2 9045   3.883   1.113   6.888
 2716SOL     OW 9046   3.535   1.110   3.419
 2716SOL    HW1 9047   3.614   1.124   3.360
 2716SOL    HW2 9048   3.551   1.154   3.507
 2717SOL     OW 9049   0.689   1.138   2.589
 2717SOL    HW1 9050   0.763   1.161   2.526
 2717SOL    HW2 9051   0.710   1.172   2.680
 2718SOL     OW 9052   0.019   0.935   5.864
 2718SOL    HW1 9053   0.025   0.946   5.765
 2718SOL    HW2 9054   0.108   0.957   5.905
 2719SOL     OW 9055   1.888   4.295   2.547
 2719SOL    HW1 9056   1.898   4.299   2.646
 2719SOL    HW2 9057   1.811   4.353   2.519
 2720SOL     OW 9058   2.380   6.373   6.628
 2720SOL    HW1 9059   2.450   6.357   6.558
 2720SOL    HW2 9060   2.290   6.375   6.584
 2721SOL     OW 9061   3.102   6.147   1.963
 2721SOL    HW1 9062   3.088   6.219   2.030
 2721SOL    HW2 9063   3.200   6.126   1.956
 2722SOL     OW 9064   4.372   6.273   0.099
 2722SOL    HW1 9065   4.468   6.247   0.089
 2722SOL    HW2 9066   4.335   6.296   0.009
 2723SOL     OW 9067   3.519   6.556   6.187
 2723SOL    HW1 9068   3.542   6.600   6.274
 2723SOL    HW2 9069   3.477   6.467   6.205
 2724SOL     OW 9070   0.947   6.531   1.120
 2724SOL    HW1 9071   0.903   6.574   1.041
 2724SOL    HW2 9072   0.879   6.481   1.173
 2725SOL     OW 9073   6.234   3.848   4.861
 2725SOL    HW1 9074   6.248   3.909   4.939
 2725SOL    HW2 9075   6.237   3.753   4.892
 2726SOL     OW 9076   6.414   2.021   2.021
 2726SOL    HW1 9077   6.420   2.120   2.009
 2726SOL    HW2 9078   6.394   2.001   2.117
 2727SOL     OW 9079   1.637   4.899   3.939
 2727SOL    HW1 9080   1.702   4.927   3.868
 2727SOL    HW2 9081   1.671   4.928   4.028
 2728SOL     OW 9082   5.192   5.160   5.563
 2728SOL    HW1 9083   5.241   5.239   5.602
 2728SOL    HW2 9084   5.162   5.100   5.636
 2729SOL     OW 9085   5.476   6.940   6.179
 2729SOL    HW1 9086   5.516   0.006   6.176
 2729SOL    HW2 9087   5.447   6.919   6.272
 2730SOL     OW 9088   0.994   6.050   2.118
 2730SOL    HW1 9089   0.898   6.021   2.122
 2730SOL    HW2 9090   1.052   5.970   2.098
 2731SOL     OW 9091   3.586   3.985   3.802
 2731SOL    HW1 9092   3.538   4.072   3.814
 2731SOL    HW2 9093   3.635   3.962   3.887
 2732SOL     OW 9094   5.362   0.917   2.025
 2732SOL    HW1 9095   5.339   0.824   2.054
 2732SOL    HW2 9096   5.409   0.913   1.936
 2733SOL     OW 9097   1.239   6.766   6.827
 2733SOL    HW1 9098   1.291   6.711   6.762
 2733SOL    HW2 9099   1.157   6.717   6.855
 2734SOL     OW 9100   3.251   6.396   2.249
 2734SOL    HW1 9101   3.294   6.317   2.206
 2734SOL    HW2 9102   3.158   6.408   2.214
 2735SOL     OW 9103   0.277   1.505   2.064
 2735SOL    HW1 9104   0.218   1.524   1.985
 2735SOL    HW2 9105   0.285   1.588   2.120
 2736SOL     OW 9106   5.699   4.418   2.909
 2736SOL    HW1 9107   5.671   4.348   2.844
 2736SOL    HW2 9108   5.707   4.378   3.000
 2737SOL     OW 9109   2.879   1.032   5.503
 2737SOL    HW1 9110   2.790   1.077   5.500
 2737SOL    HW2 9111   2.878   0.952   5.444
 2738SOL     OW 9112   5.249   6.455   1.744
 2738SOL    HW1 9113   5.242   6.543   1.698
 2738SOL    HW2 9114   5.270   6.383   1.677
 2739SOL     OW 9115   6.301   5.713   1.653
 2739SOL    HW1 9116   6.368   5.781   1.621
 2739SOL    HW2 9117   6.253   5.749   1.732
 2740SOL     OW 9118   6.426   5.830   4.036
 2740SOL    HW1 9119   6.491   5.854   3.965
 2740SOL    HW2 9120   6.444   5.737   4.068
 2741SOL     OW 9121   1.396   1.476   5.658
 2741SOL    HW1 9122   1.297   1.473   5.643
 2741SOL    HW2 9123   1.441   1.512   5.576
 2742SOL     OW 9124   2.746   6.027   1.920
 2742SOL    HW1 9125   2.730   6.083   1.839
 2742SOL    HW2 9126   2.702   6.069   1.999
 2743SOL     OW 9127   5.508   3.272   2.718
 2743SOL    HW1 9128   5.501   3.364   2.756
 2743SOL    HW2 9129   5.519   3.276   2.619
 2744SOL     OW 9130   2.954   3.707   2.786
 2744SOL    HW1 9131   2.967   3.802   2.758
 2744SOL    HW2 9132   2.939   3.650   2.705
 2745SOL     OW 9133   0.709   6.349   0.314
 2745SOL    HW1 9134   0.753   6.350   0.404
 2745SOL    HW2 9135   0.727   6.435   0.267
 2746SOL     OW 9136   1.337   1.175   3.263
 2746SOL    HW1 9137   1.359   1.202   3.170
 2746SOL    HW2 9138   1.242   1.198   3.283
 2747SOL     OW 9139   3.921   5.393   0.545
 2747SOL    HW1 9140   3.907   5.490   0.563
 2747SOL    HW2 9141   3.947   5.346   0.629
 2748SOL     OW 9142   4.069   6.361   0.930
 2748SOL    HW1 9143   4.058   6.456   0.900
 2748SOL    HW2 9144   4.041   6.353   1.026
 2749SOL     OW 9145   3.177   3.149   0.058
 2749SOL    HW1 9146   3.130   3.105   7.006
 2749SOL    HW2 9147   3.271   3.116   0.062
 2750SOL     OW 9148   2.405   6.208   1.861
 2750SOL    HW1 9149   2.443   6.285   1.912
 2750SOL    HW2 9150   2.350   6.151   1.922
 2751SOL     OW 9151   5.997   3.855   0.968
 2751SOL    HW1 9152   6.039   3.764   0.973
 2751SOL    HW2 9153   5.918   3.852   0.906
 2752SOL     OW 9154   4.240   5.046   0.055
 2752SOL    HW1 9155   4.257   5.143   0.034
 2752SOL    HW2 9156   4.326   5.002   0.078
 2753SOL     OW 9157   6.146   5.987   5.446
 2753SOL    HW1 9158   6.202   6.062   5.412
 2753SOL    HW2 9159   6.173   5.965   5.540
 2754SOL     OW 9160   1.234   6.760   6.162
 2754SOL    HW1 9161   1.145   6.802   6.178
 2754SOL    HW2 9162   1.234   6.713   6.074
 2755SOL     OW 9163   2.591   0.288   2.713
 2755SOL    HW1 9164   2.647   0.236   2.777
 2755SOL    HW2 9165   2.646   0.360   2.670
 2756SOL     OW 9166   4.667   6.090   0.678
 2756SOL    HW1 9167   4.761   6.118   0.657
 2756SOL    HW2 9168   4.622   6.060   0.594
 2757SOL     OW 9169   0.325   5.431   1.271
 2757SOL    HW1 9170   0.273   5.424   1.186
 2757SOL    HW2 9171   0.324   5.525   1.303
 2758SOL     OW 9172   4.855   0.637   5.794
 2758SOL    HW1 9173   4.782   0.643   5.861
 2758SOL    HW2 9174   4.884   0.542   5.784
 2759SOL     OW 9175   5.571   5.688   4.784
 2759SOL    HW1 9176   5.598   5.693   4.880
 2759SOL    HW2 9177   5.547   5.779   4.751
 2760SOL     OW 9178   2.758   5.603   3.384
 2760SOL    HW1 9179   2.767   5.582   3.482
 2760SOL    HW2 9180   2.710   5.528   3.338
 2761SOL     OW 9181   2.188   5.741   3.329
 2761SOL    HW1 9182   2.283   5.733   3.298
 2761SOL    HW2 9183   2.162   5.658   3.378
 2762SOL     OW 9184   0.910   6.542   4.803
 2762SOL    HW1 9185   0.998   6.496   4.820
 2762SOL    HW2 9186   0.927   6.632   4.764
 2763SOL     OW 9187   5.637   1.894   1.982
 2763SOL    HW1 9188   5.722   1.923   1.939
 2763SOL    HW2 9189   5.586   1.975   2.011
 2764SOL     OW 9190   6.346   1.482   2.289
 2764SOL    HW1 9191   6.284   1.559   2.270
 2764SOL    HW2 9192   6.351   1.467   2.388
 2765SOL     OW 9193   5.973   1.496   1.954
 2765SOL    HW1 9194   5.951   1.416   1.897
 2765SOL    HW2 9195   5.893   1.521   2.008
 2766SOL     OW 9196   5.810   0.829   2.463
 2766SOL    HW1 9197   5.904   0.825   2.428
 2766SOL    HW2 9198   5.784   0.925   2.475
 2767SOL     OW 9199   5.553   4.372   6.297
 2767SOL    HW1 9200   5.534   4.282   6.257
 2767SOL    HW2 9201   5.490   4.389   6.373
 2768SOL     OW 9202   5.742   1.275   6.553
 2768SOL    HW1 9203   5.750   1.336   6.631
 2768SOL    HW2 9204   5.791   1.189   6.572
 2769SOL     OW 9205   0.676   3.972   1.452
 2769SOL    HW1 9206   0.663   3.875   1.473
 2769SOL    HW2 9207   0.727   3.981   1.366
 2770SOL     OW 9208   0.139   5.930   1.387
 2770SOL    HW1 9209   0.083   5.948   1.306
 2770SOL    HW2 9210   0.136   6.008   1.449
 2771SOL     OW 9211   4.644   1.305   1.777
 2771SOL    HW1 9212   4.554   1.261   1.784
 2771SOL    HW2 9213   4.715   1.240   1.804
 2772SOL     OW 9214   3.293   2.824   5.969
 2772SOL    HW1 9215   3.301   2.883   5.888
 2772SOL    HW2 9216   3.213   2.765   5.959
 2773SOL     OW 9217   3.678   3.701   6.350
 2773SOL    HW1 9218   3.596   3.758   6.356
 2773SOL    HW2 9219   3.659   3.621   6.292
 2774SOL     OW 9220   5.937   3.584   2.773
 2774SOL    HW1 9221   6.022   3.616   2.730
 2774SOL    HW2 9222   5.908   3.499   2.730
 2775SOL     OW 9223   0.060   6.133   1.534
 2775SOL    HW1 9224   0.098   6.185   1.611
 2775SOL    HW2 9225   7.017   6.188   1.487
 2776SOL     OW 9226   2.801   5.924   6.199
 2776SOL    HW1 9227   2.882   5.964   6.157
 2776SOL    HW2 9228   2.826   5.837   6.242
 2777SOL     OW 9229   3.282   1.010   2.758
 2777SOL    HW1 9230   3.283   1.104   2.792
 2777SOL    HW2 9231   3.375   0.981   2.736
 2778SOL     OW 9232   2.219   1.895   5.676
 2778SOL    HW1 9233   2.293   1.833   5.704
 2778SOL    HW2 9234   2.250   1.951   5.599
 2779SOL     OW 9235   5.866   1.042   6.694
 2779SOL    HW1 9236   5.948   1.078   6.650
 2779SOL    HW2 9237   5.879   1.040   6.793
 2780SOL     OW 9238   4.873   5.241   6.922
 2780SOL    HW1 9239   4.899   5.176   6.851
 2780SOL    HW2 9240   4.902   5.333   6.895
 2781SOL     OW 9241   5.336   4.510   0.551
 2781SOL    HW1 9242   5.239   4.521   0.532
 2781SOL    HW2 9243   5.365   4.418   0.528
 2782SOL     OW 9244   2.524   2.483   5.737
 2782SOL    HW1 9245   2.622   2.497   5.740
 2782SOL    HW2 9246   2.483   2.511   5.824
 2783SOL     OW 9247   0.479   4.866   5.406
 2783SOL    HW1 9248   0.545   4.934   5.439
 2783SOL    HW2 9249   0.527   4.780   5.385
 2784SOL     OW 9250   1.854   1.565   1.967
 2784SOL    HW1 9251   1.908   1.648   1.979
 2784SOL    HW2 9252   1.766   1.589   1.924
 2785SOL     OW 9253   6.386   0.891   0.891
 2785SOL    HW1 9254   6.385   0.962   0.962
 2785SOL    HW2 9255   6.427   0.927   0.808
 2786SOL     OW 9256   3.987   6.670   1.107
 2786SOL    HW1 9257   3.999   6.709   1.198
 2786SOL    HW2 9258   3.917   6.599   1.109
 2787SOL     OW 9259   2.518   2.801   5.501
 2787SOL    HW1 9260   2.538   2.704   5.515
 2787SOL    HW2 9261   2.428   2.823   5.539
 2788SOL     OW 9262   1.160   3.525   0.824
 2788SOL    HW1 9263   1.116   3.461   0.887
 2788SOL    HW2 9264   1.112   3.524   0.737
 2789SOL     OW 9265   0.626   2.401   4.125
 2789SOL    HW1 9266   0.710   2.389   4.071
 2789SOL    HW2 9267   0.645   2.377   4.221
 2790SOL     OW 9268   3.848   5.663   3.097
 2790SOL    HW1 9269   3.900   5.735   3.051
 2790SOL    HW2 9270   3.763   5.646   3.047
 2791SOL     OW 9271   1.696   3.192   4.341
 2791SOL    HW1 9272   1.653   3.177   4.252
 2791SOL    HW2 9273   1.757   3.116   4.363
 2792SOL     OW 9274   1.209   2.054   5.460
 2792SOL    HW1 9275   1.193   2.149   5.431
 2792SOL    HW2 9276   1.268   2.008   5.393
 2793SOL     OW 9277   4.642   1.442   3.375
 2793SOL    HW1 9278   4.641   1.502   3.295
 2793SOL    HW2 9279   4.686   1.489   3.451
 2794SOL     OW 9280   1.005   0.909   0.683
 2794SOL    HW1 9281   1.051   0.980   0.630
 2794SOL    HW2 9282   0.980   0.834   0.622
 2795SOL     OW 9283   2.825   4.156   1.459
 2795SOL    HW1 9284   2.849   4.247   1.425
 2795SOL    HW2 9285   2.865   4.087   1.399
 2796SOL     OW 9286   5.371   3.742   2.562
 2796SOL    HW1 9287   5.307   3.703   2.496
 2796SOL    HW2 9288   5.331   3.823   2.604
 2797SOL     OW 9289   4.753   4.665   4.825
 2797SOL    HW1 9290   4.783   4.614   4.745
 2797SOL    HW2 9291   4.655   4.651   4.839
 2798SOL     OW 9292   1.044   4.007   4.506
 2798SOL    HW1 9293   0.968   4.035   4.448
 2798SOL    HW2 9294   1.099   3.939   4.457
 2799SOL     OW 9295   6.363   4.813   5.922
 2799SOL    HW1 9296   6.433   4.818   5.993
 2799SOL    HW2 9297   6.312   4.727   5.931
 2800SOL     OW 9298   3.023   4.145   6.843
 2800SOL    HW1 9299   2.954   4.120   6.775
 2800SOL    HW2 9300   2.982   4.209   6.909
 2801SOL     OW 9301   5.283   5.764   2.078
 2801SOL    HW1 9302   5.199   5.807   2.047
 2801SOL    HW2 9303   5.265   5.668   2.101
 2802SOL     OW 9304   4.534   1.460   6.033
 2802SOL    HW1 9305   4.513   1.515   6.114
 2802SOL    HW2 9306   4.460   1.394   6.018
 2803SOL     OW 9307   2.957   6.552   6.602
 2803SOL    HW1 9308   2.959   6.551   6.502
 2803SOL    HW2 9309   2.887   6.489   6.635
 2804SOL     OW 9310   6.804   4.472   3.241
 2804SOL    HW1 9311   6.714   4.444   3.275
 2804SOL    HW2 9312   6.835   4.407   3.172
 2805SOL     OW 9313   5.585   3.452   0.263
 2805SOL    HW1 9314   5.513   3.450   0.193
 2805SOL    HW2 9315   5.574   3.534   0.320
 2806SOL     OW 9316   6.275   5.374   3.404
 2806SOL    HW1 9317   6.272   5.297   3.340
 2806SOL    HW2 9318   6.192   5.430   3.393
 2807SOL     OW 9319   4.696   5.146   3.315
 2807SOL    HW1 9320   4.723   5.050   3.325
 2807SOL    HW2 9321   4.689   5.169   3.218
 2808SOL     OW 9322   5.323   0.342   4.310
 2808SOL    HW1 9323   5.382   0.265   4.334
 2808SOL    HW2 9324   5.258   0.313   4.240
 2809SOL     OW 9325   5.234   2.731   0.810
 2809SOL    HW1 9326   5.209   2.637   0.788
 2809SOL    HW2 9327   5.211   2.751   0.905
 2810SOL     OW 9328   2.072   6.852   5.382
 2810SOL    HW1 9329   2.052   6.906   5.464
 2810SOL    HW2 9330   2.054   6.906   5.300
 2811SOL     OW 9331   6.946   1.644   3.397
 2811SOL    HW1 9332   6.908   1.705   3.466
 2811SOL    HW2 9333   0.015   1.620   3.421
 2812SOL     OW 9334   4.867   3.565   2.510
 2812SOL    HW1 9335   4.905   3.658   2.506
 2812SOL    HW2 9336   4.768   3.569   2.497
 2813SOL     OW 9337   5.707   0.859   6.599
 2813SOL    HW1 9338   5.699   0.804   6.681
 2813SOL    HW2 9339   5.772   0.934   6.615
 2814SOL     OW 9340   4.722   4.056   5.177
 2814SOL    HW1 9341   4.641   4.065   5.233
 2814SOL    HW2 9342   4.743   4.144   5.134
 2815SOL     OW 9343   0.158   1.057   5.479
 2815SOL    HW1 9344   0.168   1.020   5.387
 2815SOL    HW2 9345   0.164   0.982   5.545
 2816SOL     OW 9346   5.638   6.815   3.338
 2816SOL    HW1 9347   5.618   6.879   3.263
 2816SOL    HW2 9348   5.726   6.838   3.379
 2817SOL     OW 9349   0.851   1.856   1.604
 2817SOL    HW1 9350   0.798   1.940   1.608
 2817SOL    HW2 9351   0.925   1.860   1.671
 2818SOL     OW 9352   0.167   4.535   5.040
 2818SOL    HW1 9353   0.134   4.448   5.079
 2818SOL    HW2 9354   0.221   4.583   5.109
 2819SOL     OW 9355   0.096   2.891   1.194
 2819SOL    HW1 9356   0.174   2.870   1.135
 2819SOL    HW2 9357   0.077   2.989   1.191
 2820SOL     OW 9358   6.677   3.295   4.123
 2820SOL    HW1 9359   6.753   3.245   4.166
 2820SOL    HW2 9360   6.593   3.277   4.174
 2821SOL     OW 9361   1.520   4.284   4.531
 2821SOL    HW1 9362   1.449   4.351   4.511
 2821SOL    HW2 9363   1.478   4.198   4.558
 2822SOL     OW 9364   4.905   1.981   6.903
 2822SOL    HW1 9365   4.900   1.903   6.841
 2822SOL    HW2 9366   4.955   1.956   6.986
 2823SOL     OW 9367   1.982   6.812   3.147
 2823SOL    HW1 9368   2.053   6.830   3.079
 2823SOL    HW2 9369   1.976   6.714   3.163
 2824SOL     OW 9370   3.212   1.546   5.256
 2824SOL    HW1 9371   3.218   1.478   5.329
 2824SOL    HW2 9372   3.196   1.637   5.296
 2825SOL     OW 9373   6.231   5.834   1.268
 2825SOL    HW1 9374   6.267   5.868   1.355
 2825SOL    HW2 9375   6.207   5.912   1.210
 2826SOL     OW 9376   4.915   1.787   4.435
 2826SOL    HW1 9377   4.879   1.808   4.344
 2826SOL    HW2 9378   4.877   1.851   4.501
 2827SOL     OW 9379   5.651   0.782   5.341
 2827SOL    HW1 9380   5.649   0.749   5.247
 2827SOL    HW2 9381   5.622   0.878   5.344
 2828SOL     OW 9382   3.727   1.248   5.368
 2828SOL    HW1 9383   3.748   1.318   5.437
 2828SOL    HW2 9384   3.673   1.175   5.410
 2829SOL     OW 9385   2.107   6.681   6.585
 2829SOL    HW1 9386   2.136   6.586   6.595
 2829SOL    HW2 9387   2.185   6.738   6.562
 2830SOL     OW 9388   3.800   3.450   0.035
 2830SOL    HW1 9389   3.752   3.512   0.097
 2830SOL    HW2 9390   3.893   3.436   0.067
 2831SOL     OW 9391   5.935   6.323   4.569
 2831SOL    HW1 9392   6.016   6.311   4.627
 2831SOL    HW2 9393   5.853   6.316   4.625
 2832SOL     OW 9394   0.174   0.985   2.311
 2832SOL    HW1 9395   0.216   1.075   2.310
 2832SOL    HW2 9396   0.173   0.947   2.218
 2833SOL     OW 9397   6.395   2.944   2.011
 2833SOL    HW1 9398   6.408   3.040   1.985
 2833SOL    HW2 9399   6.309   2.910   1.972
 2834SOL     OW 9400   4.060   1.287   5.463
 2834SOL    HW1 9401   3.999   1.264   5.386
 2834SOL    HW2 9402   4.118   1.208   5.484
 2835SOL     OW 9403   0.081   6.449   2.603
 2835SOL    HW1 9404   0.028   6.503   2.668
 2835SOL    HW2 9405   0.128   6.510   2.540
 2836SOL     OW 9406   6.957   0.568   1.189
 2836SOL    HW1 9407   0.017   0.619   1.189
 2836SOL    HW2 9408   6.961   0.497   1.260
 2837SOL     OW 9409   5.256   3.840   3.775
 2837SOL    HW1 9410   5.347   3.801   3.791
 2837SOL    HW2 9411   5.242   3.917   3.837
 2838SOL     OW 9412   3.214   4.974   2.800
 2838SOL    HW1 9413   3.233   4.907   2.728
 2838SOL    HW2 9414   3.293   4.980   2.861
 2839SOL     OW 9415   5.422   2.029   1.375
 2839SOL    HW1 9416   5.410   2.035   1.474
 2839SOL    HW2 9417   5.467   1.943   1.352
 2840SOL     OW 9418   6.717   1.513   5.215
 2840SOL    HW1 9419   6.794   1.559   5.258
 2840SOL    HW2 9420   6.665   1.463   5.284
 2841SOL     OW 9421   0.742   6.460   1.323
 2841SOL    HW1 9422   0.698   6.486   1.409
 2841SOL    HW2 9423   0.678   6.405   1.269
 2842SOL     OW 9424   0.359   3.904   3.015
 2842SOL    HW1 9425   0.424   3.953   3.073
 2842SOL    HW2 9426   0.336   3.817   3.058
 2843SOL     OW 9427   4.007   1.066   4.453
 2843SOL    HW1 9428   4.094   1.038   4.411
 2843SOL    HW2 9429   3.935   1.002   4.426
 2844SOL     OW 9430   0.216   4.133   6.562
 2844SOL    HW1 9431   0.227   4.146   6.463
 2844SOL    HW2 9432   0.278   4.195   6.610
 2845SOL     OW 9433   0.475   4.539   5.866
 2845SOL    HW1 9434   0.444   4.467   5.804
 2845SOL    HW2 9435   0.510   4.616   5.813
 2846SOL     OW 9436   5.053   1.891   6.308
 2846SOL    HW1 9437   5.026   1.962   6.242
 2846SOL    HW2 9438   5.060   1.931   6.399
 2847SOL     OW 9439   5.620   4.439   4.292
 2847SOL    HW1 9440   5.657   4.358   4.246
 2847SOL    HW2 9441   5.632   4.429   4.391
 2848SOL     OW 9442   0.998   5.516   4.731
 2848SOL    HW1 9443   1.000   5.437   4.792
 2848SOL    HW2 9444   1.086   5.564   4.736
 2849SOL     OW 9445   2.936   2.302   1.153
 2849SOL    HW1 9446   3.027   2.262   1.143
 2849SOL    HW2 9447   2.867   2.232   1.133
 2850SOL     OW 9448   3.568   0.511   0.274
 2850SOL    HW1 9449   3.591   0.582   0.340
 2850SOL    HW2 9450   3.474   0.523   0.244
 2851SOL     OW 9451   1.378   4.101   5.784
 2851SOL    HW1 9452   1.400   4.189   5.744
 2851SOL    HW2 9453   1.356   4.036   5.711
 2852SOL     OW 9454   0.123   3.313   6.866
 2852SOL    HW1 9455   0.207   3.296   6.918
 2852SOL    HW2 9456   0.083   3.226   6.838
 2853SOL     OW 9457   3.615   3.414   0.985
 2853SOL    HW1 9458   3.714   3.418   1.002
 2853SOL    HW2 9459   3.577   3.507   0.991
 2854SOL     OW 9460   2.565   1.166   3.806
 2854SOL    HW1 9461   2.579   1.140   3.710
 2854SOL    HW2 9462   2.563   1.265   3.814
 2855SOL     OW 9463   2.417   0.921   5.077
 2855SOL    HW1 9464   2.370   0.997   5.032
 2855SOL    HW2 9465   2.496   0.955   5.128
 2856SOL     OW 9466   2.497   2.746   5.199
 2856SOL    HW1 9467   2.505   2.776   5.294
 2856SOL    HW2 9468   2.481   2.825   5.140
 2857SOL     OW 9469   3.211   3.441   1.982
 2857SOL    HW1 9470   3.155   3.374   1.933
 2857SOL    HW2 9471   3.162   3.472   2.063
 2858SOL     OW 9472   0.277   3.831   2.588
 2858SOL    HW1 9473   0.311   3.896   2.656
 2858SOL    HW2 9474   0.186   3.858   2.559
 2859SOL     OW 9475   5.424   0.476   0.918
 2859SOL    HW1 9476   5.404   0.459   1.015
 2859SOL    HW2 9477   5.340   0.465   0.865
 2860SOL     OW 9478   3.808   1.748   2.470
 2860SOL    HW1 9479   3.740   1.709   2.407
 2860SOL    HW2 9480   3.777   1.837   2.502
 2861SOL     OW 9481   3.850   5.538   5.916
 2861SOL    HW1 9482   3.858   5.468   5.845
 2861SOL    HW2 9483   3.754   5.567   5.924
 2862SOL     OW 9484   5.778   1.435   4.151
 2862SOL    HW1 9485   5.706   1.503   4.168
 2862SOL    HW2 9486   5.829   1.419   4.236
 2863SOL     OW 9487   6.707   2.291   6.557
 2863SOL    HW1 9488   6.723   2.375   6.506
 2863SOL    HW2 9489   6.609   2.269   6.555
 2864SOL     OW 9490   3.272   1.489   0.380
 2864SOL    HW1 9491   3.203   1.454   0.443
 2864SOL    HW2 9492   3.329   1.556   0.427
 2865SOL     OW 9493   4.794   4.259   5.021
 2865SOL    HW1 9494   4.862   4.304   5.079
 2865SOL    HW2 9495   4.816   4.274   4.925
 2866SOL     OW 9496   0.635   6.328   6.688
 2866SOL    HW1 9497   0.665   6.235   6.665
 2866SOL    HW2 9498   0.537   6.336   6.673
 2867SOL     OW 9499   6.490   4.320   3.952
 2867SOL    HW1 9500   6.560   4.251   3.970
 2867SOL    HW2 9501   6.419   4.281   3.893
 2868SOL     OW 9502   1.668   3.795   5.417
 2868SOL    HW1 9503   1.688   3.742   5.334
 2868SOL    HW2 9504   1.709   3.749   5.496
 2869SOL     OW 9505   5.747   1.317   2.410
 2869SOL    HW1 9506   5.738   1.293   2.314
 2869SOL    HW2 9507   5.767   1.415   2.418
 2870SOL     OW 9508   5.749   2.259   2.529
 2870SOL    HW1 9509   5.785   2.218   2.612
 2870SOL    HW2 9510   5.824   2.300   2.477
 2871SOL     OW 9511   1.594   2.152   6.402
 2871SOL    HW1 9512   1.498   2.174   6.420
 2871SOL    HW2 9513   1.610   2.150   6.303
 2872SOL     OW 9514   2.376   0.021   3.766
 2872SOL    HW1 9515   2.473   7.024   3.757
 2872SOL    HW2 9516   2.350   0.086   3.694
 2873SOL     OW 9517   0.662   5.519   1.699
 2873SOL    HW1 9518   0.716   5.553   1.622
 2873SOL    HW2 9519   0.579   5.475   1.665
 2874SOL     OW 9520   6.217   2.619   2.530
 2874SOL    HW1 9521   6.175   2.621   2.440
 2874SOL    HW2 9522   6.148   2.640   2.600
 2875SOL     OW 9523   3.596   5.081   6.487
 2875SOL    HW1 9524   3.622   5.056   6.394
 2875SOL    HW2 9525   3.598   5.000   6.545
 2876SOL     OW 9526   0.213   0.986   1.487
 2876SOL    HW1 9527   0.125   0.954   1.452
 2876SOL    HW2 9528   0.278   0.995   1.412
 2877SOL     OW 9529   3.058   2.751   5.358
 2877SOL    HW1 9530   3.043   2.824   5.292
 2877SOL    HW2 9531   3.114   2.786   5.434
 2878SOL     OW 9532   2.651   4.628   5.714
 2878SOL    HW1 9533   2.724   4.606   5.648
 2878SOL    HW2 9534   2.660   4.723   5.744
 2879SOL     OW 9535   5.090   4.187   0.529
 2879SOL    HW1 9536   4.994   4.164   0.548
 2879SOL    HW2 9537   5.146   4.159   0.607
 2880SOL     OW 9538   1.326   6.352   1.767
 2880SOL    HW1 9539   1.311   6.260   1.731
 2880SOL    HW2 9540   1.336   6.417   1.692
 2881SOL     OW 9541   6.951   6.440   1.025
 2881SOL    HW1 9542   6.899   6.381   0.964
 2881SOL    HW2 9543   0.023   6.418   1.018
 2882SOL     OW 9544   0.045   3.136   3.241
 2882SOL    HW1 9545   7.019   3.154   3.157
 2882SOL    HW2 9546   0.023   3.206   3.309
 2883SOL     OW 9547   3.735   0.270   2.192
 2883SOL    HW1 9548   3.669   0.267   2.267
 2883SOL    HW2 9549   3.768   0.364   2.180
 2884SOL     OW 9550   0.810   5.817   3.372
 2884SOL    HW1 9551   0.805   5.811   3.272
 2884SOL    HW2 9552   0.731   5.771   3.412
 2885SOL     OW 9553   0.735   2.792   3.297
 2885SOL    HW1 9554   0.637   2.774   3.285
 2885SOL    HW2 9555   0.773   2.728   3.364
 2886SOL     OW 9556   2.656   2.304   6.120
 2886SOL    HW1 9557   2.567   2.348   6.132
 2886SOL    HW2 9558   2.726   2.357   6.167
 2887SOL     OW 9559   1.460   0.808   4.883
 2887SOL    HW1 9560   1.403   0.886   4.908
 2887SOL    HW2 9561   1.418   0.724   4.917
 2888SOL     OW 9562   6.030   4.734   6.974
 2888SOL    HW1 9563   6.072   4.674   6.907
 2888SOL    HW2 9564   6.000   4.818   6.929
 2889SOL     OW 9565   0.356   0.179   1.506
 2889SOL    HW1 9566   0.418   0.221   1.572
 2889SOL    HW2 9567   0.263   0.215   1.520
 2890SOL     OW 9568   4.153   0.565   2.022
 2890SOL    HW1 9569   4.087   0.563   1.946
 2890SOL    HW2 9570   4.121   0.629   2.092
 2891SOL     OW 9571   2.471   4.616   3.954
 2891SOL    HW1 9572   2.528   4.546   3.911
 2891SOL    HW2 9573   2.414   4.660   3.884
 2892SOL     OW 9574   4.462   3.862   6.258
 2892SOL    HW1 9575   4.452   3.955   6.222
 2892SOL    HW2 9576   4.428   3.797   6.190
 2893SOL     OW 9577   2.445   0.304   5.139
 2893SOL    HW1 9578   2.381   0.359   5.085
 2893SOL    HW2 9579   2.420   0.309   5.236
 2894SOL     OW 9580   3.689   2.777   6.873
 2894SOL    HW1 9581   3.774   2.730   6.851
 2894SOL    HW2 9582   3.694   2.811   6.967
 2895SOL     OW 9583   3.677   3.535   6.140
 2895SOL    HW1 9584   3.725   3.525   6.054
 2895SOL    HW2 9585   3.702   3.461   6.202
 2896SOL     OW 9586   2.678   4.943   0.798
 2896SOL    HW1 9587   2.774   4.913   0.802
 2896SOL    HW2 9588   2.636   4.930   0.888
 2897SOL     OW 9589   1.930   5.908   3.963
 2897SOL    HW1 9590   1.963   5.821   4.000
 2897SOL    HW2 9591   2.008   5.964   3.936
 2898SOL     OW 9592   3.554   5.568   1.941
 2898SOL    HW1 9593   3.651   5.592   1.935
 2898SOL    HW2 9594   3.500   5.651   1.954
 2899SOL     OW 9595   6.752   7.001   0.099
 2899SOL    HW1 9596   6.668   6.987   0.046
 2899SOL    HW2 9597   6.728   0.015   0.188
 2900SOL     OW 9598   1.603   5.099   5.818
 2900SOL    HW1 9599   1.644   5.104   5.727
 2900SOL    HW2 9600   1.537   5.024   5.821
 2901SOL     OW 9601   2.955   0.546   1.653
 2901SOL    HW1 9602   2.927   0.557   1.749
 2901SOL    HW2 9603   2.925   0.456   1.621
 2902SOL     OW 9604   5.569   5.960   0.863
 2902SOL    HW1 9605   5.614   6.049   0.858
 2902SOL    HW2 9606   5.621   5.900   0.924
 2903SOL     OW 9607   2.001   1.254   1.712
 2903SOL    HW1 9608   2.066   1.320   1.751
 2903SOL    HW2 9609   2.047   1.200   1.641
 2904SOL     OW 9610   2.273   2.591   5.066
 2904SOL    HW1 9611   2.324   2.651   5.127
 2904SOL    HW2 9612   2.281   2.624   4.972
 2905SOL     OW 9613   1.786   2.263   2.074
 2905SOL    HW1 9614   1.736   2.350   2.073
 2905SOL    HW2 9615   1.841   2.257   2.158
 2906SOL     OW 9616   5.225   5.515   2.148
 2906SOL    HW1 9617   5.129   5.489   2.156
 2906SOL    HW2 9618   5.283   5.442   2.185
 2907SOL     OW 9619   6.589   1.458   4.214
 2907SOL    HW1 9620   6.640   1.398   4.153
 2907SOL    HW2 9621   6.492   1.456   4.190
 2908SOL     OW 9622   3.427   5.992   4.454
 2908SOL    HW1 9623   3.430   6.067   4.520
 2908SOL    HW2 9624   3.341   5.942   4.464
 2909SOL     OW 9625   1.239   5.660   4.725
 2909SOL    HW1 9626   1.334   5.641   4.748
 2909SOL    HW2 9627   1.232   5.749   4.680
 2910SOL     OW 9628   4.594   6.106   6.410
 2910SOL    HW1 9629   4.574   6.181   6.347
 2910SOL    HW2 9630   4.566   6.132   6.503
 2911SOL     OW 9631   2.055   4.499   3.170
 2911SOL    HW1 9632   2.126   4.466   3.109
 2911SOL    HW2 9633   2.025   4.590   3.141
 2912SOL     OW 9634   2.597   6.334   0.368
 2912SOL    HW1 9635   2.634   6.422   0.395
 2912SOL    HW2 9636   2.668   6.280   0.323
 2913SOL     OW 9637   1.811   3.878   2.726
 2913SOL    HW1 9638   1.875   3.805   2.751
 2913SOL    HW2 9639   1.838   3.917   2.638
 2914SOL     OW 9640   5.445   5.684   5.847
 2914SOL    HW1 9641   5.499   5.606   5.816
 2914SOL    HW2 9642   5.378   5.709   5.778
 2915SOL     OW 9643   4.753   1.579   3.595
 2915SOL    HW1 9644   4.757   1.662   3.539
 2915SOL    HW2 9645   4.807   1.592   3.677
 2916SOL     OW 9646   5.339   5.618   4.984
 2916SOL    HW1 9647   5.380   5.575   5.065
 2916SOL    HW2 9648   5.412   5.653   4.925
 2917SOL     OW 9649   4.655   0.463   2.302
 2917SOL    HW1 9650   4.589   0.512   2.246
 2917SOL    HW2 9651   4.743   0.460   2.255
 2918SOL     OW 9652   0.480   3.892   3.843
 2918SOL    HW1 9653   0.467   3.809   3.789
 2918SOL    HW2 9654   0.477   3.972   3.783
 2919SOL     OW 9655   6.023   5.709   0.504
 2919SOL    HW1 9656   6.063   5.722   0.595
 2919SOL    HW2 9657   6.083   5.751   0.435
 2920SOL     OW 9658   3.937   2.188   2.870
 2920SOL    HW1 9659   3.959   2.177   2.773
 2920SOL    HW2 9660   3.838   2.188   2.881
 2921SOL     OW 9661   0.121   0.522   2.186
 2921SOL    HW1 9662   0.214   0.488   2.168
 2921SOL    HW2 9663   0.060   0.494   2.112
 2922SOL     OW 9664   4.295   6.725   5.502
 2922SOL    HW1 9665   4.354   6.662   5.552
 2922SOL    HW2 9666   4.339   6.749   5.415
 2923SOL     OW 9667   6.278   4.743   1.952
 2923SOL    HW1 9668   6.179   4.746   1.966
 2923SOL    HW2 9669   6.300   4.780   1.861
 2924SOL     OW 9670   0.405   1.439   5.343
 2924SOL    HW1 9671   0.458   1.439   5.258
 2924SOL    HW2 9672   0.399   1.346   5.379
 2925SOL     OW 9673   5.493   3.157   1.457
 2925SOL    HW1 9674   5.564   3.143   1.527
 2925SOL    HW2 9675   5.537   3.189   1.373
 2926SOL     OW 9676   0.204   1.658   4.638
 2926SOL    HW1 9677   0.203   1.701   4.728
 2926SOL    HW2 9678   0.118   1.611   4.622
 2927SOL     OW 9679   0.804   2.670   2.156
 2927SOL    HW1 9680   0.886   2.623   2.188
 2927SOL    HW2 9681   0.826   2.766   2.140
 2928SOL     OW 9682   5.668   0.057   0.650
 2928SOL    HW1 9683   5.665   0.154   0.675
 2928SOL    HW2 9684   5.639   0.002   0.728
 2929SOL     OW 9685   0.445   6.794   6.006
 2929SOL    HW1 9686   0.375   6.743   6.056
 2929SOL    HW2 9687   0.411   6.815   5.914
 2930SOL     OW 9688   3.854   6.646   4.759
 2930SOL    HW1 9689   3.788   6.580   4.795
 2930SOL    HW2 9690   3.848   6.647   4.659
 2931SOL     OW 9691   4.381   6.716   6.108
 2931SOL    HW1 9692   4.360   6.807   6.143
 2931SOL    HW2 9693   4.338   6.647   6.166
 2932SOL     OW 9694   1.116   4.306   1.456
 2932SOL    HW1 9695   1.024   4.276   1.480
 2932SOL    HW2 9696   1.111   4.390   1.402
 2933SOL     OW 9697   5.334   2.019   3.436
 2933SOL    HW1 9698   5.355   1.927   3.402
 2933SOL    HW2 9699   5.237   2.025   3.460
 2934SOL     OW 9700   2.575   0.999   0.143
 2934SOL    HW1 9701   2.485   0.971   0.178
 2934SOL    HW2 9702   2.632   0.918   0.130
 2935SOL     OW 9703   5.860   2.505   1.195
 2935SOL    HW1 9704   5.919   2.454   1.257
 2935SOL    HW2 9705   5.849   2.599   1.228
 2936SOL     OW 9706   5.034   5.955   0.245
 2936SOL    HW1 9707   5.051   5.933   0.149
 2936SOL    HW2 9708   5.107   5.917   0.302
 2937SOL     OW 9709   3.261   5.079   6.818
 2937SOL    HW1 9710   3.326   5.124   6.880
 2937SOL    HW2 9711   3.245   5.138   6.738
 2938SOL     OW 9712   4.661   5.296   5.061
 2938SOL    HW1 9713   4.609   5.213   5.039
 2938SOL    HW2 9714   4.615   5.346   5.134
 2939SOL     OW 9715   6.968   6.477   5.407
 2939SOL    HW1 9716   7.007   6.408   5.468
 2939SOL    HW2 9717   6.878   6.447   5.377
 2940SOL     OW 9718   5.106   6.601   5.089
 2940SOL    HW1 9719   5.132   6.508   5.118
 2940SOL    HW2 9720   5.181   6.642   5.038
 2941SOL     OW 9721   1.850   2.001   5.466
 2941SOL    HW1 9722   1.896   2.037   5.547
 2941SOL    HW2 9723   1.822   1.906   5.483
 2942SOL     OW 9724   3.050   6.442   3.002
 2942SOL    HW1 9725   3.087   6.418   3.092
 2942SOL    HW2 9726   3.087   6.530   2.973
 2943SOL     OW 9727   5.899   3.855   3.448
 2943SOL    HW1 9728   5.932   3.777   3.395
 2943SOL    HW2 9729   5.893   3.936   3.388
 2944SOL     OW 9730   4.213   5.891   5.862
 2944SOL    HW1 9731   4.286   5.825   5.878
 2944SOL    HW2 9732   4.125   5.848   5.875
 2945SOL     OW 9733   3.191   2.989   3.156
 2945SOL    HW1 9734   3.098   3.023   3.170
 2945SOL    HW2 9735   3.242   2.996   3.242
 2946SOL     OW 9736   6.967   5.829   6.584
 2946SOL    HW1 9737   6.892   5.838   6.650
 2946SOL    HW2 9738   0.017   5.889   6.610
 2947SOL     OW 9739   6.321   4.599   0.569
 2947SOL    HW1 9740   6.232   4.644   0.562
 2947SOL    HW2 9741   6.338   4.544   0.487
 2948SOL     OW 9742   5.709   3.924   4.736
 2948SOL    HW1 9743   5.655   3.980   4.674
 2948SOL    HW2 9744   5.806   3.934   4.715
 2949SOL     OW 9745   1.422   6.581   0.527
 2949SOL    HW1 9746   1.499   6.532   0.486
 2949SOL    HW2 9747   1.454   6.666   0.568
 2950SOL     OW 9748   5.323   3.406   4.484
 2950SOL    HW1 9749   5.388   3.409   4.561
 2950SOL    HW2 9750   5.348   3.476   4.417
 2951SOL     OW 9751   0.585   1.738   1.436
 2951SOL    HW1 9752   0.653   1.683   1.484
 2951SOL    HW2 9753   0.579   1.709   1.341
 2952SOL     OW 9754   1.894   3.990   2.487
 2952SOL    HW1 9755   1.842   4.076   2.493
 2952SOL    HW2 9756   1.864   3.939   2.406
 2953SOL     OW 9757   4.916   2.342   2.134
 2953SOL    HW1 9758   4.960   2.422   2.174
 2953SOL    HW2 9759   4.909   2.270   2.203
 2954SOL     OW 9760   6.412   6.648   2.723
 2954SOL    HW1 9761   6.466   6.564   2.729
 2954SOL    HW2 9762   6.369   6.666   2.812
 2955SOL     OW 9763   0.733   3.048   0.304
 2955SOL    HW1 9764   0.747   3.004   0.215
 2955SOL    HW2 9765   0.804   3.017   0.368
 2956SOL     OW 9766   6.905   5.309   2.673
 2956SOL    HW1 9767   6.982   5.373   2.680
 2956SOL    HW2 9768   6.828   5.355   2.628
 2957SOL     OW 9769   1.306   3.718   2.140
 2957SOL    HW1 9770   1.281   3.643   2.201
 2957SOL    HW2 9771   1.223   3.762   2.105
 2958SOL     OW 9772   1.909   4.651   5.998
 2958SOL    HW1 9773   1.901   4.745   6.032
 2958SOL    HW2 9774   1.932   4.590   6.074
 2959SOL     OW 9775   4.697   5.384   6.630
 2959SOL    HW1 9776   4.657   5.436   6.554
 2959SOL    HW2 9777   4.625   5.332   6.677
 2960SOL     OW 9778   1.600   1.655   0.439
 2960SOL    HW1 9779   1.516   1.694   0.476
 2960SOL    HW2 9780   1.586   1.559   0.416
 2961SOL     OW 9781   5.754   3.702   3.957
 2961SOL    HW1 9782   5.775   3.698   3.859
 2961SOL    HW2 9783   5.782   3.616   4.000
 2962SOL     OW 9784   4.467   0.589   3.469
 2962SOL    HW1 9785   4.409   0.670   3.469
 2962SOL    HW2 9786   4.411   0.508   3.450
 2963SOL     OW 9787   2.201   1.534   5.030
 2963SOL    HW1 9788   2.282   1.511   4.977
 2963SOL    HW2 9789   2.227   1.587   5.111
 2964SOL     OW 9790   3.323   6.068   0.583
 2964SOL    HW1 9791   3.257   6.127   0.628
 2964SOL    HW2 9792   3.280   6.020   0.507
 2965SOL     OW 9793   0.226   1.747   6.264
 2965SOL    HW1 9794   0.280   1.685   6.321
 2965SOL    HW2 9795   0.130   1.721   6.268
 2966SOL     OW 9796   4.879   4.633   4.006
 2966SOL    HW1 9797   4.964   4.617   3.956
 2966SOL    HW2 9798   4.856   4.731   4.002
 2967SOL     OW 9799   6.079   2.743   3.966
 2967SOL    HW1 9800   6.089   2.686   4.047
 2967SOL    HW2 9801   5.998   2.800   3.976
 2968SOL     OW 9802   0.623   4.462   3.639
 2968SOL    HW1 9803   0.674   4.429   3.719
 2968SOL    HW2 9804   0.548   4.399   3.620
 2969SOL     OW 9805   5.100   1.959   4.717
 2969SOL    HW1 9806   5.198   1.965   4.735
 2969SOL    HW2 9807   5.079   2.005   4.630
 2970SOL     OW 9808   1.216   4.128   6.486
 2970SOL    HW1 9809   1.141   4.181   6.525
 2970SOL    HW2 9810   1.283   4.191   6.446
 2971SOL     OW 9811   5.224   1.998   2.554
 2971SOL    HW1 9812   5.251   1.936   2.628
 2971SOL    HW2 9813   5.218   1.947   2.469
 2972SOL     OW 9814   6.811   3.657   5.260
 2972SOL    HW1 9815   6.733   3.628   5.204
 2972SOL    HW2 9816   6.869   3.578   5.280
 2973SOL     OW 9817   5.266   6.410   3.703
 2973SOL    HW1 9818   5.314   6.361   3.630
 2973SOL    HW2 9819   5.267   6.354   3.787
 2974SOL     OW 9820   6.840   4.192   2.418
 2974SOL    HW1 9821   6.908   4.122   2.441
 2974SOL    HW2 9822   6.748   4.152   2.423
 2975SOL     OW 9823   0.154   0.762   5.493
 2975SOL    HW1 9824   0.066   0.716   5.481
 2975SOL    HW2 9825   0.162   0.796   5.587
 2976SOL     OW 9826   3.546   0.624   2.344
 2976SOL    HW1 9827   3.597   0.695   2.294
 2976SOL    HW2 9828   3.496   0.568   2.279
 2977SOL     OW 9829   3.127   6.314   3.978
 2977SOL    HW1 9830   3.027   6.317   3.982
 2977SOL    HW2 9831   3.156   6.287   3.886
 2978SOL     OW 9832   5.584   4.874   6.902
 2978SOL    HW1 9833   5.565   4.958   6.953
 2978SOL    HW2 9834   5.533   4.875   6.816
 2979SOL     OW 9835   3.998   0.342   3.077
 2979SOL    HW1 9836   4.008   0.337   3.177
 2979SOL    HW2 9837   4.050   0.267   3.035
 2980SOL     OW 9838   0.197   5.971   4.264
 2980SOL    HW1 9839   0.246   5.885   4.256
 2980SOL    HW2 9840   0.232   6.037   4.198
 2981SOL     OW 9841   2.053   1.128   5.769
 2981SOL    HW1 9842   2.017   1.034   5.773
 2981SOL    HW2 9843   2.038   1.165   5.677
 2982SOL     OW 9844   4.722   6.473   2.248
 2982SOL    HW1 9845   4.670   6.511   2.172
 2982SOL    HW2 9846   4.820   6.472   2.224
 2983SOL     OW 9847   6.539   0.809   3.656
 2983SOL    HW1 9848   6.537   0.712   3.630
 2983SOL    HW2 9849   6.613   0.825   3.721
 2984SOL     OW 9850   5.537   5.510   1.810
 2984SOL    HW1 9851   5.482   5.592   1.795
 2984SOL    HW2 9852   5.564   5.505   1.906
 2985SOL     OW 9853   6.406   2.367   3.028
 2985SOL    HW1 9854   6.445   2.359   2.936
 2985SOL    HW2 9855   6.316   2.411   3.022
 2986SOL     OW 9856   1.732   3.464   5.120
 2986SOL    HW1 9857   1.768   3.381   5.162
 2986SOL    HW2 9858   1.728   3.452   5.021
 2987SOL     OW 9859   4.244   2.161   4.327
 2987SOL    HW1 9860   4.196   2.217   4.259
 2987SOL    HW2 9861   4.177   2.108   4.379
 2988SOL     OW 9862   0.947   0.383   1.647
 2988SOL    HW1 9863   0.936   0.339   1.558
 2988SOL    HW2 9864   1.008   0.462   1.638
 2989SOL     OW 9865   6.868   5.014   1.342
 2989SOL    HW1 9866   6.847   5.110   1.360
 2989SOL    HW2 9867   6.784   4.960   1.343
 2990SOL     OW 9868   4.054   1.166   1.691
 2990SOL    HW1 9869   4.098   1.146   1.605
 2990SOL    HW2 9870   4.112   1.226   1.746
 2991SOL     OW 9871   6.999   3.821   0.279
 2991SOL    HW1 9872   6.989   3.728   0.313
 2991SOL    HW2 9873   6.909   3.865   0.277
 2992SOL     OW 9874   3.422   5.328   6.312
 2992SOL    HW1 9875   3.360   5.282   6.249
 2992SOL    HW2 9876   3.475   5.261   6.363
 2993SOL     OW 9877   1.417   5.403   1.402
 2993SOL    HW1 9878   1.470   5.362   1.327
 2993SOL    HW2 9879   1.357   5.333   1.441
 2994SOL     OW 9880   4.973   6.667   6.825
 2994SOL    HW1 9881   5.022   6.649   6.740
 2994SOL    HW2 9882   5.020   6.740   6.875
 2995SOL     OW 9883   1.923   1.448   6.612
 2995SOL    HW1 9884   1.925   1.360   6.564
 2995SOL    HW2 9885   2.007   1.498   6.591
 2996SOL     OW 9886   4.323   5.044   6.335
 2996SOL    HW1 9887   4.409   5.054   6.384
 2996SOL    HW2 9888   4.338   5.056   6.237
 2997SOL     OW 9889   5.676   6.754   0.680
 2997SOL    HW1 9890   5.706   6.824   0.745
 2997SOL    HW2 9891   5.577   6.759   0.668
 2998SOL     OW 9892   6.096   5.669   4.423
 2998SOL    HW1 9893   6.026   5.733   4.393
 2998SOL    HW2 9894   6.054   5.592   4.470
 2999SOL     OW 9895   3.390   0.037   3.324
 2999SOL    HW1 9896   3.314   0.025   3.388
 2999SOL    HW2 9897   3.407   0.135   3.310
 3000SOL     OW 9898   1.186   2.960   5.716
 3000SOL    HW1 9899   1.247   3.029   5.757
 3000SOL    HW2 9900   1.091   2.985   5.735
 3001SOL     OW 9901   4.869   6.758   5.472
 3001SOL    HW1 9902   4.924   6.761   5.555
 3001SOL    HW2 9903   4.774   6.736   5.495
 3002SOL     OW 9904   3.710   0.292   6.057
 3002SOL    HW1 9905   3.798   0.327   6.024
 3002SOL    HW2 9906   3.692   0.328   6.149
 3003SOL     OW 9907   2.720   6.676   5.970
 3003SOL    HW1 9908   2.694   6.586   5.933
 3003SOL    HW2 9909   2.688   6.748   5.908
 3004SOL     OW 9910   5.828   2.895   4.433
 3004SOL    HW1 9911   5.798   2.800   4.438
 3004SOL    HW2 9912   5.760   2.954   4.478
 3005SOL     OW 9913   4.288   2.699   1.213
 3005SOL    HW1 9914   4.254   2.622   1.159
 3005SOL    HW2 9915   4.212   2.759   1.237
 3006SOL     OW 9916   5.363   0.670   1.460
 3006SOL    HW1 9917   5.359   0.766   1.489
 3006SOL    HW2 9918   5.433   0.623   1.514
 3007SOL     OW 9919   6.099   4.898   3.002
 3007SOL    HW1 9920   6.054   4.984   2.976
 3007SOL    HW2 9921   6.114   4.896   3.100
 3008SOL     OW 9922   3.324   6.444   5.839
 3008SOL    HW1 9923   3.249   6.379   5.827
 3008SOL    HW2 9924   3.293   6.521   5.895
 3009SOL     OW 9925   1.386   6.665   3.430
 3009SOL    HW1 9926   1.484   6.653   3.441
 3009SOL    HW2 9927   1.362   6.762   3.443
 3010SOL     OW 9928   3.565   5.984   2.849
 3010SOL    HW1 9929   3.656   5.954   2.820
 3010SOL    HW2 9930   3.557   6.083   2.837
 3011SOL     OW 9931   5.337   0.178   0.171
 3011SOL    HW1 9932   5.324   0.095   0.226
 3011SOL    HW2 9933   5.383   0.154   0.086
 3012SOL     OW 9934   0.524   4.037   3.210
 3012SOL    HW1 9935   0.506   3.975   3.287
 3012SOL    HW2 9936   0.453   4.107   3.206
 3013SOL     OW 9937   6.009   4.843   2.382
 3013SOL    HW1 9938   5.957   4.760   2.361
 3013SOL    HW2 9939   5.994   4.868   2.478
 3014SOL     OW 9940   4.612   0.759   4.396
 3014SOL    HW1 9941   4.631   0.682   4.335
 3014SOL    HW2 9942   4.692   0.775   4.455
 3015SOL     OW 9943   3.122   2.248   0.577
 3015SOL    HW1 9944   3.106   2.159   0.619
 3015SOL    HW2 9945   3.206   2.288   0.614
 3016SOL     OW 9946   3.756   6.839   3.331
 3016SOL    HW1 9947   3.736   6.817   3.426
 3016SOL    HW2 9948   3.761   6.755   3.277
 3017SOL     OW 9949   0.324   6.108   1.138
 3017SOL    HW1 9950   0.292   6.157   1.219
 3017SOL    HW2 9951   0.371   6.024   1.166
 3018SOL     OW 9952   3.988   6.232   6.882
 3018SOL    HW1 9953   4.000   6.152   6.824
 3018SOL    HW2 9954   3.994   6.205   6.978
 3019SOL     OW 9955   4.023   6.822   1.343
 3019SOL    HW1 9956   4.108   6.783   1.379
 3019SOL    HW2 9957   3.982   6.882   1.411
 3020SOL     OW 9958   2.387   3.065   1.060
 3020SOL    HW1 9959   2.293   3.039   1.036
 3020SOL    HW2 9960   2.391   3.088   1.158
 3021SOL     OW 9961   1.999   2.336   6.987
 3021SOL    HW1 9962   2.073   2.292   0.012
 3021SOL    HW2 9963   2.014   2.434   6.983
 3022SOL     OW 9964   5.043   6.999   2.801
 3022SOL    HW1 9965   5.100   0.040   2.848
 3022SOL    HW2 9966   5.100   6.938   2.746
 3023SOL     OW 9967   4.868   5.936   2.477
 3023SOL    HW1 9968   4.896   6.021   2.433
 3023SOL    HW2 9969   4.864   5.863   2.409
 3024SOL     OW 9970   3.197   6.896   6.947
 3024SOL    HW1 9971   3.261   6.946   6.889
 3024SOL    HW2 9972   3.248   6.854   7.023
 3025SOL     OW 9973   2.316   2.834   1.386
 3025SOL    HW1 9974   2.283   2.744   1.411
 3025SOL    HW2 9975   2.407   2.827   1.345
 3026SOL     OW 9976   2.263   3.892   0.700
 3026SOL    HW1 9977   2.314   3.953   0.761
 3026SOL    HW2 9978   2.166   3.917   0.702
 3027SOL     OW 9979   1.789   1.998   3.214
 3027SOL    HW1 9980   1.824   1.904   3.209
 3027SOL    HW2 9981   1.736   2.018   3.131
 3028SOL     OW 9982   1.528   6.354   5.712
 3028SOL    HW1 9983   1.483   6.443   5.704
 3028SOL    HW2 9984   1.459   6.282   5.712
 3029SOL     OW 9985   5.684   5.789   5.297
 3029SOL    HW1 9986   5.714   5.694   5.301
 3029SOL    HW2 9987   5.727   5.841   5.371
 3030SOL     OW 9988   1.522   2.120   5.476
 3030SOL    HW1 9989   1.498   2.048   5.541
 3030SOL    HW2 9990   1.512   2.085   5.383
 3031SOL     OW 9991   0.275   4.943   6.246
 3031SOL    HW1 9992   0.248   4.993   6.328
 3031SOL    HW2 9993   0.208   4.960   6.174
 3032SOL     OW 9994   5.198   0.497   5.555
 3032SOL    HW1 9995   5.271   0.535   5.612
 3032SOL    HW2 9996   5.196   0.398   5.566
 3033SOL     OW 9997   6.881   4.111   6.696
 3033SOL    HW1 9998   6.912   4.062   6.614
 3033SOL    HW2 9999   6.961   4.142   6.748
 3034SOL     OW10000   2.676   6.446   4.661
 3034SOL    HW110001   2.704   6.540   4.645
 3034SOL    HW210002   2.632   6.439   4.751
 3035SOL     OW10003   5.643   1.141   0.045
 3035SOL    HW110004   5.572   1.149   7.001
 3035SOL    HW210005   5.655   1.229   0.091
 3036SOL     OW10006   1.097   4.393   0.459
 3036SOL    HW110007   1.140   4.483   0.460
 3036SOL    HW210008   1.110   4.351   0.369
 3037SOL     OW10009   6.478   6.446   5.341
 3037SOL    HW110010   6.444   6.504   5.268
 3037SOL    HW210011   6.570   6.413   5.318
 3038SOL     OW10012   5.636   6.732   6.043
 3038SOL    HW110013   5.695   6.669   6.093
 3038SOL    HW210014   5.593   6.796   6.107
 3039SOL     OW10015   0.689   4.607   1.575
 3039SOL    HW110016   0.734   4.695   1.594
 3039SOL    HW210017   0.681   4.596   1.476
 3040SOL     OW10018   2.885   3.340   0.067
 3040SOL    HW110019   2.854   3.264   0.010
 3040SOL    HW210020   2.935   3.304   0.146
 3041SOL     OW10021   2.208   2.285   6.088
 3041SOL    HW110022   2.153   2.224   6.146
 3041SOL    HW210023   2.285   2.234   6.051
 3042SOL     OW10024   4.439   0.489   2.004
 3042SOL    HW110025   4.419   0.430   2.082
 3042SOL    HW210026   4.354   0.509   1.954
 3043SOL     OW10027   0.833   5.757   0.811
 3043SOL    HW110028   0.810   5.820   0.738
 3043SOL    HW210029   0.766   5.683   0.813
 3044SOL     OW10030   3.352   4.699   6.118
 3044SOL    HW110031   3.441   4.724   6.157
 3044SOL    HW210032   3.354   4.604   6.087
 3045SOL     OW10033   5.720   2.322   3.111
 3045SOL    HW110034   5.772   2.330   3.026
 3045SOL    HW210035   5.664   2.404   3.123
 3046SOL     OW10036   1.568   2.612   5.813
 3046SOL    HW110037   1.578   2.691   5.753
 3046SOL    HW210038   1.595   2.529   5.764
 3047SOL     OW10039   6.245   5.113   2.382
 3047SOL    HW110040   6.190   5.053   2.440
 3047SOL    HW210041   6.189   5.190   2.352
 3048SOL     OW10042   2.987   2.951   1.721
 3048SOL    HW110043   3.052   2.939   1.796
 3048SOL    HW210044   2.978   2.866   1.670
 3049SOL     OW10045   0.728   0.332   2.519
 3049SOL    HW110046   0.707   0.430   2.516
 3049SOL    HW210047   0.813   0.314   2.470
 3050SOL     OW10048   4.553   5.761   4.149
 3050SOL    HW110049   4.630   5.809   4.109
 3050SOL    HW210050   4.585   5.679   4.196
 3051SOL     OW10051   2.767   4.685   7.006
 3051SOL    HW110052   2.696   4.709   6.940
 3051SOL    HW210053   2.836   4.628   6.962
 3052SOL     OW10054   4.290   6.671   3.208
 3052SOL    HW110055   4.303   6.573   3.223
 3052SOL    HW210056   4.345   6.723   3.273
 3053SOL     OW10057   5.949   6.655   0.199
 3053SOL    HW110058   5.913   6.577   0.147
 3053SOL    HW210059   6.011   6.622   0.270
 3054SOL     OW10060   0.810   2.935   0.088
 3054SOL    HW110061   0.865   3.016   0.067
 3054SOL    HW210062   0.856   2.853   0.056
 3055SOL     OW10063   5.763   6.375   3.436
 3055SOL    HW110064   5.677   6.419   3.412
 3055SOL    HW210065   5.745   6.279   3.460
 3056SOL     OW10066   6.931   0.593   0.894
 3056SOL    HW110067   6.984   0.569   0.975
 3056SOL    HW210068   6.989   0.584   0.813
 3057SOL     OW10069   6.105   5.286   2.740
 3057SOL    HW110070   6.041   5.225   2.692
 3057SOL    HW210071   6.168   5.231   2.796
 3058SOL     OW10072   6.571   5.346   1.757
 3058SOL    HW110073   6.664   5.314   1.774
 3058SOL    HW210074   6.509   5.307   1.824
 3059SOL     OW10075   1.767   2.107   4.599
 3059SOL    HW110076   1.819   2.040   4.547
 3059SOL    HW210077   1.829   2.155   4.662
 3060SOL     OW10078   6.394   6.325   1.445
 3060SOL    HW110079   6.343   6.248   1.484
 3060SOL    HW210080   6.330   6.387   1.400
 3061SOL     OW10081   0.420   0.376   6.091
 3061SOL    HW110082   0.370   0.451   6.134
 3061SOL    HW210083   0.377   0.289   6.114
 3062SOL     OW10084   3.243   6.603   0.751
 3062SOL    HW110085   3.192   6.530   0.796
 3062SOL    HW210086   3.341   6.592   0.771
 3063SOL     OW10087   1.855   5.110   1.034
 3063SOL    HW110088   1.812   5.189   0.991
 3063SOL    HW210089   1.950   5.132   1.056
 3064SOL     OW10090   5.959   4.021   3.188
 3064SOL    HW110091   5.961   4.023   3.088
 3064SOL    HW210092   5.961   4.114   3.223
 3065SOL     OW10093   1.720   1.134   0.423
 3065SOL    HW110094   1.793   1.203   0.420
 3065SOL    HW210095   1.724   1.079   0.339
 3066SOL     OW10096   6.068   4.785   1.529
 3066SOL    HW110097   6.029   4.718   1.592
 3066SOL    HW210098   6.094   4.867   1.581
 3067SOL     OW10099   4.982   6.874   4.390
 3067SOL    HW110100   4.981   6.789   4.442
 3067SOL    HW210101   4.896   6.923   4.405
 3068SOL     OW10102   5.797   4.898   0.756
 3068SOL    HW110103   5.891   4.916   0.786
 3068SOL    HW210104   5.762   4.817   0.802
 3069SOL     OW10105   0.424   6.058   2.111
 3069SOL    HW110106   0.387   6.026   2.024
 3069SOL    HW210107   0.399   5.994   2.184
 3070SOL     OW10108   3.576   1.257   4.005
 3070SOL    HW110109   3.613   1.345   3.977
 3070SOL    HW210110   3.485   1.245   3.965
 3071SOL     OW10111   5.408   0.089   3.497
 3071SOL    HW110112   5.402   0.093   3.597
 3071SOL    HW210113   5.487   0.142   3.467
 3072SOL     OW10114   0.510   6.846   2.271
 3072SOL    HW110115   0.568   6.812   2.345
 3072SOL    HW210116   0.414   6.825   2.291
 3073SOL     OW10117   1.209   3.536   5.552
 3073SOL    HW110118   1.182   3.573   5.641
 3073SOL    HW210119   1.156   3.582   5.480
 3074SOL     OW10120   4.593   2.852   6.133
 3074SOL    HW110121   4.654   2.777   6.106
 3074SOL    HW210122   4.499   2.818   6.135
 3075SOL     OW10123   1.300   5.631   1.223
 3075SOL    HW110124   1.321   5.570   1.299
 3075SOL    HW210125   1.346   5.599   1.140
 3076SOL     OW10126   6.384   0.862   5.028
 3076SOL    HW110127   6.374   0.885   4.932
 3076SOL    HW210128   6.478   0.830   5.045
 3077SOL     OW10129   5.436   4.779   4.142
 3077SOL    HW110130   5.358   4.746   4.195
 3077SOL    HW210131   5.505   4.817   4.205
 3078SOL     OW10132   1.685   3.874   1.934
 3078SOL    HW110133   1.762   3.825   1.975
 3078SOL    HW210134   1.680   3.853   1.837
 3079SOL     OW10135   0.061   2.132   5.027
 3079SOL    HW110136   0.013   2.213   4.993
 3079SOL    HW210137   0.112   2.157   5.110
 3080SOL     OW10138   6.395   5.027   0.407
 3080SOL    HW110139   6.323   4.994   0.346
 3080SOL    HW210140   6.375   5.122   0.434
 3081SOL     OW10141   0.337   4.811   5.141
 3081SOL    HW110142   0.340   4.746   5.217
 3081SOL    HW210143   0.401   4.886   5.159
 3082SOL     OW10144   3.156   6.931   2.561
 3082SOL    HW110145   3.186   7.020   2.528
 3082SOL    HW210146   3.225   6.862   2.538
 3083SOL     OW10147   3.144   0.554   2.136
 3083SOL    HW110148   3.177   0.647   2.147
 3083SOL    HW210149   3.219   0.496   2.103
 3084SOL     OW10150   5.496   5.953   4.710
 3084SOL    HW110151   5.492   5.975   4.613
 3084SOL    HW210152   5.513   6.037   4.762
 3085SOL     OW10153   0.667   5.624   2.590
 3085SOL    HW110154   0.582   5.572   2.589
 3085SOL    HW210155   0.649   5.717   2.556
 3086SOL     OW10156   4.767   1.043   3.676
 3086SOL    HW110157   4.689   1.104   3.659
 3086SOL    HW210158   4.808   1.018   3.588
 3087SOL     OW10159   6.320   3.792   2.935
 3087SOL    HW110160   6.261   3.731   2.989
 3087SOL    HW210161   6.356   3.742   2.856
 3088SOL     OW10162   2.737   4.890   5.777
 3088SOL    HW110163   2.678   4.947   5.720
 3088SOL    HW210164   2.832   4.917   5.763
 3089SOL     OW10165   1.578   2.974   0.452
 3089SOL    HW110166   1.541   3.013   0.367
 3089SOL    HW210167   1.657   2.916   0.430
 3090SOL     OW10168   1.130   1.822   1.463
 3090SOL    HW110169   1.047   1.799   1.413
 3090SOL    HW210170   1.110   1.823   1.561
 3091SOL     OW10171   3.103   0.032   0.470
 3091SOL    HW110172   3.117   6.989   0.541
 3091SOL    HW210173   3.109   0.124   0.509
 3092SOL     OW10174   5.546   0.130   1.274
 3092SOL    HW110175   5.620   0.133   1.206
 3092SOL    HW210176   5.458   0.141   1.228
 3093SOL     OW10177   5.604   5.527   5.465
 3093SOL    HW110178   5.538   5.479   5.407
 3093SOL    HW210179   5.694   5.523   5.421
 3094SOL     OW10180   2.754   5.885   5.736
 3094SOL    HW110181   2.849   5.874   5.706
 3094SOL    HW210182   2.719   5.973   5.704
 3095SOL     OW10183   2.615   4.773   4.881
 3095SOL    HW110184   2.675   4.723   4.944
 3095SOL    HW210185   2.666   4.798   4.799
 3096SOL     OW10186   0.496   0.720   5.847
 3096SOL    HW110187   0.418   0.783   5.837
 3096SOL    HW210188   0.581   0.772   5.840
 3097SOL     OW10189   0.929   3.169   0.083
 3097SOL    HW110190   0.869   3.242   0.116
 3097SOL    HW210191   0.980   3.201   0.003
 3098SOL     OW10192   2.672   2.742   0.827
 3098SOL    HW110193   2.664   2.840   0.809
 3098SOL    HW210194   2.658   2.725   0.924
 3099SOL     OW10195   0.746   5.428   5.480
 3099SOL    HW110196   0.807   5.507   5.482
 3099SOL    HW210197   0.705   5.419   5.389
 3100SOL     OW10198   0.034   6.771   6.576
 3100SOL    HW110199   6.983   6.833   6.595
 3100SOL    HW210200   0.018   6.724   6.489
 3101SOL     OW10201   4.698   0.193   6.774
 3101SOL    HW110202   4.673   0.149   6.860
 3101SOL    HW210203   4.797   0.190   6.763
 3102SOL     OW10204   1.996   4.435   0.995
 3102SOL    HW110205   2.095   4.451   0.995
 3102SOL    HW210206   1.950   4.512   1.039
 3103SOL     OW10207   4.153   2.788   1.630
 3103SOL    HW110208   4.082   2.720   1.611
 3103SOL    HW210209   4.243   2.744   1.628
 3104SOL     OW10210   6.225   6.139   4.471
 3104SOL    HW110211   6.182   6.180   4.391
 3104SOL    HW210212   6.290   6.068   4.442
 3105SOL     OW10213   5.795   6.319   4.337
 3105SOL    HW110214   5.743   6.404   4.346
 3105SOL    HW210215   5.858   6.310   4.414
 3106SOL     OW10216   7.022   2.723   3.293
 3106SOL    HW110217   0.064   2.795   3.305
 3106SOL    HW210218   6.930   2.762   3.298
 3107SOL     OW10219   2.930   0.492   3.967
 3107SOL    HW110220   2.837   0.457   3.982
 3107SOL    HW210221   2.951   0.488   3.870
 3108SOL     OW10222   2.822   1.258   3.513
 3108SOL    HW110223   2.807   1.272   3.415
 3108SOL    HW210224   2.896   1.317   3.544
 3109SOL     OW10225   4.725   5.664   2.972
 3109SOL    HW110226   4.746   5.741   3.031
 3109SOL    HW210227   4.666   5.694   2.897
 3110SOL     OW10228   1.310   3.150   2.616
 3110SOL    HW110229   1.227   3.197   2.646
 3110SOL    HW210230   1.286   3.068   2.565
 3111SOL     OW10231   0.317   5.460   3.801
 3111SOL    HW110232   0.381   5.442   3.726
 3111SOL    HW210233   0.287   5.373   3.839
 3112SOL     OW10234   4.486   4.082   6.498
 3112SOL    HW110235   4.565   4.033   6.535
 3112SOL    HW210236   4.468   4.050   6.405
 3113SOL     OW10237   2.829   6.752   3.722
 3113SOL    HW110238   2.843   6.659   3.690
 3113SOL    HW210239   2.907   6.780   3.778
 3114SOL     OW10240   6.505   5.241   0.787
 3114SOL    HW110241   6.453   5.222   0.870
 3114SOL    HW210242   6.581   5.176   0.779
 3115SOL     OW10243   3.075   3.798   0.951
 3115SOL    HW110244   3.133   3.734   1.002
 3115SOL    HW210245   3.065   3.882   1.003
 3116SOL     OW10246   6.519   2.510   0.761
 3116SOL    HW110247   6.477   2.449   0.827
 3116SOL    HW210248   6.562   2.587   0.808
 3117SOL     OW10249   3.905   3.078   5.288
 3117SOL    HW110250   3.987   3.093   5.233
 3117SOL    HW210251   3.854   3.164   5.297
 3118SOL     OW10252   6.256   3.916   1.061
 3118SOL    HW110253   6.162   3.905   1.027
 3118SOL    HW210254   6.253   3.938   1.159
 3119SOL     OW10255   2.206   4.191   5.723
 3119SOL    HW110256   2.217   4.130   5.644
 3119SOL    HW210257   2.205   4.286   5.693
 3120SOL     OW10258   2.800   5.579   5.056
 3120SOL    HW110259   2.748   5.571   5.141
 3120SOL    HW210260   2.740   5.558   4.979
 3121SOL     OW10261   6.514   0.455   2.380
 3121SOL    HW110262   6.476   0.447   2.288
 3121SOL    HW210263   6.518   0.365   2.423
 3122SOL     OW10264   3.005   5.554   7.003
 3122SOL    HW110265   3.007   5.643   0.024
 3122SOL    HW210266   3.078   5.496   0.015
 3123SOL     OW10267   3.184   6.218   3.723
 3123SOL    HW110268   3.178   6.127   3.682
 3123SOL    HW210269   3.277   6.234   3.754
 3124SOL     OW10270   4.247   1.087   5.472
 3124SOL    HW110271   4.217   0.992   5.471
 3124SOL    HW210272   4.265   1.118   5.379
 3125SOL     OW10273   0.149   1.841   5.665
 3125SOL    HW110274   0.170   1.757   5.615
 3125SOL    HW210275   0.050   1.850   5.675
 3126SOL     OW10276   4.608   6.155   0.088
 3126SOL    HW110277   4.652   6.160   7.023
 3126SOL    HW210278   4.666   6.104   0.151
 3127SOL     OW10279   0.861   1.256   4.285
 3127SOL    HW110280   0.831   1.348   4.310
 3127SOL    HW210281   0.832   1.235   4.192
 3128SOL     OW10282   1.982   1.091   1.249
 3128SOL    HW110283   2.036   1.174   1.263
 3128SOL    HW210284   1.892   1.115   1.212
 3129SOL     OW10285   0.108   3.532   5.013
 3129SOL    HW110286   0.166   3.540   4.931
 3129SOL    HW210287   0.162   3.493   5.088
 3130SOL     OW10288   1.509   4.826   2.087
 3130SOL    HW110289   1.457   4.911   2.075
 3130SOL    HW210290   1.495   4.792   2.180
 3131SOL     OW10291   0.224   3.613   2.913
 3131SOL    HW110292   0.140   3.656   2.879
 3131SOL    HW210293   0.206   3.516   2.931
 3132SOL     OW10294   5.540   6.108   5.726
 3132SOL    HW110295   5.582   6.134   5.639
 3132SOL    HW210296   5.488   6.024   5.714
 3133SOL     OW10297   2.608   1.809   3.235
 3133SOL    HW110298   2.673   1.849   3.170
 3133SOL    HW210299   2.641   1.720   3.266
 3134SOL     OW10300   4.923   3.162   2.171
 3134SOL    HW110301   4.964   3.107   2.243
 3134SOL    HW210302   4.868   3.103   2.111
 3135SOL     OW10303   3.137   2.154   3.135
 3135SOL    HW110304   3.187   2.090   3.076
 3135SOL    HW210305   3.070   2.103   3.189
 3136SOL     OW10306   5.358   5.941   5.276
 3136SOL    HW110307   5.443   5.891   5.259
 3136SOL    HW210308   5.312   5.959   5.190
 3137SOL     OW10309   5.542   2.120   3.555
 3137SOL    HW110310   5.455   2.086   3.521
 3137SOL    HW210311   5.607   2.128   3.478
 3138SOL     OW10312   5.637   1.002   4.918
 3138SOL    HW110313   5.690   0.935   4.970
 3138SOL    HW210314   5.669   1.003   4.823
 3139SOL     OW10315   4.873   5.869   5.276
 3139SOL    HW110316   4.891   5.889   5.372
 3139SOL    HW210317   4.896   5.949   5.220
 3140SOL     OW10318   6.635   5.873   6.722
 3140SOL    HW110319   6.537   5.888   6.731
 3140SOL    HW210320   6.683   5.960   6.731
 3141SOL     OW10321   0.998   5.383   0.058
 3141SOL    HW110322   0.936   5.390   7.005
 3141SOL    HW210323   1.069   5.454   0.050
 3142SOL     OW10324   4.506   6.502   6.487
 3142SOL    HW110325   4.536   6.581   6.541
 3142SOL    HW210326   4.425   6.461   6.529
 3143SOL     OW10327   6.481   1.267   0.749
 3143SOL    HW110328   6.382   1.275   0.744
 3143SOL    HW210329   6.523   1.351   0.715
 3144SOL     OW10330   2.080   2.993   6.599
 3144SOL    HW110331   2.072   3.079   6.650
 3144SOL    HW210332   2.016   2.994   6.522
 3145SOL     OW10333   3.225   6.046   2.949
 3145SOL    HW110334   3.146   6.006   2.997
 3145SOL    HW210335   3.279   5.972   2.908
 3146SOL     OW10336   1.308   6.919   3.483
 3146SOL    HW110337   1.252   6.945   3.404
 3146SOL    HW210338   1.254   6.927   3.566
 3147SOL     OW10339   4.978   3.968   0.370
 3147SOL    HW110340   4.994   3.881   0.325
 3147SOL    HW210341   5.060   3.996   0.421
 3148SOL     OW10342   2.961   5.161   4.742
 3148SOL    HW110343   2.966   5.186   4.645
 3148SOL    HW210344   3.012   5.227   4.796
 3149SOL     OW10345   3.459   0.344   5.892
 3149SOL    HW110346   3.501   0.419   5.840
 3149SOL    HW210347   3.530   0.291   5.938
 3150SOL     OW10348   5.565   6.743   4.775
 3150SOL    HW110349   5.470   6.769   4.794
 3150SOL    HW210350   5.603   6.808   4.709
 3151SOL     OW10351   4.336   1.282   5.991
 3151SOL    HW110352   4.269   1.215   6.021
 3151SOL    HW210353   4.382   1.248   5.908
 3152SOL     OW10354   1.392   5.939   0.884
 3152SOL    HW110355   1.434   5.920   0.972
 3152SOL    HW210356   1.337   5.860   0.855
 3153SOL     OW10357   6.777   4.546   2.007
 3153SOL    HW110358   6.821   4.626   1.967
 3153SOL    HW210359   6.817   4.528   2.097
 3154SOL     OW10360   5.823   2.366   5.999
 3154SOL    HW110361   5.903   2.329   6.047
 3154SOL    HW210362   5.774   2.429   6.060
 3155SOL     OW10363   5.701   5.461   1.153
 3155SOL    HW110364   5.734   5.376   1.193
 3155SOL    HW210365   5.608   5.480   1.186
 3156SOL     OW10366   3.419   3.598   3.574
 3156SOL    HW110367   3.484   3.582   3.500
 3156SOL    HW210368   3.326   3.581   3.541
 3157SOL     OW10369   2.142   3.753   4.644
 3157SOL    HW110370   2.179   3.817   4.712
 3157SOL    HW210371   2.059   3.710   4.681
 3158SOL     OW10372   4.836   6.387   0.675
 3158SOL    HW110373   4.868   6.330   0.751
 3158SOL    HW210374   4.800   6.328   0.603
 3159SOL     OW10375   5.288   5.228   0.222
 3159SOL    HW110376   5.337   5.315   0.219
 3159SOL    HW210377   5.279   5.198   0.317
 3160SOL     OW10378   5.415   3.881   0.113
 3160SOL    HW110379   5.415   3.867   0.212
 3160SOL    HW210380   5.460   3.968   0.091
 3161SOL     OW10381   0.932   2.139   2.955
 3161SOL    HW110382   0.917   2.160   2.858
 3161SOL    HW210383   0.869   2.067   2.984
 3162SOL     OW10384   0.397   6.020   6.292
 3162SOL    HW110385   0.409   6.074   6.209
 3162SOL    HW210386   0.300   6.015   6.314
 3163SOL     OW10387   3.249   3.773   5.903
 3163SOL    HW110388   3.159   3.748   5.866
 3163SOL    HW210389   3.269   3.716   5.983
 3164SOL     OW10390   5.199   5.362   6.974
 3164SOL    HW110391   5.262   5.285   6.985
 3164SOL    HW210392   5.170   5.395   0.039
 3165SOL     OW10393   0.129   1.628   1.616
 3165SOL    HW110394   0.120   1.548   1.557
 3165SOL    HW210395   0.199   1.689   1.578
 3166SOL     OW10396   5.324   3.556   6.047
 3166SOL    HW110397   5.365   3.622   6.109
 3166SOL    HW210398   5.259   3.603   5.987
 3167SOL     OW10399   1.173   5.492   2.017
 3167SOL    HW110400   1.245   5.550   1.980
 3167SOL    HW210401   1.148   5.422   1.949
 3168SOL     OW10402   5.538   3.512   1.045
 3168SOL    HW110403   5.469   3.534   1.114
 3168SOL    HW210404   5.619   3.568   1.061
 3169SOL     OW10405   1.444   1.955   5.682
 3169SOL    HW110406   1.504   1.902   5.741
 3169SOL    HW210407   1.373   1.998   5.738
 3170SOL     OW10408   4.466   0.984   7.021
 3170SOL    HW110409   4.491   1.032   0.080
 3170SOL    HW210410   4.393   0.918   0.015
 3171SOL     OW10411   5.895   6.734   3.179
 3171SOL    HW110412   5.988   6.701   3.195
 3171SOL    HW210413   5.859   6.773   3.264
 3172SOL     OW10414   6.212   0.097   5.095
 3172SOL    HW110415   6.269   0.123   5.173
 3172SOL    HW210416   6.140   0.035   5.126
 3173SOL     OW10417   2.258   0.632   1.514
 3173SOL    HW110418   2.255   0.593   1.422
 3173SOL    HW210419   2.348   0.674   1.528
 3174SOL     OW10420   2.248   2.983   6.201
 3174SOL    HW110421   2.171   2.925   6.228
 3174SOL    HW210422   2.315   2.988   6.276
 3175SOL     OW10423   0.833   6.702   0.588
 3175SOL    HW110424   0.797   6.609   0.595
 3175SOL    HW210425   0.926   6.705   0.624
 3176SOL     OW10426   0.442   4.966   6.633
 3176SOL    HW110427   0.372   5.033   6.659
 3176SOL    HW210428   0.468   4.980   6.538
 3177SOL     OW10429   6.068   6.786   6.135
 3177SOL    HW110430   6.151   6.803   6.188
 3177SOL    HW210431   6.089   6.793   6.038
 3178SOL     OW10432   1.137   3.172   1.577
 3178SOL    HW110433   1.087   3.098   1.621
 3178SOL    HW210434   1.110   3.259   1.618
 3179SOL     OW10435   2.032   1.519   2.935
 3179SOL    HW110436   2.131   1.508   2.943
 3179SOL    HW210437   1.994   1.542   3.025
 3180SOL     OW10438   5.748   0.864   6.096
 3180SOL    HW110439   5.765   0.961   6.076
 3180SOL    HW210440   5.713   0.856   6.189
 3181SOL     OW10441   0.304   1.243   3.066
 3181SOL    HW110442   0.256   1.298   3.135
 3181SOL    HW210443   0.294   1.285   2.976
 3182SOL     OW10444   1.881   4.785   5.288
 3182SOL    HW110445   1.820   4.730   5.346
 3182SOL    HW210446   1.876   4.753   5.194
 3183SOL     OW10447   3.527   3.610   1.696
 3183SOL    HW110448   3.625   3.605   1.675
 3183SOL    HW210449   3.514   3.598   1.794
 3184SOL     OW10450   2.116   1.747   2.449
 3184SOL    HW110451   2.185   1.803   2.494
 3184SOL    HW210452   2.070   1.690   2.518
 3185SOL     OW10453   6.877   6.676   5.621
 3185SOL    HW110454   6.827   6.749   5.575
 3185SOL    HW210455   6.907   6.609   5.554
 3186SOL     OW10456   2.858   0.812   2.041
 3186SOL    HW110457   2.878   0.723   1.999
 3186SOL    HW210458   2.941   0.868   2.041
 3187SOL     OW10459   2.972   4.359   6.993
 3187SOL    HW110460   2.972   4.424   6.917
 3187SOL    HW210461   3.017   4.400   0.047
 3188SOL     OW10462   4.157   6.357   3.704
 3188SOL    HW110463   4.121   6.329   3.793
 3188SOL    HW210464   4.211   6.282   3.665
 3189SOL     OW10465   1.255   6.790   2.216
 3189SOL    HW110466   1.297   6.699   2.211
 3189SOL    HW210467   1.163   6.786   2.177
 3190SOL     OW10468   0.508   6.346   2.016
 3190SOL    HW110469   0.483   6.284   2.091
 3190SOL    HW210470   0.533   6.435   2.053
 3191SOL     OW10471   3.903   0.857   1.045
 3191SOL    HW110472   3.817   0.853   1.095
 3191SOL    HW210473   3.900   0.931   0.978
 3192SOL     OW10474   7.002   3.221   2.815
 3192SOL    HW110475   0.055   3.160   2.807
 3192SOL    HW210476   6.919   3.173   2.786
 3193SOL     OW10477   4.584   3.736   6.593
 3193SOL    HW110478   4.639   3.819   6.596
 3193SOL    HW210479   4.595   3.691   6.505
 3194SOL     OW10480   0.733   3.360   6.288
 3194SOL    HW110481   0.678   3.281   6.260
 3194SOL    HW210482   0.692   3.401   6.370
 3195SOL     OW10483   0.656   3.757   3.416
 3195SOL    HW110484   0.565   3.796   3.409
 3195SOL    HW210485   0.651   3.667   3.459
 3196SOL     OW10486   0.037   6.843   5.723
 3196SOL    HW110487   7.012   6.785   5.658
 3196SOL    HW210488   6.998   6.882   5.789
 3197SOL     OW10489   1.163   4.470   4.142
 3197SOL    HW110490   1.123   4.559   4.119
 3197SOL    HW210491   1.098   4.418   4.198
 3198SOL     OW10492   6.767   1.726   7.005
 3198SOL    HW110493   6.774   1.822   0.009
 3198SOL    HW210494   6.858   1.693   6.977
 3199SOL     OW10495   3.709   1.836   2.875
 3199SOL    HW110496   3.800   1.805   2.846
 3199SOL    HW210497   3.705   1.935   2.871
 3200SOL     OW10498   6.812   2.443   1.239
 3200SOL    HW110499   6.903   2.471   1.270
 3200SOL    HW210500   6.819   2.399   1.150
 3201SOL     OW10501   4.955   4.353   2.859
 3201SOL    HW110502   4.902   4.437   2.859
 3201SOL    HW210503   5.016   4.352   2.939
 3202SOL     OW10504   2.282   5.720   1.392
 3202SOL    HW110505   2.237   5.802   1.430
 3202SOL    HW210506   2.381   5.734   1.393
 3203SOL     OW10507   6.372   0.233   1.430
 3203SOL    HW110508   6.313   0.282   1.495
 3203SOL    HW210509   6.391   0.142   1.464
 3204SOL     OW10510   6.498   5.602   2.035
 3204SOL    HW110511   6.476   5.646   2.122
 3204SOL    HW210512   6.415   5.564   1.995
 3205SOL     OW10513   0.952   4.021   3.549
 3205SOL    HW110514   1.041   4.056   3.520
 3205SOL    HW210515   0.928   3.940   3.494
 3206SOL     OW10516   1.227   0.001   0.084
 3206SOL    HW110517   1.201   0.084   0.134
 3206SOL    HW210518   1.210   0.014   7.012
 3207SOL     OW10519   0.404   0.683   3.844
 3207SOL    HW110520   0.348   0.717   3.920
 3207SOL    HW210521   0.422   0.586   3.856
 3208SOL     OW10522   5.876   6.799   4.880
 3208SOL    HW110523   5.799   6.740   4.901
 3208SOL    HW210524   5.944   6.749   4.827
 3209SOL     OW10525   2.180   0.408   3.342
 3209SOL    HW110526   2.279   0.402   3.327
 3209SOL    HW210527   2.147   0.321   3.378
 3210SOL     OW10528   0.069   4.615   2.894
 3210SOL    HW110529   0.057   4.677   2.972
 3210SOL    HW210530   7.015   4.554   2.887
 3211SOL     OW10531   1.531   4.278   2.160
 3211SOL    HW110532   1.446   4.270   2.211
 3211SOL    HW210533   1.560   4.189   2.127
 3212SOL     OW10534   4.812   2.443   5.825
 3212SOL    HW110535   4.718   2.444   5.791
 3212SOL    HW210536   4.865   2.513   5.777
 3213SOL     OW10537   6.183   6.344   1.846
 3213SOL    HW110538   6.101   6.392   1.877
 3213SOL    HW210539   6.160   6.250   1.822
 3214SOL     OW10540   3.941   5.099   6.491
 3214SOL    HW110541   3.969   5.130   6.582
 3214SOL    HW210542   3.883   5.168   6.448
 3215SOL     OW10543   6.441   1.042   6.736
 3215SOL    HW110544   6.430   1.124   6.791
 3215SOL    HW210545   6.501   0.977   6.784
 3216SOL     OW10546   5.526   6.958   4.513
 3216SOL    HW110547   5.435   6.975   4.550
 3216SOL    HW210548   5.519   6.936   4.416
 3217SOL     OW10549   6.978   3.667   1.409
 3217SOL    HW110550   0.046   3.683   1.442
 3217SOL    HW210551   6.912   3.702   1.476
 3218SOL     OW10552   2.580   0.765   2.416
 3218SOL    HW110553   2.641   0.705   2.365
 3218SOL    HW210554   2.607   0.860   2.401
 3219SOL     OW10555   6.933   0.078   4.060
 3219SOL    HW110556   6.900   0.032   4.142
 3219SOL    HW210557   7.003   0.145   4.086
 3220SOL     OW10558   6.270   3.148   5.352
 3220SOL    HW110559   6.177   3.115   5.343
 3220SOL    HW210560   6.282   3.191   5.441
 3221SOL     OW10561   3.924   0.311   2.770
 3221SOL    HW110562   3.967   0.225   2.798
 3221SOL    HW210563   3.862   0.342   2.842
 3222SOL     OW10564   5.850   3.080   3.129
 3222SOL    HW110565   5.799   3.070   3.043
 3222SOL    HW210566   5.788   3.112   3.201
 3223SOL     OW10567   2.203   5.266   5.005
 3223SOL    HW110568   2.279   5.224   5.056
 3223SOL    HW210569   2.144   5.195   4.968
 3224SOL     OW10570   4.260   5.609   0.289
 3224SOL    HW110571   4.313   5.531   0.257
 3224SOL    HW210572   4.322   5.679   0.325
 3225SOL     OW10573   2.566   2.929   1.276
 3225SOL    HW110574   2.622   2.938   1.358
 3225SOL    HW210575   2.499   3.003   1.274
 3226SOL     OW10576   0.608   0.461   3.908
 3226SOL    HW110577   0.691   0.405   3.899
 3226SOL    HW210578   0.627   0.539   3.968
 3227SOL     OW10579   2.781   1.436   5.799
 3227SOL    HW110580   2.759   1.354   5.851
 3227SOL    HW210581   2.805   1.411   5.705
 3228SOL     OW10582   4.818   3.004   4.834
 3228SOL    HW110583   4.870   3.025   4.751
 3228SOL    HW210584   4.818   3.083   4.895
 3229SOL     OW10585   4.014   2.235   5.234
 3229SOL    HW110586   3.918   2.210   5.225
 3229SOL    HW210587   4.049   2.264   5.145
 3230SOL     OW10588   0.880   0.607   3.216
 3230SOL    HW110589   0.803   0.545   3.229
 3230SOL    HW210590   0.897   0.657   3.301
 3231SOL     OW10591   6.177   5.349   0.867
 3231SOL    HW110592   6.202   5.440   0.900
 3231SOL    HW210593   6.158   5.354   0.769
 3232SOL     OW10594   2.193   4.789   3.448
 3232SOL    HW110595   2.167   4.859   3.382
 3232SOL    HW210596   2.171   4.819   3.540
 3233SOL     OW10597   0.828   4.436   1.287
 3233SOL    HW110598   0.910   4.488   1.312
 3233SOL    HW210599   0.775   4.489   1.220
 3234SOL     OW10600   6.953   1.573   4.652
 3234SOL    HW110601   6.914   1.498   4.706
 3234SOL    HW210602   6.950   1.549   4.555
 3235SOL     OW10603   5.576   0.304   2.920
 3235SOL    HW110604   5.659   0.253   2.896
 3235SOL    HW210605   5.496   0.246   2.904
 3236SOL     OW10606   0.896   2.986   2.137
 3236SOL    HW110607   0.986   2.970   2.097
 3236SOL    HW210608   0.852   3.063   2.091
 3237SOL     OW10609   3.176   6.610   4.368
 3237SOL    HW110610   3.237   6.677   4.325
 3237SOL    HW210611   3.214   6.518   4.356
 3238SOL     OW10612   6.728   6.563   6.605
 3238SOL    HW110613   6.808   6.575   6.664
 3238SOL    HW210614   6.647   6.598   6.653
 3239SOL     OW10615   0.412   6.316   5.707
 3239SOL    HW110616   0.379   6.410   5.710
 3239SOL    HW210617   0.431   6.284   5.800
 3240SOL     OW10618   0.648   1.066   4.765
 3240SOL    HW110619   0.726   1.076   4.827
 3240SOL    HW210620   0.678   1.083   4.671
 3241SOL     OW10621   4.930   1.226   4.688
 3241SOL    HW110622   4.904   1.268   4.601
 3241SOL    HW210623   4.922   1.126   4.681
 3242SOL     OW10624   3.210   6.318   0.354
 3242SOL    HW110625   3.292   6.373   0.373
 3242SOL    HW210626   3.129   6.366   0.387
 3243SOL     OW10627   3.251   5.990   0.879
 3243SOL    HW110628   3.293   5.901   0.898
 3243SOL    HW210629   3.313   6.062   0.909
 3244SOL     OW10630   2.557   6.291   5.979
 3244SOL    HW110631   2.556   6.191   5.978
 3244SOL    HW210632   2.528   6.323   6.069
 3245SOL     OW10633   3.397   2.417   5.980
 3245SOL    HW110634   3.493   2.438   5.998
 3245SOL    HW210635   3.339   2.463   6.047
 3246SOL     OW10636   5.325   6.678   3.717
 3246SOL    HW110637   5.281   6.711   3.633
 3246SOL    HW210638   5.295   6.584   3.735
 3247SOL     OW10639   0.362   1.640   4.382
 3247SOL    HW110640   0.451   1.679   4.359
 3247SOL    HW210641   0.331   1.678   4.469
 3248SOL     OW10642   6.089   4.220   2.125
 3248SOL    HW110643   6.167   4.225   2.063
 3248SOL    HW210644   6.040   4.134   2.110
 3249SOL     OW10645   3.077   4.366   5.302
 3249SOL    HW110646   3.022   4.439   5.262
 3249SOL    HW210647   3.030   4.279   5.292
 3250SOL     OW10648   4.041   6.375   1.678
 3250SOL    HW110649   4.083   6.358   1.589
 3250SOL    HW210650   4.108   6.359   1.750
 3251SOL     OW10651   2.997   1.419   3.641
 3251SOL    HW110652   3.096   1.405   3.650
 3251SOL    HW210653   2.979   1.516   3.625
 3252SOL     OW10654   2.954   2.018   3.256
 3252SOL    HW110655   2.891   1.971   3.194
 3252SOL    HW210656   2.901   2.074   3.321
 3253SOL     OW10657   4.821   3.531   0.813
 3253SOL    HW110658   4.757   3.456   0.803
 3253SOL    HW210659   4.776   3.608   0.858
 3254SOL     OW10660   5.390   5.130   2.309
 3254SOL    HW110661   5.462   5.078   2.355
 3254SOL    HW210662   5.393   5.225   2.340
 3255SOL     OW10663   4.125   4.707   0.541
 3255SOL    HW110664   4.224   4.702   0.559
 3255SOL    HW210665   4.111   4.735   0.446
 3256SOL     OW10666   6.212   6.305   5.420
 3256SOL    HW110667   6.300   6.332   5.381
 3256SOL    HW210668   6.213   6.319   5.519
 3257SOL     OW10669   2.338   1.714   1.213
 3257SOL    HW110670   2.255   1.713   1.269
 3257SOL    HW210671   2.345   1.627   1.164
 3258SOL     OW10672   5.521   6.700   1.521
 3258SOL    HW110673   5.536   6.781   1.464
 3258SOL    HW210674   5.552   6.619   1.472
 3259SOL     OW10675   6.039   6.355   3.023
 3259SOL    HW110676   5.960   6.416   3.022
 3259SOL    HW210677   6.013   6.267   3.063
 3260SOL     OW10678   1.305   3.230   0.059
 3260SOL    HW110679   1.252   3.146   0.066
 3260SOL    HW210680   1.285   3.274   6.996
 3261SOL     OW10681   4.463   0.215   3.541
 3261SOL    HW110682   4.531   0.259   3.600
 3261SOL    HW210683   4.375   0.214   3.588
 3262SOL     OW10684   3.540   1.538   3.744
 3262SOL    HW110685   3.584   1.496   3.665
 3262SOL    HW210686   3.610   1.558   3.814
 3263SOL     OW10687   3.292   5.425   2.250
 3263SOL    HW110688   3.300   5.397   2.346
 3263SOL    HW210689   3.329   5.517   2.238
 3264SOL     OW10690   5.144   4.763   6.275
 3264SOL    HW110691   5.080   4.687   6.263
 3264SOL    HW210692   5.205   4.768   6.196
 3265SOL     OW10693   4.432   0.742   6.542
 3265SOL    HW110694   4.346   0.787   6.519
 3265SOL    HW210695   4.413   0.647   6.567
 3266SOL     OW10696   0.732   1.718   6.071
 3266SOL    HW110697   0.790   1.685   5.997
 3266SOL    HW210698   0.755   1.670   6.156
 3267SOL     OW10699   4.622   2.297   1.022
 3267SOL    HW110700   4.556   2.230   0.989
 3267SOL    HW210701   4.713   2.257   1.023
 3268SOL     OW10702   1.409   4.338   6.395
 3268SOL    HW110703   1.375   4.391   6.472
 3268SOL    HW210704   1.509   4.337   6.398
 3269SOL     OW10705   4.920   3.149   0.453
 3269SOL    HW110706   5.012   3.187   0.444
 3269SOL    HW210707   4.919   3.078   0.523
 3270SOL     OW10708   0.778   5.674   4.644
 3270SOL    HW110709   0.797   5.770   4.665
 3270SOL    HW210710   0.849   5.616   4.685
 3271SOL     OW10711   5.984   1.893   0.831
 3271SOL    HW110712   5.985   1.928   0.924
 3271SOL    HW210713   6.075   1.902   0.791
 3272SOL     OW10714   4.994   6.820   0.232
 3272SOL    HW110715   4.937   6.858   0.304
 3272SOL    HW210716   4.967   6.725   0.214
 3273SOL     OW10717   0.112   0.055   2.807
 3273SOL    HW110718   0.080   7.012   2.873
 3273SOL    HW210719   0.034   0.103   2.767
 3274SOL     OW10720   3.479   1.789   6.601
 3274SOL    HW110721   3.405   1.752   6.658
 3274SOL    HW210722   3.459   1.771   6.505
 3275SOL     OW10723   3.767   0.698   6.775
 3275SOL    HW110724   3.706   0.684   6.697
 3275SOL    HW210725   3.726   0.660   6.858
 3276SOL     OW10726   2.956   6.463   0.475
 3276SOL    HW110727   2.923   6.494   0.386
 3276SOL    HW210728   2.954   6.539   0.540
 3277SOL     OW10729   0.051   6.315   5.585
 3277SOL    HW110730   0.123   6.245   5.579
 3277SOL    HW210731   0.043   6.346   5.679
 3278SOL     OW10732   1.567   1.087   0.641
 3278SOL    HW110733   1.634   1.061   0.572
 3278SOL    HW210734   1.580   1.184   0.665
 3279SOL     OW10735   1.989   0.073   1.450
 3279SOL    HW110736   2.012   0.129   1.371
 3279SOL    HW210737   1.892   0.083   1.472
 3280SOL     OW10738   1.635   5.378   5.355
 3280SOL    HW110739   1.649   5.403   5.260
 3280SOL    HW210740   1.688   5.296   5.376
 3281SOL     OW10741   2.708   5.901   0.326
 3281SOL    HW110742   2.696   5.839   0.404
 3281SOL    HW210743   2.620   5.913   0.280
 3282SOL     OW10744   1.882   5.277   2.517
 3282SOL    HW110745   1.876   5.300   2.420
 3282SOL    HW210746   1.901   5.360   2.569
 3283SOL     OW10747   2.020   6.866   3.617
 3283SOL    HW110748   2.111   6.835   3.645
 3283SOL    HW210749   2.028   6.923   3.535
 3284SOL     OW10750   0.335   4.286   6.073
 3284SOL    HW110751   0.269   4.335   6.017
 3284SOL    HW210752   0.287   4.241   6.149
 3285SOL     OW10753   6.872   2.123   4.668
 3285SOL    HW110754   6.825   2.153   4.585
 3285SOL    HW210755   6.962   2.086   4.645
 3286SOL     OW10756   3.542   4.695   5.504
 3286SOL    HW110757   3.502   4.669   5.416
 3286SOL    HW210758   3.471   4.737   5.562
 3287SOL     OW10759   0.418   5.418   1.600
 3287SOL    HW110760   0.385   5.365   1.678
 3287SOL    HW210761   0.403   5.366   1.516
 3288SOL     OW10762   1.563   6.570   0.099
 3288SOL    HW110763   1.551   6.655   0.047
 3288SOL    HW210764   1.610   6.590   0.185
 3289SOL     OW10765   1.235   5.520   4.483
 3289SOL    HW110766   1.221   5.578   4.563
 3289SOL    HW210767   1.326   5.479   4.486
 3290SOL     OW10768   6.776   5.648   2.160
 3290SOL    HW110769   6.747   5.553   2.171
 3290SOL    HW210770   6.697   5.708   2.164
 3291SOL     OW10771   1.931   0.110   1.765
 3291SOL    HW110772   1.838   0.100   1.800
 3291SOL    HW210773   1.975   0.189   1.807
 3292SOL     OW10774   0.681   5.625   5.239
 3292SOL    HW110775   0.761   5.684   5.248
 3292SOL    HW210776   0.693   5.565   5.161
 3293SOL     OW10777   6.551   0.454   3.149
 3293SOL    HW110778   6.495   0.377   3.119
 3293SOL    HW210779   6.631   0.419   3.199
 3294SOL     OW10780   0.688   0.161   6.840
 3294SOL    HW110781   0.718   0.244   6.793
 3294SOL    HW210782   0.706   0.081   6.782
 3295SOL     OW10783   1.241   2.335   6.149
 3295SOL    HW110784   1.171   2.399   6.120
 3295SOL    HW210785   1.324   2.385   6.175
 3296SOL     OW10786   0.774   6.619   2.012
 3296SOL    HW110787   0.731   6.626   1.922
 3296SOL    HW210788   0.704   6.610   2.082
 3297SOL     OW10789   3.069   2.471   5.820
 3297SOL    HW110790   3.101   2.458   5.726
 3297SOL    HW210791   3.095   2.392   5.875
 3298SOL     OW10792   5.820   3.370   3.383
 3298SOL    HW110793   5.757   3.410   3.449
 3298SOL    HW210794   5.770   3.315   3.316
 3299SOL     OW10795   0.943   0.648   5.037
 3299SOL    HW110796   0.845   0.647   5.015
 3299SOL    HW210797   0.989   0.577   4.984
 3300SOL     OW10798   6.620   0.046   4.560
 3300SOL    HW110799   6.590   0.048   4.465
 3300SOL    HW210800   6.624   0.139   4.597
 3301SOL     OW10801   0.714   4.286   2.961
 3301SOL    HW110802   0.721   4.224   3.039
 3301SOL    HW210803   0.789   4.267   2.897
 3302SOL     OW10804   1.040   4.888   3.880
 3302SOL    HW110805   1.121   4.838   3.910
 3302SOL    HW210806   0.982   4.908   3.960
 3303SOL     OW10807   3.388   3.848   3.699
 3303SOL    HW110808   3.465   3.891   3.745
 3303SOL    HW210809   3.421   3.776   3.638
 3304SOL     OW10810   1.063   6.850   3.689
 3304SOL    HW110811   1.055   6.862   3.590
 3304SOL    HW210812   1.004   6.917   3.736
 3305SOL     OW10813   1.495   1.010   1.711
 3305SOL    HW110814   1.502   0.929   1.653
 3305SOL    HW210815   1.400   1.043   1.711
 3306SOL     OW10816   1.198   3.564   2.543
 3306SOL    HW110817   1.129   3.497   2.571
 3306SOL    HW210818   1.153   3.652   2.526
 3307SOL     OW10819   0.832   6.322   0.823
 3307SOL    HW110820   0.891   6.329   0.903
 3307SOL    HW210821   0.801   6.228   0.811
 3308SOL     OW10822   5.171   6.199   0.744
 3308SOL    HW110823   5.227   6.124   0.779
 3308SOL    HW210824   5.082   6.197   0.789
 3309SOL     OW10825   1.602   5.765   2.598
 3309SOL    HW110826   1.518   5.819   2.594
 3309SOL    HW210827   1.588   5.685   2.656
 3310SOL     OW10828   1.084   6.809   1.800
 3310SOL    HW110829   1.125   6.882   1.745
 3310SOL    HW210830   1.154   6.743   1.827
 3311SOL     OW10831   3.768   6.298   0.889
 3311SOL    HW110832   3.682   6.264   0.925
 3311SOL    HW210833   3.840   6.230   0.905
 3312SOL     OW10834   2.262   3.347   6.865
 3312SOL    HW110835   2.220   3.398   6.940
 3312SOL    HW210836   2.231   3.385   6.777
 3313SOL     OW10837   6.575   6.103   5.038
 3313SOL    HW110838   6.645   6.140   4.977
 3313SOL    HW210839   6.620   6.060   5.116
 3314SOL     OW10840   0.633   3.501   6.497
 3314SOL    HW110841   0.554   3.548   6.457
 3314SOL    HW210842   0.648   3.535   6.590
 3315SOL     OW10843   6.991   3.652   2.725
 3315SOL    HW110844   6.927   3.596   2.777
 3315SOL    HW210845   7.005   3.739   2.773
 3316SOL     OW10846   4.568   0.788   0.606
 3316SOL    HW110847   4.491   0.768   0.667
 3316SOL    HW210848   4.638   0.838   0.656
 3317SOL     OW10849   4.724   2.400   1.903
 3317SOL    HW110850   4.775   2.387   1.988
 3317SOL    HW210851   4.684   2.313   1.874
 3318SOL     OW10852   2.156   5.393   5.254
 3318SOL    HW110853   2.170   5.342   5.169
 3318SOL    HW210854   2.174   5.332   5.332
 3319SOL     OW10855   0.112   5.991   6.312
 3319SOL    HW110856   0.076   6.025   6.225
 3319SOL    HW210857   0.108   5.892   6.313
 3320SOL     OW10858   0.134   2.322   5.705
 3320SOL    HW110859   0.064   2.367   5.761
 3320SOL    HW210860   0.089   2.261   5.639
 3321SOL     OW10861   3.318   3.916   4.111
 3321SOL    HW110862   3.307   3.921   4.012
 3321SOL    HW210863   3.229   3.927   4.155
 3322SOL     OW10864   4.913   2.044   0.835
 3322SOL    HW110865   4.829   2.053   0.782
 3322SOL    HW210866   4.987   2.016   0.774
 3323SOL     OW10867   2.921   4.919   0.136
 3323SOL    HW110868   2.954   4.888   0.225
 3323SOL    HW210869   2.865   4.847   0.094
 3324SOL     OW10870   0.478   2.899   0.725
 3324SOL    HW110871   0.480   2.802   0.748
 3324SOL    HW210872   0.524   2.952   0.796
 3325SOL     OW10873   1.802   3.479   0.343
 3325SOL    HW110874   1.785   3.393   0.391
 3325SOL    HW210875   1.867   3.534   0.395
 3326SOL     OW10876   6.274   0.824   1.808
 3326SOL    HW110877   6.262   0.751   1.740
 3326SOL    HW210878   6.319   0.787   1.889
 3327SOL     OW10879   3.235   6.988   1.931
 3327SOL    HW110880   3.280   0.024   1.866
 3327SOL    HW210881   3.276   6.897   1.925
 3328SOL     OW10882   4.513   0.628   3.028
 3328SOL    HW110883   4.528   0.535   2.996
 3328SOL    HW210884   4.428   0.663   2.989
 3329SOL     OW10885   5.489   0.930   5.695
 3329SOL    HW110886   5.447   0.885   5.616
 3329SOL    HW210887   5.516   1.023   5.670
 3330SOL     OW10888   6.587   5.368   3.379
 3330SOL    HW110889   6.546   5.440   3.436
 3330SOL    HW210890   6.544   5.368   3.289
 3331SOL     OW10891   2.098   3.274   2.893
 3331SOL    HW110892   2.122   3.313   2.804
 3331SOL    HW210893   2.049   3.342   2.948
 3332SOL     OW10894   3.476   4.818   0.927
 3332SOL    HW110895   3.458   4.904   0.975
 3332SOL    HW210896   3.487   4.835   0.829
 3333SOL     OW10897   2.404   2.995   1.621
 3333SOL    HW110898   2.375   2.974   1.528
 3333SOL    HW210899   2.503   2.982   1.628
 3334SOL     OW10900   2.091   1.968   1.588
 3334SOL    HW110901   2.106   2.049   1.645
 3334SOL    HW210902   2.125   1.985   1.496
 3335SOL     OW10903   3.609   4.116   5.227
 3335SOL    HW110904   3.581   4.092   5.134
 3335SOL    HW210905   3.565   4.054   5.292
 3336SOL     OW10906   4.984   5.506   4.383
 3336SOL    HW110907   5.073   5.515   4.428
 3336SOL    HW210908   4.917   5.470   4.448
 3337SOL     OW10909   3.355   2.851   2.412
 3337SOL    HW110910   3.373   2.867   2.509
 3337SOL    HW210911   3.294   2.773   2.401
 3338SOL     OW10912   2.820   2.592   1.556
 3338SOL    HW110913   2.778   2.514   1.508
 3338SOL    HW210914   2.901   2.560   1.606
 3339SOL     OW10915   1.879   0.236   6.504
 3339SOL    HW110916   1.958   0.240   6.443
 3339SOL    HW210917   1.899   0.175   6.581
 3340SOL     OW10918   3.806   0.877   4.377
 3340SOL    HW110919   3.726   0.882   4.317
 3340SOL    HW210920   3.880   0.828   4.329
 3341SOL     OW10921   1.284   4.197   2.321
 3341SOL    HW110922   1.315   4.102   2.327
 3341SOL    HW210923   1.338   4.254   2.382
 3342SOL     OW10924   6.291   0.762   2.663
 3342SOL    HW110925   6.373   0.819   2.668
 3342SOL    HW210926   6.310   0.672   2.702
 3343SOL     OW10927   4.392   5.382   0.202
 3343SOL    HW110928   4.346   5.323   0.267
 3343SOL    HW210929   4.478   5.339   0.173
 3344SOL     OW10930   0.522   3.212   2.225
 3344SOL    HW110931   0.457   3.267   2.277
 3344SOL    HW210932   0.606   3.200   2.279
 3345SOL     OW10933   5.559   5.491   6.676
 3345SOL    HW110934   5.581   5.418   6.741
 3345SOL    HW210935   5.541   5.575   6.725
 3346SOL     OW10936   1.916   1.456   0.126
 3346SOL    HW110937   1.860   1.376   0.102
 3346SOL    HW210938   1.857   1.536   0.138
 3347SOL     OW10939   0.298   3.774   6.000
 3347SOL    HW110940   0.246   3.734   5.925
 3347SOL    HW210941   0.394   3.786   5.973
 3348SOL     OW10942   3.157   4.354   6.042
 3348SOL    HW110943   3.119   4.364   5.950
 3348SOL    HW210944   3.257   4.349   6.036
 3349SOL     OW10945   1.921   5.758   3.216
 3349SOL    HW110946   2.021   5.762   3.212
 3349SOL    HW210947   1.891   5.662   3.209
 3350SOL     OW10948   1.843   4.731   4.286
 3350SOL    HW110949   1.769   4.732   4.354
 3350SOL    HW210950   1.926   4.771   4.327
 3351SOL     OW10951   5.549   1.212   1.542
 3351SOL    HW110952   5.607   1.277   1.591
 3351SOL    HW210953   5.453   1.233   1.560
 3352SOL     OW10954   5.914   1.287   0.009
 3352SOL    HW110955   5.976   1.331   6.970
 3352SOL    HW210956   5.893   1.194   7.001
 3353SOL     OW10957   4.127   0.506   0.311
 3353SOL    HW110958   4.173   0.555   0.385
 3353SOL    HW210959   4.195   0.470   0.247
 3354SOL     OW10960   3.117   4.051   6.050
 3354SOL    HW110961   3.114   4.148   6.071
 3354SOL    HW210962   3.132   4.039   5.951
 3355SOL     OW10963   1.743   0.178   5.053
 3355SOL    HW110964   1.673   0.114   5.022
 3355SOL    HW210965   1.748   0.176   5.153
 3356SOL     OW10966   1.756   0.695   5.885
 3356SOL    HW110967   1.801   0.639   5.953
 3356SOL    HW210968   1.679   0.744   5.927
 3357SOL     OW10969   3.586   2.945   2.310
 3357SOL    HW110970   3.500   2.919   2.353
 3357SOL    HW210971   3.605   2.884   2.233
 3358SOL     OW10972   7.002   1.202   1.813
 3358SOL    HW110973   0.071   1.193   1.846
 3358SOL    HW210974   7.003   1.234   1.718
 3359SOL     OW10975   0.726   6.732   4.867
 3359SOL    HW110976   0.626   6.723   4.863
 3359SOL    HW210977   0.768   6.643   4.852
 3360SOL     OW10978   2.231   4.199   4.300
 3360SOL    HW110979   2.213   4.103   4.319
 3360SOL    HW210980   2.244   4.212   4.202
 3361SOL     OW10981   6.382   0.118   5.308
 3361SOL    HW110982   6.367   0.033   5.359
 3361SOL    HW210983   6.470   0.157   5.335
 3362SOL     OW10984   3.564   0.289   4.222
 3362SOL    HW110985   3.489   0.238   4.180
 3362SOL    HW210986   3.562   0.384   4.191
 3363SOL     OW10987   5.977   3.912   0.117
 3363SOL    HW110988   5.935   3.884   0.203
 3363SOL    HW210989   5.933   3.864   0.041
 3364SOL     OW10990   1.469   3.751   3.563
 3364SOL    HW110991   1.566   3.730   3.576
 3364SOL    HW210992   1.452   3.846   3.589
 3365SOL     OW10993   1.237   3.763   3.360
 3365SOL    HW110994   1.317   3.778   3.418
 3365SOL    HW210995   1.243   3.822   3.279
 3366SOL     OW10996   5.748   3.325   4.950
 3366SOL    HW110997   5.655   3.357   4.966
 3366SOL    HW210998   5.813   3.388   4.994
 3367SOL     OW10999   3.101   3.994   3.890
 3367SOL    HW111000   3.048   3.925   3.939
 3367SOL    HW211001   3.053   4.018   3.805
 3368SOL     OW11002   2.213   0.463   2.588
 3368SOL    HW111003   2.204   0.541   2.527
 3368SOL    HW211004   2.144   0.394   2.564
 3369SOL     OW11005   5.332   2.351   1.338
 3369SOL    HW111006   5.374   2.432   1.297
 3369SOL    HW211007   5.403   2.295   1.382
 3370SOL     OW11008   0.518   5.846   2.779
 3370SOL    HW111009   0.484   5.756   2.750
 3370SOL    HW211010   0.527   5.848   2.878
 3371SOL     OW11011   2.456   2.519   2.000
 3371SOL    HW111012   2.516   2.498   1.922
 3371SOL    HW211013   2.374   2.565   1.967
 3372SOL     OW11014   6.522   3.935   3.040
 3372SOL    HW111015   6.443   3.877   3.022
 3372SOL    HW211016   6.521   4.012   2.976
 3373SOL     OW11017   0.349   3.579   1.977
 3373SOL    HW111018   0.382   3.669   1.950
 3373SOL    HW211019   0.377   3.560   2.071
 3374SOL     OW11020   0.405   6.762   4.233
 3374SOL    HW111021   0.447   6.752   4.323
 3374SOL    HW211022   0.472   6.800   4.169
 3375SOL     OW11023   0.243   5.828   5.705
 3375SOL    HW111024   0.298   5.850   5.624
 3375SOL    HW211025   0.299   5.836   5.787
 3376SOL     OW11026   3.334   2.891   4.282
 3376SOL    HW111027   3.300   2.797   4.283
 3376SOL    HW211028   3.267   2.950   4.238
 3377SOL     OW11029   6.502   5.236   4.096
 3377SOL    HW111030   6.541   5.298   4.165
 3377SOL    HW211031   6.432   5.284   4.043
 3378SOL     OW11032   1.827   7.021   0.646
 3378SOL    HW111033   1.760   6.991   0.579
 3378SOL    HW211034   1.785   0.001   0.736
 3379SOL     OW11035   6.665   4.174   3.643
 3379SOL    HW111036   6.725   4.150   3.567
 3379SOL    HW211037   6.644   4.271   3.639
 3380SOL     OW11038   2.670   4.376   0.313
 3380SOL    HW111039   2.573   4.386   0.331
 3380SOL    HW211040   2.708   4.307   0.376
 3381SOL     OW11041   2.403   3.504   5.816
 3381SOL    HW111042   2.371   3.459   5.733
 3381SOL    HW211043   2.471   3.574   5.792
 3382SOL     OW11044   6.688   3.694   0.214
 3382SOL    HW111045   6.698   3.772   0.275
 3382SOL    HW211046   6.686   3.725   0.119
 3383SOL     OW11047   4.229   4.908   0.316
 3383SOL    HW111048   4.296   4.845   0.275
 3383SOL    HW211049   4.203   4.977   0.248
 3384SOL     OW11050   2.798   3.402   6.739
 3384SOL    HW111051   2.722   3.466   6.746
 3384SOL    HW211052   2.766   3.309   6.756
 3385SOL     OW11053   6.788   2.182   4.014
 3385SOL    HW111054   6.786   2.183   3.914
 3385SOL    HW211055   6.831   2.098   4.045
 3386SOL     OW11056   0.251   5.625   4.765
 3386SOL    HW111057   0.247   5.535   4.721
 3386SOL    HW211058   0.160   5.666   4.767
 3387SOL     OW11059   5.848   1.082   3.048
 3387SOL    HW111060   5.789   1.080   2.967
 3387SOL    HW211061   5.913   1.157   3.041
 3388SOL     OW11062   6.762   3.801   1.019
 3388SOL    HW111063   6.846   3.788   1.071
 3388SOL    HW211064   6.784   3.830   0.926
 3389SOL     OW11065   5.686   5.841   6.588
 3389SOL    HW111066   5.749   5.782   6.639
 3389SOL    HW211067   5.656   5.916   6.647
 3390SOL     OW11068   3.121   5.522   6.523
 3390SOL    HW111069   3.102   5.571   6.608
 3390SOL    HW211070   3.127   5.424   6.542
 3391SOL     OW11071   5.664   4.185   4.145
 3391SOL    HW111072   5.728   4.110   4.132
 3391SOL    HW211073   5.585   4.172   4.085
 3392SOL     OW11074   4.773   6.609   5.772
 3392SOL    HW111075   4.815   6.531   5.819
 3392SOL    HW211076   4.821   6.693   5.797
 3393SOL     OW11077   3.886   6.007   0.978
 3393SOL    HW111078   3.883   5.945   1.056
 3393SOL    HW211079   3.958   5.977   0.915
 3394SOL     OW11080   2.580   5.460   1.466
 3394SOL    HW111081   2.604   5.403   1.387
 3394SOL    HW211082   2.641   5.539   1.470
 3395SOL     OW11083   2.344   6.768   3.434
 3395SOL    HW111084   2.296   6.695   3.386
 3395SOL    HW211085   2.399   6.821   3.369
 3396SOL     OW11086   4.491   0.484   4.430
 3396SOL    HW111087   4.588   0.457   4.426
 3396SOL    HW211088   4.453   0.484   4.337
 3397SOL     OW11089   2.445   5.503   6.557
 3397SOL    HW111090   2.422   5.574   6.490
 3397SOL    HW211091   2.371   5.436   6.561
 3398SOL     OW11092   6.303   2.247   5.130
 3398SOL    HW111093   6.345   2.285   5.048
 3398SOL    HW211094   6.211   2.285   5.140
 3399SOL     OW11095   6.566   6.533   2.042
 3399SOL    HW111096   6.537   6.446   2.002
 3399SOL    HW211097   6.662   6.528   2.069
 3400SOL     OW11098   4.088   2.987   5.667
 3400SOL    HW111099   4.027   2.957   5.740
 3400SOL    HW211100   4.059   2.947   5.580
 3401SOL     OW11101   6.939   3.908   5.221
 3401SOL    HW111102   6.871   3.967   5.176
 3401SOL    HW211103   6.896   3.821   5.246
 3402SOL     OW11104   6.991   3.545   0.633
 3402SOL    HW111105   6.983   3.463   0.690
 3402SOL    HW211106   0.006   3.619   0.687
 3403SOL     OW11107   5.458   0.049   6.544
 3403SOL    HW111108   5.451   6.975   6.558
 3403SOL    HW211109   5.399   0.097   6.609
 3404SOL     OW11110   5.391   4.228   4.403
 3404SOL    HW111111   5.365   4.309   4.352
 3404SOL    HW211112   5.310   4.175   4.427
 3405SOL     OW11113   4.762   6.003   0.250
 3405SOL    HW111114   4.695   5.937   0.214
 3405SOL    HW211115   4.855   5.967   0.235
 3406SOL     OW11116   2.984   5.459   1.689
 3406SOL    HW111117   2.943   5.407   1.763
 3406SOL    HW211118   2.982   5.557   1.712
 3407SOL     OW11119   0.818   4.460   6.673
 3407SOL    HW111120   0.876   4.520   6.728
 3407SOL    HW211121   0.762   4.515   6.611
 3408SOL     OW11122   5.061   0.085   3.694
 3408SOL    HW111123   4.965   0.083   3.665
 3408SOL    HW211124   5.112   0.150   3.637
 3409SOL     OW11125   4.087   0.725   0.528
 3409SOL    HW111126   4.095   0.812   0.576
 3409SOL    HW211127   3.990   0.706   0.509
 3410SOL     OW11128   6.435   0.672   3.247
 3410SOL    HW111129   6.492   0.608   3.196
 3410SOL    HW211130   6.355   0.696   3.193
 3411SOL     OW11131   6.617   3.318   5.772
 3411SOL    HW111132   6.563   3.382   5.828
 3411SOL    HW211133   6.715   3.338   5.784
 3412SOL     OW11134   5.830   3.334   2.340
 3412SOL    HW111135   5.742   3.325   2.389
 3412SOL    HW211136   5.886   3.253   2.357
 3413SOL     OW11137   6.796   1.244   0.553
 3413SOL    HW111138   6.818   1.341   0.551
 3413SOL    HW211139   6.772   1.218   0.647
 3414SOL     OW11140   3.418   3.315   1.401
 3414SOL    HW111141   3.325   3.284   1.417
 3414SOL    HW211142   3.468   3.245   1.350
 3415SOL     OW11143   2.260   1.449   5.619
 3415SOL    HW111144   2.276   1.431   5.522
 3415SOL    HW211145   2.345   1.477   5.663
 3416SOL     OW11146   6.837   6.941   6.641
 3416SOL    HW111147   6.863   0.010   6.621
 3416SOL    HW211148   6.779   6.906   6.567
 3417SOL     OW11149   6.162   6.740   3.231
 3417SOL    HW111150   6.220   6.816   3.205
 3417SOL    HW211151   6.177   6.719   3.328
 3418SOL     OW11152   3.993   5.290   0.776
 3418SOL    HW111153   4.085   5.325   0.793
 3418SOL    HW211154   3.996   5.190   0.768
 3419SOL     OW11155   2.559   5.380   5.426
 3419SOL    HW111156   2.499   5.355   5.501
 3419SOL    HW211157   2.639   5.428   5.462
 3420SOL     OW11158   4.422   1.654   1.964
 3420SOL    HW111159   4.330   1.628   1.995
 3420SOL    HW211160   4.415   1.702   1.877
 3421SOL     OW11161   0.697   2.160   5.060
 3421SOL    HW111162   0.784   2.209   5.059
 3421SOL    HW211163   0.647   2.180   4.975
 3422SOL     OW11164   2.466   6.322   0.886
 3422SOL    HW111165   2.511   6.349   0.802
 3422SOL    HW211166   2.435   6.227   0.879
 3423SOL     OW11167   2.111   4.801   5.725
 3423SOL    HW111168   2.116   4.730   5.794
 3423SOL    HW211169   2.200   4.811   5.681
 3424SOL     OW11170   5.320   1.260   1.850
 3424SOL    HW111171   5.260   1.258   1.770
 3424SOL    HW211172   5.393   1.326   1.835
 3425SOL     OW11173   6.774   3.356   6.109
 3425SOL    HW111174   6.816   3.406   6.185
 3425SOL    HW211175   6.684   3.323   6.137
 3426SOL     OW11176   6.495   3.763   6.745
 3426SOL    HW111177   6.459   3.850   6.778
 3426SOL    HW211178   6.455   3.742   6.656
 3427SOL     OW11179   1.111   2.459   0.120
 3427SOL    HW111180   1.014   2.436   0.111
 3427SOL    HW211181   1.147   2.487   0.031
 3428SOL     OW11182   4.389   6.549   4.751
 3428SOL    HW111183   4.307   6.528   4.697
 3428SOL    HW211184   4.421   6.467   4.797
 3429SOL     OW11185   4.442   6.621   0.849
 3429SOL    HW111186   4.402   6.529   0.851
 3429SOL    HW211187   4.539   6.615   0.826
 3430SOL     OW11188   2.869   3.901   5.956
 3430SOL    HW111189   2.828   3.975   5.903
 3430SOL    HW211190   2.942   3.939   6.013
 3431SOL     OW11191   0.363   4.793   2.478
 3431SOL    HW111192   0.458   4.770   2.458
 3431SOL    HW211193   0.349   4.799   2.577
 3432SOL     OW11194   0.226   4.682   0.160
 3432SOL    HW111195   0.310   4.711   0.114
 3432SOL    HW211196   0.193   4.597   0.120
 3433SOL     OW11197   2.387   1.251   6.693
 3433SOL    HW111198   2.416   1.271   6.600
 3433SOL    HW211199   2.312   1.311   6.720
 3434SOL     OW11200   3.744   2.554   1.768
 3434SOL    HW111201   3.656   2.594   1.792
 3434SOL    HW211202   3.755   2.467   1.817
 3435SOL     OW11203   1.556   1.657   1.445
 3435SOL    HW111204   1.582   1.561   1.436
 3435SOL    HW211205   1.581   1.690   1.536
 3436SOL     OW11206   3.451   6.929   6.195
 3436SOL    HW111207   3.397   6.846   6.179
 3436SOL    HW211208   3.400   7.008   6.162
 3437SOL     OW11209   1.197   0.221   6.657
 3437SOL    HW111210   1.262   0.241   6.583
 3437SOL    HW211211   1.186   0.122   6.666
 3438SOL     OW11212   2.474   3.757   0.875
 3438SOL    HW111213   2.390   3.775   0.824
 3438SOL    HW211214   2.549   3.809   0.836
 3439SOL     OW11215   2.748   5.671   1.485
 3439SOL    HW111216   2.670   5.725   1.452
 3439SOL    HW211217   2.788   5.717   1.564
 3440SOL     OW11218   3.712   3.711   5.334
 3440SOL    HW111219   3.731   3.738   5.240
 3440SOL    HW211220   3.652   3.779   5.377
 3441SOL     OW11221   6.040   5.308   5.768
 3441SOL    HW111222   6.130   5.265   5.777
 3441SOL    HW211223   6.001   5.323   5.859
 3442SOL     OW11224   1.955   3.178   1.192
 3442SOL    HW111225   1.984   3.166   1.287
 3442SOL    HW211226   1.922   3.091   1.156
 3443SOL     OW11227   0.092   5.924   2.115
 3443SOL    HW111228   0.123   5.898   2.024
 3443SOL    HW211229   0.075   5.841   2.169
 3444SOL     OW11230   6.724   3.919   5.459
 3444SOL    HW111231   6.696   3.824   5.473
 3444SOL    HW211232   6.821   3.929   5.484
 3445SOL     OW11233   6.138   4.813   4.455
 3445SOL    HW111234   6.079   4.849   4.527
 3445SOL    HW211235   6.222   4.867   4.451
 3446SOL     OW11236   4.327   0.936   1.704
 3446SOL    HW111237   4.398   0.909   1.638
 3446SOL    HW211238   4.368   0.988   1.778
 3447SOL     OW11239   5.652   0.805   6.339
 3447SOL    HW111240   5.678   0.825   6.434
 3447SOL    HW211241   5.553   0.792   6.334
 3448SOL     OW11242   1.637   4.424   5.293
 3448SOL    HW111243   1.670   4.422   5.199
 3448SOL    HW211244   1.660   4.512   5.335
 3449SOL     OW11245   0.890   4.484   5.396
 3449SOL    HW111246   0.820   4.526   5.453
 3449SOL    HW211247   0.967   4.547   5.385
 3450SOL     OW11248   2.474   0.259   1.515
 3450SOL    HW111249   2.547   0.201   1.479
 3450SOL    HW211250   2.397   0.258   1.450
 3451SOL     OW11251   1.508   1.993   1.261
 3451SOL    HW111252   1.553   2.068   1.309
 3451SOL    HW211253   1.410   2.014   1.250
 3452SOL     OW11254   4.942   1.120   5.138
 3452SOL    HW111255   4.927   1.026   5.110
 3452SOL    HW211256   4.918   1.182   5.063
 3453SOL     OW11257   4.225   6.373   6.873
 3453SOL    HW111258   4.138   6.334   6.903
 3453SOL    HW211259   4.220   6.473   6.875
 3454SOL     OW11260   0.246   3.119   1.456
 3454SOL    HW111261   0.320   3.166   1.409
 3454SOL    HW211262   0.243   3.148   1.551
 3455SOL     OW11263   0.694   3.678   6.227
 3455SOL    HW111264   0.640   3.609   6.275
 3455SOL    HW211265   0.789   3.675   6.259
 3456SOL     OW11266   4.928   5.481   3.582
 3456SOL    HW111267   4.912   5.383   3.594
 3456SOL    HW211268   5.026   5.497   3.574
 3457SOL     OW11269   3.552   4.203   6.384
 3457SOL    HW111270   3.496   4.185   6.465
 3457SOL    HW211271   3.512   4.156   6.305
 3458SOL     OW11272   4.153   1.412   2.808
 3458SOL    HW111273   4.085   1.436   2.739
 3458SOL    HW211274   4.245   1.429   2.772
 3459SOL     OW11275   5.472   5.890   2.222
 3459SOL    HW111276   5.436   5.818   2.162
 3459SOL    HW211277   5.449   5.980   2.184
 3460SOL     OW11278   3.801   1.776   4.813
 3460SOL    HW111279   3.705   1.767   4.787
 3460SOL    HW211280   3.836   1.687   4.843
 3461SOL     OW11281   5.639   5.004   4.818
 3461SOL    HW111282   5.714   5.068   4.834
 3461SOL    HW211283   5.568   5.048   4.764
 3462SOL     OW11284   1.333   3.730   6.712
 3462SOL    HW111285   1.377   3.686   6.790
 3462SOL    HW211286   1.267   3.666   6.671
 3463SOL     OW11287   5.475   4.307   0.422
 3463SOL    HW111288   5.414   4.327   0.346
 3463SOL    HW211289   5.451   4.218   0.461
 3464SOL     OW11290   0.077   4.510   4.285
 3464SOL    HW111291   0.040   4.452   4.213
 3464SOL    HW211292   0.022   4.594   4.292
 3465SOL     OW11293   0.744   1.805   2.763
 3465SOL    HW111294   0.678   1.737   2.731
 3465SOL    HW211295   0.696   1.880   2.807
 3466SOL     OW11296   0.361   3.328   4.701
 3466SOL    HW111297   0.397   3.313   4.608
 3466SOL    HW211298   0.340   3.240   4.743
 3467SOL     OW11299   1.890   2.296   5.995
 3467SOL    HW111300   1.989   2.298   5.991
 3467SOL    HW211301   1.851   2.328   5.909
 3468SOL     OW11302   4.058   5.984   2.494
 3468SOL    HW111303   4.134   6.031   2.448
 3468SOL    HW211304   3.974   5.999   2.441
 3469SOL     OW11305   5.320   3.573   1.233
 3469SOL    HW111306   5.319   3.495   1.295
 3469SOL    HW211307   5.371   3.648   1.275
 3470SOL     OW11308   0.600   5.554   0.798
 3470SOL    HW111309   0.548   5.560   0.884
 3470SOL    HW211310   0.589   5.462   0.759
 3471SOL     OW11311   4.627   0.291   4.953
 3471SOL    HW111312   4.639   0.288   4.853
 3471SOL    HW211313   4.529   0.297   4.974
 3472SOL     OW11314   4.219   0.984   5.058
 3472SOL    HW111315   4.165   0.969   5.141
 3472SOL    HW211316   4.244   0.895   5.019
 3473SOL     OW11317   4.421   6.494   4.137
 3473SOL    HW111318   4.440   6.552   4.217
 3473SOL    HW211319   4.331   6.453   4.147
 3474SOL     OW11320   5.206   4.320   1.200
 3474SOL    HW111321   5.157   4.297   1.116
 3474SOL    HW211322   5.295   4.359   1.178
 3475SOL     OW11323   1.667   6.452   4.694
 3475SOL    HW111324   1.628   6.544   4.694
 3475SOL    HW211325   1.705   6.432   4.785
 3476SOL     OW11326   4.978   1.742   4.780
 3476SOL    HW111327   4.950   1.748   4.876
 3476SOL    HW211328   5.032   1.823   4.757
 3477SOL     OW11329   4.333   5.607   1.815
 3477SOL    HW111330   4.392   5.534   1.849
 3477SOL    HW211331   4.336   5.610   1.715
 3478SOL     OW11332   3.936   4.880   6.898
 3478SOL    HW111333   4.022   4.886   6.848
 3478SOL    HW211334   3.866   4.839   6.840
 3479SOL     OW11335   1.310   0.237   1.658
 3479SOL    HW111336   1.329   0.265   1.752
 3479SOL    HW211337   1.269   0.313   1.608
 3480SOL     OW11338   1.243   0.221   4.340
 3480SOL    HW111339   1.227   0.123   4.327
 3480SOL    HW211340   1.325   0.248   4.288
 3481SOL     OW11341   2.392   6.634   6.791
 3481SOL    HW111342   2.488   6.656   6.774
 3481SOL    HW211343   2.375   6.539   6.765
 3482SOL     OW11344   0.713   2.095   1.621
 3482SOL    HW111345   0.687   2.178   1.573
 3482SOL    HW211346   0.690   2.105   1.718
 3483SOL     OW11347   4.404   1.526   1.014
 3483SOL    HW111348   4.443   1.495   0.927
 3483SOL    HW211349   4.439   1.617   1.035
 3484SOL     OW11350   3.180   3.006   3.892
 3484SOL    HW111351   3.205   2.914   3.862
 3484SOL    HW211352   3.135   3.055   3.816
 3485SOL     OW11353   6.766   1.627   4.365
 3485SOL    HW111354   6.748   1.725   4.372
 3485SOL    HW211355   6.690   1.582   4.319
 3486SOL     OW11356   5.095   1.315   3.243
 3486SOL    HW111357   5.019   1.335   3.182
 3486SOL    HW211358   5.061   1.272   3.326
 3487SOL     OW11359   0.605   0.911   0.392
 3487SOL    HW111360   0.579   0.955   0.306
 3487SOL    HW211361   0.667   0.834   0.372
 3488SOL     OW11362   6.129   3.588   4.024
 3488SOL    HW111363   6.183   3.584   3.940
 3488SOL    HW211364   6.068   3.509   4.028
 3489SOL     OW11365   2.198   6.267   0.628
 3489SOL    HW111366   2.256   6.218   0.564
 3489SOL    HW211367   2.138   6.329   0.578
 3490SOL     OW11368   4.950   2.567   1.076
 3490SOL    HW111369   4.962   2.595   1.171
 3490SOL    HW211370   4.852   2.553   1.058
 3491SOL     OW11371   0.495   2.811   5.115
 3491SOL    HW111372   0.452   2.822   5.204
 3491SOL    HW211373   0.545   2.724   5.112
 3492SOL     OW11374   5.233   5.133   6.623
 3492SOL    HW111375   5.135   5.113   6.620
 3492SOL    HW211376   5.263   5.167   6.534
 3493SOL     OW11377   0.172   5.055   1.402
 3493SOL    HW111378   0.131   5.063   1.311
 3493SOL    HW211379   0.145   4.967   1.443
 3494SOL     OW11380   3.030   6.134   1.272
 3494SOL    HW111381   3.037   6.035   1.285
 3494SOL    HW211382   2.939   6.164   1.300
 3495SOL     OW11383   5.557   4.613   0.397
 3495SOL    HW111384   5.460   4.604   0.418
 3495SOL    HW211385   5.572   4.597   0.300
 3496SOL     OW11386   0.598   4.893   0.679
 3496SOL    HW111387   0.510   4.869   0.640
 3496SOL    HW211388   0.652   4.810   0.694
 3497SOL     OW11389   4.587   6.259   4.111
 3497SOL    HW111390   4.546   6.350   4.110
 3497SOL    HW211391   4.520   6.192   4.080
 3498SOL     OW11392   1.354   1.710   1.264
 3498SOL    HW111393   1.294   1.776   1.308
 3498SOL    HW211394   1.438   1.700   1.317
 3499SOL     OW11395   6.670   3.573   4.035
 3499SOL    HW111396   6.679   3.476   4.055
 3499SOL    HW211397   6.573   3.599   4.038
 3500SOL     OW11398   6.773   3.151   0.663
 3500SOL    HW111399   6.708   3.217   0.700
 3500SOL    HW211400   6.755   3.061   0.703
 3501SOL     OW11401   0.797   4.362   3.848
 3501SOL    HW111402   0.877   4.302   3.839
 3501SOL    HW211403   0.757   4.352   3.939
 3502SOL     OW11404   1.370   4.288   1.560
 3502SOL    HW111405   1.273   4.288   1.534
 3502SOL    HW211406   1.379   4.323   1.653
 3503SOL     OW11407   3.454   6.497   3.806
 3503SOL    HW111408   3.435   6.535   3.897
 3503SOL    HW211409   3.398   6.543   3.738
 3504SOL     OW11410   2.206   3.110   2.664
 3504SOL    HW111411   2.256   3.046   2.606
 3504SOL    HW211412   2.108   3.088   2.661
 3505SOL     OW11413   4.307   6.137   5.162
 3505SOL    HW111414   4.402   6.124   5.136
 3505SOL    HW211415   4.258   6.050   5.154
 3506SOL     OW11416   5.594   4.753   2.054
 3506SOL    HW111417   5.683   4.708   2.048
 3506SOL    HW211418   5.541   4.711   2.128
 3507SOL     OW11419   0.377   0.666   6.671
 3507SOL    HW111420   0.399   0.584   6.723
 3507SOL    HW211421   0.287   0.655   6.628
 3508SOL     OW11422   5.921   3.697   6.977
 3508SOL    HW111423   5.975   3.636   0.010
 3508SOL    HW211424   5.832   3.654   6.959
 3509SOL     OW11425   6.441   0.374   0.641
 3509SOL    HW111426   6.435   0.332   0.731
 3509SOL    HW211427   6.371   0.335   0.581
 3510SOL     OW11428   2.312   2.613   2.499
 3510SOL    HW111429   2.333   2.594   2.595
 3510SOL    HW211430   2.381   2.571   2.441
 3511SOL     OW11431   0.518   0.570   5.494
 3511SOL    HW111432   0.441   0.592   5.553
 3511SOL    HW211433   0.564   0.654   5.465
 3512SOL     OW11434   3.157   3.034   1.027
 3512SOL    HW111435   3.203   2.959   1.075
 3512SOL    HW211436   3.169   3.023   0.929
 3513SOL     OW11437   5.483   4.389   1.183
 3513SOL    HW111438   5.536   4.457   1.133
 3513SOL    HW211439   5.468   4.421   1.277
 3514SOL     OW11440   1.389   6.801   1.639
 3514SOL    HW111441   1.338   6.839   1.562
 3514SOL    HW211442   1.451   6.730   1.607
 3515SOL     OW11443   3.826   6.119   3.116
 3515SOL    HW111444   3.828   6.022   3.091
 3515SOL    HW211445   3.872   6.131   3.204
 3516SOL     OW11446   2.570   0.974   0.601
 3516SOL    HW111447   2.585   1.045   0.532
 3516SOL    HW211448   2.485   0.993   0.650
 3517SOL     OW11449   0.836   0.243   6.045
 3517SOL    HW111450   0.788   0.165   6.005
 3517SOL    HW211451   0.864   0.220   6.138
 3518SOL     OW11452   4.704   3.327   5.814
 3518SOL    HW111453   4.645   3.262   5.765
 3518SOL    HW211454   4.793   3.285   5.829
 3519SOL     OW11455   3.156   6.303   0.692
 3519SOL    HW111456   3.119   6.293   0.784
 3519SOL    HW211457   3.087   6.343   0.633
 3520SOL     OW11458   3.645   5.300   1.094
 3520SOL    HW111459   3.695   5.365   1.038
 3520SOL    HW211460   3.582   5.350   1.154
 3521SOL     OW11461   5.761   1.546   6.252
 3521SOL    HW111462   5.673   1.587   6.230
 3521SOL    HW211463   5.834   1.600   6.209
 3522SOL     OW11464   2.901   6.415   1.523
 3522SOL    HW111465   2.836   6.425   1.599
 3522SOL    HW211466   2.902   6.500   1.470
 3523SOL     OW11467   2.138   4.768   5.325
 3523SOL    HW111468   2.176   4.789   5.235
 3523SOL    HW211469   2.038   4.762   5.318
 3524SOL     OW11470   2.358   0.400   1.702
 3524SOL    HW111471   2.290   0.449   1.648
 3524SOL    HW211472   2.418   0.348   1.641
 3525SOL     OW11473   2.122   3.683   3.078
 3525SOL    HW111474   2.062   3.763   3.073
 3525SOL    HW211475   2.157   3.662   2.987
 3526SOL     OW11476   3.403   0.240   3.576
 3526SOL    HW111477   3.424   0.271   3.484
 3526SOL    HW211478   3.450   0.298   3.642
 3527SOL     OW11479   5.678   2.800   5.866
 3527SOL    HW111480   5.753   2.797   5.800
 3527SOL    HW211481   5.709   2.848   5.949
 3528SOL     OW11482   0.989   6.672   4.378
 3528SOL    HW111483   1.082   6.642   4.397
 3528SOL    HW211484   0.990   6.770   4.355
 3529SOL     OW11485   3.567   6.163   6.962
 3529SOL    HW111486   3.572   6.254   7.003
 3529SOL    HW211487   3.611   6.164   6.873
 3530SOL     OW11488   1.260   5.976   2.977
 3530SOL    HW111489   1.317   6.017   2.905
 3530SOL    HW211490   1.298   5.886   3.002
 3531SOL     OW11491   4.917   4.534   6.564
 3531SOL    HW111492   4.968   4.448   6.564
 3531SOL    HW211493   4.899   4.562   6.658
 3532SOL     OW11494   2.040   6.462   0.438
 3532SOL    HW111495   2.028   6.547   0.489
 3532SOL    HW211496   2.093   6.479   0.355
 3533SOL     OW11497   1.201   1.144   3.967
 3533SOL    HW111498   1.158   1.230   3.994
 3533SOL    HW211499   1.232   1.095   4.049
 3534SOL     OW11500   4.929   0.281   5.342
 3534SOL    HW111501   4.901   0.345   5.271
 3534SOL    HW211502   4.910   0.320   5.432
 3535SOL     OW11503   4.205   6.408   6.582
 3535SOL    HW111504   4.184   6.328   6.525
 3535SOL    HW211505   4.211   6.381   6.678
 3536SOL     OW11506   1.100   4.104   2.790
 3536SOL    HW111507   1.190   4.089   2.749
 3536SOL    HW211508   1.063   4.191   2.758
 3537SOL     OW11509   2.873   4.091   1.023
 3537SOL    HW111510   2.835   4.032   1.095
 3537SOL    HW211511   2.896   4.180   1.061
 3538SOL     OW11512   3.340   1.217   3.840
 3538SOL    HW111513   3.273   1.164   3.893
 3538SOL    HW211514   3.298   1.248   3.755
 3539SOL     OW11515   5.249   6.263   6.722
 3539SOL    HW111516   5.224   6.346   6.672
 3539SOL    HW211517   5.196   6.186   6.688
 3540SOL     OW11518   2.307   4.103   6.077
 3540SOL    HW111519   2.221   4.155   6.070
 3540SOL    HW211520   2.352   4.101   5.988
 3541SOL     OW11521   1.984   2.774   1.517
 3541SOL    HW111522   1.986   2.847   1.449
 3541SOL    HW211523   1.995   2.813   1.608
 3542SOL     OW11524   6.040   1.409   6.817
 3542SOL    HW111525   6.054   1.422   6.719
 3542SOL    HW211526   6.125   1.429   6.866
 3543SOL     OW11527   0.424   2.467   3.963
 3543SOL    HW111528   0.401   2.564   3.966
 3543SOL    HW211529   0.502   2.450   4.024
 3544SOL     OW11530   3.240   3.881   6.546
 3544SOL    HW111531   3.273   3.795   6.584
 3544SOL    HW211532   3.220   3.945   6.620
 3545SOL     OW11533   3.984   6.921   0.800
 3545SOL    HW111534   4.014   6.825   0.796
 3545SOL    HW211535   3.974   6.956   0.707
 3546SOL     OW11536   6.422   4.214   2.164
 3546SOL    HW111537   6.409   4.203   2.065
 3546SOL    HW211538   6.500   4.158   2.193
 3547SOL     OW11539   1.500   4.130   4.870
 3547SOL    HW111540   1.424   4.106   4.931
 3547SOL    HW211541   1.586   4.119   4.919
 3548SOL     OW11542   5.429   0.582   6.074
 3548SOL    HW111543   5.511   0.590   6.017
 3548SOL    HW211544   5.440   0.506   6.139
 3549SOL     OW11545   2.712   6.560   6.849
 3549SOL    HW111546   2.776   6.605   6.912
 3549SOL    HW211547   2.704   6.614   6.766
 3550SOL     OW11548   4.970   0.926   5.466
 3550SOL    HW111549   4.986   1.024   5.452
 3550SOL    HW211550   5.030   0.873   5.406
 3551SOL     OW11551   5.033   2.100   4.470
 3551SOL    HW111552   5.038   2.197   4.491
 3551SOL    HW211553   4.940   2.077   4.442
 3552SOL     OW11554   6.229   6.742   3.514
 3552SOL    HW111555   6.208   6.720   3.609
 3552SOL    HW211556   6.275   6.831   3.511
 3553SOL     OW11557   6.018   5.889   6.939
 3553SOL    HW111558   6.060   5.977   6.917
 3553SOL    HW211559   5.919   5.900   6.946
 3554SOL     OW11560   5.228   4.534   6.847
 3554SOL    HW111561   5.240   4.625   6.806
 3554SOL    HW211562   5.200   4.543   6.942
 3555SOL     OW11563   3.103   2.035   5.181
 3555SOL    HW111564   3.048   1.991   5.110
 3555SOL    HW211565   3.132   2.126   5.150
 3556SOL     OW11566   5.889   0.940   0.645
 3556SOL    HW111567   5.981   0.939   0.685
 3556SOL    HW211568   5.877   1.023   0.591
 3557SOL     OW11569   5.658   0.121   1.511
 3557SOL    HW111570   5.710   0.205   1.519
 3557SOL    HW211571   5.617   0.116   1.420
 3558SOL     OW11572   3.786   5.263   2.424
 3558SOL    HW111573   3.783   5.342   2.486
 3558SOL    HW211574   3.696   5.218   2.423
 3559SOL     OW11575   4.660   6.829   6.355
 3559SOL    HW111576   4.571   6.829   6.401
 3559SOL    HW211577   4.666   6.907   6.293
 3560SOL     OW11578   1.100   5.291   4.082
 3560SOL    HW111579   1.118   5.383   4.116
 3560SOL    HW211580   1.086   5.229   4.159
 3561SOL     OW11581   4.428   3.671   5.299
 3561SOL    HW111582   4.431   3.744   5.366
 3561SOL    HW211583   4.520   3.657   5.261
 3562SOL     OW11584   2.853   1.995   0.120
 3562SOL    HW111585   2.879   1.899   0.109
 3562SOL    HW211586   2.890   2.030   0.206
 3563SOL     OW11587   6.324   2.574   5.693
 3563SOL    HW111588   6.265   2.512   5.744
 3563SOL    HW211589   6.298   2.574   5.596
 3564SOL     OW11590   5.920   3.564   2.223
 3564SOL    HW111591   5.962   3.545   2.134
 3564SOL    HW211592   5.878   3.480   2.257
 3565SOL     OW11593   4.454   5.736   5.878
 3565SOL    HW111594   4.428   5.655   5.826
 3565SOL    HW211595   4.421   5.727   5.972
 3566SOL     OW11596   1.024   0.434   4.875
 3566SOL    HW111597   1.015   0.419   4.776
 3566SOL    HW211598   0.983   0.357   4.924
 3567SOL     OW11599   0.201   3.585   6.578
 3567SOL    HW111600   0.165   3.493   6.569
 3567SOL    HW211601   0.264   3.589   6.656
 3568SOL     OW11602   5.798   3.730   6.207
 3568SOL    HW111603   5.861   3.693   6.140
 3568SOL    HW211604   5.717   3.766   6.161
 3569SOL     OW11605   0.830   0.305   3.912
 3569SOL    HW111606   0.902   0.275   3.976
 3569SOL    HW211607   0.791   0.226   3.866
 3570SOL     OW11608   5.489   1.587   3.928
 3570SOL    HW111609   5.485   1.602   4.027
 3570SOL    HW211610   5.469   1.672   3.881
 3571SOL     OW11611   6.654   0.020   5.080
 3571SOL    HW111612   6.610   6.960   5.109
 3571SOL    HW211613   6.683   0.072   5.161
 3572SOL     OW11614   6.303   6.328   5.067
 3572SOL    HW111615   6.228   6.357   5.008
 3572SOL    HW211616   6.385   6.380   5.044
 3573SOL     OW11617   0.770   2.190   2.253
 3573SOL    HW111618   0.745   2.124   2.183
 3573SOL    HW211619   0.870   2.199   2.257
 3574SOL     OW11620   6.082   3.872   6.803
 3574SOL    HW111621   6.163   3.897   6.857
 3574SOL    HW211622   6.032   3.800   6.849
 3575SOL     OW11623   6.043   6.116   1.733
 3575SOL    HW111624   5.958   6.149   1.691
 3575SOL    HW211625   6.064   6.024   1.698
 3576SOL     OW11626   0.680   1.672   6.614
 3576SOL    HW111627   0.633   1.753   6.578
 3576SOL    HW211628   0.685   1.678   6.714
 3577SOL     OW11629   1.996   3.328   0.136
 3577SOL    HW111630   2.053   3.275   0.199
 3577SOL    HW211631   2.035   3.419   0.124
 3578SOL     OW11632   3.432   4.617   1.628
 3578SOL    HW111633   3.460   4.614   1.724
 3578SOL    HW211634   3.427   4.524   1.592
 3579SOL     OW11635   1.187   4.134   5.425
 3579SOL    HW111636   1.187   4.066   5.498
 3579SOL    HW211637   1.278   4.173   5.417
 3580SOL     OW11638   6.764   2.369   1.486
 3580SOL    HW111639   6.851   2.346   1.528
 3580SOL    HW211640   6.777   2.383   1.387
 3581SOL     OW11641   6.055   0.956   3.361
 3581SOL    HW111642   6.137   0.918   3.403
 3581SOL    HW211643   5.989   0.979   3.433
 3582SOL     OW11644   6.911   0.664   5.472
 3582SOL    HW111645   6.930   0.570   5.442
 3582SOL    HW211646   6.815   0.671   5.501
 3583SOL     OW11647   2.429   5.265   0.643
 3583SOL    HW111648   2.425   5.189   0.578
 3583SOL    HW211649   2.506   5.251   0.705
 3584SOL     OW11650   5.733   6.818   5.815
 3584SOL    HW111651   5.699   6.783   5.903
 3584SOL    HW211652   5.782   6.904   5.830
 3585SOL     OW11653   2.856   5.164   4.016
 3585SOL    HW111654   2.827   5.123   3.930
 3585SOL    HW211655   2.776   5.198   4.066
 3586SOL     OW11656   0.335   2.114   6.046
 3586SOL    HW111657   0.419   2.068   6.075
 3586SOL    HW211658   0.258   2.078   6.100
 3587SOL     OW11659   3.897   0.257   6.719
 3587SOL    HW111660   3.812   0.305   6.736
 3587SOL    HW211661   3.974   0.320   6.725
 3588SOL     OW11662   2.000   1.319   4.993
 3588SOL    HW111663   1.996   1.306   4.894
 3588SOL    HW211664   2.042   1.407   5.014
 3589SOL     OW11665   2.842   0.289   5.190
 3589SOL    HW111666   2.775   0.273   5.117
 3589SOL    HW211667   2.934   0.281   5.152
 3590SOL     OW11668   1.438   5.194   0.058
 3590SOL    HW111669   1.394   5.174   0.146
 3590SOL    HW211670   1.473   5.287   0.059
 3591SOL     OW11671   4.889   2.070   5.770
 3591SOL    HW111672   4.937   1.994   5.813
 3591SOL    HW211673   4.948   2.151   5.770
 3592SOL     OW11674   5.318   2.531   2.159
 3592SOL    HW111675   5.339   2.531   2.257
 3592SOL    HW211676   5.387   2.584   2.111
 3593SOL     OW11677   0.433   4.918   3.791
 3593SOL    HW111678   0.504   4.852   3.814
 3593SOL    HW211679   0.343   4.880   3.813
 3594SOL     OW11680   3.614   0.905   4.172
 3594SOL    HW111681   3.531   0.955   4.198
 3594SOL    HW211682   3.653   0.946   4.089
 3595SOL     OW11683   2.329   6.248   5.611
 3595SOL    HW111684   2.318   6.327   5.551
 3595SOL    HW211685   2.359   6.169   5.558
 3596SOL     OW11686   0.017   3.326   3.428
 3596SOL    HW111687   0.108   3.335   3.468
 3596SOL    HW211688   6.973   3.331   3.500
 3597SOL     OW11689   3.641   6.299   3.153
 3597SOL    HW111690   3.705   6.223   3.143
 3597SOL    HW211691   3.547   6.266   3.140
 3598SOL     OW11692   1.212   0.287   0.614
 3598SOL    HW111693   1.224   0.188   0.605
 3598SOL    HW211694   1.279   0.334   0.557
 3599SOL     OW11695   0.165   1.761   4.060
 3599SOL    HW111696   0.116   1.785   4.144
 3599SOL    HW211697   0.101   1.755   3.984
 3600SOL     OW11698   6.196   0.601   1.348
 3600SOL    HW111699   6.264   0.650   1.293
 3600SOL    HW211700   6.106   0.643   1.335
 3601SOL     OW11701   6.441   3.555   5.461
 3601SOL    HW111702   6.362   3.562   5.522
 3601SOL    HW211703   6.417   3.588   5.370
 3602SOL     OW11704   2.076   2.153   0.437
 3602SOL    HW111705   2.090   2.056   0.454
 3602SOL    HW211706   2.163   2.202   0.445
 3603SOL     OW11707   4.235   4.825   4.645
 3603SOL    HW111708   4.280   4.892   4.586
 3603SOL    HW211709   4.192   4.871   4.722
 3604SOL     OW11710   0.369   3.390   3.172
 3604SOL    HW111711   0.380   3.300   3.213
 3604SOL    HW211712   0.347   3.381   3.075
 3605SOL     OW11713   6.556   2.876   6.475
 3605SOL    HW111714   6.464   2.887   6.513
 3605SOL    HW211715   6.560   2.789   6.425
 3606SOL     OW11716   1.663   4.463   4.828
 3606SOL    HW111717   1.676   4.417   4.916
 3606SOL    HW211718   1.566   4.483   4.815
 3607SOL     OW11719   4.740   6.745   7.013
 3607SOL    HW111720   4.773   6.840   7.004
 3607SOL    HW211721   4.677   6.739   0.065
 3608SOL     OW11722   0.700   2.438   2.319
 3608SOL    HW111723   0.718   2.343   2.296
 3608SOL    HW211724   0.727   2.497   2.243
 3609SOL     OW11725   6.508   6.828   5.229
 3609SOL    HW111726   6.444   6.870   5.293
 3609SOL    HW211727   6.458   6.768   5.167
 3610SOL     OW11728   1.886   5.941   4.905
 3610SOL    HW111729   1.792   5.918   4.931
 3610SOL    HW211730   1.886   6.028   4.857
 3611SOL     OW11731   4.133   5.325   5.117
 3611SOL    HW111732   4.137   5.329   5.217
 3611SOL    HW211733   4.037   5.330   5.088
 3612SOL     OW11734   1.191   7.022   1.685
 3612SOL    HW111735   1.145   0.039   1.607
 3612SOL    HW211736   1.275   0.048   1.705
 3613SOL     OW11737   5.334   5.853   6.872
 3613SOL    HW111738   5.364   5.946   6.851
 3613SOL    HW211739   5.297   5.811   6.789
 3614SOL     OW11740   4.030   3.151   3.592
 3614SOL    HW111741   3.994   3.119   3.679
 3614SOL    HW211742   3.960   3.141   3.521
 3615SOL     OW11743   6.594   6.281   6.319
 3615SOL    HW111744   6.516   6.221   6.335
 3615SOL    HW211745   6.565   6.376   6.331
 3616SOL     OW11746   6.596   0.833   4.502
 3616SOL    HW111747   6.653   0.863   4.426
 3616SOL    HW211748   6.525   0.901   4.520
 3617SOL     OW11749   6.477   0.679   6.879
 3617SOL    HW111750   6.404   0.706   6.943
 3617SOL    HW211751   6.551   0.746   6.884
 3618SOL     OW11752   2.588   0.823   5.976
 3618SOL    HW111753   2.574   0.785   6.067
 3618SOL    HW211754   2.517   0.788   5.915
 3619SOL     OW11755   5.157   2.894   4.324
 3619SOL    HW111756   5.058   2.911   4.322
 3619SOL    HW211757   5.206   2.981   4.326
 3620SOL     OW11758   6.226   1.087   4.893
 3620SOL    HW111759   6.145   1.072   4.836
 3620SOL    HW211760   6.258   1.181   4.882
 3621SOL     OW11761   1.846   3.283   5.805
 3621SOL    HW111762   1.933   3.332   5.811
 3621SOL    HW211763   1.838   3.241   5.714
 3622SOL     OW11764   0.569   2.525   1.157
 3622SOL    HW111765   0.541   2.575   1.239
 3622SOL    HW211766   0.605   2.590   1.089
 3623SOL     OW11767   6.841   5.379   4.418
 3623SOL    HW111768   6.855   5.289   4.460
 3623SOL    HW211769   6.748   5.411   4.437
 3624SOL     OW11770   2.030   0.764   1.614
 3624SOL    HW111771   1.968   0.704   1.563
 3624SOL    HW211772   2.122   0.723   1.614
 3625SOL     OW11773   0.429   3.326   4.379
 3625SOL    HW111774   0.475   3.238   4.386
 3625SOL    HW211775   0.497   3.400   4.383
 3626SOL     OW11776   2.521   3.822   5.295
 3626SOL    HW111777   2.476   3.893   5.240
 3626SOL    HW211778   2.452   3.760   5.331
 3627SOL     OW11779   3.081   3.586   3.883
 3627SOL    HW111780   3.034   3.652   3.941
 3627SOL    HW211781   3.180   3.591   3.900
 3628SOL     OW11782   3.500   5.209   2.564
 3628SOL    HW111783   3.580   5.245   2.612
 3628SOL    HW211784   3.426   5.276   2.566
 3629SOL     OW11785   6.440   2.480   4.971
 3629SOL    HW111786   6.369   2.508   5.035
 3629SOL    HW211787   6.521   2.451   5.021
 3630SOL     OW11788   5.744   1.869   4.587
 3630SOL    HW111789   5.789   1.871   4.676
 3630SOL    HW211790   5.728   1.774   4.560
 3631SOL     OW11791   2.074   1.099   4.448
 3631SOL    HW111792   2.125   1.014   4.467
 3631SOL    HW211793   2.079   1.119   4.351
 3632SOL     OW11794   4.365   0.456   6.586
 3632SOL    HW111795   4.376   0.391   6.661
 3632SOL    HW211796   4.423   0.429   6.509
 3633SOL     OW11797   2.327   2.990   5.931
 3633SOL    HW111798   2.392   3.066   5.928
 3633SOL    HW211799   2.275   2.993   6.016
 3634SOL     OW11800   2.008   5.748   5.245
 3634SOL    HW111801   2.042   5.683   5.177
 3634SOL    HW211802   1.993   5.700   5.332
 3635SOL     OW11803   2.684   1.396   5.324
 3635SOL    HW111804   2.667   1.304   5.361
 3635SOL    HW211805   2.665   1.464   5.394
 3636SOL     OW11806   1.236   5.630   6.411
 3636SOL    HW111807   1.210   5.666   6.322
 3636SOL    HW211808   1.335   5.634   6.422
 3637SOL     OW11809   5.492   1.197   2.051
 3637SOL    HW111810   5.428   1.218   1.977
 3637SOL    HW211811   5.481   1.101   2.078
 3638SOL     OW11812   6.320   5.182   4.509
 3638SOL    HW111813   6.273   5.264   4.479
 3638SOL    HW211814   6.335   5.121   4.431
 3639SOL     OW11815   2.061   5.063   0.159
 3639SOL    HW111816   2.105   4.989   0.210
 3639SOL    HW211817   2.128   5.135   0.140
 3640SOL     OW11818   3.771   5.971   1.294
 3640SOL    HW111819   3.680   5.949   1.328
 3640SOL    HW211820   3.813   5.890   1.254
 3641SOL     OW11821   2.751   0.539   5.304
 3641SOL    HW111822   2.795   0.458   5.264
 3641SOL    HW211823   2.652   0.530   5.296
 3642SOL     OW11824   5.892   0.157   3.491
 3642SOL    HW111825   5.930   0.099   3.563
 3642SOL    HW211826   5.966   0.187   3.430
 3643SOL     OW11827   2.499   4.526   5.087
 3643SOL    HW111828   2.593   4.562   5.081
 3643SOL    HW211829   2.491   4.467   5.167
 3644SOL     OW11830   0.127   1.127   0.833
 3644SOL    HW111831   0.217   1.113   0.791
 3644SOL    HW211832   0.057   1.118   0.763
 3645SOL     OW11833   3.291   0.602   3.313
 3645SOL    HW111834   3.214   0.607   3.376
 3645SOL    HW211835   3.376   0.623   3.363
 3646SOL     OW11836   0.276   4.640   4.760
 3646SOL    HW111837   0.218   4.591   4.695
 3646SOL    HW211838   0.254   4.611   4.853
 3647SOL     OW11839   2.852   3.045   1.003
 3647SOL    HW111840   2.939   3.088   1.028
 3647SOL    HW211841   2.854   2.949   1.029
 3648SOL     OW11842   2.911   6.264   2.586
 3648SOL    HW111843   2.972   6.253   2.664
 3648SOL    HW211844   2.951   6.219   2.506
 3649SOL     OW11845   3.081   3.569   1.275
 3649SOL    HW111846   3.071   3.491   1.337
 3649SOL    HW211847   3.044   3.545   1.186
 3650SOL     OW11848   0.165   6.917   1.641
 3650SOL    HW111849   0.101   6.991   1.660
 3650SOL    HW211850   0.249   6.955   1.602
 3651SOL     OW11851   1.957   5.540   2.612
 3651SOL    HW111852   2.039   5.589   2.640
 3651SOL    HW211853   1.904   5.597   2.550
 3652SOL     OW11854   4.500   5.550   3.275
 3652SOL    HW111855   4.590   5.569   3.315
 3652SOL    HW211856   4.512   5.499   3.190
 3653SOL     OW11857   6.998   2.738   3.716
 3653SOL    HW111858   6.974   2.698   3.804
 3653SOL    HW211859   7.009   2.665   3.648
 3654SOL     OW11860   1.856   6.865   1.647
 3654SOL    HW111861   1.785   6.935   1.641
 3654SOL    HW211862   1.945   6.909   1.661
 3655SOL     OW11863   1.782   0.292   4.482
 3655SOL    HW111864   1.874   0.328   4.496
 3655SOL    HW211865   1.730   0.299   4.567
 3656SOL     OW11866   2.510   2.218   1.950
 3656SOL    HW111867   2.439   2.240   2.017
 3656SOL    HW211868   2.476   2.147   1.888
 3657SOL     OW11869   4.022   6.055   1.336
 3657SOL    HW111870   4.058   6.024   1.423
 3657SOL    HW211871   3.924   6.034   1.330
 3658SOL     OW11872   1.607   5.542   6.171
 3658SOL    HW111873   1.575   5.548   6.265
 3658SOL    HW211874   1.554   5.605   6.114
 3659SOL     OW11875   2.044   4.351   6.799
 3659SOL    HW111876   2.053   4.357   6.899
 3659SOL    HW211877   2.006   4.262   6.774
 3660SOL     OW11878   4.619   5.749   1.849
 3660SOL    HW111879   4.612   5.650   1.852
 3660SOL    HW211880   4.610   5.781   1.755
 3661SOL     OW11881   4.466   1.026   0.545
 3661SOL    HW111882   4.540   1.090   0.565
 3661SOL    HW211883   4.496   0.933   0.564
 3662SOL     OW11884   3.305   6.903   5.738
 3662SOL    HW111885   3.252   6.921   5.655
 3662SOL    HW211886   3.394   6.863   5.713
 3663SOL     OW11887   1.093   2.987   6.671
 3663SOL    HW111888   1.031   2.912   6.696
 3663SOL    HW211889   1.044   3.052   6.613
 3664SOL     OW11890   4.350   1.457   0.685
 3664SOL    HW111891   4.343   1.548   0.646
 3664SOL    HW211892   4.323   1.389   0.617
 3665SOL     OW11893   1.097   6.687   5.796
 3665SOL    HW111894   1.059   6.690   5.704
 3665SOL    HW211895   1.190   6.723   5.795
 3666SOL     OW11896   0.963   5.182   3.876
 3666SOL    HW111897   1.023   5.228   3.941
 3666SOL    HW211898   0.990   5.086   3.869
 3667SOL     OW11899   6.681   1.717   6.738
 3667SOL    HW111900   6.704   1.713   6.836
 3667SOL    HW211901   6.763   1.741   6.686
 3668SOL     OW11902   1.054   6.242   2.303
 3668SOL    HW111903   1.026   6.162   2.251
 3668SOL    HW211904   1.025   6.325   2.255
 3669SOL     OW11905   6.570   3.209   2.961
 3669SOL    HW111906   6.540   3.274   3.031
 3669SOL    HW211907   6.496   3.195   2.895
 3670SOL     OW11908   1.717   5.657   5.827
 3670SOL    HW111909   1.660   5.703   5.894
 3670SOL    HW211910   1.661   5.593   5.774
 3671SOL     OW11911   0.831   0.668   2.707
 3671SOL    HW111912   0.811   0.631   2.797
 3671SOL    HW211913   0.929   0.679   2.696
 3672SOL     OW11914   0.255   0.710   0.882
 3672SOL    HW111915   0.351   0.686   0.866
 3672SOL    HW211916   0.198   0.671   0.810
 3673SOL     OW11917   5.068   0.455   6.715
 3673SOL    HW111918   5.071   0.482   6.619
 3673SOL    HW211919   5.033   0.530   6.770
 3674SOL     OW11920   1.296   6.440   1.489
 3674SOL    HW111921   1.209   6.481   1.462
 3674SOL    HW211922   1.313   6.358   1.435
 3675SOL     OW11923   1.807   2.156   4.991
 3675SOL    HW111924   1.863   2.093   5.045
 3675SOL    HW211925   1.859   2.240   4.974
 3676SOL     OW11926   2.330   5.505   3.529
 3676SOL    HW111927   2.247   5.474   3.483
 3676SOL    HW211928   2.377   5.572   3.471
 3677SOL     OW11929   6.584   6.824   4.720
 3677SOL    HW111930   6.591   6.914   4.677
 3677SOL    HW211931   6.499   6.780   4.690
 3678SOL     OW11932   0.797   1.682   3.654
 3678SOL    HW111933   0.882   1.698   3.704
 3678SOL    HW211934   0.816   1.679   3.556
 3679SOL     OW11935   0.156   0.875   2.043
 3679SOL    HW111936   0.174   0.797   1.983
 3679SOL    HW211937   0.158   0.960   1.990
 3680SOL     OW11938   6.974   3.483   4.116
 3680SOL    HW111939   6.924   3.567   4.099
 3680SOL    HW211940   6.912   3.412   4.150
 3681SOL     OW11941   6.977   5.972   5.815
 3681SOL    HW111942   6.992   5.891   5.758
 3681SOL    HW211943   6.932   6.043   5.761
 3682SOL     OW11944   0.067   1.954   6.151
 3682SOL    HW111945   7.012   1.949   6.212
 3682SOL    HW211946   0.106   1.863   6.139
 3683SOL     OW11947   5.257   6.311   4.563
 3683SOL    HW111948   5.248   6.338   4.658
 3683SOL    HW211949   5.174   6.335   4.513
 3684SOL     OW11950   1.340   3.360   0.706
 3684SOL    HW111951   1.288   3.290   0.657
 3684SOL    HW211952   1.278   3.412   0.765
 3685SOL     OW11953   6.859   6.415   6.388
 3685SOL    HW111954   6.798   6.464   6.450
 3685SOL    HW211955   6.805   6.352   6.332
 3686SOL     OW11956   6.121   4.414   1.513
 3686SOL    HW111957   6.025   4.440   1.512
 3686SOL    HW211958   6.135   4.335   1.453
 3687SOL     OW11959   3.417   0.831   0.245
 3687SOL    HW111960   3.347   0.895   0.214
 3687SOL    HW211961   3.385   0.738   0.232
 3688SOL     OW11962   1.368   3.758   0.403
 3688SOL    HW111963   1.442   3.772   0.338
 3688SOL    HW211964   1.376   3.826   0.476
 3689SOL     OW11965   2.254   0.696   3.663
 3689SOL    HW111966   2.172   0.669   3.612
 3689SOL    HW211967   2.227   0.731   3.752
 3690SOL     OW11968   6.090   6.997   5.669
 3690SOL    HW111969   6.116   0.035   5.596
 3690SOL    HW211970   5.997   6.965   5.652
 3691SOL     OW11971   3.430   2.738   6.845
 3691SOL    HW111972   3.424   2.639   6.835
 3691SOL    HW211973   3.525   2.767   6.833
 3692SOL     OW11974   1.742   0.060   5.707
 3692SOL    HW111975   1.683   7.014   5.669
 3692SOL    HW211976   1.735   0.142   5.651
 3693SOL     OW11977   2.651   2.131   2.982
 3693SOL    HW111978   2.715   2.136   2.905
 3693SOL    HW211979   2.616   2.223   3.002
 3694SOL     OW11980   1.695   5.881   3.095
 3694SOL    HW111981   1.715   5.827   3.013
 3694SOL    HW211982   1.770   5.871   3.161
 3695SOL     OW11983   1.532   2.411   2.163
 3695SOL    HW111984   1.524   2.475   2.240
 3695SOL    HW211985   1.543   2.318   2.199
 3696SOL     OW11986   3.690   6.527   5.974
 3696SOL    HW111987   3.647   6.438   5.988
 3696SOL    HW211988   3.621   6.599   5.976
 3697SOL     OW11989   6.302   0.374   4.320
 3697SOL    HW111990   6.223   0.316   4.333
 3697SOL    HW211991   6.328   0.416   4.408
 3698SOL     OW11992   2.942   0.147   5.931
 3698SOL    HW111993   2.944   0.228   5.991
 3698SOL    HW211994   2.870   0.158   5.863
 3699SOL     OW11995   0.557   4.000   2.507
 3699SOL    HW111996   0.540   4.072   2.575
 3699SOL    HW211997   0.581   3.915   2.554
 3700SOL     OW11998   0.316   0.174   4.212
 3700SOL    HW111999   0.272   0.090   4.180
 3700SOL    HW212000   0.344   0.161   4.307
 3701SOL     OW12001   6.228   0.653   4.208
 3701SOL    HW112002   6.311   0.601   4.224
 3701SOL    HW212003   6.249   0.733   4.151
 3702SOL     OW12004   3.238   1.010   0.131
 3702SOL    HW112005   3.248   1.097   0.179
 3702SOL    HW212006   3.145   0.975   0.143
 3703SOL     OW12007   4.312   4.614   6.565
 3703SOL    HW112008   4.361   4.542   6.516
 3703SOL    HW212009   4.254   4.665   6.501
 3704SOL     OW12010   1.998   0.277   2.567
 3704SOL    HW112011   1.951   0.260   2.480
 3704SOL    HW212012   2.035   0.191   2.602
 3705SOL     OW12013   5.731   1.069   3.833
 3705SOL    HW112014   5.679   1.092   3.915
 3705SOL    HW212015   5.756   1.153   3.785
 3706SOL     OW12016   2.009   2.411   3.987
 3706SOL    HW112017   2.083   2.444   3.928
 3706SOL    HW212018   1.971   2.326   3.949
 3707SOL     OW12019   4.449   2.638   5.189
 3707SOL    HW112020   4.481   2.572   5.121
 3707SOL    HW212021   4.350   2.630   5.199
 3708SOL     OW12022   5.800   0.563   6.373
 3708SOL    HW112023   5.753   0.506   6.306
 3708SOL    HW212024   5.781   0.660   6.353
 3709SOL     OW12025   4.198   0.854   6.459
 3709SOL    HW112026   4.154   0.933   6.501
 3709SOL    HW212027   4.198   0.864   6.360
 3710SOL     OW12028   0.247   4.954   0.911
 3710SOL    HW112029   0.215   5.045   0.884
 3710SOL    HW212030   0.264   4.899   0.828
 3711SOL     OW12031   6.429   4.707   2.720
 3711SOL    HW112032   6.450   4.663   2.633
 3711SOL    HW212033   6.507   4.698   2.781
 3712SOL     OW12034   2.241   6.990   0.612
 3712SOL    HW112035   2.149   7.014   0.580
 3712SOL    HW212036   2.299   0.046   0.612
 3713SOL     OW12037   3.628   5.616   5.487
 3713SOL    HW112038   3.581   5.701   5.464
 3713SOL    HW212039   3.573   5.563   5.552
 3714SOL     OW12040   3.386   0.491   4.590
 3714SOL    HW112041   3.300   0.460   4.631
 3714SOL    HW212042   3.461   0.472   4.653
 3715SOL     OW12043   5.679   3.647   4.898
 3715SOL    HW112044   5.776   3.621   4.904
 3715SOL    HW212045   5.672   3.737   4.855
 3716SOL     OW12046   0.225   0.618   4.191
 3716SOL    HW112047   0.210   0.634   4.288
 3716SOL    HW212048   0.307   0.563   4.178
 3717SOL     OW12049   5.538   0.098   0.392
 3717SOL    HW112050   5.463   0.051   0.439
 3717SOL    HW212051   5.607   0.125   0.459
 3718SOL     OW12052   0.842   5.419   6.859
 3718SOL    HW112053   0.831   5.496   6.797
 3718SOL    HW212054   0.787   5.342   6.826
 3719SOL     OW12055   3.264   5.296   5.840
 3719SOL    HW112056   3.325   5.254   5.907
 3719SOL    HW212057   3.294   5.271   5.748
 3720SOL     OW12058   6.435   1.723   5.933
 3720SOL    HW112059   6.521   1.687   5.896
 3720SOL    HW212060   6.358   1.683   5.884
 3721SOL     OW12061   4.998   3.606   0.624
 3721SOL    HW112062   4.926   3.577   0.687
 3721SOL    HW212063   5.026   3.699   0.647
 3722SOL     OW12064   6.534   6.213   2.226
 3722SOL    HW112065   6.475   6.277   2.274
 3722SOL    HW212066   6.620   6.203   2.276
 3723SOL     OW12067   4.608   0.941   0.864
 3723SOL    HW112068   4.660   1.023   0.843
 3723SOL    HW212069   4.515   0.966   0.893
 3724SOL     OW12070   1.492   5.707   5.983
 3724SOL    HW112071   1.507   5.798   6.022
 3724SOL    HW212072   1.430   5.714   5.905
 3725SOL     OW12073   0.351   6.075   0.497
 3725SOL    HW112074   0.407   6.085   0.415
 3725SOL    HW212075   0.256   6.096   0.475
 3726SOL     OW12076   5.495   3.740   1.429
 3726SOL    HW112077   5.506   3.662   1.490
 3726SOL    HW212078   5.462   3.819   1.481
 3727SOL     OW12079   2.022   3.423   5.375
 3727SOL    HW112080   2.048   3.350   5.312
 3727SOL    HW212081   2.102   3.480   5.396
 3728SOL     OW12082   1.596   3.213   6.521
 3728SOL    HW112083   1.601   3.150   6.444
 3728SOL    HW212084   1.681   3.209   6.573
 3729SOL     OW12085   0.614   2.343   3.219
 3729SOL    HW112086   0.713   2.342   3.206
 3729SOL    HW212087   0.573   2.267   3.169
 3730SOL     OW12088   2.976   0.869   0.126
 3730SOL    HW112089   2.909   0.873   0.051
 3730SOL    HW212090   2.931   0.897   0.211
 3731SOL     OW12091   4.059   6.617   0.117
 3731SOL    HW112092   4.082   6.585   0.209
 3731SOL    HW212093   3.976   6.570   0.085
 3732SOL     OW12094   2.205   3.738   5.131
 3732SOL    HW112095   2.120   3.716   5.083
 3732SOL    HW212096   2.247   3.818   5.088
 3733SOL     OW12097   2.679   3.651   1.365
 3733SOL    HW112098   2.706   3.557   1.346
 3733SOL    HW212099   2.638   3.692   1.283
 3734SOL     OW12100   5.382   0.644   2.553
 3734SOL    HW112101   5.293   0.656   2.509
 3734SOL    HW212102   5.379   0.681   2.646
 3735SOL     OW12103   3.506   1.500   2.425
 3735SOL    HW112104   3.451   1.481   2.343
 3735SOL    HW212105   3.474   1.585   2.467
 3736SOL     OW12106   5.689   2.115   0.045
 3736SOL    HW112107   5.752   2.050   0.003
 3736SOL    HW212108   5.655   2.178   7.001
 3737SOL     OW12109   4.647   6.532   3.570
 3737SOL    HW112110   4.705   6.522   3.651
 3737SOL    HW212111   4.583   6.608   3.584
 3738SOL     OW12112   6.812   6.800   3.532
 3738SOL    HW112113   6.867   6.778   3.612
 3738SOL    HW212114   6.869   6.841   3.462
 3739SOL     OW12115   0.633   4.484   2.412
 3739SOL    HW112116   0.590   4.405   2.369
 3739SOL    HW212117   0.620   4.480   2.511
 3740SOL     OW12118   5.607   0.948   0.549
 3740SOL    HW112119   5.671   1.001   0.493
 3740SOL    HW212120   5.549   0.892   0.490
 3741SOL     OW12121   4.232   2.526   6.556
 3741SOL    HW112122   4.168   2.473   6.502
 3741SOL    HW212123   4.245   2.616   6.514
 3742SOL     OW12124   3.555   3.291   5.434
 3742SOL    HW112125   3.590   3.254   5.348
 3742SOL    HW212126   3.463   3.255   5.451
 3743SOL     OW12127   0.344   5.430   6.488
 3743SOL    HW112128   0.307   5.485   6.562
 3743SOL    HW212129   0.271   5.380   6.442
 3744SOL     OW12130   6.894   5.925   3.028
 3744SOL    HW112131   6.981   5.893   3.064
 3744SOL    HW212132   6.897   6.024   3.016
 3745SOL     OW12133   4.403   6.176   2.505
 3745SOL    HW112134   4.309   6.204   2.483
 3745SOL    HW212135   4.465   6.218   2.439
 3746SOL     OW12136   4.312   1.858   2.337
 3746SOL    HW112137   4.407   1.827   2.329
 3746SOL    HW212138   4.302   1.945   2.288
 3747SOL     OW12139   2.902   6.963   0.031
 3747SOL    HW112140   2.984   6.933   7.009
 3747SOL    HW212141   2.898   6.922   0.122
 3748SOL     OW12142   5.756   1.097   2.533
 3748SOL    HW112143   5.755   1.193   2.507
 3748SOL    HW212144   5.748   1.089   2.632
 3749SOL     OW12145   1.292   0.296   4.990
 3749SOL    HW112146   1.259   0.390   4.995
 3749SOL    HW212147   1.298   0.268   4.894
 3750SOL     OW12148   0.133   4.465   0.038
 3750SOL    HW112149   0.099   4.384   0.085
 3750SOL    HW212150   0.057   4.516   7.024
 3751SOL     OW12151   1.129   3.854   2.532
 3751SOL    HW112152   1.187   3.859   2.613
 3751SOL    HW212153   1.036   3.883   2.555
 3752SOL     OW12154   5.740   0.385   6.898
 3752SOL    HW112155   5.830   0.396   6.940
 3752SOL    HW212156   5.750   0.387   6.798
 3753SOL     OW12157   6.375   0.142   4.035
 3753SOL    HW112158   6.346   0.210   4.102
 3753SOL    HW212159   6.417   0.065   4.082
 3754SOL     OW12160   2.484   1.816   0.816
 3754SOL    HW112161   2.534   1.739   0.857
 3754SOL    HW212162   2.544   1.896   0.811
 3755SOL     OW12163   2.850   4.762   4.010
 3755SOL    HW112164   2.940   4.786   4.046
 3755SOL    HW212165   2.797   4.714   4.079
 3756SOL     OW12166   2.754   6.346   6.664
 3756SOL    HW112167   2.687   6.332   6.591
 3756SOL    HW212168   2.713   6.403   6.736
 3757SOL     OW12169   6.941   4.643   1.489
 3757SOL    HW112170   0.006   4.609   1.517
 3757SOL    HW212171   6.874   4.621   1.559
 3758SOL     OW12172   2.205   6.807   4.050
 3758SOL    HW112173   2.176   6.900   4.028
 3758SOL    HW212174   2.126   6.752   4.079
 3759SOL     OW12175   5.057   0.143   4.546
 3759SOL    HW112176   4.971   0.096   4.567
 3759SOL    HW212177   5.116   0.142   4.627
 3760SOL     OW12178   0.103   1.043   3.197
 3760SOL    HW112179   0.042   1.046   3.118
 3760SOL    HW212180   0.186   1.094   3.177
 3761SOL     OW12181   5.240   1.054   4.304
 3761SOL    HW112182   5.277   1.117   4.372
 3761SOL    HW212183   5.261   1.088   4.212
 3762SOL     OW12184   6.687   2.436   3.402
 3762SOL    HW112185   6.697   2.342   3.433
 3762SOL    HW212186   6.767   2.489   3.428
 3763SOL     OW12187   0.816   4.869   0.947
 3763SOL    HW112188   0.809   4.940   0.877
 3763SOL    HW212189   0.848   4.910   1.032
 3764SOL     OW12190   2.245   0.621   2.993
 3764SOL    HW112191   2.320   0.660   3.045
 3764SOL    HW212192   2.276   0.600   2.900
 3765SOL     OW12193   5.467   2.934   2.724
 3765SOL    HW112194   5.404   2.975   2.791
 3765SOL    HW212195   5.503   2.848   2.761
 3766SOL     OW12196   1.095   3.574   3.512
 3766SOL    HW112197   1.023   3.630   3.553
 3766SOL    HW212198   1.142   3.626   3.442
 3767SOL     OW12199   1.183   4.995   5.917
 3767SOL    HW112200   1.105   4.940   5.887
 3767SOL    HW212201   1.153   5.090   5.930
 3768SOL     OW12202   0.733   6.392   3.244
 3768SOL    HW112203   0.759   6.455   3.172
 3768SOL    HW212204   0.814   6.364   3.296
 3769SOL     OW12205   5.773   4.796   4.927
 3769SOL    HW112206   5.859   4.848   4.924
 3769SOL    HW212207   5.701   4.848   4.881
 3770SOL     OW12208   1.873   0.853   1.246
 3770SOL    HW112209   1.926   0.804   1.177
 3770SOL    HW212210   1.906   0.947   1.252
 3771SOL     OW12211   6.434   5.019   6.455
 3771SOL    HW112212   6.419   4.924   6.482
 3771SOL    HW212213   6.530   5.043   6.469
 3772SOL     OW12214   1.393   6.380   0.973
 3772SOL    HW112215   1.440   6.293   0.989
 3772SOL    HW212216   1.377   6.392   0.875
 3773SOL     OW12217   5.523   4.641   6.575
 3773SOL    HW112218   5.577   4.723   6.556
 3773SOL    HW212219   5.570   4.585   6.643
 3774SOL     OW12220   6.758   5.018   1.966
 3774SOL    HW112221   6.759   5.072   1.882
 3774SOL    HW212222   6.713   5.070   2.039
 3775SOL     OW12223   5.045   4.710   4.919
 3775SOL    HW112224   4.949   4.696   4.897
 3775SOL    HW212225   5.054   4.745   5.012
 3776SOL     OW12226   3.555   2.740   6.014
 3776SOL    HW112227   3.463   2.765   5.983
 3776SOL    HW212228   3.622   2.800   5.969
 3777SOL     OW12229   2.578   5.869   4.305
 3777SOL    HW112230   2.508   5.939   4.299
 3777SOL    HW212231   2.641   5.891   4.380
 3778SOL     OW12232   3.587   5.579   5.910
 3778SOL    HW112233   3.562   5.556   5.816
 3778SOL    HW212234   3.554   5.507   5.972
 3779SOL     OW12235   6.839   4.944   0.016
 3779SOL    HW112236   6.930   4.912   0.042
 3779SOL    HW212237   6.788   4.868   7.002
 3780SOL     OW12238   5.403   3.986   1.515
 3780SOL    HW112239   5.490   4.020   1.480
 3780SOL    HW212240   5.335   4.060   1.511
 3781SOL     OW12241   2.918   6.246   4.717
 3781SOL    HW112242   2.870   6.301   4.785
 3781SOL    HW212243   2.944   6.303   4.639
 3782SOL     OW12244   4.726   5.588   1.164
 3782SOL    HW112245   4.693   5.495   1.176
 3782SOL    HW212246   4.824   5.591   1.182
 3783SOL     OW12247   5.226   5.815   4.276
 3783SOL    HW112248   5.184   5.901   4.246
 3783SOL    HW212249   5.216   5.747   4.204
 3784SOL     OW12250   6.134   1.998   4.399
 3784SOL    HW112251   6.057   2.053   4.365
 3784SOL    HW212252   6.193   2.056   4.456
 3785SOL     OW12253   1.708   3.625   4.146
 3785SOL    HW112254   1.676   3.712   4.108
 3785SOL    HW212255   1.670   3.550   4.092
 3786SOL     OW12256   2.466   2.534   4.757
 3786SOL    HW112257   2.524   2.510   4.835
 3786SOL    HW212258   2.415   2.618   4.778
 3787SOL     OW12259   4.189   7.024   3.882
 3787SOL    HW112260   4.198   6.933   3.922
 3787SOL    HW212261   4.092   0.023   3.876
 3788SOL     OW12262   5.955   3.129   5.142
 3788SOL    HW112263   5.991   3.191   5.073
 3788SOL    HW212264   5.861   3.103   5.117
 3789SOL     OW12265   1.758   3.190   2.594
 3789SOL    HW112266   1.825   3.132   2.548
 3789SOL    HW212267   1.682   3.133   2.628
 3790SOL     OW12268   0.359   6.950   1.414
 3790SOL    HW112269   0.350   0.023   1.424
 3790SOL    HW212270   0.454   6.923   1.435
 3791SOL     OW12271   5.119   1.284   5.651
 3791SOL    HW112272   5.067   1.208   5.690
 3791SOL    HW212273   5.060   1.335   5.588
 3792SOL     OW12274   6.681   0.592   4.609
 3792SOL    HW112275   6.753   0.607   4.676
 3792SOL    HW212276   6.653   0.679   4.569
 3793SOL     OW12277   4.799   4.833   0.729
 3793SOL    HW112278   4.873   4.775   0.764
 3793SOL    HW212279   4.796   4.918   0.781
 3794SOL     OW12280   0.648   4.251   6.769
 3794SOL    HW112281   0.713   4.316   6.729
 3794SOL    HW212282   0.562   4.297   6.788
 3795SOL     OW12283   2.515   6.011   1.118
 3795SOL    HW112284   2.471   5.925   1.094
 3795SOL    HW212285   2.594   6.026   1.058
 3796SOL     OW12286   5.373   1.297   7.002
 3796SOL    HW112287   5.341   1.391   7.014
 3796SOL    HW212288   5.335   1.259   6.918
 3797SOL     OW12289   1.267   4.647   2.298
 3797SOL    HW112290   1.269   4.736   2.343
 3797SOL    HW212291   1.224   4.580   2.358
 3798SOL     OW12292   1.321   5.766   3.589
 3798SOL    HW112293   1.386   5.842   3.599
 3798SOL    HW212294   1.320   5.712   3.673
 3799SOL     OW12295   6.721   1.108   3.273
 3799SOL    HW112296   6.692   1.080   3.365
 3799SOL    HW212297   6.705   1.034   3.208
 3800SOL     OW12298   4.998   2.346   3.013
 3800SOL    HW112299   4.984   2.257   3.058
 3800SOL    HW212300   5.020   2.332   2.916
 3801SOL     OW12301   5.737   1.385   1.635
 3801SOL    HW112302   5.829   1.356   1.660
 3801SOL    HW212303   5.742   1.461   1.569
 3802SOL     OW12304   6.614   2.795   2.031
 3802SOL    HW112305   6.618   2.709   1.980
 3802SOL    HW212306   6.531   2.845   2.005
 3803SOL     OW12307   3.393   3.320   4.162
 3803SOL    HW112308   3.486   3.309   4.126
 3803SOL    HW212309   3.397   3.322   4.262
 3804SOL     OW12310   4.215   5.798   3.506
 3804SOL    HW112311   4.252   5.862   3.439
 3804SOL    HW212312   4.287   5.736   3.537
 3805SOL     OW12313   2.517   2.668   0.180
 3805SOL    HW112314   2.534   2.656   0.082
 3805SOL    HW212315   2.603   2.661   0.230
 3806SOL     OW12316   2.962   4.644   1.504
 3806SOL    HW112317   2.881   4.702   1.493
 3806SOL    HW212318   3.007   4.667   1.590
 3807SOL     OW12319   1.906   4.597   4.618
 3807SOL    HW112320   1.862   4.508   4.626
 3807SOL    HW212321   2.004   4.585   4.602
 3808SOL     OW12322   3.206   6.818   6.179
 3808SOL    HW112323   3.175   6.806   6.274
 3808SOL    HW212324   3.138   6.872   6.129
 3809SOL     OW12325   5.112   2.177   1.625
 3809SOL    HW112326   5.096   2.134   1.536
 3809SOL    HW212327   5.069   2.123   1.697
 3810SOL     OW12328   5.990   2.463   1.925
 3810SOL    HW112329   6.041   2.449   1.840
 3810SOL    HW212330   6.054   2.485   1.999
 3811SOL     OW12331   0.455   5.216   5.428
 3811SOL    HW112332   0.405   5.301   5.444
 3811SOL    HW212333   0.443   5.154   5.506
 3812SOL     OW12334   4.733   5.824   1.059
 3812SOL    HW112335   4.809   5.871   1.103
 3812SOL    HW212336   4.730   5.729   1.091
 3813SOL     OW12337   5.960   4.276   6.996
 3813SOL    HW112338   5.947   4.322   0.059
 3813SOL    HW212339   6.054   4.243   6.990
 3814SOL     OW12340   6.819   0.557   4.845
 3814SOL    HW112341   6.869   0.471   4.837
 3814SOL    HW212342   6.741   0.544   4.906
 3815SOL     OW12343   6.593   3.936   5.902
 3815SOL    HW112344   6.642   4.022   5.884
 3815SOL    HW212345   6.656   3.859   5.891
 3816SOL     OW12346   0.346   5.800   0.586
 3816SOL    HW112347   0.360   5.863   0.510
 3816SOL    HW212348   0.418   5.732   0.587
 3817SOL     OW12349   4.869   3.910   2.062
 3817SOL    HW112350   4.839   3.818   2.036
 3817SOL    HW212351   4.923   3.949   1.987
 3818SOL     OW12352   5.973   6.537   2.733
 3818SOL    HW112353   6.039   6.609   2.754
 3818SOL    HW212354   5.930   6.506   2.818
 3819SOL     OW12355   6.497   4.767   3.775
 3819SOL    HW112356   6.512   4.717   3.861
 3819SOL    HW212357   6.558   4.732   3.705
 3820SOL     OW12358   3.627   7.015   4.828
 3820SOL    HW112359   3.661   6.961   4.751
 3820SOL    HW212360   3.532   6.991   4.848
 3821SOL     OW12361   2.036   0.181   0.043
 3821SOL    HW112362   1.995   0.095   0.073
 3821SOL    HW212363   1.968   0.254   0.050
 3822SOL     OW12364   4.593   0.341   1.823
 3822SOL    HW112365   4.641   0.420   1.862
 3822SOL    HW212366   4.535   0.300   1.893
 3823SOL     OW12367   5.119   5.885   7.016
 3823SOL    HW112368   5.054   5.814   6.989
 3823SOL    HW212369   5.207   5.868   6.972
 3824SOL     OW12370   2.656   2.861   0.398
 3824SOL    HW112371   2.577   2.909   0.435
 3824SOL    HW212372   2.696   2.804   0.469
 3825SOL     OW12373   1.122   3.664   5.781
 3825SOL    HW112374   1.090   3.654   5.875
 3825SOL    HW212375   1.068   3.733   5.734
 3826SOL     OW12376   5.674   4.061   3.765
 3826SOL    HW112377   5.649   4.149   3.724
 3826SOL    HW212378   5.761   4.071   3.813
 3827SOL     OW12379   1.079   1.104   1.553
 3827SOL    HW112380   0.984   1.077   1.568
 3827SOL    HW212381   1.105   1.083   1.459
 3828SOL     OW12382   3.297   4.163   3.941
 3828SOL    HW112383   3.236   4.086   3.924
 3828SOL    HW212384   3.299   4.184   4.039
 3829SOL     OW12385   0.848   3.982   2.352
 3829SOL    HW112386   0.902   4.058   2.389
 3829SOL    HW212387   0.761   4.017   2.318
 3830SOL     OW12388   6.353   1.143   4.223
 3830SOL    HW112389   6.349   1.222   4.163
 3830SOL    HW212390   6.447   1.127   4.252
 3831SOL     OW12391   4.667   2.039   3.562
 3831SOL    HW112392   4.712   2.115   3.514
 3831SOL    HW212393   4.581   2.017   3.516
 3832SOL     OW12394   5.921   0.454   3.722
 3832SOL    HW112395   5.860   0.521   3.764
 3832SOL    HW212396   5.994   0.501   3.673
 3833SOL     OW12397   1.271   1.756   5.593
 3833SOL    HW112398   1.337   1.829   5.611
 3833SOL    HW212399   1.178   1.789   5.613
 3834SOL     OW12400   4.849   4.124   0.622
 3834SOL    HW112401   4.860   4.141   0.720
 3834SOL    HW212402   4.823   4.028   0.608
 3835SOL     OW12403   3.952   5.218   4.762
 3835SOL    HW112404   3.933   5.292   4.697
 3835SOL    HW212405   3.869   5.163   4.774
 3836SOL     OW12406   0.375   6.599   5.652
 3836SOL    HW112407   0.377   6.688   5.699
 3836SOL    HW212408   0.345   6.612   5.558
 3837SOL     OW12409   4.570   5.026   5.492
 3837SOL    HW112410   4.657   4.984   5.520
 3837SOL    HW212411   4.535   4.980   5.410
 3838SOL     OW12412   0.736   1.263   3.980
 3838SOL    HW112413   0.757   1.311   3.894
 3838SOL    HW212414   0.781   1.174   3.979
 3839SOL     OW12415   3.773   0.637   3.813
 3839SOL    HW112416   3.798   0.719   3.762
 3839SOL    HW212417   3.776   0.557   3.752
 3840SOL     OW12418   2.430   1.580   6.886
 3840SOL    HW112419   2.381   1.655   6.931
 3840SOL    HW212420   2.367   1.530   6.827
 3841SOL     OW12421   5.738   4.675   4.155
 3841SOL    HW112422   5.678   4.597   4.175
 3841SOL    HW212423   5.708   4.754   4.208
 3842SOL     OW12424   1.790   3.197   5.073
 3842SOL    HW112425   1.723   3.152   5.132
 3842SOL    HW212426   1.749   3.217   4.984
 3843SOL     OW12427   5.349   2.841   6.813
 3843SOL    HW112428   5.351   2.789   6.728
 3843SOL    HW212429   5.271   2.903   6.813
 3844SOL     OW12430   1.106   6.598   0.669
 3844SOL    HW112431   1.186   6.543   0.644
 3844SOL    HW212432   1.024   6.542   0.663
 3845SOL     OW12433   2.031   5.793   0.818
 3845SOL    HW112434   2.008   5.852   0.896
 3845SOL    HW212435   2.058   5.850   0.740
 3846SOL     OW12436   0.988   2.835   3.181
 3846SOL    HW112437   0.893   2.813   3.204
 3846SOL    HW212438   1.023   2.904   3.246
 3847SOL     OW12439   6.924   1.722   6.594
 3847SOL    HW112440   6.953   1.815   6.619
 3847SOL    HW212441   7.001   1.659   6.606
 3848SOL     OW12442   5.652   3.677   2.472
 3848SOL    HW112443   5.723   3.728   2.521
 3848SOL    HW212444   5.563   3.698   2.510
 3849SOL     OW12445   6.462   5.231   6.957
 3849SOL    HW112446   6.473   5.163   0.004
 3849SOL    HW212447   6.536   5.299   6.964
 3850SOL     OW12448   2.511   2.068   1.434
 3850SOL    HW112449   2.457   2.152   1.421
 3850SOL    HW212450   2.510   2.014   1.351
 3851SOL     OW12451   0.427   6.226   2.913
 3851SOL    HW112452   0.369   6.307   2.912
 3851SOL    HW212453   0.391   6.159   2.848
 3852SOL     OW12454   2.862   6.204   6.032
 3852SOL    HW112455   2.802   6.141   5.984
 3852SOL    HW212456   2.824   6.224   6.123
 3853SOL     OW12457   2.426   0.539   3.790
 3853SOL    HW112458   2.360   0.595   3.740
 3853SOL    HW212459   2.431   0.448   3.748
 3854SOL     OW12460   1.795   2.363   2.459
 3854SOL    HW112461   1.780   2.462   2.465
 3854SOL    HW212462   1.860   2.343   2.385
 3855SOL     OW12463   4.533   0.161   0.317
 3855SOL    HW112464   4.434   0.173   0.323
 3855SOL    HW212465   4.565   0.108   0.396
 3856SOL     OW12466   0.253   1.840   6.733
 3856SOL    HW112467   0.338   1.794   6.759
 3856SOL    HW212468   0.242   1.923   6.789
 3857SOL     OW12469   2.259   0.937   5.497
 3857SOL    HW112470   2.211   0.954   5.411
 3857SOL    HW212471   2.305   1.021   5.526
 3858SOL     OW12472   4.483   0.551   5.023
 3858SOL    HW112473   4.470   0.457   5.053
 3858SOL    HW212474   4.555   0.594   5.078
 3859SOL     OW12475   5.657   0.226   1.807
 3859SOL    HW112476   5.611   0.310   1.779
 3859SOL    HW212477   5.700   0.183   1.727
 3860SOL     OW12478   1.166   6.980   4.414
 3860SOL    HW112479   1.210   6.903   4.368
 3860SOL    HW212480   1.067   6.969   4.409
 3861SOL     OW12481   3.994   6.091   1.839
 3861SOL    HW112482   4.007   6.059   1.933
 3861SOL    HW212483   3.936   6.172   1.839
 3862SOL     OW12484   1.334   0.226   3.872
 3862SOL    HW112485   1.297   0.292   3.937
 3862SOL    HW212486   1.358   0.272   3.787
 3863SOL     OW12487   4.306   0.505   0.916
 3863SOL    HW112488   4.210   0.478   0.904
 3863SOL    HW212489   4.315   0.558   1.000
 3864SOL     OW12490   2.459   0.185   4.388
 3864SOL    HW112491   2.441   0.156   4.294
 3864SOL    HW212492   2.526   0.125   4.429
 3865SOL     OW12493   3.883   0.610   0.180
 3865SOL    HW112494   3.897   0.593   0.277
 3865SOL    HW212495   3.930   0.541   0.126
 3866SOL     OW12496   2.829   2.794   6.629
 3866SOL    HW112497   2.876   2.724   6.575
 3866SOL    HW212498   2.884   2.877   6.631
 3867SOL     OW12499   0.625   3.825   2.158
 3867SOL    HW112500   0.678   3.777   2.227
 3867SOL    HW212501   0.615   3.767   2.077
 3868SOL     OW12502   4.179   1.258   6.853
 3868SOL    HW112503   4.119   1.195   6.903
 3868SOL    HW212504   4.267   1.214   6.835
 3869SOL     OW12505   6.450   3.202   3.458
 3869SOL    HW112506   6.407   3.179   3.371
 3869SOL    HW212507   6.445   3.124   3.520
 3870SOL     OW12508   6.750   0.164   3.515
 3870SOL    HW112509   6.815   0.100   3.472
 3870SOL    HW212510   6.797   0.218   3.584
 3871SOL     OW12511   3.649   5.538   4.407
 3871SOL    HW112512   3.696   5.472   4.348
 3871SOL    HW212513   3.658   5.629   4.368
 3872SOL     OW12514   3.507   3.629   4.590
 3872SOL    HW112515   3.435   3.690   4.556
 3872SOL    HW212516   3.596   3.662   4.558
 3873SOL     OW12517   4.635   2.124   0.729
 3873SOL    HW112518   4.601   2.207   0.772
 3873SOL    HW212519   4.622   2.130   0.630
 3874SOL     OW12520   3.315   0.564   0.205
 3874SOL    HW112521   3.343   0.532   0.114
 3874SOL    HW212522   3.220   0.539   0.221
 3875SOL     OW12523   1.528   2.378   5.604
 3875SOL    HW112524   1.486   2.444   5.543
 3875SOL    HW212525   1.529   2.288   5.561
 3876SOL     OW12526   4.159   5.566   1.347
 3876SOL    HW112527   4.173   5.646   1.289
 3876SOL    HW212528   4.145   5.485   1.290
 3877SOL     OW12529   6.849   2.403   0.661
 3877SOL    HW112530   6.881   2.308   0.671
 3877SOL    HW212531   6.753   2.403   0.633
 3878SOL     OW12532   3.830   6.450   4.039
 3878SOL    HW112533   3.749   6.449   4.099
 3878SOL    HW212534   3.907   6.490   4.088
 3879SOL     OW12535   5.032   5.181   0.152
 3879SOL    HW112536   5.129   5.202   0.162
 3879SOL    HW212537   4.993   5.239   0.080
 3880SOL     OW12538   4.773   4.209   4.144
 3880SOL    HW112539   4.753   4.136   4.079
 3880SOL    HW212540   4.765   4.173   4.237
 3881SOL     OW12541   0.861   3.986   0.367
 3881SOL    HW112542   0.936   4.037   0.323
 3881SOL    HW212543   0.891   3.953   0.456
 3882SOL     OW12544   0.907   1.713   0.844
 3882SOL    HW112545   0.933   1.726   0.940
 3882SOL    HW212546   0.856   1.793   0.812
 3883SOL     OW12547   4.570   5.967   3.510
 3883SOL    HW112548   4.654   6.006   3.549
 3883SOL    HW212549   4.571   5.868   3.520
 3884SOL     OW12550   1.041   5.657   3.130
 3884SOL    HW112551   1.104   5.724   3.171
 3884SOL    HW212552   1.061   5.566   3.166
 3885SOL     OW12553   5.326   6.540   2.809
 3885SOL    HW112554   5.311   6.600   2.731
 3885SOL    HW212555   5.318   6.593   2.894
 3886SOL     OW12556   3.903   6.625   6.111
 3886SOL    HW112557   3.820   6.583   6.075
 3886SOL    HW212558   3.878   6.706   6.165
 3887SOL     OW12559   0.064   6.591   1.569
 3887SOL    HW112560   0.044   6.686   1.545
 3887SOL    HW212561   0.095   6.587   1.665
 3888SOL     OW12562   5.804   6.165   4.787
 3888SOL    HW112563   5.818   6.240   4.853
 3888SOL    HW212564   5.871   6.093   4.805
 3889SOL     OW12565   5.818   3.723   6.488
 3889SOL    HW112566   5.890   3.788   6.511
 3889SOL    HW212567   5.804   3.722   6.389
 3890SOL     OW12568   5.494   3.409   4.957
 3890SOL    HW112569   5.402   3.370   4.952
 3890SOL    HW212570   5.491   3.507   4.936
 3891SOL     OW12571   5.831   4.909   3.507
 3891SOL    HW112572   5.756   4.899   3.442
 3891SOL    HW212573   5.799   4.954   3.590
 3892SOL     OW12574   0.050   2.532   1.331
 3892SOL    HW112575   0.027   2.604   1.397
 3892SOL    HW212576   0.106   2.462   1.375
 3893SOL     OW12577   4.557   3.343   1.325
 3893SOL    HW112578   4.613   3.384   1.253
 3893SOL    HW212579   4.533   3.250   1.299
 3894SOL     OW12580   4.887   0.165   6.373
 3894SOL    HW112581   4.792   0.137   6.387
 3894SOL    HW212582   4.946   0.112   6.435
 3895SOL     OW12583   1.787   6.774   4.618
 3895SOL    HW112584   1.723   6.698   4.612
 3895SOL    HW212585   1.878   6.739   4.637
 3896SOL     OW12586   1.157   1.198   6.932
 3896SOL    HW112587   1.189   1.282   6.887
 3896SOL    HW212588   1.058   1.190   6.921
 3897SOL     OW12589   4.648   5.770   2.122
 3897SOL    HW112590   4.653   5.777   2.022
 3897SOL    HW212591   4.587   5.841   2.157
 3898SOL     OW12592   4.032   2.735   6.383
 3898SOL    HW112593   3.970   2.734   6.461
 3898SOL    HW212594   3.981   2.758   6.300
 3899SOL     OW12595   4.545   6.878   5.956
 3899SOL    HW112596   4.498   6.796   5.987
 3899SOL    HW212597   4.591   6.922   6.033
 3900SOL     OW12598   5.423   3.544   3.279
 3900SOL    HW112599   5.384   3.556   3.370
 3900SOL    HW212600   5.496   3.611   3.264
 3901SOL     OW12601   3.012   0.587   6.927
 3901SOL    HW112602   3.079   0.661   6.935
 3901SOL    HW212603   2.922   0.627   6.907
 3902SOL     OW12604   6.226   3.397   2.624
 3902SOL    HW112605   6.129   3.404   2.646
 3902SOL    HW212606   6.259   3.484   2.588
 3903SOL     OW12607   3.523   5.612   6.832
 3903SOL    HW112608   3.465   5.679   6.878
 3903SOL    HW212609   3.578   5.563   6.900
 3904SOL     OW12610   1.033   0.331   6.844
 3904SOL    HW112611   0.944   0.297   6.815
 3904SOL    HW212612   1.104   0.294   6.784
 3905SOL     OW12613   0.284   6.263   5.956
 3905SOL    HW112614   0.310   6.330   6.026
 3905SOL    HW212615   0.196   6.288   5.917
 3906SOL     OW12616   5.396   6.193   5.388
 3906SOL    HW112617   5.389   6.095   5.407
 3906SOL    HW212618   5.489   6.224   5.407
 3907SOL     OW12619   6.098   1.992   3.801
 3907SOL    HW112620   6.170   2.043   3.848
 3907SOL    HW212621   6.130   1.967   3.709
 3908SOL     OW12622   0.505   2.318   6.602
 3908SOL    HW112623   0.596   2.332   6.563
 3908SOL    HW212624   0.441   2.293   6.529
 3909SOL     OW12625   5.242   5.322   4.585
 3909SOL    HW112626   5.285   5.402   4.627
 3909SOL    HW212627   5.152   5.307   4.627
 3910SOL     OW12628   3.232   3.756   2.785
 3910SOL    HW112629   3.134   3.739   2.771
 3910SOL    HW212630   3.252   3.851   2.765
 3911SOL     OW12631   5.512   1.227   5.019
 3911SOL    HW112632   5.576   1.159   4.984
 3911SOL    HW212633   5.418   1.195   5.006
 3912SOL     OW12634   5.561   1.791   5.347
 3912SOL    HW112635   5.575   1.842   5.262
 3912SOL    HW212636   5.616   1.708   5.346
 3913SOL     OW12637   1.466   6.816   7.008
 3913SOL    HW112638   1.369   6.809   6.982
 3913SOL    HW212639   1.483   6.905   0.024
 3914SOL     OW12640   3.672   0.125   6.537
 3914SOL    HW112641   3.651   0.059   6.465
 3914SOL    HW212642   3.633   0.094   6.624
 3915SOL     OW12643   5.073   5.308   1.523
 3915SOL    HW112644   5.087   5.308   1.622
 3915SOL    HW212645   5.161   5.294   1.476
 3916SOL     OW12646   0.924   0.134   2.830
 3916SOL    HW112647   0.917   0.077   2.748
 3916SOL    HW212648   1.013   0.180   2.831
 3917SOL     OW12649   1.787   0.226   6.882
 3917SOL    HW112650   1.818   0.152   6.823
 3917SOL    HW212651   1.705   0.268   6.844
 3918SOL     OW12652   5.553   4.131   1.756
 3918SOL    HW112653   5.459   4.101   1.742
 3918SOL    HW212654   5.575   4.126   1.854
 3919SOL     OW12655   3.931   0.032   0.567
 3919SOL    HW112656   3.962   0.066   0.478
 3919SOL    HW212657   3.832   0.020   0.566
 3920SOL     OW12658   2.069   3.076   6.969
 3920SOL    HW112659   1.981   3.029   6.957
 3920SOL    HW212660   2.057   3.174   6.951
 3921SOL     OW12661   0.813   4.240   1.474
 3921SOL    HW112662   0.813   4.313   1.406
 3921SOL    HW212663   0.776   4.157   1.432
 3922SOL     OW12664   0.425   3.881   1.808
 3922SOL    HW112665   0.334   3.922   1.802
 3922SOL    HW212666   0.486   3.940   1.859
 3923SOL     OW12667   0.792   0.690   0.290
 3923SOL    HW112668   0.850   0.640   0.354
 3923SOL    HW212669   0.831   0.780   0.273
 3924SOL     OW12670   6.370   5.281   5.035
 3924SOL    HW112671   6.324   5.268   4.947
 3924SOL    HW212672   6.452   5.224   5.038
 3925SOL     OW12673   1.666   5.147   1.992
 3925SOL    HW112674   1.692   5.050   1.989
 3925SOL    HW212675   1.748   5.203   2.005
 3926SOL     OW12676   4.321   4.642   2.482
 3926SOL    HW112677   4.301   4.684   2.394
 3926SOL    HW212678   4.395   4.575   2.471
 3927SOL     OW12679   0.594   3.132   6.230
 3927SOL    HW112680   0.637   3.061   6.286
 3927SOL    HW212681   0.501   3.103   6.207
 3928SOL     OW12682   4.722   6.089   6.861
 3928SOL    HW112683   4.735   6.001   6.814
 3928SOL    HW212684   4.806   6.112   6.910
 3929SOL     OW12685   0.861   0.794   5.262
 3929SOL    HW112686   0.852   0.711   5.207
 3929SOL    HW212687   0.958   0.813   5.277
 3930SOL     OW12688   2.383   2.237   3.499
 3930SOL    HW112689   2.377   2.261   3.595
 3930SOL    HW212690   2.421   2.145   3.490
 3931SOL     OW12691   6.427   1.663   2.058
 3931SOL    HW112692   6.361   1.588   2.069
 3931SOL    HW212693   6.516   1.625   2.032
 3932SOL     OW12694   0.378   2.741   3.981
 3932SOL    HW112695   0.384   2.797   3.899
 3932SOL    HW212696   0.464   2.745   4.031
 3933SOL     OW12697   1.672   0.319   6.053
 3933SOL    HW112698   1.707   0.408   6.084
 3933SOL    HW212699   1.583   0.301   6.096
 3934SOL     OW12700   6.320   0.128   5.847
 3934SOL    HW112701   6.243   0.128   5.783
 3934SOL    HW212702   6.306   0.199   5.916
 3935SOL     OW12703   4.058   0.475   0.801
 3935SOL    HW112704   4.045   0.534   0.722
 3935SOL    HW212705   4.033   0.381   0.778
 3936SOL     OW12706   6.370   5.684   4.346
 3936SOL    HW112707   6.410   5.773   4.369
 3936SOL    HW212708   6.272   5.686   4.362
 3937SOL     OW12709   6.927   1.499   2.728
 3937SOL    HW112710   6.941   1.473   2.824
 3937SOL    HW212711   6.857   1.441   2.688
 3938SOL     OW12712   6.947   1.036   2.999
 3938SOL    HW112713   6.890   0.954   3.000
 3938SOL    HW212714   6.987   1.048   2.908
 3939SOL     OW12715   3.067   1.819   1.883
 3939SOL    HW112716   2.978   1.786   1.915
 3939SOL    HW212717   3.140   1.770   1.930
 3940SOL     OW12718   3.797   3.255   1.287
 3940SOL    HW112719   3.856   3.214   1.357
 3940SOL    HW212720   3.715   3.199   1.277
 3941SOL     OW12721   4.462   4.486   6.132
 3941SOL    HW112722   4.546   4.479   6.080
 3941SOL    HW212723   4.400   4.411   6.107
 3942SOL     OW12724   6.581   6.883   6.799
 3942SOL    HW112725   6.518   6.960   6.808
 3942SOL    HW212726   6.673   6.916   6.778
 3943SOL     OW12727   0.670   3.260   4.053
 3943SOL    HW112728   0.697   3.297   4.141
 3943SOL    HW212729   0.597   3.193   4.065
 3944SOL     OW12730   4.621   2.266   4.569
 3944SOL    HW112731   4.572   2.340   4.616
 3944SOL    HW212732   4.554   2.207   4.523
 3945SOL     OW12733   6.848   1.794   1.150
 3945SOL    HW112734   6.836   1.859   1.226
 3945SOL    HW212735   6.892   1.711   1.184
 3946SOL     OW12736   4.850   4.672   3.153
 3946SOL    HW112737   4.763   4.690   3.106
 3946SOL    HW212738   4.844   4.585   3.202
 3947SOL     OW12739   4.543   6.063   0.449
 3947SOL    HW112740   4.452   6.022   0.457
 3947SOL    HW212741   4.577   6.047   0.356
 3948SOL     OW12742   6.363   4.763   1.455
 3948SOL    HW112743   6.264   4.766   1.443
 3948SOL    HW212744   6.402   4.700   1.388
 3949SOL     OW12745   4.497   5.924   2.878
 3949SOL    HW112746   4.454   6.012   2.856
 3949SOL    HW212747   4.426   5.856   2.895
 3950SOL     OW12748   1.644   5.599   1.465
 3950SOL    HW112749   1.559   5.554   1.490
 3950SOL    HW212750   1.719   5.532   1.465
 3951SOL     OW12751   4.749   1.097   1.546
 3951SOL    HW112752   4.781   1.086   1.640
 3951SOL    HW212753   4.671   1.035   1.530
 3952SOL     OW12754   0.292   2.751   1.019
 3952SOL    HW112755   0.304   2.735   0.921
 3952SOL    HW212756   0.239   2.676   1.058
 3953SOL     OW12757   4.074   3.395   1.976
 3953SOL    HW112758   4.128   3.447   1.910
 3953SOL    HW212759   3.978   3.396   1.948
 3954SOL     OW12760   4.067   5.108   5.567
 3954SOL    HW112761   4.063   5.140   5.661
 3954SOL    HW212762   4.133   5.033   5.559
 3955SOL     OW12763   3.359   1.485   5.785
 3955SOL    HW112764   3.352   1.386   5.790
 3955SOL    HW212765   3.424   1.510   5.713
 3956SOL     OW12766   1.226   1.235   2.563
 3956SOL    HW112767   1.249   1.152   2.511
 3956SOL    HW212768   1.253   1.316   2.509
 3957SOL     OW12769   3.752   6.659   4.517
 3957SOL    HW112770   3.699   6.743   4.532
 3957SOL    HW212771   3.692   6.579   4.527
 3958SOL     OW12772   6.040   2.176   4.103
 3958SOL    HW112773   5.981   2.178   4.184
 3958SOL    HW212774   6.123   2.123   4.123
 3959SOL     OW12775   5.034   5.092   0.408
 3959SOL    HW112776   5.042   5.128   0.315
 3959SOL    HW212777   4.945   5.047   0.418
 3960SOL     OW12778   5.317   2.080   5.245
 3960SOL    HW112779   5.224   2.089   5.280
 3960SOL    HW212780   5.381   2.123   5.309
 3961SOL     OW12781   5.466   0.419   3.150
 3961SOL    HW112782   5.519   0.405   3.233
 3961SOL    HW212783   5.514   0.377   3.072
 3962SOL     OW12784   0.449   5.550   6.240
 3962SOL    HW112785   0.416   5.496   6.318
 3962SOL    HW212786   0.398   5.635   6.235
 3963SOL     OW12787   5.107   6.261   2.113
 3963SOL    HW112788   5.060   6.263   2.024
 3963SOL    HW212789   5.083   6.343   2.165
 3964SOL     OW12790   4.904   3.656   3.088
 3964SOL    HW112791   4.849   3.712   3.150
 3964SOL    HW212792   4.961   3.592   3.140
 3965SOL     OW12793   5.604   3.177   4.323
 3965SOL    HW112794   5.589   3.116   4.401
 3965SOL    HW212795   5.518   3.224   4.300
 3966SOL     OW12796   3.385   5.523   6.622
 3966SOL    HW112797   3.323   5.575   6.563
 3966SOL    HW212798   3.438   5.587   6.678
 3967SOL     OW12799   2.009   4.449   1.799
 3967SOL    HW112800   2.033   4.438   1.896
 3967SOL    HW212801   2.044   4.538   1.767
 3968SOL     OW12802   4.334   0.548   0.531
 3968SOL    HW112803   4.396   0.516   0.602
 3968SOL    HW212804   4.288   0.631   0.562
 3969SOL     OW12805   1.868   5.411   2.262
 3969SOL    HW112806   1.845   5.496   2.309
 3969SOL    HW212807   1.792   5.384   2.203
 3970SOL     OW12808   5.835   5.838   2.042
 3970SOL    HW112809   5.829   5.793   2.132
 3970SOL    HW212810   5.885   5.924   2.051
 3971SOL     OW12811   2.791   5.757   4.049
 3971SOL    HW112812   2.838   5.842   4.027
 3971SOL    HW212813   2.697   5.776   4.078
 3972SOL     OW12814   1.196   3.945   6.828
 3972SOL    HW112815   1.160   3.897   6.908
 3972SOL    HW212816   1.248   3.882   6.771
 3973SOL     OW12817   1.032   6.110   1.164
 3973SOL    HW112818   0.939   6.080   1.186
 3973SOL    HW212819   1.029   6.175   1.088
 3974SOL     OW12820   2.000   0.869   5.778
 3974SOL    HW112821   1.916   0.849   5.827
 3974SOL    HW212822   2.037   0.785   5.739
 3975SOL     OW12823   5.055   2.153   6.190
 3975SOL    HW112824   5.123   2.153   6.117
 3975SOL    HW212825   4.993   2.231   6.178
 3976SOL     OW12826   1.733   6.231   2.665
 3976SOL    HW112827   1.810   6.215   2.602
 3976SOL    HW212828   1.704   6.326   2.658
 3977SOL     OW12829   1.074   4.164   6.948
 3977SOL    HW112830   1.102   4.113   6.867
 3977SOL    HW212831   0.974   4.162   6.955
 3978SOL     OW12832   6.932   5.201   3.658
 3978SOL    HW112833   6.864   5.274   3.657
 3978SOL    HW212834   7.023   5.241   3.666
 3979SOL     OW12835   3.344   1.102   6.395
 3979SOL    HW112836   3.412   1.154   6.344
 3979SOL    HW212837   3.358   1.115   6.493
 3980SOL     OW12838   6.330   6.252   6.308
 3980SOL    HW112839   6.322   6.281   6.213
 3980SOL    HW212840   6.244   6.270   6.356
 3981SOL     OW12841   5.544   6.201   0.392
 3981SOL    HW112842   5.494   6.234   0.471
 3981SOL    HW212843   5.613   6.269   0.365
 3982SOL     OW12844   1.911   0.079   2.126
 3982SOL    HW112845   1.941   0.054   2.218
 3982SOL    HW212846   1.886   7.022   2.075
 3983SOL     OW12847   4.402   5.351   3.843
 3983SOL    HW112848   4.311   5.383   3.868
 3983SOL    HW212849   4.449   5.316   3.924
 3984SOL     OW12850   5.879   1.838   2.336
 3984SOL    HW112851   5.913   1.846   2.430
 3984SOL    HW212852   5.848   1.927   2.304
 3985SOL     OW12853   3.245   5.292   6.631
 3985SOL    HW112854   3.294   5.379   6.618
 3985SOL    HW212855   3.250   5.238   6.547
 3986SOL     OW12856   5.181   1.869   2.332
 3986SOL    HW112857   5.092   1.848   2.292
 3986SOL    HW212858   5.250   1.807   2.295
 3987SOL     OW12859   3.058   4.880   4.981
 3987SOL    HW112860   3.072   4.864   4.883
 3987SOL    HW212861   2.960   4.879   5.000
 3988SOL     OW12862   4.436   5.456   0.615
 3988SOL    HW112863   4.507   5.471   0.684
 3988SOL    HW212864   4.347   5.482   0.652
 3989SOL     OW12865   6.090   2.300   0.188
 3989SOL    HW112866   6.005   2.350   0.173
 3989SOL    HW212867   6.104   2.287   0.286
 3990SOL     OW12868   4.844   2.637   1.824
 3990SOL    HW112869   4.845   2.683   1.913
 3990SOL    HW212870   4.814   2.542   1.836
 3991SOL     OW12871   0.456   1.037   2.696
 3991SOL    HW112872   0.459   1.006   2.791
 3991SOL    HW212873   0.549   1.049   2.661
 3992SOL     OW12874   3.466   1.999   0.809
 3992SOL    HW112875   3.410   2.054   0.747
 3992SOL    HW212876   3.548   2.051   0.834
 3993SOL     OW12877   1.302   3.418   2.170
 3993SOL    HW112878   1.376   3.411   2.103
 3993SOL    HW212879   1.337   3.396   2.261
 3994SOL     OW12880   2.669   6.747   5.260
 3994SOL    HW112881   2.710   6.838   5.257
 3994SOL    HW212882   2.739   6.680   5.287
 3995SOL     OW12883   1.708   2.789   5.521
 3995SOL    HW112884   1.653   2.871   5.541
 3995SOL    HW212885   1.787   2.787   5.582
 3996SOL     OW12886   0.330   6.434   4.891
 3996SOL    HW112887   0.239   6.394   4.901
 3996SOL    HW212888   0.375   6.396   4.810
 3997SOL     OW12889   5.607   1.244   4.044
 3997SOL    HW112890   5.654   1.308   4.105
 3997SOL    HW212891   5.529   1.290   4.002
 3998SOL     OW12892   3.636   2.156   3.614
 3998SOL    HW112893   3.684   2.198   3.691
 3998SOL    HW212894   3.593   2.070   3.644
 3999SOL     OW12895   6.383   2.383   4.535
 3999SOL    HW112896   6.451   2.443   4.577
 3999SOL    HW212897   6.293   2.427   4.537
 4000SOL     OW12898   3.768   0.080   3.649
 4000SOL    HW112899   3.844   0.088   3.713
 4000SOL    HW212900   3.697   0.021   3.688
 4001SOL     OW12901   1.869   1.718   3.407
 4001SOL    HW112902   1.804   1.699   3.480
 4001SOL    HW212903   1.922   1.800   3.430
 4002SOL     OW12904   2.143   3.757   2.042
 4002SOL    HW112905   2.153   3.844   1.994
 4002SOL    HW212906   2.169   3.682   1.982
 4003SOL     OW12907   3.323   0.026   4.634
 4003SOL    HW112908   3.294   0.090   4.706
 4003SOL    HW212909   3.405   0.062   4.590
 4004SOL     OW12910   6.316   2.100   4.567
 4004SOL    HW112911   6.296   2.075   4.662
 4004SOL    HW212912   6.353   2.193   4.564
 4005SOL     OW12913   5.320   5.516   6.073
 4005SOL    HW112914   5.334   5.593   6.010
 4005SOL    HW212915   5.392   5.516   6.142
 4006SOL     OW12916   3.960   5.563   2.485
 4006SOL    HW112917   4.025   5.597   2.553
 4006SOL    HW212918   3.876   5.534   2.531
 4007SOL     OW12919   6.847   2.333   6.839
 4007SOL    HW112920   6.764   2.287   6.808
 4007SOL    HW212921   6.843   2.429   6.814
 4008SOL     OW12922   2.589   2.356   4.595
 4008SOL    HW112923   2.569   2.420   4.669
 4008SOL    HW212924   2.643   2.401   4.525
 4009SOL     OW12925   3.787   3.716   2.577
 4009SOL    HW112926   3.846   3.712   2.658
 4009SOL    HW212927   3.815   3.645   2.513
 4010SOL     OW12928   2.171   3.539   0.613
 4010SOL    HW112929   2.263   3.572   0.630
 4010SOL    HW212930   2.133   3.499   0.696
 4011SOL     OW12931   1.657   2.490   1.924
 4011SOL    HW112932   1.650   2.406   1.871
 4011SOL    HW212933   1.603   2.481   2.008
 4012SOL     OW12934   6.833   4.168   3.397
 4012SOL    HW112935   6.814   4.186   3.300
 4012SOL    HW212936   6.877   4.078   3.405
 4013SOL     OW12937   4.367   2.414   3.455
 4013SOL    HW112938   4.412   2.498   3.485
 4013SOL    HW212939   4.434   2.340   3.449
 4014SOL     OW12940   5.706   6.000   3.119
 4014SOL    HW112941   5.623   5.959   3.157
 4014SOL    HW212942   5.691   6.025   3.024
 4015SOL     OW12943   5.127   4.074   5.919
 4015SOL    HW112944   5.143   4.078   5.821
 4015SOL    HW212945   5.159   4.159   5.962
 4016SOL     OW12946   3.357   6.316   6.233
 4016SOL    HW112947   3.363   6.216   6.234
 4016SOL    HW212948   3.263   6.344   6.214
 4017SOL     OW12949   6.393   5.786   0.062
 4017SOL    HW112950   6.410   5.873   0.015
 4017SOL    HW212951   6.349   5.722   7.023
 4018SOL     OW12952   3.878   5.506   1.452
 4018SOL    HW112953   3.859   5.409   1.470
 4018SOL    HW212954   3.975   5.517   1.428
 4019SOL     OW12955   5.058   5.142   3.320
 4019SOL    HW112956   5.144   5.095   3.298
 4019SOL    HW212957   4.992   5.126   3.247
 4020SOL     OW12958   5.467   2.206   5.428
 4020SOL    HW112959   5.392   2.221   5.491
 4020SOL    HW212960   5.549   2.177   5.478
 4021SOL     OW12961   3.048   4.375   5.815
 4021SOL    HW112962   3.084   4.383   5.722
 4021SOL    HW212963   2.972   4.310   5.816
 4022SOL     OW12964   4.790   0.435   0.759
 4022SOL    HW112965   4.838   0.494   0.694
 4022SOL    HW212966   4.694   0.427   0.732
 4023SOL     OW12967   6.168   0.599   5.845
 4023SOL    HW112968   6.092   0.648   5.889
 4023SOL    HW212969   6.254   0.622   5.891
 4024SOL     OW12970   3.942   5.037   3.909
 4024SOL    HW112971   3.892   5.120   3.883
 4024SOL    HW212972   4.039   5.049   3.889
 4025SOL     OW12973   1.026   4.608   3.568
 4025SOL    HW112974   0.949   4.557   3.605
 4025SOL    HW212975   1.111   4.559   3.586
 4026SOL     OW12976   5.388   6.320   4.179
 4026SOL    HW112977   5.420   6.401   4.228
 4026SOL    HW212978   5.443   6.241   4.207
 4027SOL     OW12979   3.986   5.164   1.980
 4027SOL    HW112980   3.992   5.067   2.002
 4027SOL    HW212981   4.063   5.212   2.022
 4028SOL     OW12982   2.650   0.427   3.932
 4028SOL    HW112983   2.576   0.478   3.889
 4028SOL    HW212984   2.685   0.359   3.867
 4029SOL     OW12985   1.860   4.651   5.040
 4029SOL    HW112986   1.881   4.688   4.950
 4029SOL    HW212987   1.928   4.583   5.065
 4030SOL     OW12988   6.936   2.221   5.251
 4030SOL    HW112989   6.895   2.205   5.161
 4030SOL    HW212990   0.010   2.216   5.243
 4031SOL     OW12991   3.829   5.528   3.986
 4031SOL    HW112992   3.918   5.574   3.989
 4031SOL    HW212993   3.767   5.578   3.926
 4032SOL     OW12994   4.842   0.098   4.995
 4032SOL    HW112995   4.830   0.002   5.022
 4032SOL    HW212996   4.754   0.144   4.996
 4033SOL     OW12997   2.786   3.882   5.268
 4033SOL    HW112998   2.823   3.823   5.197
 4033SOL    HW212999   2.688   3.868   5.276
 4034SOL     OW13000   6.744   2.532   3.718
 4034SOL    HW113001   6.799   2.533   3.801
 4034SOL    HW213002   6.803   2.541   3.638
 4035SOL     OW13003   0.231   5.088   0.380
 4035SOL    HW113004   0.291   5.165   0.360
 4035SOL    HW213005   0.149   5.121   0.427
 4036SOL     OW13006   6.607   6.745   3.078
 4036SOL    HW113007   6.596   6.825   3.136
 4036SOL    HW213008   6.586   6.662   3.130
 4037SOL     OW13009   6.557   4.193   6.824
 4037SOL    HW113010   6.560   4.217   6.727
 4037SOL    HW213011   6.593   4.100   6.836
 4038SOL     OW13012   5.542   4.707   3.692
 4038SOL    HW113013   5.596   4.646   3.633
 4038SOL    HW213014   5.498   4.653   3.764
 4039SOL     OW13015   4.513   6.282   0.878
 4039SOL    HW113016   4.428   6.236   0.901
 4039SOL    HW213017   4.561   6.230   0.807
 4040SOL     OW13018   3.599   6.058   1.743
 4040SOL    HW113019   3.586   6.094   1.651
 4040SOL    HW213020   3.637   5.965   1.737
 4041SOL     OW13021   1.453   6.738   4.116
 4041SOL    HW113022   1.523   6.768   4.180
 4041SOL    HW213023   1.486   6.750   4.022
 4042SOL     OW13024   5.944   5.172   1.947
 4042SOL    HW113025   5.870   5.219   1.995
 4042SOL    HW213026   5.957   5.212   1.857
 4043SOL     OW13027   6.732   2.819   1.308
 4043SOL    HW113028   6.747   2.892   1.241
 4043SOL    HW213029   6.668   2.851   1.378
 4044SOL     OW13030   6.512   5.583   3.558
 4044SOL    HW113031   6.584   5.632   3.608
 4044SOL    HW213032   6.429   5.639   3.556
 4045SOL     OW13033   2.568   6.017   6.064
 4045SOL    HW113034   2.497   5.948   6.058
 4045SOL    HW213035   2.639   5.987   6.129
 4046SOL     OW13036   1.665   3.178   1.102
 4046SOL    HW113037   1.685   3.269   1.139
 4046SOL    HW213038   1.700   3.108   1.164
 4047SOL     OW13039   3.253   3.748   1.765
 4047SOL    HW113040   3.292   3.766   1.856
 4047SOL    HW213041   3.327   3.728   1.701
 4048SOL     OW13042   5.546   1.457   1.052
 4048SOL    HW113043   5.552   1.396   1.131
 4048SOL    HW213044   5.450   1.475   1.031
 4049SOL     OW13045   6.516   0.905   5.681
 4049SOL    HW113046   6.422   0.876   5.662
 4049SOL    HW213047   6.533   0.904   5.779
 4050SOL     OW13048   2.770   0.625   0.957
 4050SOL    HW113049   2.770   0.595   0.861
 4050SOL    HW213050   2.676   0.641   0.987
 4051SOL     OW13051   3.059   3.517   0.996
 4051SOL    HW113052   3.040   3.554   0.905
 4051SOL    HW213053   3.140   3.459   0.992
 4052SOL     OW13054   1.777   6.186   1.393
 4052SOL    HW113055   1.739   6.137   1.314
 4052SOL    HW213056   1.839   6.125   1.443
 4053SOL     OW13057   3.288   4.958   3.660
 4053SOL    HW113058   3.255   4.916   3.745
 4053SOL    HW213059   3.386   4.945   3.652
 4054SOL     OW13060   5.315   2.009   6.608
 4054SOL    HW113061   5.383   2.082   6.615
 4054SOL    HW213062   5.224   2.048   6.596
 4055SOL     OW13063   3.778   1.912   0.162
 4055SOL    HW113064   3.726   1.889   0.080
 4055SOL    HW213065   3.825   2.000   0.149
 4056SOL     OW13066   4.214   3.593   0.578
 4056SOL    HW113067   4.142   3.535   0.614
 4056SOL    HW213068   4.243   3.659   0.648
 4057SOL     OW13069   5.641   2.538   6.117
 4057SOL    HW113070   5.710   2.579   6.176
 4057SOL    HW213071   5.557   2.591   6.121
 4058SOL     OW13072   0.723   0.411   5.122
 4058SOL    HW113073   0.684   0.386   5.211
 4058SOL    HW213074   0.655   0.394   5.050
 4059SOL     OW13075   6.890   1.744   4.869
 4059SOL    HW113076   6.870   1.737   4.772
 4059SOL    HW213077   6.939   1.661   4.899
 4060SOL     OW13078   4.197   5.393   4.203
 4060SOL    HW113079   4.132   5.460   4.238
 4060SOL    HW213080   4.286   5.408   4.245
 4061SOL     OW13081   2.665   2.892   1.629
 4061SOL    HW113082   2.743   2.949   1.655
 4061SOL    HW213083   2.698   2.805   1.593
 4062SOL     OW13084   2.896   6.965   3.020
 4062SOL    HW113085   2.879   6.869   3.042
 4062SOL    HW213086   2.995   6.980   3.009
 4063SOL     OW13087   2.490   5.270   5.669
 4063SOL    HW113088   2.504   5.338   5.740
 4063SOL    HW213089   2.407   5.218   5.688
 4064SOL     OW13090   6.297   0.179   3.773
 4064SOL    HW113091   6.333   0.137   3.857
 4064SOL    HW213092   6.248   0.263   3.796
 4065SOL     OW13093   6.050   4.794   6.599
 4065SOL    HW113094   5.986   4.825   6.529
 4065SOL    HW213095   6.122   4.862   6.611
 4066SOL     OW13096   5.825   4.917   1.694
 4066SOL    HW113097   5.837   4.818   1.691
 4066SOL    HW213098   5.873   4.954   1.774
 4067SOL     OW13099   5.993   1.064   1.983
 4067SOL    HW113100   6.059   1.124   2.028
 4067SOL    HW213101   5.997   0.973   2.024
 4068SOL     OW13102   5.273   0.717   4.054
 4068SOL    HW113103   5.332   0.687   3.979
 4068SOL    HW213104   5.321   0.706   4.141
 4069SOL     OW13105   6.969   5.714   1.462
 4069SOL    HW113106   0.006   5.790   1.444
 4069SOL    HW213107   6.939   5.718   1.558
 4070SOL     OW13108   0.932   3.634   2.972
 4070SOL    HW113109   0.963   3.607   3.063
 4070SOL    HW213110   0.864   3.706   2.980
 4071SOL     OW13111   2.106   0.353   3.983
 4071SOL    HW113112   2.162   0.432   4.005
 4071SOL    HW213113   2.021   0.383   3.941
 4072SOL     OW13114   0.789   0.061   4.142
 4072SOL    HW113115   0.711   0.006   4.111
 4072SOL    HW213116   0.755   0.142   4.190
 4073SOL     OW13117   3.021   5.028   0.670
 4073SOL    HW113118   2.973   5.114   0.685
 4073SOL    HW213119   3.120   5.044   0.675
 4074SOL     OW13120   1.692   3.144   0.647
 4074SOL    HW113121   1.656   3.089   0.572
 4074SOL    HW213122   1.747   3.087   0.708
 4075SOL     OW13123   5.020   0.570   4.087
 4075SOL    HW113124   5.105   0.620   4.067
 4075SOL    HW213125   5.032   0.473   4.063
 4076SOL     OW13126   1.412   2.859   3.473
 4076SOL    HW113127   1.474   2.788   3.506
 4076SOL    HW213128   1.464   2.928   3.422
 4077SOL     OW13129   2.724   1.950   0.809
 4077SOL    HW113130   2.779   1.961   0.892
 4077SOL    HW213131   2.749   2.021   0.744
 4078SOL     OW13132   5.555   3.623   2.210
 4078SOL    HW113133   5.626   3.602   2.143
 4078SOL    HW213134   5.591   3.612   2.302
 4079SOL     OW13135   6.673   1.058   3.548
 4079SOL    HW113136   6.762   1.030   3.584
 4079SOL    HW213137   6.605   0.988   3.567
 4080SOL     OW13138   4.027   3.175   2.753
 4080SOL    HW113139   4.085   3.167   2.672
 4080SOL    HW213140   4.069   3.238   2.818
 4081SOL     OW13141   2.410   2.423   6.234
 4081SOL    HW113142   2.325   2.385   6.197
 4081SOL    HW213143   2.398   2.521   6.252
 4082SOL     OW13144   1.388   2.531   5.389
 4082SOL    HW113145   1.346   2.459   5.334
 4082SOL    HW213146   1.407   2.610   5.331
 4083SOL     OW13147   5.817   5.188   2.600
 4083SOL    HW113148   5.843   5.129   2.676
 4083SOL    HW213149   5.723   5.220   2.613
 4084SOL     OW13150   4.379   0.777   3.272
 4084SOL    HW113151   4.317   0.780   3.194
 4084SOL    HW213152   4.470   0.747   3.242
 4085SOL     OW13153   3.832   5.166   1.756
 4085SOL    HW113154   3.751   5.108   1.764
 4085SOL    HW213155   3.869   5.185   1.847
 4086SOL     OW13156   6.086   5.255   5.217
 4086SOL    HW113157   6.146   5.178   5.194
 4086SOL    HW213158   6.000   5.220   5.253
 4087SOL     OW13159   1.778   0.254   2.419
 4087SOL    HW113160   1.731   0.308   2.349
 4087SOL    HW213161   1.758   0.294   2.509
 4088SOL     OW13162   0.205   2.169   5.239
 4088SOL    HW113163   0.236   2.078   5.267
 4088SOL    HW213164   0.279   2.235   5.250
 4089SOL     OW13165   1.286   0.881   2.655
 4089SOL    HW113166   1.334   0.842   2.576
 4089SOL    HW213167   1.321   0.973   2.673
 4090SOL     OW13168   2.686   1.896   5.628
 4090SOL    HW113169   2.701   1.973   5.567
 4090SOL    HW213170   2.733   1.911   5.715
 4091SOL     OW13171   3.519   5.864   1.385
 4091SOL    HW113172   3.419   5.864   1.379
 4091SOL    HW213173   3.552   5.771   1.367
 4092SOL     OW13174   5.313   2.329   4.721
 4092SOL    HW113175   5.303   2.243   4.772
 4092SOL    HW213176   5.391   2.380   4.757
 4093SOL     OW13177   5.557   4.311   3.640
 4093SOL    HW113178   5.587   4.370   3.714
 4093SOL    HW213179   5.561   4.362   3.553
 4094SOL     OW13180   6.668   5.921   0.159
 4094SOL    HW113181   6.739   5.940   0.227
 4094SOL    HW213182   6.578   5.933   0.201
 4095SOL     OW13183   1.326   5.227   0.556
 4095SOL    HW113184   1.401   5.293   0.566
 4095SOL    HW213185   1.270   5.227   0.639
 4096SOL     OW13186   0.453   0.440   6.787
 4096SOL    HW113187   0.536   0.404   6.829
 4096SOL    HW213188   0.382   0.370   6.789
 4097SOL     OW13189   6.613   4.138   4.634
 4097SOL    HW113190   6.525   4.161   4.593
 4097SOL    HW213191   6.603   4.059   4.694
 4098SOL     OW13192   1.706   4.465   2.403
 4098SOL    HW113193   1.734   4.467   2.307
 4098SOL    HW213194   1.704   4.558   2.440
 4099SOL     OW13195   5.565   4.098   6.202
 4099SOL    HW113196   5.620   4.115   6.283
 4099SOL    HW213197   5.492   4.033   6.225
 4100SOL     OW13198   2.086   1.207   3.775
 4100SOL    HW113199   2.098   1.304   3.752
 4100SOL    HW213200   2.151   1.181   3.846
 4101SOL     OW13201   6.626   5.255   0.336
 4101SOL    HW113202   6.615   5.178   0.398
 4101SOL    HW213203   6.546   5.315   0.341
 4102SOL     OW13204   1.805   6.286   0.360
 4102SOL    HW113205   1.894   6.331   0.364
 4102SOL    HW213206   1.817   6.190   0.333
 4103SOL     OW13207   1.673   6.872   4.245
 4103SOL    HW113208   1.732   6.865   4.164
 4103SOL    HW213209   1.694   6.796   4.308
 4104SOL     OW13210   2.075   5.481   4.761
 4104SOL    HW113211   2.019   5.557   4.729
 4104SOL    HW213212   2.016   5.413   4.805
 4105SOL     OW13213   4.425   0.161   1.970
 4105SOL    HW113214   4.345   0.197   1.923
 4105SOL    HW213215   4.449   0.072   1.932
 4106SOL     OW13216   1.151   1.184   2.822
 4106SOL    HW113217   1.129   1.086   2.812
 4106SOL    HW213218   1.165   1.224   2.732
 4107SOL     OW13219   1.041   0.466   0.724
 4107SOL    HW113220   1.118   0.528   0.737
 4107SOL    HW213221   1.072   0.381   0.682
 4108SOL     OW13222   6.669   6.005   5.691
 4108SOL    HW113223   6.692   6.064   5.614
 4108SOL    HW213224   6.670   6.058   5.776
 4109SOL     OW13225   5.453   5.929   3.219
 4109SOL    HW113226   5.363   5.886   3.208
 4109SOL    HW213227   5.452   5.987   3.300
 4110SOL     OW13228   5.197   3.078   0.057
 4110SOL    HW113229   5.172   3.039   6.993
 4110SOL    HW213230   5.139   3.156   0.077
 4111SOL     OW13231   6.386   3.629   4.146
 4111SOL    HW113232   6.388   3.572   4.228
 4111SOL    HW213233   6.300   3.616   4.098
 4112SOL     OW13234   4.704   6.061   4.552
 4112SOL    HW113235   4.649   6.137   4.518
 4112SOL    HW213236   4.753   6.091   4.634
 4113SOL     OW13237   4.086   5.080   4.536
 4113SOL    HW113238   4.024   5.020   4.485
 4113SOL    HW213239   4.038   5.117   4.615
 4114SOL     OW13240   0.306   1.259   1.568
 4114SOL    HW113241   0.261   1.173   1.543
 4114SOL    HW213242   0.367   1.243   1.646
 4115SOL     OW13243   4.324   5.729   3.996
 4115SOL    HW113244   4.406   5.746   4.050
 4115SOL    HW213245   4.309   5.805   3.933
 4116SOL     OW13246   4.936   3.836   2.550
 4116SOL    HW113247   4.993   3.918   2.558
 4116SOL    HW213248   4.922   3.796   2.640
 4117SOL     OW13249   1.151   1.363   3.684
 4117SOL    HW113250   1.222   1.296   3.700
 4117SOL    HW213251   1.074   1.320   3.637
 4118SOL     OW13252   0.626   6.533   0.115
 4118SOL    HW113253   0.628   6.629   0.089
 4118SOL    HW213254   0.646   6.476   0.035
 4119SOL     OW13255   0.371   0.456   4.429
 4119SOL    HW113256   0.443   0.409   4.481
 4119SOL    HW213257   0.391   0.450   4.331
 4120SOL     OW13258   2.339   0.740   6.922
 4120SOL    HW113259   2.317   0.834   6.948
 4120SOL    HW213260   2.301   0.721   6.831
 4121SOL     OW13261   0.136   6.908   2.141
 4121SOL    HW113262   0.208   6.976   2.154
 4121SOL    HW213263   0.077   6.937   2.065
 4122SOL     OW13264   0.489   4.702   3.206
 4122SOL    HW113265   0.490   4.793   3.247
 4122SOL    HW213266   0.492   4.633   3.279
 4123SOL     OW13267   4.975   4.988   1.470
 4123SOL    HW113268   4.991   5.082   1.502
 4123SOL    HW213269   4.981   4.925   1.547
 4124SOL     OW13270   6.382   5.667   0.321
 4124SOL    HW113271   6.327   5.592   0.285
 4124SOL    HW213272   6.432   5.711   0.246
 4125SOL     OW13273   6.363   2.156   0.513
 4125SOL    HW113274   6.324   2.245   0.488
 4125SOL    HW213275   6.291   2.086   0.509
 4126SOL     OW13276   0.928   3.523   2.732
 4126SOL    HW113277   0.918   3.591   2.805
 4126SOL    HW213278   0.914   3.432   2.770
 4127SOL     OW13279   4.340   1.948   4.731
 4127SOL    HW113280   4.376   1.855   4.734
 4127SOL    HW213281   4.265   1.957   4.797
 4128SOL     OW13282   0.617   2.907   6.613
 4128SOL    HW113283   0.603   2.846   6.690
 4128SOL    HW213284   0.529   2.945   6.584
 4129SOL     OW13285   3.044   1.976   0.653
 4129SOL    HW113286   2.958   2.010   0.615
 4129SOL    HW213287   3.081   1.906   0.592
 4130SOL     OW13288   6.067   3.142   0.602
 4130SOL    HW113289   6.051   3.147   0.503
 4130SOL    HW213290   6.124   3.219   0.630
 4131SOL     OW13291   5.090   0.116   3.026
 4131SOL    HW113292   5.132   0.207   3.025
 4131SOL    HW213293   5.004   0.119   3.077
 4132SOL     OW13294   7.023   5.492   3.483
 4132SOL    HW113295   6.940   5.529   3.440
 4132SOL    HW213296   0.078   5.536   3.443
 4133SOL     OW13297   5.302   0.258   2.592
 4133SOL    HW113298   5.379   0.278   2.531
 4133SOL    HW213299   5.218   0.252   2.538
 4134SOL     OW13300   1.136   3.787   1.423
 4134SOL    HW113301   1.118   3.689   1.432
 4134SOL    HW213302   1.234   3.803   1.430
 4135SOL     OW13303   6.132   0.488   2.086
 4135SOL    HW113304   6.165   0.582   2.086
 4135SOL    HW213305   6.090   0.467   1.998
 4136SOL     OW13306   0.971   5.189   0.988
 4136SOL    HW113307   0.885   5.233   1.011
 4136SOL    HW213308   1.006   5.227   0.902
 4137SOL     OW13309   0.795   3.311   6.676
 4137SOL    HW113310   0.851   3.241   6.632
 4137SOL    HW213311   0.807   3.398   6.628
 4138SOL     OW13312   4.821   0.368   6.987
 4138SOL    HW113313   4.772   0.395   6.905
 4138SOL    HW213314   4.804   0.435   0.035
 4139SOL     OW13315   2.126   4.150   3.245
 4139SOL    HW113316   2.141   4.231   3.189
 4139SOL    HW213317   2.032   4.151   3.280
 4140SOL     OW13318   1.855   0.161   5.955
 4140SOL    HW113319   1.793   0.231   5.992
 4140SOL    HW213320   1.807   0.107   5.886
 4141SOL     OW13321   5.177   0.684   6.065
 4141SOL    HW113322   5.185   0.765   6.008
 4141SOL    HW213323   5.264   0.636   6.069
 4142SOL     OW13324   0.265   5.572   2.214
 4142SOL    HW113325   0.250   5.528   2.125
 4142SOL    HW213326   0.182   5.621   2.242
 4143SOL     OW13327   6.222   2.961   6.292
 4143SOL    HW113328   6.251   2.939   6.385
 4143SOL    HW213329   6.301   2.957   6.230
 4144SOL     OW13330   6.136   1.207   0.686
 4144SOL    HW113331   6.155   1.258   0.602
 4144SOL    HW213332   6.056   1.246   0.731
 4145SOL     OW13333   6.980   0.647   1.667
 4145SOL    HW113334   0.039   0.618   1.621
 4145SOL    HW213335   6.919   0.689   1.601
 4146SOL     OW13336   5.056   5.897   1.994
 4146SOL    HW113337   4.999   5.896   1.912
 4146SOL    HW213338   5.111   5.981   1.995
 4147SOL     OW13339   4.454   4.904   6.644
 4147SOL    HW113340   4.549   4.880   6.622
 4147SOL    HW213341   4.440   5.002   6.627
 4148SOL     OW13342   2.842   0.790   5.380
 4148SOL    HW113343   2.789   0.708   5.361
 4148SOL    HW213344   2.938   0.765   5.396
 4149SOL     OW13345   1.478   4.063   6.743
 4149SOL    HW113346   1.488   4.132   6.671
 4149SOL    HW213347   1.441   3.979   6.702
 4150SOL     OW13348   5.473   2.223   6.622
 4150SOL    HW113349   5.409   2.272   6.564
 4150SOL    HW213350   5.484   2.271   6.709
 4151SOL     OW13351   2.946   5.978   4.698
 4151SOL    HW113352   3.018   5.950   4.635
 4151SOL    HW213353   2.919   6.072   4.679
 4152SOL     OW13354   2.915   4.406   1.375
 4152SOL    HW113355   2.833   4.422   1.320
 4152SOL    HW213356   2.937   4.488   1.427
 4153SOL     OW13357   6.584   6.173   1.728
 4153SOL    HW113358   6.601   6.085   1.772
 4153SOL    HW213359   6.549   6.238   1.795
 4154SOL     OW13360   1.510   6.154   3.892
 4154SOL    HW113361   1.421   6.124   3.926
 4154SOL    HW213362   1.553   6.080   3.840
 4155SOL     OW13363   0.288   0.813   1.700
 4155SOL    HW113364   0.252   0.888   1.645
 4155SOL    HW213365   0.373   0.843   1.745
 4156SOL     OW13366   0.647   5.188   6.305
 4156SOL    HW113367   0.682   5.096   6.288
 4156SOL    HW213368   0.621   5.230   6.218
 4157SOL     OW13369   5.808   6.199   1.631
 4157SOL    HW113370   5.818   6.190   1.532
 4157SOL    HW213371   5.728   6.256   1.651
 4158SOL     OW13372   1.055   2.705   1.354
 4158SOL    HW113373   1.011   2.674   1.438
 4158SOL    HW213374   0.985   2.731   1.288
 4159SOL     OW13375   2.906   0.078   4.147
 4159SOL    HW113376   2.981   0.027   4.105
 4159SOL    HW213377   2.940   0.166   4.181
 4160SOL     OW13378   0.258   0.247   6.753
 4160SOL    HW113379   0.303   0.169   6.710
 4160SOL    HW213380   0.233   0.223   6.847
 4161SOL     OW13381   3.825   3.488   2.397
 4161SOL    HW113382   3.746   3.477   2.335
 4161SOL    HW213383   3.909   3.469   2.346
 4162SOL     OW13384   5.111   5.842   1.675
 4162SOL    HW113385   5.073   5.754   1.646
 4162SOL    HW213386   5.037   5.899   1.712
 4163SOL     OW13387   3.360   5.771   1.990
 4163SOL    HW113388   3.276   5.745   2.037
 4163SOL    HW213389   3.351   5.864   1.954
 4164SOL     OW13390   6.936   1.209   6.206
 4164SOL    HW113391   6.988   1.289   6.177
 4164SOL    HW213392   6.940   1.200   6.306
 4165SOL     OW13393   4.583   0.782   4.813
 4165SOL    HW113394   4.660   0.798   4.751
 4165SOL    HW213395   4.534   0.699   4.785
 4166SOL     OW13396   5.796   1.564   1.013
 4166SOL    HW113397   5.700   1.539   1.022
 4166SOL    HW213398   5.815   1.592   0.919
 4167SOL     OW13399   3.144   5.910   4.539
 4167SOL    HW113400   3.186   5.831   4.583
 4167SOL    HW213401   3.125   5.889   4.443
 4168SOL     OW13402   4.931   3.595   7.022
 4168SOL    HW113403   4.862   3.546   6.969
 4168SOL    HW213404   5.008   3.534   0.015
 4169SOL     OW13405   5.286   2.592   5.910
 4169SOL    HW113406   5.320   2.508   5.952
 4169SOL    HW213407   5.346   2.668   5.932
 4170SOL     OW13408   0.437   2.451   4.537
 4170SOL    HW113409   0.439   2.495   4.626
 4170SOL    HW213410   0.352   2.472   4.490
 4171SOL     OW13411   0.936   1.796   0.221
 4171SOL    HW113412   0.970   1.855   0.294
 4171SOL    HW213413   0.836   1.792   0.225
 4172SOL     OW13414   2.723   3.249   0.504
 4172SOL    HW113415   2.719   3.331   0.562
 4172SOL    HW213416   2.640   3.244   0.448
 4173SOL     OW13417   4.945   2.687   6.692
 4173SOL    HW113418   4.891   2.723   6.769
 4173SOL    HW213419   5.041   2.681   6.719
 4174SOL     OW13420   3.579   0.477   4.805
 4174SOL    HW113421   3.650   0.444   4.867
 4174SOL    HW213422   3.548   0.567   4.835
 4175SOL     OW13423   0.664   4.621   6.436
 4175SOL    HW113424   0.584   4.673   6.406
 4175SOL    HW213425   0.649   4.524   6.416
 4176SOL     OW13426   5.573   0.167   5.898
 4176SOL    HW113427   5.551   0.200   5.990
 4176SOL    HW213428   5.654   0.108   5.903
 4177SOL     OW13429   4.147   5.010   2.683
 4177SOL    HW113430   4.215   4.937   2.684
 4177SOL    HW213431   4.080   4.992   2.611
 4178SOL     OW13432   3.678   5.802   1.721
 4178SOL    HW113433   3.627   5.716   1.714
 4178SOL    HW213434   3.776   5.784   1.711
 4179SOL     OW13435   5.183   3.318   5.395
 4179SOL    HW113436   5.166   3.230   5.349
 4179SOL    HW213437   5.097   3.369   5.399
 4180SOL     OW13438   4.494   3.862   0.986
 4180SOL    HW113439   4.511   3.842   1.083
 4180SOL    HW213440   4.397   3.847   0.966
 4181SOL     OW13441   4.717   6.853   4.955
 4181SOL    HW113442   4.639   6.848   4.892
 4181SOL    HW213443   4.686   6.831   5.048
 4182SOL     OW13444   0.083   6.321   4.941
 4182SOL    HW113445   0.078   6.252   4.869
 4182SOL    HW213446   7.023   6.322   4.993
 4183SOL     OW13447   4.298   1.708   0.594
 4183SOL    HW113448   4.340   1.794   0.624
 4183SOL    HW213449   4.199   1.715   0.602
 4184SOL     OW13450   3.438   5.690   4.099
 4184SOL    HW113451   3.354   5.738   4.074
 4184SOL    HW213452   3.428   5.592   4.079
 4185SOL     OW13453   5.264   2.870   3.217
 4185SOL    HW113454   5.265   2.893   3.120
 4185SOL    HW213455   5.176   2.897   3.257
 4186SOL     OW13456   1.905   6.028   0.378
 4186SOL    HW113457   2.004   6.031   0.387
 4186SOL    HW213458   1.865   5.986   0.459
 4187SOL     OW13459   1.836   3.167   6.794
 4187SOL    HW113460   1.918   3.200   6.747
 4187SOL    HW213461   1.804   3.237   6.858
 4188SOL     OW13462   4.782   0.177   0.151
 4188SOL    HW113463   4.718   0.224   0.211
 4188SOL    HW213464   4.803   0.236   0.073
 4189SOL     OW13465   4.833   5.028   3.694
 4189SOL    HW113466   4.840   4.930   3.673
 4189SOL    HW213467   4.753   5.045   3.751
 4190SOL     OW13468   6.515   5.863   1.631
 4190SOL    HW113469   6.564   5.830   1.712
 4190SOL    HW213470   6.580   5.899   1.564
 4191SOL     OW13471   4.429   4.423   6.792
 4191SOL    HW113472   4.342   4.375   6.776
 4191SOL    HW213473   4.456   4.473   6.710
 4192SOL     OW13474   1.599   3.398   0.723
 4192SOL    HW113475   1.637   3.306   0.714
 4192SOL    HW213476   1.500   3.391   0.742
 4193SOL     OW13477   0.626   0.536   0.630
 4193SOL    HW113478   0.572   0.549   0.547
 4193SOL    HW213479   0.629   0.622   0.681
 4194SOL     OW13480   4.467   1.372   5.616
 4194SOL    HW113481   4.440   1.282   5.651
 4194SOL    HW213482   4.389   1.416   5.573
 4195SOL     OW13483   3.870   6.306   0.518
 4195SOL    HW113484   3.873   6.209   0.539
 4195SOL    HW213485   3.892   6.359   0.600
 4196SOL     OW13486   6.476   3.212   1.991
 4196SOL    HW113487   6.503   3.285   2.054
 4196SOL    HW213488   6.448   3.252   1.904
 4197SOL     OW13489   3.610   1.535   6.654
 4197SOL    HW113490   3.549   1.612   6.635
 4197SOL    HW213491   3.657   1.551   6.741
 4198SOL     OW13492   6.964   1.991   2.577
 4198SOL    HW113493   6.932   1.898   2.598
 4198SOL    HW213494   6.891   2.056   2.597
 4199SOL     OW13495   0.781   4.148   6.330
 4199SOL    HW113496   0.726   4.070   6.300
 4199SOL    HW213497   0.720   4.226   6.347
 4200SOL     OW13498   4.660   0.768   4.001
 4200SOL    HW113499   4.715   0.707   3.945
 4200SOL    HW213500   4.619   0.839   3.943
 4201SOL     OW13501   5.649   6.672   3.738
 4201SOL    HW113502   5.736   6.644   3.697
 4201SOL    HW213503   5.590   6.711   3.668
 4202SOL     OW13504   5.207   4.179   1.489
 4202SOL    HW113505   5.224   4.241   1.566
 4202SOL    HW213506   5.190   4.233   1.407
 4203SOL     OW13507   6.239   5.217   5.537
 4203SOL    HW113508   6.205   5.179   5.451
 4203SOL    HW213509   6.282   5.145   5.591
 4204SOL     OW13510   2.010   3.306   6.581
 4204SOL    HW113511   2.083   3.368   6.607
 4204SOL    HW213512   1.968   3.336   6.495
 4205SOL     OW13513   3.744   6.085   6.024
 4205SOL    HW113514   3.825   6.097   5.967
 4205SOL    HW213515   3.688   6.169   6.021
 4206SOL     OW13516   2.243   2.183   4.801
 4206SOL    HW113517   2.230   2.096   4.850
 4206SOL    HW213518   2.324   2.177   4.742
 4207SOL     OW13519   1.050   2.204   2.249
 4207SOL    HW113520   1.014   2.142   2.180
 4207SOL    HW213521   1.085   2.152   2.327
 4208SOL     OW13522   1.978   3.241   4.280
 4208SOL    HW113523   1.885   3.210   4.301
 4208SOL    HW213524   2.044   3.177   4.321
 4209SOL     OW13525   6.828   6.536   2.106
 4209SOL    HW113526   6.839   6.582   2.018
 4209SOL    HW213527   6.918   6.515   2.145
 4210SOL     OW13528   3.755   4.011   4.621
 4210SOL    HW113529   3.756   4.049   4.529
 4210SOL    HW213530   3.768   4.084   4.688
 4211SOL     OW13531   4.184   2.377   5.552
 4211SOL    HW113532   4.160   2.433   5.632
 4211SOL    HW213533   4.268   2.326   5.572
 4212SOL     OW13534   6.431   2.233   3.318
 4212SOL    HW113535   6.488   2.175   3.375
 4212SOL    HW213536   6.437   2.203   3.222
 4213SOL     OW13537   2.980   0.764   3.957
 4213SOL    HW113538   2.944   0.672   3.973
 4213SOL    HW213539   3.006   0.805   4.044
 4214SOL     OW13540   6.834   5.914   3.323
 4214SOL    HW113541   6.791   5.991   3.275
 4214SOL    HW213542   6.898   5.868   3.261
 4215SOL     OW13543   4.811   6.433   5.549
 4215SOL    HW113544   4.788   6.509   5.609
 4215SOL    HW213545   4.887   6.458   5.490
 4216SOL     OW13546   2.349   5.800   2.052
 4216SOL    HW113547   2.438   5.775   2.013
 4216SOL    HW213548   2.361   5.875   2.118
 4217SOL     OW13549   1.112   0.722   2.730
 4217SOL    HW113550   1.187   0.784   2.705
 4217SOL    HW213551   1.124   0.635   2.682
 4218SOL     OW13552   3.021   1.414   0.890
 4218SOL    HW113553   3.116   1.388   0.872
 4218SOL    HW213554   2.959   1.347   0.848
 4219SOL     OW13555   4.353   5.781   3.171
 4219SOL    HW113556   4.362   5.747   3.078
 4219SOL    HW213557   4.411   5.726   3.232
 4220SOL     OW13558   5.658   1.987   1.209
 4220SOL    HW113559   5.735   1.925   1.225
 4220SOL    HW213560   5.620   1.971   1.118
 4221SOL     OW13561   0.666   6.095   0.175
 4221SOL    HW113562   0.570   6.100   0.150
 4221SOL    HW213563   0.689   6.171   0.236
 4222SOL     OW13564   4.807   2.988   4.208
 4222SOL    HW113565   4.855   3.001   4.121
 4222SOL    HW213566   4.839   3.057   4.274
 4223SOL     OW13567   4.084   3.766   1.887
 4223SOL    HW113568   4.017   3.734   1.954
 4223SOL    HW213569   4.120   3.688   1.836
 4224SOL     OW13570   4.955   3.956   4.524
 4224SOL    HW113571   4.953   3.856   4.520
 4224SOL    HW213572   5.049   3.987   4.534
 4225SOL     OW13573   0.392   2.345   5.263
 4225SOL    HW113574   0.461   2.345   5.190
 4225SOL    HW213575   0.437   2.346   5.352
 4226SOL     OW13576   1.177   5.898   4.928
 4226SOL    HW113577   1.131   5.906   5.017
 4226SOL    HW213578   1.157   5.809   4.888
 4227SOL     OW13579   4.953   5.136   2.209
 4227SOL    HW113580   4.951   5.078   2.291
 4227SOL    HW213581   4.881   5.108   2.146
 4228SOL     OW13582   1.617   5.474   3.533
 4228SOL    HW113583   1.596   5.543   3.602
 4228SOL    HW213584   1.580   5.386   3.563
 4229SOL     OW13585   0.017   4.506   5.449
 4229SOL    HW113586   0.013   4.589   5.506
 4229SOL    HW213587   6.952   4.488   5.410
 4230SOL     OW13588   0.336   0.638   2.398
 4230SOL    HW113589   0.305   0.555   2.446
 4230SOL    HW213590   0.294   0.718   2.440
 4231SOL     OW13591   6.430   1.346   5.706
 4231SOL    HW113592   6.440   1.425   5.645
 4231SOL    HW213593   6.334   1.316   5.707
 4232SOL     OW13594   1.330   5.602   3.821
 4232SOL    HW113595   1.312   5.510   3.855
 4232SOL    HW213596   1.428   5.612   3.803
 4233SOL     OW13597   4.460   5.072   3.109
 4233SOL    HW113598   4.451   5.110   3.202
 4233SOL    HW213599   4.548   5.099   3.070
 4234SOL     OW13600   3.244   5.206   6.134
 4234SOL    HW113601   3.279   5.149   6.060
 4234SOL    HW213602   3.162   5.254   6.104
 4235SOL     OW13603   0.011   5.832   5.518
 4235SOL    HW113604   0.029   5.872   5.428
 4235SOL    HW213605   0.097   5.825   5.568
 4236SOL     OW13606   0.331   5.543   2.864
 4236SOL    HW113607   0.356   5.544   2.767
 4236SOL    HW213608   0.371   5.462   2.908
 4237SOL     OW13609   6.834   5.171   4.086
 4237SOL    HW113610   6.822   5.139   3.992
 4237SOL    HW213611   6.768   5.124   4.146
 4238SOL     OW13612   2.811   6.689   3.007
 4238SOL    HW113613   2.729   6.722   3.054
 4238SOL    HW213614   2.801   6.591   2.988
 4239SOL     OW13615   4.452   0.875   3.710
 4239SOL    HW113616   4.496   0.907   3.627
 4239SOL    HW213617   4.465   0.943   3.783
 4240SOL     OW13618   6.711   0.018   1.644
 4240SOL    HW113619   6.747   6.950   1.632
 4240SOL    HW213620   6.661   0.024   1.730
 4241SOL     OW13621   6.411   3.714   0.371
 4241SOL    HW113622   6.445   3.623   0.348
 4241SOL    HW213623   6.356   3.710   0.454
 4242SOL     OW13624   2.374   1.926   3.327
 4242SOL    HW113625   2.459   1.874   3.327
 4242SOL    HW213626   2.340   1.934   3.233
 4243SOL     OW13627   4.848   0.270   3.145
 4243SOL    HW113628   4.791   0.208   3.199
 4243SOL    HW213629   4.808   0.279   3.053
 4244SOL     OW13630   3.729   3.261   2.883
 4244SOL    HW113631   3.765   3.181   2.932
 4244SOL    HW213632   3.752   3.254   2.786
 4245SOL     OW13633   6.322   2.057   6.226
 4245SOL    HW113634   6.314   1.957   6.224
 4245SOL    HW213635   6.400   2.085   6.170
 4246SOL     OW13636   0.928   3.363   1.271
 4246SOL    HW113637   0.944   3.351   1.173
 4246SOL    HW213638   0.945   3.276   1.318
 4247SOL     OW13639   0.078   5.841   4.992
 4247SOL    HW113640   0.164   5.891   4.983
 4247SOL    HW213641   0.043   5.818   4.901
 4248SOL     OW13642   1.443   2.880   4.882
 4248SOL    HW113643   1.476   2.894   4.975
 4248SOL    HW213644   1.454   2.964   4.829
 4249SOL     OW13645   5.663   4.165   5.966
 4249SOL    HW113646   5.650   4.139   6.062
 4249SOL    HW213647   5.591   4.229   5.939
 4250SOL     OW13648   0.332   4.843   3.014
 4250SOL    HW113649   0.379   4.816   3.098
 4250SOL    HW213650   0.388   4.910   2.965
 4251SOL     OW13651   6.053   4.104   0.743
 4251SOL    HW113652   6.018   4.144   0.658
 4251SOL    HW213653   6.005   4.144   0.821
 4252SOL     OW13654   0.492   5.610   5.637
 4252SOL    HW113655   0.532   5.540   5.577
 4252SOL    HW213656   0.397   5.586   5.657
 4253SOL     OW13657   4.343   6.428   2.313
 4253SOL    HW113658   4.395   6.497   2.363
 4253SOL    HW213659   4.395   6.400   2.232
 4254SOL     OW13660   2.691   4.422   1.213
 4254SOL    HW113661   2.660   4.362   1.139
 4254SOL    HW213662   2.616   4.439   1.277
 4255SOL     OW13663   0.264   2.050   4.390
 4255SOL    HW113664   0.346   2.026   4.441
 4255SOL    HW213665   0.289   2.077   4.297
 4256SOL     OW13666   2.042   0.493   1.807
 4256SOL    HW113667   2.103   0.486   1.886
 4256SOL    HW213668   1.955   0.534   1.835
 4257SOL     OW13669   4.087   2.008   4.497
 4257SOL    HW113670   4.003   1.984   4.546
 4257SOL    HW213671   4.121   1.928   4.446
 4258SOL     OW13672   5.124   6.621   2.557
 4258SOL    HW113673   5.181   6.644   2.478
 4258SOL    HW213674   5.156   6.536   2.598
 4259SOL     OW13675   2.147   2.950   0.593
 4259SOL    HW113676   2.139   3.038   0.546
 4259SOL    HW213677   2.118   2.877   0.531
 4260SOL     OW13678   5.152   5.490   3.937
 4260SOL    HW113679   5.095   5.444   4.005
 4260SOL    HW213680   5.188   5.423   3.872
 4261SOL     OW13681   1.686   0.079   1.869
 4261SOL    HW113682   1.627   0.055   1.792
 4261SOL    HW213683   1.631   0.116   1.943
 4262SOL     OW13684   0.612   5.591   6.578
 4262SOL    HW113685   0.583   5.498   6.555
 4262SOL    HW213686   0.563   5.656   6.521
 4263SOL     OW13687   3.332   5.228   5.585
 4263SOL    HW113688   3.263   5.230   5.512
 4263SOL    HW213689   3.413   5.180   5.552
 4264SOL     OW13690   0.046   0.541   0.386
 4264SOL    HW113691   0.135   0.570   0.351
 4264SOL    HW213692   0.034   0.443   0.368
 4265SOL     OW13693   6.632   2.116   1.135
 4265SOL    HW113694   6.626   2.110   1.234
 4265SOL    HW213695   6.593   2.033   1.094
 4266SOL     OW13696   2.626   4.768   0.305
 4266SOL    HW113697   2.573   4.741   0.225
 4266SOL    HW213698   2.714   4.721   0.304
 4267SOL     OW13699   1.874   3.940   5.305
 4267SOL    HW113700   1.952   3.905   5.253
 4267SOL    HW213701   1.794   3.883   5.288
 4268SOL     OW13702   1.667   0.723   1.383
 4268SOL    HW113703   1.729   0.677   1.447
 4268SOL    HW213704   1.714   0.802   1.343
 4269SOL     OW13705   3.685   2.866   0.095
 4269SOL    HW113706   3.767   2.922   0.107
 4269SOL    HW213707   3.620   2.887   0.167
 4270SOL     OW13708   3.066   2.970   5.192
 4270SOL    HW113709   3.024   2.968   5.101
 4270SOL    HW213710   3.110   3.058   5.206
 4271SOL     OW13711   0.904   6.880   6.755
 4271SOL    HW113712   0.950   6.792   6.748
 4271SOL    HW213713   0.887   6.901   6.852
 4272SOL     OW13714   6.763   4.901   4.636
 4272SOL    HW113715   6.756   4.815   4.585
 4272SOL    HW213716   6.849   4.902   4.687
 4273SOL     OW13717   5.815   6.609   5.390
 4273SOL    HW113718   5.838   6.665   5.470
 4273SOL    HW213719   5.817   6.666   5.308
 4274SOL     OW13720   1.950   0.159   4.147
 4274SOL    HW113721   1.960   0.227   4.074
 4274SOL    HW213722   2.038   0.115   4.164
 4275SOL     OW13723   0.562   0.048   6.043
 4275SOL    HW113724   0.560   0.078   5.947
 4275SOL    HW213725   0.469   0.038   6.077
 4276SOL     OW13726   2.111   3.895   2.599
 4276SOL    HW113727   2.033   3.958   2.592
 4276SOL    HW213728   2.133   3.860   2.508
 4277SOL     OW13729   6.768   5.746   3.536
 4277SOL    HW113730   6.764   5.815   3.463
 4277SOL    HW213731   6.851   5.761   3.590
 4278SOL     OW13732   0.023   0.332   5.287
 4278SOL    HW113733   0.116   0.368   5.301
 4278SOL    HW213734   7.002   0.327   5.376
 4279SOL     OW13735   3.305   5.719   4.682
 4279SOL    HW113736   3.388   5.666   4.668
 4279SOL    HW213737   3.285   5.726   4.780
 4280SOL     OW13738   4.990   2.567   3.955
 4280SOL    HW113739   4.960   2.534   4.045
 4280SOL    HW213740   4.914   2.613   3.910
 4281SOL     OW13741   2.238   4.291   5.037
 4281SOL    HW113742   2.311   4.313   5.101
 4281SOL    HW213743   2.252   4.198   5.002
 4282SOL     OW13744   1.547   2.541   1.482
 4282SOL    HW113745   1.569   2.487   1.400
 4282SOL    HW213746   1.516   2.480   1.555
 4283SOL     OW13747   1.683   0.485   4.317
 4283SOL    HW113748   1.638   0.569   4.346
 4283SOL    HW213749   1.715   0.434   4.396
 4284SOL     OW13750   6.050   2.158   2.362
 4284SOL    HW113751   6.145   2.138   2.338
 4284SOL    HW213752   6.020   2.242   2.316
 4285SOL     OW13753   1.524   6.558   6.033
 4285SOL    HW113754   1.432   6.520   6.023
 4285SOL    HW213755   1.544   6.573   6.129
 4286SOL     OW13756   5.109   5.607   0.440
 4286SOL    HW113757   5.134   5.522   0.487
 4286SOL    HW213758   5.160   5.683   0.480
 4287SOL     OW13759   4.997   6.043   4.816
 4287SOL    HW113760   5.000   6.078   4.723
 4287SOL    HW213761   5.005   5.943   4.814
 4288SOL     OW13762   1.306   6.402   2.948
 4288SOL    HW113763   1.217   6.409   2.904
 4288SOL    HW213764   1.293   6.390   3.047
 4289SOL     OW13765   5.560   3.251   1.174
 4289SOL    HW113766   5.621   3.330   1.172
 4289SOL    HW213767   5.506   3.247   1.090
 4290SOL     OW13768   2.290   1.137   1.822
 4290SOL    HW113769   2.233   1.129   1.740
 4290SOL    HW213770   2.235   1.118   1.903
 4291SOL     OW13771   6.544   3.969   1.041
 4291SOL    HW113772   6.618   3.902   1.035
 4291SOL    HW213773   6.456   3.921   1.038
 4292SOL     OW13774   6.158   5.239   6.631
 4292SOL    HW113775   6.103   5.254   6.713
 4292SOL    HW213776   6.241   5.296   6.635
 4293SOL     OW13777   0.055   2.746   6.775
 4293SOL    HW113778   0.077   2.843   6.784
 4293SOL    HW213779   0.107   2.707   6.699
 4294SOL     OW13780   4.671   1.486   5.772
 4294SOL    HW113781   4.597   1.446   5.719
 4294SOL    HW213782   4.647   1.484   5.869
 4295SOL     OW13783   3.577   0.094   4.494
 4295SOL    HW113784   3.593   0.183   4.538
 4295SOL    HW213785   3.620   0.094   4.403
 4296SOL     OW13786   2.373   1.443   1.111
 4296SOL    HW113787   2.394   1.378   1.185
 4296SOL    HW213788   2.296   1.409   1.057
 4297SOL     OW13789   5.725   0.778   5.690
 4297SOL    HW113790   5.810   0.828   5.712
 4297SOL    HW213791   5.647   0.834   5.717
 4298SOL     OW13792   3.143   5.576   0.936
 4298SOL    HW113793   3.204   5.623   1.001
 4298SOL    HW213794   3.110   5.642   0.869
 4299SOL     OW13795   0.813   3.901   6.491
 4299SOL    HW113796   0.857   3.933   6.407
 4299SOL    HW213797   0.778   3.808   6.476
 4300SOL     OW13798   5.128   0.876   6.647
 4300SOL    HW113799   5.147   0.937   6.570
 4300SOL    HW213800   5.213   0.832   6.675
 4301SOL     OW13801   2.986   1.608   0.662
 4301SOL    HW113802   2.893   1.642   0.652
 4301SOL    HW213803   2.993   1.552   0.744
 4302SOL     OW13804   1.116   6.051   6.704
 4302SOL    HW113805   1.208   6.083   6.678
 4302SOL    HW213806   1.115   6.029   6.801
 4303SOL     OW13807   0.130   3.419   1.968
 4303SOL    HW113808   0.200   3.490   1.966
 4303SOL    HW213809   0.115   3.389   2.062
 4304SOL     OW13810   2.972   3.804   4.014
 4304SOL    HW113811   2.877   3.775   4.029
 4304SOL    HW213812   3.021   3.807   4.101
 4305SOL     OW13813   6.131   1.691   3.702
 4305SOL    HW113814   6.150   1.773   3.648
 4305SOL    HW213815   6.157   1.610   3.649
 4306SOL     OW13816   6.619   5.144   5.630
 4306SOL    HW113817   6.537   5.145   5.687
 4306SOL    HW213818   6.662   5.234   5.633
 4307SOL     OW13819   5.518   3.650   6.336
 4307SOL    HW113820   5.591   3.616   6.276
 4307SOL    HW213821   5.539   3.626   6.431
 4308SOL     OW13822   5.225   6.119   4.369
 4308SOL    HW113823   5.145   6.068   4.400
 4308SOL    HW213824   5.256   6.180   4.442
 4309SOL     OW13825   1.569   1.302   1.015
 4309SOL    HW113826   1.550   1.223   0.957
 4309SOL    HW213827   1.574   1.384   0.958
 4310SOL     OW13828   1.755   1.501   2.842
 4310SOL    HW113829   1.853   1.506   2.858
 4310SOL    HW213830   1.715   1.593   2.842
 4311SOL     OW13831   1.818   6.258   3.562
 4311SOL    HW113832   1.914   6.273   3.584
 4311SOL    HW213833   1.806   6.258   3.463
 4312SOL     OW13834   2.491   5.174   2.020
 4312SOL    HW113835   2.552   5.206   2.093
 4312SOL    HW213836   2.542   5.168   1.934
 4313SOL     OW13837   4.859   0.538   2.494
 4313SOL    HW113838   4.806   0.496   2.420
 4313SOL    HW213839   4.828   0.631   2.509
 4314SOL     OW13840   4.869   2.933   2.529
 4314SOL    HW113841   4.836   3.019   2.567
 4314SOL    HW213842   4.907   2.876   2.602
 4315SOL     OW13843   2.208   1.442   2.144
 4315SOL    HW113844   2.259   1.464   2.061
 4315SOL    HW213845   2.209   1.343   2.159
 4316SOL     OW13846   5.862   0.164   2.238
 4316SOL    HW113847   5.858   0.216   2.323
 4316SOL    HW213848   5.813   0.214   2.166
 4317SOL     OW13849   4.036   0.868   3.629
 4317SOL    HW113850   4.052   0.966   3.623
 4317SOL    HW213851   4.111   0.819   3.586
 4318SOL     OW13852   0.209   2.378   3.811
 4318SOL    HW113853   0.283   2.403   3.874
 4318SOL    HW213854   0.122   2.374   3.861
 4319SOL     OW13855   2.511   3.247   6.309
 4319SOL    HW113856   2.414   3.224   6.315
 4319SOL    HW213857   2.521   3.342   6.279
 4320SOL     OW13858   0.081   5.996   2.587
 4320SOL    HW113859   0.016   6.032   2.654
 4320SOL    HW213860   0.079   6.053   2.504
 4321SOL     OW13861   0.288   0.441   5.300
 4321SOL    HW113862   0.339   0.380   5.239
 4321SOL    HW213863   0.350   0.475   5.371
 4322SOL     OW13864   6.070   0.987   0.334
 4322SOL    HW113865   6.111   0.918   0.394
 4322SOL    HW213866   6.055   0.948   0.244
 4323SOL     OW13867   6.928   3.444   2.912
 4323SOL    HW113868   6.965   3.354   2.887
 4323SOL    HW213869   6.912   3.447   3.010
 4324SOL     OW13870   5.925   4.131   5.912
 4324SOL    HW113871   5.826   4.118   5.919
 4324SOL    HW213872   5.958   4.183   5.990
 4325SOL     OW13873   2.023   1.883   0.041
 4325SOL    HW113874   2.065   1.833   0.116
 4325SOL    HW213875   1.975   1.964   0.077
 4326SOL     OW13876   5.920   2.183   4.791
 4326SOL    HW113877   5.887   2.178   4.885
 4326SOL    HW213878   6.014   2.219   4.791
 4327SOL     OW13879   5.963   6.851   2.499
 4327SOL    HW113880   5.967   6.877   2.402
 4327SOL    HW213881   6.054   6.820   2.528
 4328SOL     OW13882   5.629   5.216   0.337
 4328SOL    HW113883   5.713   5.175   0.373
 4328SOL    HW213884   5.578   5.257   0.413
 4329SOL     OW13885   3.948   1.691   5.570
 4329SOL    HW113886   4.040   1.698   5.532
 4329SOL    HW213887   3.909   1.783   5.581
 4330SOL     OW13888   1.342   0.604   6.213
 4330SOL    HW113889   1.257   0.555   6.233
 4330SOL    HW213890   1.386   0.630   6.299
 4331SOL     OW13891   5.823   3.085   6.766
 4331SOL    HW113892   5.756   3.038   6.823
 4331SOL    HW213893   5.837   3.034   6.681
 4332SOL     OW13894   5.165   2.789   1.476
 4332SOL    HW113895   5.185   2.691   1.471
 4332SOL    HW213896   5.240   2.840   1.434
 4333SOL     OW13897   5.192   0.376   4.758
 4333SOL    HW113898   5.188   0.475   4.758
 4333SOL    HW213899   5.258   0.345   4.690
 4334SOL     OW13900   4.365   1.484   2.371
 4334SOL    HW113901   4.345   1.487   2.469
 4334SOL    HW213902   4.448   1.537   2.352
 4335SOL     OW13903   3.495   4.029   4.987
 4335SOL    HW113904   3.399   4.007   5.003
 4335SOL    HW213905   3.531   3.973   4.913
 4336SOL     OW13906   1.373   6.163   4.633
 4336SOL    HW113907   1.388   6.261   4.622
 4336SOL    HW213908   1.382   6.118   4.544
 4337SOL     OW13909   6.992   5.669   0.729
 4337SOL    HW113910   6.943   5.597   0.778
 4337SOL    HW213911   0.022   5.629   0.657
 4338SOL     OW13912   6.337   6.429   4.132
 4338SOL    HW113913   6.291   6.341   4.144
 4338SOL    HW213914   6.423   6.414   4.082
 4339SOL     OW13915   6.255   1.116   6.071
 4339SOL    HW113916   6.338   1.169   6.054
 4339SOL    HW213917   6.213   1.147   6.157
 4340SOL     OW13918   4.848   3.671   1.910
 4340SOL    HW113919   4.829   3.579   1.876
 4340SOL    HW213920   4.831   3.737   1.838
 4341SOL     OW13921   1.308   4.387   0.687
 4341SOL    HW113922   1.288   4.484   0.670
 4341SOL    HW213923   1.392   4.378   0.739
 4342SOL     OW13924   0.907   3.292   2.902
 4342SOL    HW113925   0.954   3.207   2.877
 4342SOL    HW213926   0.841   3.273   2.974
 4343SOL     OW13927   2.450   1.195   1.224
 4343SOL    HW113928   2.446   1.123   1.293
 4343SOL    HW213929   2.408   1.163   1.140
 4344SOL     OW13930   1.892   5.230   3.226
 4344SOL    HW113931   1.837   5.200   3.148
 4344SOL    HW213932   1.975   5.274   3.192
 4345SOL     OW13933   1.680   1.878   6.144
 4345SOL    HW113934   1.650   1.859   6.050
 4345SOL    HW213935   1.695   1.976   6.155
 4346SOL     OW13936   2.097   3.365   2.101
 4346SOL    HW113937   2.159   3.411   2.038
 4346SOL    HW213938   2.090   3.418   2.186
 4347SOL     OW13939   5.823   6.487   2.978
 4347SOL    HW113940   5.835   6.567   3.037
 4347SOL    HW213941   5.752   6.506   2.910
 4348SOL     OW13942   1.875   4.054   6.404
 4348SOL    HW113943   1.915   4.041   6.313
 4348SOL    HW213944   1.845   3.966   6.440
 4349SOL     OW13945   6.892   0.545   3.818
 4349SOL    HW113946   6.816   0.606   3.796
 4349SOL    HW213947   6.977   0.585   3.783
 4350SOL     OW13948   5.039   2.089   3.800
 4350SOL    HW113949   5.128   2.107   3.843
 4350SOL    HW213950   5.022   1.991   3.800
 4351SOL     OW13951   2.529   5.838   1.631
 4351SOL    HW113952   2.547   5.935   1.647
 4351SOL    HW213953   2.609   5.784   1.660
 4352SOL     OW13954   6.151   1.242   2.162
 4352SOL    HW113955   6.119   1.213   2.252
 4352SOL    HW213956   6.217   1.316   2.173
 4353SOL     OW13957   3.669   5.582   6.504
 4353SOL    HW113958   3.572   5.596   6.484
 4353SOL    HW213959   3.717   5.669   6.495
 4354SOL     OW13960   2.120   0.692   0.780
 4354SOL    HW113961   2.063   0.652   0.708
 4354SOL    HW213962   2.213   0.705   0.745
 4355SOL     OW13963   5.001   0.983   0.609
 4355SOL    HW113964   4.966   1.076   0.597
 4355SOL    HW213965   4.942   0.933   0.673
 4356SOL     OW13966   3.985   4.501   0.641
 4356SOL    HW113967   4.031   4.584   0.610
 4356SOL    HW213968   3.887   4.508   0.623
 4357SOL     OW13969   5.998   0.397   7.005
 4357SOL    HW113970   6.039   0.449   6.930
 4357SOL    HW213971   5.991   0.455   0.061
 4358SOL     OW13972   0.696   0.104   1.841
 4358SOL    HW113973   0.674   0.081   1.936
 4358SOL    HW213974   0.792   0.130   1.835
 4359SOL     OW13975   6.429   2.590   3.691
 4359SOL    HW113976   6.408   2.674   3.641
 4359SOL    HW213977   6.527   2.584   3.706
 4360SOL     OW13978   1.360   3.436   1.328
 4360SOL    HW113979   1.343   3.352   1.277
 4360SOL    HW213980   1.275   3.465   1.373
 4361SOL     OW13981   4.919   2.036   1.866
 4361SOL    HW113982   4.870   1.985   1.937
 4361SOL    HW213983   4.888   2.131   1.865
 4362SOL     OW13984   6.151   4.263   4.168
 4362SOL    HW113985   6.162   4.165   4.185
 4362SOL    HW213986   6.053   4.285   4.167
 4363SOL     OW13987   5.220   2.187   5.983
 4363SOL    HW113988   5.312   2.218   6.005
 4363SOL    HW213989   5.225   2.104   5.927
 4364SOL     OW13990   3.248   3.724   4.540
 4364SOL    HW113991   3.205   3.767   4.619
 4364SOL    HW213992   3.303   3.791   4.491
 4365SOL     OW13993   3.423   1.409   2.158
 4365SOL    HW113994   3.324   1.417   2.162
 4365SOL    HW213995   3.458   1.464   2.081
 4366SOL     OW13996   5.796   5.571   0.926
 4366SOL    HW113997   5.742   5.503   0.876
 4366SOL    HW213998   5.803   5.545   1.022
 4367SOL     OW13999   1.724   6.379   6.306
 4367SOL    HW114000   1.736   6.317   6.229
 4367SOL    HW214001   1.754   6.334   6.390
 4368SOL     OW14002   5.568   3.789   1.938
 4368SOL    HW114003   5.592   3.883   1.964
 4368SOL    HW214004   5.476   3.767   1.971
 4369SOL     OW14005   4.334   5.828   1.946
 4369SOL    HW114006   4.283   5.809   2.030
 4369SOL    HW214007   4.337   5.746   1.889
 4370SOL     OW14008   5.964   4.634   3.313
 4370SOL    HW114009   6.039   4.572   3.288
 4370SOL    HW214010   5.957   4.638   3.413
 4371SOL     OW14011   6.146   2.145   1.841
 4371SOL    HW114012   6.082   2.129   1.916
 4371SOL    HW214013   6.220   2.077   1.846
 4372SOL     OW14014   4.374   1.173   3.061
 4372SOL    HW114015   4.368   1.267   3.095
 4372SOL    HW214016   4.311   1.162   2.984
 4373SOL     OW14017   6.865   1.914   6.309
 4373SOL    HW114018   6.875   1.961   6.397
 4373SOL    HW214019   6.812   1.971   6.246
 4374SOL     OW14020   2.399   2.362   1.413
 4374SOL    HW114021   2.437   2.434   1.472
 4374SOL    HW214022   2.451   2.358   1.328
 4375SOL     OW14023   2.794   6.688   4.527
 4375SOL    HW114024   2.746   6.672   4.441
 4375SOL    HW214025   2.746   6.757   4.580
 4376SOL     OW14026   5.703   1.566   3.358
 4376SOL    HW114027   5.706   1.534   3.263
 4376SOL    HW214028   5.771   1.517   3.412
 4377SOL     OW14029   5.357   4.450   6.476
 4377SOL    HW114030   5.404   4.531   6.512
 4377SOL    HW214031   5.348   4.382   6.548
 4378SOL     OW14032   1.892   0.647   3.922
 4378SOL    HW114033   1.904   0.598   4.009
 4378SOL    HW214034   1.958   0.722   3.918
 4379SOL     OW14035   2.564   2.317   5.222
 4379SOL    HW114036   2.663   2.304   5.227
 4379SOL    HW214037   2.543   2.415   5.214
 4380SOL     OW14038   0.223   1.143   1.895
 4380SOL    HW114039   0.261   1.173   1.983
 4380SOL    HW214040   0.296   1.105   1.839
 4381SOL     OW14041   2.098   6.011   6.070
 4381SOL    HW114042   2.150   6.052   5.995
 4381SOL    HW214043   2.140   6.037   6.157
 4382SOL     OW14044   0.157   3.156   5.122
 4382SOL    HW114045   0.185   3.060   5.115
 4382SOL    HW214046   0.057   3.162   5.113
 4383SOL     OW14047   6.110   2.791   6.904
 4383SOL    HW114048   6.180   2.849   6.946
 4383SOL    HW214049   6.055   2.845   6.840
 4384SOL     OW14050   5.937   6.759   3.991
 4384SOL    HW114051   5.917   6.662   3.972
 4384SOL    HW214052   6.035   6.775   3.978
 4385SOL     OW14053   5.238   1.174   5.000
 4385SOL    HW114054   5.208   1.153   4.907
 4385SOL    HW214055   5.249   1.273   5.010
 4386SOL     OW14056   1.230   3.334   5.386
 4386SOL    HW114057   1.214   3.400   5.460
 4386SOL    HW214058   1.298   3.371   5.323
 4387SOL     OW14059   6.579   1.950   0.533
 4387SOL    HW114060   6.491   1.995   0.518
 4387SOL    HW214061   6.653   2.013   0.511
 4388SOL     OW14062   5.786   2.534   6.760
 4388SOL    HW114063   5.786   2.629   6.730
 4388SOL    HW214064   5.844   2.525   6.841
 4389SOL     OW14065   0.669   3.691   1.507
 4389SOL    HW114066   0.688   3.634   1.427
 4389SOL    HW214067   0.692   3.640   1.590
 4390SOL     OW14068   6.372   1.078   1.696
 4390SOL    HW114069   6.327   0.993   1.725
 4390SOL    HW214070   6.406   1.126   1.776
 4391SOL     OW14071   2.151   6.297   0.212
 4391SOL    HW114072   2.093   6.369   0.174
 4391SOL    HW214073   2.126   6.209   0.172
 4392SOL     OW14074   1.899   2.422   4.868
 4392SOL    HW114075   1.953   2.449   4.948
 4392SOL    HW214076   1.803   2.448   4.882
 4393SOL     OW14077   4.804   1.066   1.826
 4393SOL    HW114078   4.898   1.078   1.858
 4393SOL    HW214079   4.778   0.969   1.835
 4394SOL     OW14080   0.974   0.742   1.867
 4394SOL    HW114081   0.908   0.666   1.866
 4394SOL    HW214082   1.018   0.749   1.777
 4395SOL     OW14083   2.766   5.503   0.967
 4395SOL    HW114084   2.806   5.574   1.023
 4395SOL    HW214085   2.811   5.415   0.986
 4396SOL     OW14086   2.773   0.105   3.216
 4396SOL    HW114087   2.812   0.124   3.307
 4396SOL    HW214088   2.845   0.068   3.157
 4397SOL     OW14089   3.200   1.847   4.509
 4397SOL    HW114090   3.289   1.809   4.534
 4397SOL    HW214091   3.184   1.834   4.411
 4398SOL     OW14092   2.042   2.753   4.950
 4398SOL    HW114093   2.119   2.709   4.905
 4398SOL    HW214094   1.997   2.688   5.012
 4399SOL     OW14095   2.869   0.018   2.561
 4399SOL    HW114096   2.843   0.114   2.565
 4399SOL    HW214097   2.966   0.009   2.583
 4400SOL     OW14098   1.755   5.467   4.623
 4400SOL    HW114099   1.839   5.415   4.610
 4400SOL    HW214100   1.776   5.552   4.671
 4401SOL     OW14101   4.051   0.477   6.373
 4401SOL    HW114102   4.011   0.411   6.436
 4401SOL    HW214103   3.986   0.552   6.357
 4402SOL     OW14104   1.163   0.524   3.203
 4402SOL    HW114105   1.101   0.578   3.260
 4402SOL    HW214106   1.162   0.559   3.110
 4403SOL     OW14107   1.569   5.079   1.347
 4403SOL    HW114108   1.492   5.085   1.410
 4403SOL    HW214109   1.653   5.103   1.396
 4404SOL     OW14110   0.715   6.718   5.855
 4404SOL    HW114111   0.640   6.717   5.920
 4404SOL    HW214112   0.791   6.663   5.890
 4405SOL     OW14113   1.804   5.496   3.202
 4405SOL    HW114114   1.714   5.515   3.240
 4405SOL    HW214115   1.837   5.408   3.238
 4406SOL     OW14116   6.547   3.863   1.758
 4406SOL    HW114117   6.493   3.873   1.841
 4406SOL    HW214118   6.612   3.939   1.752
 4407SOL     OW14119   5.684   6.174   1.913
 4407SOL    HW114120   5.630   6.089   1.912
 4407SOL    HW214121   5.726   6.187   1.823
 4408SOL     OW14122   4.117   1.140   0.293
 4408SOL    HW114123   4.141   1.192   0.211
 4408SOL    HW214124   4.110   1.043   0.271
 4409SOL     OW14125   2.876   0.379   3.161
 4409SOL    HW114126   2.884   0.478   3.149
 4409SOL    HW214127   2.831   0.340   3.081
 4410SOL     OW14128   1.636   6.533   1.293
 4410SOL    HW114129   1.595   6.540   1.384
 4410SOL    HW214130   1.564   6.519   1.225
 4411SOL     OW14131   3.405   4.656   5.263
 4411SOL    HW114132   3.436   4.565   5.235
 4411SOL    HW214133   3.305   4.658   5.263
 4412SOL     OW14134   4.704   6.317   2.707
 4412SOL    HW114135   4.670   6.365   2.788
 4412SOL    HW214136   4.721   6.221   2.729
 4413SOL     OW14137   4.355   6.144   4.012
 4413SOL    HW114138   4.314   6.077   4.073
 4413SOL    HW214139   4.320   6.131   3.919
 4414SOL     OW14140   4.579   4.092   1.537
 4414SOL    HW114141   4.630   4.164   1.491
 4414SOL    HW214142   4.501   4.132   1.585
 4415SOL     OW14143   2.391   3.120   1.328
 4415SOL    HW114144   2.461   3.162   1.385
 4415SOL    HW214145   2.301   3.155   1.354
 4416SOL     OW14146   4.070   2.241   3.119
 4416SOL    HW114147   4.016   2.228   3.036
 4416SOL    HW214148   4.009   2.256   3.197
 4417SOL     OW14149   0.302   4.191   3.239
 4417SOL    HW114150   0.239   4.149   3.305
 4417SOL    HW214151   0.300   4.291   3.250
 4418SOL     OW14152   6.379   6.675   6.120
 4418SOL    HW114153   6.358   6.651   6.025
 4418SOL    HW214154   6.414   6.594   6.167
 4419SOL     OW14155   6.114   5.532   6.433
 4419SOL    HW114156   6.137   5.585   6.514
 4419SOL    HW214157   6.022   5.493   6.443
 4420SOL     OW14158   3.708   2.162   0.807
 4420SOL    HW114159   3.641   2.214   0.860
 4420SOL    HW214160   3.800   2.197   0.824
 4421SOL     OW14161   1.567   2.138   5.862
 4421SOL    HW114162   1.551   2.079   5.783
 4421SOL    HW214163   1.490   2.201   5.872
 4422SOL     OW14164   6.828   3.873   6.444
 4422SOL    HW114165   6.834   3.787   6.495
 4422SOL    HW214166   6.920   3.907   6.425
 4423SOL     OW14167   5.209   4.038   4.596
 4423SOL    HW114168   5.213   4.101   4.673
 4423SOL    HW214169   5.266   3.958   4.614
 4424SOL     OW14170   4.992   5.939   3.338
 4424SOL    HW114171   4.950   5.923   3.427
 4424SOL    HW214172   5.091   5.929   3.346
 4425SOL     OW14173   1.854   5.153   1.440
 4425SOL    HW114174   1.887   5.239   1.479
 4425SOL    HW214175   1.932   5.095   1.415
 4426SOL     OW14176   0.492   0.500   4.972
 4426SOL    HW114177   0.444   0.417   4.999
 4426SOL    HW214178   0.490   0.566   5.047
 4427SOL     OW14179   2.542   6.144   2.839
 4427SOL    HW114180   2.591   6.204   2.775
 4427SOL    HW214181   2.468   6.098   2.790
 4428SOL     OW14182   5.335   7.018   3.118
 4428SOL    HW114183   5.268   0.051   3.071
 4428SOL    HW214184   5.297   6.986   3.204
 4429SOL     OW14185   2.454   5.658   3.297
 4429SOL    HW114186   2.470   5.593   3.223
 4429SOL    HW214187   2.536   5.665   3.354
 4430SOL     OW14188   4.849   4.066   5.540
 4430SOL    HW114189   4.788   4.100   5.469
 4430SOL    HW214190   4.819   3.974   5.568
 4431SOL     OW14191   3.309   6.628   3.626
 4431SOL    HW114192   3.248   6.576   3.565
 4431SOL    HW214193   3.356   6.699   3.573
 4432SOL     OW14194   0.999   3.676   6.017
 4432SOL    HW114195   0.925   3.609   6.029
 4432SOL    HW214196   1.044   3.693   6.105
 4433SOL     OW14197   0.165   0.705   5.807
 4433SOL    HW114198   0.169   0.624   5.867
 4433SOL    HW214199   0.138   0.785   5.861
 4434SOL     OW14200   0.101   0.216   2.438
 4434SOL    HW114201   0.081   0.204   2.341
 4434SOL    HW214202   0.025   0.181   2.493
 4435SOL     OW14203   2.332   3.628   0.331
 4435SOL    HW114204   2.319   3.639   0.429
 4435SOL    HW214205   2.424   3.593   0.313
 4436SOL     OW14206   4.003   1.785   1.784
 4436SOL    HW114207   4.028   1.690   1.769
 4436SOL    HW214208   3.904   1.792   1.796
 4437SOL     OW14209   6.996   4.103   0.485
 4437SOL    HW114210   0.018   4.015   0.493
 4437SOL    HW214211   0.030   4.176   0.521
 4438SOL     OW14212   3.845   0.732   5.588
 4438SOL    HW114213   3.853   0.773   5.497
 4438SOL    HW214214   3.762   0.677   5.592
 4439SOL     OW14215   2.609   6.609   2.591
 4439SOL    HW114216   2.512   6.612   2.616
 4439SOL    HW214217   2.661   6.670   2.651
 4440SOL     OW14218   1.663   5.258   0.388
 4440SOL    HW114219   1.688   5.191   0.318
 4440SOL    HW214220   1.674   5.350   0.352
 4441SOL     OW14221   0.196   1.435   0.545
 4441SOL    HW114222   0.273   1.474   0.496
 4441SOL    HW214223   0.117   1.428   0.483
 4442SOL     OW14224   1.754   4.654   6.440
 4442SOL    HW114225   1.773   4.635   6.343
 4442SOL    HW214226   1.823   4.717   6.475
 4443SOL     OW14227   0.830   5.682   5.920
 4443SOL    HW114228   0.915   5.734   5.934
 4443SOL    HW214229   0.795   5.700   5.828
 4444SOL     OW14230   5.390   4.761   0.022
 4444SOL    HW114231   5.460   4.789   6.981
 4444SOL    HW214232   5.314   4.826   0.020
 4445SOL     OW14233   6.992   5.551   0.035
 4445SOL    HW114234   6.976   5.554   6.961
 4445SOL    HW214235   6.909   5.518   0.081
 4446SOL     OW14236   5.163   1.173   0.889
 4446SOL    HW114237   5.080   1.154   0.941
 4446SOL    HW214238   5.188   1.270   0.900
 4447SOL     OW14239   4.823   5.584   5.767
 4447SOL    HW114240   4.899   5.617   5.711
 4447SOL    HW214241   4.750   5.551   5.708
 4448SOL     OW14242   3.644   6.422   2.243
 4448SOL    HW114243   3.621   6.361   2.167
 4448SOL    HW214244   3.691   6.503   2.207
 4449SOL     OW14245   3.294   0.900   5.608
 4449SOL    HW114246   3.340   0.904   5.696
 4449SOL    HW214247   3.350   0.847   5.544
 4450SOL     OW14248   3.745   6.942   0.225
 4450SOL    HW114249   3.705   6.851   0.214
 4450SOL    HW214250   3.675   7.006   0.257
 4451SOL     OW14251   5.318   4.377   2.717
 4451SOL    HW114252   5.339   4.445   2.786
 4451SOL    HW214253   5.219   4.379   2.697
 4452SOL     OW14254   4.545   6.242   4.487
 4452SOL    HW114255   4.445   6.233   4.479
 4452SOL    HW214256   4.567   6.332   4.524
 4453SOL     OW14257   6.614   3.972   0.577
 4453SOL    HW114258   6.569   4.022   0.651
 4453SOL    HW214259   6.561   3.890   0.557
 4454SOL     OW14260   1.150   2.428   6.651
 4454SOL    HW114261   1.097   2.371   6.713
 4454SOL    HW214262   1.203   2.370   6.589
 4455SOL     OW14263   0.842   6.787   5.362
 4455SOL    HW114264   0.815   6.693   5.340
 4455SOL    HW214265   0.791   6.819   5.442
 4456SOL     OW14266   2.265   0.474   5.043
 4456SOL    HW114267   2.202   0.482   4.966
 4456SOL    HW214268   2.275   0.564   5.087
 4457SOL     OW14269   1.592   2.141   4.821
 4457SOL    HW114270   1.645   2.117   4.902
 4457SOL    HW214271   1.643   2.115   4.739
 4458SOL     OW14272   1.769   3.855   6.623
 4458SOL    HW114273   1.672   3.871   6.605
 4458SOL    HW214274   1.778   3.793   6.701
 4459SOL     OW14275   1.136   3.077   2.883
 4459SOL    HW114276   1.164   3.127   2.966
 4459SOL    HW214277   1.152   2.980   2.896
 4460SOL     OW14278   6.811   2.754   4.449
 4460SOL    HW114279   6.720   2.739   4.411
 4460SOL    HW214280   6.877   2.697   4.401
 4461SOL     OW14281   2.642   0.903   1.153
 4461SOL    HW114282   2.654   0.958   1.071
 4461SOL    HW214283   2.601   0.815   1.128
 4462SOL     OW14284   6.406   4.525   3.356
 4462SOL    HW114285   6.317   4.526   3.401
 4462SOL    HW214286   6.478   4.545   3.422
 4463SOL     OW14287   6.090   1.675   0.522
 4463SOL    HW114288   6.024   1.629   0.464
 4463SOL    HW214289   6.141   1.607   0.575
 4464SOL     OW14290   0.285   5.417   0.740
 4464SOL    HW114291   0.220   5.459   0.677
 4464SOL    HW214292   0.366   5.388   0.690
 4465SOL     OW14293   3.375   5.746   1.017
 4465SOL    HW114294   3.324   5.739   1.103
 4465SOL    HW214295   3.471   5.724   1.032
 4466SOL     OW14296   1.583   2.414   3.423
 4466SOL    HW114297   1.538   2.371   3.345
 4466SOL    HW214298   1.624   2.344   3.481
 4467SOL     OW14299   4.356   6.005   3.335
 4467SOL    HW114300   4.384   5.951   3.256
 4467SOL    HW214301   4.426   5.999   3.407
 4468SOL     OW14302   1.691   2.849   1.461
 4468SOL    HW114303   1.605   2.801   1.445
 4468SOL    HW214304   1.700   2.870   1.558
 4469SOL     OW14305   3.136   6.317   1.430
 4469SOL    HW114306   3.046   6.346   1.463
 4469SOL    HW214307   3.125   6.249   1.358
 4470SOL     OW14308   2.140   6.648   2.827
 4470SOL    HW114309   2.160   6.578   2.896
 4470SOL    HW214310   2.051   6.630   2.786
 4471SOL     OW14311   1.286   1.171   6.355
 4471SOL    HW114312   1.192   1.179   6.388
 4471SOL    HW214313   1.296   1.220   6.269
 4472SOL     OW14314   1.581   2.671   1.067
 4472SOL    HW114315   1.610   2.764   1.091
 4472SOL    HW214316   1.628   2.605   1.126
 4473SOL     OW14317   0.851   2.876   4.366
 4473SOL    HW114318   0.933   2.891   4.421
 4473SOL    HW214319   0.770   2.883   4.424
 4474SOL     OW14320   3.059   5.797   0.719
 4474SOL    HW114321   3.134   5.864   0.721
 4474SOL    HW214322   3.042   5.769   0.625
 4475SOL     OW14323   1.259   4.030   1.296
 4475SOL    HW114324   1.183   3.969   1.315
 4475SOL    HW214325   1.236   4.123   1.326
 4476SOL     OW14326   4.972   1.517   3.806
 4476SOL    HW114327   4.935   1.425   3.794
 4476SOL    HW214328   5.024   1.521   3.891
 4477SOL     OW14329   1.646   0.972   5.010
 4477SOL    HW114330   1.590   0.955   5.092
 4477SOL    HW214331   1.632   0.899   4.944
 4478SOL     OW14332   1.683   0.388   0.578
 4478SOL    HW114333   1.631   0.306   0.602
 4478SOL    HW214334   1.744   0.367   0.501
 4479SOL     OW14335   1.005   2.773   0.331
 4479SOL    HW114336   0.983   2.870   0.325
 4479SOL    HW214337   1.063   2.757   0.411
 4480SOL     OW14338   1.047   6.111   4.172
 4480SOL    HW114339   0.993   6.185   4.131
 4480SOL    HW214340   0.986   6.035   4.195
 4481SOL     OW14341   2.089   3.547   6.202
 4481SOL    HW114342   2.048   3.616   6.142
 4481SOL    HW214343   2.152   3.490   6.150
 4482SOL     OW14344   2.554   6.147   0.085
 4482SOL    HW114345   2.490   6.083   0.128
 4482SOL    HW214346   2.504   6.226   0.050
 4483SOL     OW14347   1.291   3.212   0.382
 4483SOL    HW114348   1.343   3.293   0.411
 4483SOL    HW214349   1.342   3.164   0.311
 4484SOL     OW14350   2.639   2.246   0.358
 4484SOL    HW114351   2.635   2.321   0.292
 4484SOL    HW214352   2.733   2.216   0.368
 4485SOL     OW14353   5.987   2.366   5.280
 4485SOL    HW114354   5.907   2.363   5.220
 4485SOL    HW214355   5.967   2.423   5.360
 4486SOL     OW14356   4.484   4.939   5.258
 4486SOL    HW114357   4.419   4.896   5.195
 4486SOL    HW214358   4.577   4.914   5.232
 4487SOL     OW14359   0.541   2.713   0.116
 4487SOL    HW114360   0.630   2.703   0.159
 4487SOL    HW214361   0.502   2.802   0.142
 4488SOL     OW14362   0.290   4.232   3.929
 4488SOL    HW114363   0.271   4.228   3.831
 4488SOL    HW214364   0.354   4.159   3.954
 4489SOL     OW14365   4.459   5.777   5.555
 4489SOL    HW114366   4.496   5.831   5.480
 4489SOL    HW214367   4.456   5.832   5.638
 4490SOL     OW14368   5.117   1.719   1.576
 4490SOL    HW114369   5.080   1.799   1.528
 4490SOL    HW214370   5.210   1.702   1.544
 4491SOL     OW14371   1.272   3.388   3.845
 4491SOL    HW114372   1.354   3.333   3.826
 4491SOL    HW214373   1.284   3.480   3.808
 4492SOL     OW14374   6.415   0.461   2.128
 4492SOL    HW114375   6.381   0.554   2.113
 4492SOL    HW214376   6.345   0.395   2.100
 4493SOL     OW14377   5.372   2.022   4.769
 4493SOL    HW114378   5.391   2.027   4.671
 4493SOL    HW214379   5.458   2.029   4.820
 4494SOL     OW14380   1.284   0.590   0.751
 4494SOL    HW114381   1.341   0.572   0.831
 4494SOL    HW214382   1.305   0.681   0.715
 4495SOL     OW14383   4.757   5.671   1.452
 4495SOL    HW114384   4.678   5.717   1.493
 4495SOL    HW214385   4.738   5.572   1.448
 4496SOL     OW14386   3.645   6.107   6.691
 4496SOL    HW114387   3.677   6.195   6.724
 4496SOL    HW214388   3.549   6.114   6.665
 4497SOL     OW14389   4.551   1.280   6.266
 4497SOL    HW114390   4.574   1.269   6.170
 4497SOL    HW214391   4.628   1.250   6.322
 4498SOL     OW14392   0.652   5.463   5.012
 4498SOL    HW114393   0.567   5.515   5.002
 4498SOL    HW214394   0.637   5.386   5.075
 4499SOL     OW14395   6.117   2.250   2.619
 4499SOL    HW114396   6.094   2.217   2.528
 4499SOL    HW214397   6.211   2.225   2.641
 4500SOL     OW14398   3.706   5.498   6.985
 4500SOL    HW114399   3.783   5.451   6.942
 4500SOL    HW214400   3.736   5.539   0.046
 4501SOL     OW14401   5.875   0.652   2.720
 4501SOL    HW114402   5.894   0.604   2.634
 4501SOL    HW214403   5.807   0.601   2.773
 4502SOL     OW14404   0.035   3.936   6.578
 4502SOL    HW114405   0.108   3.999   6.551
 4502SOL    HW214406   0.057   3.894   6.666
 4503SOL     OW14407   2.939   0.996   2.985
 4503SOL    HW114408   2.985   1.048   3.057
 4503SOL    HW214409   3.004   0.937   2.939
 4504SOL     OW14410   6.756   1.300   2.632
 4504SOL    HW114411   6.812   1.218   2.646
 4504SOL    HW214412   6.670   1.290   2.682
 4505SOL     OW14413   5.662   4.875   4.303
 4505SOL    HW114414   5.648   4.971   4.279
 4505SOL    HW214415   5.676   4.867   4.402
 4506SOL     OW14416   5.100   2.510   5.344
 4506SOL    HW114417   5.040   2.579   5.383
 4506SOL    HW214418   5.194   2.544   5.344
 4507SOL     OW14419   6.228   2.896   3.450
 4507SOL    HW114420   6.302   2.921   3.512
 4507SOL    HW214421   6.221   2.965   3.378
 4508SOL     OW14422   0.725   5.864   1.114
 4508SOL    HW114423   0.707   5.825   1.024
 4508SOL    HW214424   0.740   5.963   1.105
 4509SOL     OW14425   4.847   2.793   2.084
 4509SOL    HW114426   4.809   2.880   2.054
 4509SOL    HW214427   4.821   2.777   2.180
 4510SOL     OW14428   4.527   1.023   3.945
 4510SOL    HW114429   4.569   1.110   3.919
 4510SOL    HW214430   4.560   0.995   4.035
 4511SOL     OW14431   0.479   4.355   0.683
 4511SOL    HW114432   0.487   4.414   0.763
 4511SOL    HW214433   0.385   4.359   0.648
 4512SOL     OW14434   3.300   3.197   5.451
 4512SOL    HW114435   3.266   3.118   5.502
 4512SOL    HW214436   3.277   3.187   5.354
 4513SOL     OW14437   1.432   6.619   1.087
 4513SOL    HW114438   1.368   6.652   1.157
 4513SOL    HW214439   1.406   6.526   1.060
 4514SOL     OW14440   3.301   4.493   6.644
 4514SOL    HW114441   3.215   4.471   6.597
 4514SOL    HW214442   3.336   4.411   6.689
 4515SOL     OW14443   4.520   0.911   6.333
 4515SOL    HW114444   4.606   0.946   6.295
 4515SOL    HW214445   4.540   0.862   6.418
 4516SOL     OW14446   3.649   1.476   5.244
 4516SOL    HW114447   3.648   1.386   5.288
 4516SOL    HW214448   3.564   1.488   5.192
 4517SOL     OW14449   3.814   0.891   5.351
 4517SOL    HW114450   3.876   0.961   5.318
 4517SOL    HW214451   3.730   0.934   5.384
 4518SOL     OW14452   0.747   6.789   1.161
 4518SOL    HW114453   0.795   6.765   1.245
 4518SOL    HW214454   0.670   6.725   1.148
 4519SOL     OW14455   4.674   6.708   6.652
 4519SOL    HW114456   4.764   6.701   6.608
 4519SOL    HW214457   4.621   6.780   6.606
 4520SOL     OW14458   3.829   5.450   5.459
 4520SOL    HW114459   3.758   5.520   5.461
 4520SOL    HW214460   3.918   5.492   5.476
 4521SOL     OW14461   4.163   2.335   4.148
 4521SOL    HW114462   4.208   2.329   4.059
 4521SOL    HW214463   4.133   2.428   4.164
 4522SOL     OW14464   5.574   4.090   3.327
 4522SOL    HW114465   5.659   4.103   3.378
 4522SOL    HW214466   5.496   4.097   3.388
 4523SOL     OW14467   0.355   3.456   5.776
 4523SOL    HW114468   0.314   3.545   5.755
 4523SOL    HW214469   0.431   3.438   5.713
 4524SOL     OW14470   1.334   3.922   2.759
 4524SOL    HW114471   1.410   3.858   2.745
 4524SOL    HW214472   1.304   3.918   2.854
 4525SOL     OW14473   3.502   2.240   5.588
 4525SOL    HW114474   3.490   2.242   5.488
 4525SOL    HW214475   3.462   2.323   5.627
 4526SOL     OW14476   1.085   6.758   5.519
 4526SOL    HW114477   0.990   6.761   5.487
 4526SOL    HW214478   1.133   6.841   5.490
 4527SOL     OW14479   6.720   0.904   2.841
 4527SOL    HW114480   6.671   0.877   2.758
 4527SOL    HW214481   6.729   0.825   2.902
 4528SOL     OW14482   4.680   1.240   5.231
 4528SOL    HW114483   4.760   1.193   5.195
 4528SOL    HW214484   4.603   1.229   5.167
 4529SOL     OW14485   2.319   0.848   4.045
 4529SOL    HW114486   2.318   0.835   4.144
 4529SOL    HW214487   2.377   0.927   4.023
 4530SOL     OW14488   3.472   5.760   6.411
 4530SOL    HW114489   3.510   5.846   6.375
 4530SOL    HW214490   3.382   5.777   6.449
 4531SOL     OW14491   1.182   5.338   5.808
 4531SOL    HW114492   1.244   5.267   5.774
 4531SOL    HW214493   1.130   5.303   5.885
 4532SOL     OW14494   5.628   0.549   2.804
 4532SOL    HW114495   5.616   0.450   2.810
 4532SOL    HW214496   5.555   0.594   2.856
 4533SOL     OW14497   2.898   0.406   1.266
 4533SOL    HW114498   2.806   0.421   1.230
 4533SOL    HW214499   2.965   0.456   1.210
 4534SOL     OW14500   4.326   0.634   3.800
 4534SOL    HW114501   4.355   0.711   3.743
 4534SOL    HW214502   4.399   0.565   3.803
 4535SOL     OW14503   2.336   0.932   0.785
 4535SOL    HW114504   2.257   0.961   0.731
 4535SOL    HW214505   2.370   0.844   0.750
 4536SOL     OW14506   3.216   0.049   5.536
 4536SOL    HW114507   3.139   0.109   5.513
 4536SOL    HW214508   3.295   0.104   5.561
 4537SOL     OW14509   2.907   3.510   3.647
 4537SOL    HW114510   2.951   3.576   3.707
 4537SOL    HW214511   2.893   3.424   3.696
 4538SOL     OW14512   0.465   2.009   1.006
 4538SOL    HW114513   0.459   2.069   1.085
 4538SOL    HW214514   0.408   1.928   1.021
 4539SOL     OW14515   1.328   6.210   5.356
 4539SOL    HW114516   1.416   6.163   5.365
 4539SOL    HW214517   1.318   6.242   5.261
 4540SOL     OW14518   0.929   1.358   0.281
 4540SOL    HW114519   0.978   1.445   0.280
 4540SOL    HW214520   0.841   1.368   0.235
 4541SOL     OW14521   4.634   2.703   5.622
 4541SOL    HW114522   4.606   2.697   5.526
 4541SOL    HW214523   4.603   2.623   5.672
 4542SOL     OW14524   6.987   2.158   0.506
 4542SOL    HW114525   0.010   2.234   0.462
 4542SOL    HW214526   0.028   2.090   0.538
 4543SOL     OW14527   3.753   2.614   0.207
 4543SOL    HW114528   3.666   2.642   0.168
 4543SOL    HW214529   3.795   2.691   0.255
 4544SOL     OW14530   5.566   6.583   0.356
 4544SOL    HW114531   5.473   6.572   0.389
 4544SOL    HW214532   5.608   6.662   0.401
 4545SOL     OW14533   2.185   2.983   4.876
 4545SOL    HW114534   2.140   2.902   4.914
 4545SOL    HW214535   2.269   3.001   4.927
 4546SOL     OW14536   2.945   0.813   5.769
 4546SOL    HW114537   2.895   0.789   5.686
 4546SOL    HW214538   3.004   0.892   5.751
 4547SOL     OW14539   0.178   0.119   7.015
 4547SOL    HW114540   0.164   0.043   6.952
 4547SOL    HW214541   0.101   0.125   0.053
 4548SOL     OW14542   2.289   1.539   2.994
 4548SOL    HW114543   2.350   1.507   3.067
 4548SOL    HW214544   2.345   1.578   2.920
 4549SOL     OW14545   6.983   3.679   4.619
 4549SOL    HW114546   0.010   3.756   4.655
 4549SOL    HW214547   0.009   3.594   4.633
 4550SOL     OW14548   1.913   4.949   3.533
 4550SOL    HW114549   1.874   4.892   3.460
 4550SOL    HW214550   1.945   4.889   3.607
 4551SOL     OW14551   1.661   2.476   5.357
 4551SOL    HW114552   1.567   2.488   5.390
 4551SOL    HW214553   1.717   2.436   5.430
 4552SOL     OW14554   5.511   1.625   0.487
 4552SOL    HW114555   5.479   1.539   0.526
 4552SOL    HW214556   5.610   1.622   0.475
 4553SOL     OW14557   6.649   5.316   6.698
 4553SOL    HW114558   6.693   5.301   6.786
 4553SOL    HW214559   6.661   5.412   6.671
 4554SOL     OW14560   6.360   6.657   2.982
 4554SOL    HW114561   6.310   6.659   3.069
 4554SOL    HW214562   6.452   6.692   2.996
 4555SOL     OW14563   1.793   0.902   0.806
 4555SOL    HW114564   1.820   0.905   0.710
 4555SOL    HW214565   1.694   0.916   0.813
 4556SOL     OW14566   5.785   4.338   4.897
 4556SOL    HW114567   5.885   4.330   4.899
 4556SOL    HW214568   5.758   4.423   4.943
 4557SOL     OW14569   6.877   4.852   3.785
 4557SOL    HW114570   6.969   4.883   3.761
 4557SOL    HW214571   6.828   4.924   3.834
 4558SOL     OW14572   1.346   3.803   4.615
 4558SOL    HW114573   1.397   3.888   4.608
 4558SOL    HW214574   1.336   3.778   4.712
 4559SOL     OW14575   6.868   3.035   3.035
 4559SOL    HW114576   6.843   3.104   2.967
 4559SOL    HW214577   6.791   3.021   3.097
 4560SOL     OW14578   6.036   4.156   2.512
 4560SOL    HW114579   6.031   4.229   2.580
 4560SOL    HW214580   5.944   4.135   2.478
 4561SOL     OW14581   3.775   2.158   3.858
 4561SOL    HW114582   3.857   2.134   3.911
 4561SOL    HW214583   3.696   2.161   3.918
 4562SOL     OW14584   3.560   1.218   1.504
 4562SOL    HW114585   3.475   1.248   1.461
 4562SOL    HW214586   3.583   1.126   1.472
 4563SOL     OW14587   0.845   4.410   2.533
 4563SOL    HW114588   0.920   4.352   2.502
 4563SOL    HW214589   0.794   4.443   2.454
 4564SOL     OW14590   1.653   3.499   2.093
 4564SOL    HW114591   1.728   3.554   2.056
 4564SOL    HW214592   1.572   3.509   2.035
 4565SOL     OW14593   2.035   5.616   5.892
 4565SOL    HW114594   1.945   5.659   5.898
 4565SOL    HW214595   2.098   5.679   5.845
 4566SOL     OW14596   6.193   4.661   2.904
 4566SOL    HW114597   6.263   4.643   2.834
 4566SOL    HW214598   6.178   4.760   2.911
 4567SOL     OW14599   0.029   0.362   6.678
 4567SOL    HW114600   0.106   0.301   6.693
 4567SOL    HW214601   0.006   0.409   6.763
 4568SOL     OW14602   1.457   4.912   2.685
 4568SOL    HW114603   1.465   4.945   2.590
 4568SOL    HW214604   1.545   4.925   2.731
 4569SOL     OW14605   2.201   0.892   3.325
 4569SOL    HW114606   2.261   0.899   3.245
 4569SOL    HW214607   2.111   0.858   3.296
 4570SOL     OW14608   5.094   6.232   1.819
 4570SOL    HW114609   5.170   6.173   1.792
 4570SOL    HW214610   5.129   6.325   1.833
 4571SOL     OW14611   2.802   3.146   6.897
 4571SOL    HW114612   2.831   3.120   6.806
 4571SOL    HW214613   2.731   3.083   6.929
 4572SOL     OW14614   2.911   3.195   2.066
 4572SOL    HW114615   2.822   3.228   2.035
 4572SOL    HW214616   2.979   3.210   1.994
 4573SOL     OW14617   2.841   5.796   1.699
 4573SOL    HW114618   2.901   5.751   1.765
 4573SOL    HW214619   2.841   5.895   1.716
 4574SOL     OW14620   4.821   1.181   1.248
 4574SOL    HW114621   4.803   1.278   1.266
 4574SOL    HW214622   4.820   1.131   1.335
 4575SOL     OW14623   0.472   0.029   5.649
 4575SOL    HW114624   0.468   0.095   5.573
 4575SOL    HW214625   0.561   0.035   5.693
 4576SOL     OW14626   2.506   4.769   5.371
 4576SOL    HW114627   2.465   4.812   5.291
 4576SOL    HW214628   2.596   4.733   5.347
 4577SOL     OW14629   0.734   1.855   2.321
 4577SOL    HW114630   0.818   1.811   2.353
 4577SOL    HW214631   0.715   1.827   2.227
 4578SOL     OW14632   1.765   1.932   2.450
 4578SOL    HW114633   1.815   2.000   2.503
 4578SOL    HW214634   1.830   1.881   2.393
 4579SOL     OW14635   5.039   0.666   3.449
 4579SOL    HW114636   5.076   0.608   3.376
 4579SOL    HW214637   4.942   0.683   3.431
 4580SOL     OW14638   0.457   2.230   0.839
 4580SOL    HW114639   0.461   2.145   0.892
 4580SOL    HW214640   0.401   2.297   0.887
 4581SOL     OW14641   3.356   0.884   0.808
 4581SOL    HW114642   3.300   0.803   0.789
 4581SOL    HW214643   3.311   0.964   0.769
 4582SOL     OW14644   5.731   1.513   3.804
 4582SOL    HW114645   5.783   1.595   3.781
 4582SOL    HW214646   5.658   1.536   3.867
 4583SOL     OW14647   1.366   0.510   6.889
 4583SOL    HW114648   1.298   0.437   6.885
 4583SOL    HW214649   1.382   0.535   6.984
 4584SOL     OW14650   1.018   0.731   4.607
 4584SOL    HW114651   1.060   0.754   4.520
 4584SOL    HW214652   0.930   0.686   4.591
 4585SOL     OW14653   2.166   3.321   3.760
 4585SOL    HW114654   2.149   3.325   3.859
 4585SOL    HW214655   2.213   3.235   3.739
 4586SOL     OW14656   5.877   4.945   6.842
 4586SOL    HW114657   5.778   4.936   6.828
 4586SOL    HW214658   5.925   4.888   6.776
 4587SOL     OW14659   3.072   3.073   4.927
 4587SOL    HW114660   3.165   3.093   4.957
 4587SOL    HW214661   3.034   3.152   4.881
 4588SOL     OW14662   3.382   3.543   6.078
 4588SOL    HW114663   3.480   3.562   6.083
 4588SOL    HW214664   3.341   3.556   6.168
 4589SOL     OW14665   6.368   6.662   2.186
 4589SOL    HW114666   6.428   6.613   2.123
 4589SOL    HW214667   6.275   6.624   2.180
 4590SOL     OW14668   3.294   5.272   0.902
 4590SOL    HW114669   3.304   5.368   0.876
 4590SOL    HW214670   3.197   5.251   0.916
 4591SOL     OW14671   1.990   0.581   5.347
 4591SOL    HW114672   2.041   0.494   5.346
 4591SOL    HW214673   1.893   0.563   5.330
 4592SOL     OW14674   1.280   1.773   3.663
 4592SOL    HW114675   1.328   1.752   3.578
 4592SOL    HW214676   1.181   1.762   3.649
 4593SOL     OW14677   1.508   5.717   4.724
 4593SOL    HW114678   1.504   5.777   4.644
 4593SOL    HW214679   1.560   5.762   4.796
 4594SOL     OW14680   1.547   0.406   3.744
 4594SOL    HW114681   1.589   0.317   3.765
 4594SOL    HW214682   1.569   0.471   3.816
 4595SOL     OW14683   5.603   1.923   6.150
 4595SOL    HW114684   5.602   1.963   6.242
 4595SOL    HW214685   5.539   1.846   6.146
 4596SOL     OW14686   6.266   0.721   2.134
 4596SOL    HW114687   6.293   0.814   2.109
 4596SOL    HW214688   6.305   0.698   2.223
 4597SOL     OW14689   3.059   6.309   0.123
 4597SOL    HW114690   2.978   6.353   0.162
 4597SOL    HW214691   3.132   6.307   0.192
 4598SOL     OW14692   1.644   4.812   0.432
 4598SOL    HW114693   1.665   4.717   0.454
 4598SOL    HW214694   1.618   4.819   0.336
 4599SOL     OW14695   2.274   5.787   1.750
 4599SOL    HW114696   2.344   5.834   1.696
 4599SOL    HW214697   2.265   5.832   1.839
 4600SOL     OW14698   0.639   6.493   6.116
 4600SOL    HW114699   0.717   6.433   6.098
 4600SOL    HW214700   0.600   6.473   6.206
 4601SOL     OW14701   1.828   0.932   5.228
 4601SOL    HW114702   1.796   0.923   5.134
 4601SOL    HW214703   1.754   0.905   5.291
 4602SOL     OW14704   3.252   2.546   6.173
 4602SOL    HW114705   3.271   2.589   6.262
 4602SOL    HW214706   3.177   2.480   6.184
 4603SOL     OW14707   4.748   0.029   0.573
 4603SOL    HW114708   4.745   0.083   0.657
 4603SOL    HW214709   4.803   0.078   0.504
 4604SOL     OW14710   6.195   6.700   5.398
 4604SOL    HW114711   6.219   6.619   5.452
 4604SOL    HW214712   6.115   6.745   5.438
 4605SOL     OW14713   3.607   0.882   1.725
 4605SOL    HW114714   3.612   0.906   1.628
 4605SOL    HW214715   3.681   0.927   1.775
 4606SOL     OW14716   6.770   6.498   4.891
 4606SOL    HW114717   6.849   6.486   4.831
 4606SOL    HW214718   6.764   6.595   4.918
 4607SOL     OW14719   2.218   2.393   0.782
 4607SOL    HW114720   2.122   2.415   0.800
 4607SOL    HW214721   2.234   2.296   0.800
 4608SOL     OW14722   6.958   2.476   4.297
 4608SOL    HW114723   6.952   2.518   4.207
 4608SOL    HW214724   6.869   2.438   4.322
 4609SOL     OW14725   4.432   5.856   6.352
 4609SOL    HW114726   4.342   5.880   6.389
 4609SOL    HW214727   4.503   5.898   6.407
 4610SOL     OW14728   5.383   4.069   6.844
 4610SOL    HW114729   5.436   4.083   6.928
 4610SOL    HW214730   5.400   3.977   6.809
 4611SOL     OW14731   1.170   0.863   6.398
 4611SOL    HW114732   1.210   0.797   6.462
 4611SOL    HW214733   1.241   0.923   6.363
 4612SOL     OW14734   1.837   1.465   1.611
 4612SOL    HW114735   1.886   1.379   1.626
 4612SOL    HW214736   1.903   1.540   1.602
 4613SOL     OW14737   1.748   4.473   1.668
 4613SOL    HW114738   1.687   4.503   1.740
 4613SOL    HW214739   1.839   4.456   1.706
 4614SOL     OW14740   6.361   4.237   4.584
 4614SOL    HW114741   6.353   4.332   4.554
 4614SOL    HW214742   6.270   4.199   4.600
 4615SOL     OW14743   1.135   3.538   6.670
 4615SOL    HW114744   1.109   3.537   6.767
 4615SOL    HW214745   1.068   3.486   6.617
 4616SOL     OW14746   6.643   2.645   6.100
 4616SOL    HW114747   6.695   2.569   6.139
 4616SOL    HW214748   6.667   2.730   6.148
 4617SOL     OW14749   6.945   2.779   2.977
 4617SOL    HW114750   6.904   2.856   3.027
 4617SOL    HW214751   6.879   2.705   2.971
 4618SOL     OW14752   2.009   4.041   5.887
 4618SOL    HW114753   1.944   4.036   5.811
 4618SOL    HW214754   2.091   4.089   5.858
 4619SOL     OW14755   5.029   5.982   6.098
 4619SOL    HW114756   5.009   5.941   6.009
 4619SOL    HW214757   4.943   6.002   6.146
 4620SOL     OW14758   0.677   4.774   2.454
 4620SOL    HW114759   0.672   4.679   2.423
 4620SOL    HW214760   0.749   4.822   2.402
 4621SOL     OW14761   3.579   7.005   2.502
 4621SOL    HW114762   3.653   0.044   2.483
 4621SOL    HW214763   3.614   6.928   2.556
 4622SOL     OW14764   5.474   6.131   1.486
 4622SOL    HW114765   5.518   6.134   1.396
 4622SOL    HW214766   5.507   6.051   1.536
 4623SOL     OW14767   2.920   4.730   0.856
 4623SOL    HW114768   2.881   4.740   0.947
 4623SOL    HW214769   2.878   4.651   0.810
 4624SOL     OW14770   4.255   1.292   2.177
 4624SOL    HW114771   4.221   1.206   2.214
 4624SOL    HW214772   4.245   1.364   2.246
 4625SOL     OW14773   2.325   6.377   1.393
 4625SOL    HW114774   2.277   6.332   1.469
 4625SOL    HW214775   2.270   6.452   1.358
 4626SOL     OW14776   4.585   3.699   1.708
 4626SOL    HW114777   4.640   3.783   1.709
 4626SOL    HW214778   4.644   3.620   1.690
 4627SOL     OW14779   5.715   0.172   5.087
 4627SOL    HW114780   5.754   0.116   5.014
 4627SOL    HW214781   5.623   0.202   5.059
 4628SOL     OW14782   5.238   5.260   4.318
 4628SOL    HW114783   5.242   5.287   4.414
 4628SOL    HW214784   5.191   5.173   4.309
 4629SOL     OW14785   2.355   6.059   6.725
 4629SOL    HW114786   2.433   6.029   6.670
 4629SOL    HW214787   2.355   6.158   6.733
 4630SOL     OW14788   2.063   3.084   2.124
 4630SOL    HW114789   2.103   3.176   2.123
 4630SOL    HW214790   1.995   3.076   2.051
 4631SOL     OW14791   6.852   0.530   3.130
 4631SOL    HW114792   6.820   0.439   3.153
 4631SOL    HW214793   6.945   0.543   3.166
 4632SOL     OW14794   3.274   4.838   2.565
 4632SOL    HW114795   3.235   4.886   2.487
 4632SOL    HW214796   3.308   4.749   2.536
 4633SOL     OW14797   4.602   0.903   5.044
 4633SOL    HW114798   4.544   0.984   5.050
 4633SOL    HW214799   4.587   0.857   4.957
 4634SOL     OW14800   2.987   4.015   4.920
 4634SOL    HW114801   2.953   3.940   4.977
 4634SOL    HW214802   2.971   4.102   4.966
 4635SOL     OW14803   4.632   6.668   1.823
 4635SOL    HW114804   4.729   6.690   1.832
 4635SOL    HW214805   4.600   6.695   1.732
 4636SOL     OW14806   2.031   5.123   0.668
 4636SOL    HW114807   2.034   5.024   0.661
 4636SOL    HW214808   2.084   5.152   0.748
 4637SOL     OW14809   3.101   1.420   3.087
 4637SOL    HW114810   3.011   1.403   3.047
 4637SOL    HW214811   3.129   1.514   3.069
 4638SOL     OW14812   3.818   4.889   0.551
 4638SOL    HW114813   3.755   4.920   0.480
 4638SOL    HW214814   3.834   4.790   0.541
 4639SOL     OW14815   3.500   2.267   1.405
 4639SOL    HW114816   3.575   2.232   1.349
 4639SOL    HW214817   3.537   2.299   1.493
 4640SOL     OW14818   6.486   2.559   6.848
 4640SOL    HW114819   6.549   2.625   6.891
 4640SOL    HW214820   6.482   2.476   6.903
 4641SOL     OW14821   0.957   5.891   4.424
 4641SOL    HW114822   0.932   5.795   4.432
 4641SOL    HW214823   0.926   5.926   4.335
 4642SOL     OW14824   6.909   0.941   3.711
 4642SOL    HW114825   6.970   1.019   3.722
 4642SOL    HW214826   6.961   0.864   3.673
 4643SOL     OW14827   0.407   1.906   0.449
 4643SOL    HW114828   0.493   1.857   0.466
 4643SOL    HW214829   0.419   2.003   0.465
 4644SOL     OW14830   1.437   0.935   0.314
 4644SOL    HW114831   1.508   0.868   0.291
 4644SOL    HW214832   1.422   0.996   0.236
 4645SOL     OW14833   1.092   1.808   4.059
 4645SOL    HW114834   1.005   1.855   4.072
 4645SOL    HW214835   1.161   1.875   4.031
 4646SOL     OW14836   2.013   4.862   3.809
 4646SOL    HW114837   2.070   4.940   3.836
 4646SOL    HW214838   1.980   4.815   3.891
 4647SOL     OW14839   1.071   6.470   2.126
 4647SOL    HW114840   1.063   6.526   2.044
 4647SOL    HW214841   1.168   6.448   2.142
 4648SOL     OW14842   2.982   1.799   4.677
 4648SOL    HW114843   3.071   1.812   4.633
 4648SOL    HW214844   2.970   1.703   4.702
 4649SOL     OW14845   6.734   1.209   0.113
 4649SOL    HW114846   6.734   1.300   0.070
 4649SOL    HW214847   6.746   1.140   0.042
 4650SOL     OW14848   5.202   5.927   1.334
 4650SOL    HW114849   5.278   5.907   1.396
 4650SOL    HW214850   5.118   5.939   1.387
 4651SOL     OW14851   0.110   3.028   6.509
 4651SOL    HW114852   0.152   2.986   6.428
 4651SOL    HW214853   0.011   3.017   6.505
 4652SOL     OW14854   0.333   6.439   5.218
 4652SOL    HW114855   0.300   6.465   5.127
 4652SOL    HW214856   0.433   6.438   5.217
 4653SOL     OW14857   5.788   5.289   0.760
 4653SOL    HW114858   5.857   5.341   0.711
 4653SOL    HW214859   5.754   5.215   0.703
 4654SOL     OW14860   1.099   0.184   5.391
 4654SOL    HW114861   1.037   0.239   5.335
 4654SOL    HW214862   1.115   0.232   5.478
 4655SOL     OW14863   4.960   2.989   1.154
 4655SOL    HW114864   4.942   3.040   1.238
 4655SOL    HW214865   4.939   3.046   1.075
 4656SOL     OW14866   0.450   1.149   1.774
 4656SOL    HW114867   0.490   1.060   1.751
 4656SOL    HW214868   0.522   1.217   1.780
 4657SOL     OW14869   4.634   0.394   2.579
 4657SOL    HW114870   4.624   0.480   2.628
 4657SOL    HW214871   4.616   0.408   2.482
 4658SOL     OW14872   1.596   2.910   5.774
 4658SOL    HW114873   1.636   2.968   5.703
 4658SOL    HW214874   1.646   2.923   5.860
 4659SOL     OW14875   1.854   4.411   0.131
 4659SOL    HW114876   1.815   4.406   0.039
 4659SOL    HW214877   1.952   4.426   0.126
 4660SOL     OW14878   1.027   6.317   3.727
 4660SOL    HW114879   1.071   6.255   3.661
 4660SOL    HW214880   1.074   6.405   3.725
 4661SOL     OW14881   0.852   2.235   5.471
 4661SOL    HW114882   0.944   2.266   5.444
 4661SOL    HW214883   0.848   2.135   5.464
 4662SOL     OW14884   2.419   6.951   5.840
 4662SOL    HW114885   2.390   0.012   5.799
 4662SOL    HW214886   2.366   6.876   5.800
 4663SOL     OW14887   1.822   0.352   0.132
 4663SOL    HW114888   1.785   0.305   0.212
 4663SOL    HW214889   1.757   0.345   0.057
 4664SOL     OW14890   6.911   6.620   6.832
 4664SOL    HW114891   7.006   6.592   6.840
 4664SOL    HW214892   6.900   6.711   6.873
 4665SOL     OW14893   1.892   0.565   4.195
 4665SOL    HW114894   1.812   0.539   4.248
 4665SOL    HW214895   1.969   0.506   4.220
 4666SOL     OW14896   2.639   1.924   5.038
 4666SOL    HW114897   2.541   1.924   5.055
 4666SOL    HW214898   2.667   2.013   5.001
 4667SOL     OW14899   6.410   3.508   1.427
 4667SOL    HW114900   6.441   3.602   1.442
 4667SOL    HW214901   6.486   3.445   1.445
 4668SOL     OW14902   4.359   1.884   3.778
 4668SOL    HW114903   4.424   1.946   3.821
 4668SOL    HW214904   4.364   1.893   3.679
 4669SOL     OW14905   5.700   0.215   6.511
 4669SOL    HW114906   5.710   0.306   6.551
 4669SOL    HW214907   5.606   0.183   6.525
 4670SOL     OW14908   0.367   2.552   0.523
 4670SOL    HW114909   0.457   2.592   0.541
 4670SOL    HW214910   0.372   2.494   0.441
 4671SOL     OW14911   0.758   3.644   0.957
 4671SOL    HW114912   0.707   3.571   0.912
 4671SOL    HW214913   0.835   3.605   1.008
 4672SOL     OW14914   2.414   3.883   6.509
 4672SOL    HW114915   2.471   3.860   6.588
 4672SOL    HW214916   2.396   3.800   6.456
 4673SOL     OW14917   5.889   1.001   6.988
 4673SOL    HW114918   5.796   1.003   7.024
 4673SOL    HW214919   5.948   0.952   0.027
 4674SOL     OW14920   0.950   2.282   1.563
 4674SOL    HW114921   0.922   2.202   1.511
 4674SOL    HW214922   0.928   2.365   1.511
 4675SOL     OW14923   2.132   6.084   0.057
 4675SOL    HW114924   2.042   6.047   0.083
 4675SOL    HW214925   2.193   6.008   0.034
 4676SOL     OW14926   0.305   6.216   4.209
 4676SOL    HW114927   0.333   6.197   4.303
 4676SOL    HW214928   0.301   6.315   4.195
 4677SOL     OW14929   4.453   6.869   6.553
 4677SOL    HW114930   4.420   6.782   6.588
 4677SOL    HW214931   4.384   6.909   6.493
 4678SOL     OW14932   2.261   4.508   6.157
 4678SOL    HW114933   2.279   4.597   6.200
 4678SOL    HW214934   2.307   4.436   6.209
 4679SOL     OW14935   2.889   6.986   5.559
 4679SOL    HW114936   2.925   6.948   5.474
 4679SOL    HW214937   2.951   6.963   5.634
 4680SOL     OW14938   2.218   4.382   0.751
 4680SOL    HW114939   2.249   4.470   0.713
 4680SOL    HW214940   2.151   4.341   0.690
 4681SOL     OW14941   0.422   5.613   5.013
 4681SOL    HW114942   0.349   5.563   5.059
 4681SOL    HW214943   0.402   5.619   4.915
 4682SOL     OW14944   4.662   6.559   0.525
 4682SOL    HW114945   4.613   6.534   0.441
 4682SOL    HW214946   4.704   6.477   0.564
 4683SOL     OW14947   0.114   4.313   3.478
 4683SOL    HW114948   0.029   4.362   3.497
 4683SOL    HW214949   0.159   4.354   3.399
 4684SOL     OW14950   1.466   1.229   4.211
 4684SOL    HW114951   1.421   1.310   4.174
 4684SOL    HW214952   1.509   1.251   4.299
 4685SOL     OW14953   4.779   4.562   5.101
 4685SOL    HW114954   4.733   4.567   5.012
 4685SOL    HW214955   4.845   4.487   5.100
 4686SOL     OW14956   4.411   5.588   6.948
 4686SOL    HW114957   4.428   5.608   6.851
 4686SOL    HW214958   4.486   5.626   7.002
 4687SOL     OW14959   5.480   6.473   4.615
 4687SOL    HW114960   5.438   6.564   4.624
 4687SOL    HW214961   5.436   6.423   4.541
 4688SOL     OW14962   0.595   1.882   6.466
 4688SOL    HW114963   0.547   1.914   6.385
 4688SOL    HW214964   0.574   1.942   6.543
 4689SOL     OW14965   1.465   5.361   5.730
 4689SOL    HW114966   1.371   5.396   5.732
 4689SOL    HW214967   1.463   5.261   5.740
 4690SOL     OW14968   1.460   2.727   0.488
 4690SOL    HW114969   1.520   2.649   0.469
 4690SOL    HW214970   1.516   2.809   0.499
 4691SOL     OW14971   3.604   4.553   0.546
 4691SOL    HW114972   3.533   4.601   0.494
 4691SOL    HW214973   3.577   4.548   0.642
 4692SOL     OW14974   6.952   5.447   3.170
 4692SOL    HW114975   6.909   5.492   3.249
 4692SOL    HW214976   6.901   5.364   3.147
 4693SOL     OW14977   0.519   0.992   3.550
 4693SOL    HW114978   0.554   1.069   3.496
 4693SOL    HW214979   0.487   0.921   3.488
 4694SOL     OW14980   1.774   1.874   6.425
 4694SOL    HW114981   1.746   1.857   6.330
 4694SOL    HW214982   1.763   1.971   6.446
 4695SOL     OW14983   3.454   2.970   1.773
 4695SOL    HW114984   3.472   3.047   1.835
 4695SOL    HW214985   3.518   2.974   1.696
 4696SOL     OW14986   6.653   3.273   6.926
 4696SOL    HW114987   6.678   3.264   7.023
 4696SOL    HW214988   6.735   3.278   6.871
 4697SOL     OW14989   0.893   4.863   0.157
 4697SOL    HW114990   0.921   4.772   0.128
 4697SOL    HW214991   0.883   4.865   0.257
 4698SOL     OW14992   5.680   2.972   1.142
 4698SOL    HW114993   5.637   3.057   1.173
 4698SOL    HW214994   5.625   2.932   1.068
 4699SOL     OW14995   6.532   0.316   3.496
 4699SOL    HW114996   6.604   0.247   3.493
 4699SOL    HW214997   6.514   0.342   3.591
 4700SOL     OW14998   5.163   0.361   1.106
 4700SOL    HW114999   5.072   0.401   1.118
 4700SOL    HW215000   5.154   0.272   1.062
 4701SOL     OW15001   1.183   0.936   0.909
 4701SOL    HW115002   1.132   0.910   0.826
 4701SOL    HW215003   1.124   0.925   0.988
 4702SOL     OW15004   3.237   4.104   6.688
 4702SOL    HW115005   3.162   4.123   6.751
 4702SOL    HW215006   3.239   4.174   6.616
 4703SOL     OW15007   1.942   1.122   2.174
 4703SOL    HW115008   1.912   1.180   2.097
 4703SOL    HW215009   1.861   1.081   2.217
 4704SOL     OW15010   4.960   7.021   0.048
 4704SOL    HW115011   4.978   6.968   0.130
 4704SOL    HW215012   4.881   0.055   0.063
 4705SOL     OW15013   3.555   3.756   4.114
 4705SOL    HW115014   3.461   3.734   4.086
 4705SOL    HW215015   3.577   3.850   4.087
 4706SOL     OW15016   4.223   5.159   1.225
 4706SOL    HW115017   4.199   5.062   1.217
 4706SOL    HW215018   4.291   5.170   1.298
 4707SOL     OW15019   3.538   6.080   0.758
 4707SOL    HW115020   3.558   6.010   0.827
 4707SOL    HW215021   3.462   6.050   0.701
 4708SOL     OW15022   2.437   2.254   2.312
 4708SOL    HW115023   2.417   2.352   2.306
 4708SOL    HW215024   2.524   2.235   2.267
 4709SOL     OW15025   4.111   3.997   6.142
 4709SOL    HW115026   4.044   4.053   6.191
 4709SOL    HW215027   4.109   3.904   6.178
 4710SOL     OW15028   5.192   1.917   1.058
 4710SOL    HW115029   5.109   1.902   1.112
 4710SOL    HW215030   5.170   1.909   0.961
 4711SOL     OW15031   2.714   0.056   2.845
 4711SOL    HW115032   2.769   0.022   2.768
 4711SOL    HW215033   2.748   0.017   2.930
 4712SOL     OW15034   1.338   4.846   0.238
 4712SOL    HW115035   1.319   4.886   0.327
 4712SOL    HW215036   1.347   4.747   0.246
 4713SOL     OW15037   2.368   5.497   0.513
 4713SOL    HW115038   2.384   5.409   0.558
 4713SOL    HW215039   2.403   5.571   0.571
 4714SOL     OW15040   3.964   2.297   0.827
 4714SOL    HW115041   3.991   2.251   0.911
 4714SOL    HW215042   3.965   2.396   0.840
 4715SOL     OW15043   6.605   3.905   3.699
 4715SOL    HW115044   6.534   3.835   3.690
 4715SOL    HW215045   6.575   3.989   3.654
 4716SOL     OW15046   3.470   6.167   0.368
 4716SOL    HW115047   3.450   6.128   0.459
 4716SOL    HW215048   3.392   6.222   0.339
 4717SOL     OW15049   1.193   5.768   3.987
 4717SOL    HW115050   1.207   5.720   4.074
 4717SOL    HW215051   1.245   5.721   3.916
 4718SOL     OW15052   6.196   1.246   6.288
 4718SOL    HW115053   6.284   1.291   6.268
 4718SOL    HW215054   6.127   1.315   6.308
 4719SOL     OW15055   4.665   2.961   1.067
 4719SOL    HW115056   4.748   2.954   1.122
 4719SOL    HW215057   4.589   2.994   1.123
 4720SOL     OW15058   2.648   0.961   4.566
 4720SOL    HW115059   2.570   0.911   4.602
 4720SOL    HW215060   2.733   0.915   4.593
 4721SOL     OW15061   1.691   2.180   1.403
 4721SOL    HW115062   1.765   2.120   1.371
 4721SOL    HW215063   1.717   2.218   1.492
 4722SOL     OW15064   2.458   6.988   1.122
 4722SOL    HW115065   2.501   6.934   1.050
 4722SOL    HW215066   2.498   6.962   1.210
 4723SOL     OW15067   3.046   0.113   6.676
 4723SOL    HW115068   3.144   0.094   6.684
 4723SOL    HW215069   3.028   0.208   6.700
 4724SOL     OW15070   4.297   5.021   1.643
 4724SOL    HW115071   4.222   4.955   1.649
 4724SOL    HW215072   4.259   5.114   1.638
 4725SOL     OW15073   5.942   6.193   3.641
 4725SOL    HW115074   6.036   6.162   3.626
 4725SOL    HW215075   5.884   6.160   3.566
 4726SOL     OW15076   0.205   5.580   6.695
 4726SOL    HW115077   0.117   5.540   6.720
 4726SOL    HW215078   0.193   5.677   6.674
 4727SOL     OW15079   0.351   6.516   0.099
 4727SOL    HW115080   0.449   6.530   0.106
 4727SOL    HW215081   0.328   6.422   0.125
 4728SOL     OW15082   0.374   1.504   0.346
 4728SOL    HW115083   0.333   1.557   0.272
 4728SOL    HW215084   0.403   1.415   0.311
 4729SOL     OW15085   3.773   0.419   1.540
 4729SOL    HW115086   3.861   0.460   1.515
 4729SOL    HW215087   3.722   0.397   1.457
 4730SOL     OW15088   1.562   0.153   5.373
 4730SOL    HW115089   1.483   0.116   5.325
 4730SOL    HW215090   1.645   0.106   5.342
 4731SOL     OW15091   5.440   1.554   5.844
 4731SOL    HW115092   5.536   1.580   5.850
 4731SOL    HW215093   5.409   1.519   5.932
 4732SOL     OW15094   0.414   2.198   0.532
 4732SOL    HW115095   0.413   2.197   0.632
 4732SOL    HW215096   0.492   2.252   0.500
 4733SOL     OW15097   6.788   2.864   4.133
 4733SOL    HW115098   6.761   2.784   4.187
 4733SOL    HW215099   6.814   2.938   4.195
 4734SOL     OW15100   4.090   4.511   6.152
 4734SOL    HW115101   4.035   4.545   6.228
 4734SOL    HW215102   4.063   4.558   6.068
 4735SOL     OW15103   0.459   5.332   3.575
 4735SOL    HW115104   0.527   5.294   3.636
 4735SOL    HW215105   0.504   5.375   3.497
 4736SOL     OW15106   1.624   0.972   1.118
 4736SOL    HW115107   1.665   1.061   1.136
 4736SOL    HW215108   1.675   0.901   1.167
 4737SOL     OW15109   2.683   5.523   1.763
 4737SOL    HW115110   2.731   5.568   1.687
 4737SOL    HW215111   2.585   5.518   1.741
 4738SOL     OW15112   6.937   6.599   2.746
 4738SOL    HW115113   6.902   6.634   2.833
 4738SOL    HW215114   6.861   6.579   2.685
 4739SOL     OW15115   4.743   0.714   1.236
 4739SOL    HW115116   4.663   0.767   1.264
 4739SOL    HW215117   4.825   0.770   1.247
 4740SOL     OW15118   0.706   2.313   3.518
 4740SOL    HW115119   0.655   2.330   3.603
 4740SOL    HW215120   0.746   2.399   3.486
 4741SOL     OW15121   3.633   4.146   1.169
 4741SOL    HW115122   3.643   4.053   1.204
 4741SOL    HW215123   3.690   4.157   1.088
 4742SOL     OW15124   3.591   0.127   0.298
 4742SOL    HW115125   3.499   0.160   0.319
 4742SOL    HW215126   3.630   0.183   0.225
 4743SOL     OW15127   1.849   4.889   1.236
 4743SOL    HW115128   1.894   4.929   1.156
 4743SOL    HW215129   1.762   4.936   1.253
 4744SOL     OW15130   2.498   5.532   0.950
 4744SOL    HW115131   2.597   5.528   0.957
 4744SOL    HW215132   2.456   5.468   1.014
 4745SOL     OW15133   1.067   4.643   0.088
 4745SOL    HW115134   1.097   4.609   0.178
 4745SOL    HW215135   1.104   4.735   0.074
 4746SOL     OW15136   4.663   5.642   4.386
 4746SOL    HW115137   4.756   5.648   4.348
 4746SOL    HW215138   4.640   5.729   4.430
 4747SOL     OW15139   1.518   2.111   0.438
 4747SOL    HW115140   1.453   2.187   0.443
 4747SOL    HW215141   1.504   2.060   0.354
 4748SOL     OW15142   1.875   6.591   2.459
 4748SOL    HW115143   1.850   6.593   2.555
 4748SOL    HW215144   1.874   6.684   2.422
 4749SOL     OW15145   2.548   1.836   6.522
 4749SOL    HW115146   2.558   1.927   6.564
 4749SOL    HW215147   2.537   1.847   6.423
 4750SOL     OW15148   5.044   2.566   5.695
 4750SOL    HW115149   5.115   2.562   5.766
 4750SOL    HW215150   5.023   2.662   5.675
 4751SOL     OW15151   3.893   0.811   3.271
 4751SOL    HW115152   3.880   0.736   3.207
 4751SOL    HW215153   3.850   0.789   3.358
 4752SOL     OW15154   4.749   2.171   6.503
 4752SOL    HW115155   4.737   2.132   6.412
 4752SOL    HW215156   4.801   2.256   6.496
 4753SOL     OW15157   3.561   6.304   5.998
 4753SOL    HW115158   3.523   6.229   6.052
 4753SOL    HW215159   3.493   6.336   5.933
 4754SOL     OW15160   4.848   4.984   0.066
 4754SOL    HW115161   4.913   5.051   0.102
 4754SOL    HW215162   4.862   4.897   0.113
 4755SOL     OW15163   1.362   1.315   1.549
 4755SOL    HW115164   1.393   1.248   1.482
 4755SOL    HW215165   1.265   1.335   1.534
 4756SOL     OW15166   6.291   4.223   5.774
 4756SOL    HW115167   6.269   4.229   5.871
 4756SOL    HW215168   6.367   4.285   5.753
 4757SOL     OW15169   1.762   3.796   0.897
 4757SOL    HW115170   1.745   3.751   0.810
 4757SOL    HW215171   1.846   3.759   0.937
 4758SOL     OW15172   2.560   6.281   3.115
 4758SOL    HW115173   2.550   6.184   3.141
 4758SOL    HW215174   2.633   6.290   3.048
 4759SOL     OW15175   0.687   6.090   1.740
 4759SOL    HW115176   0.748   6.162   1.707
 4759SOL    HW215177   0.632   6.125   1.816
 4760SOL     OW15178   1.494   5.883   1.133
 4760SOL    HW115179   1.538   5.796   1.111
 4760SOL    HW215180   1.492   5.896   1.232
 4761SOL     OW15181   6.338   6.534   1.747
 4761SOL    HW115182   6.435   6.540   1.770
 4761SOL    HW215183   6.304   6.443   1.768
 4762SOL     OW15184   1.508   0.789   2.508
 4762SOL    HW115185   1.554   0.873   2.534
 4762SOL    HW215186   1.497   0.787   2.408
 4763SOL     OW15187   5.297   4.836   1.709
 4763SOL    HW115188   5.280   4.924   1.752
 4763SOL    HW215189   5.375   4.792   1.753
 4764SOL     OW15190   4.896   2.969   0.666
 4764SOL    HW115191   4.857   2.880   0.641
 4764SOL    HW215192   4.827   3.024   0.712
 4765SOL     OW15193   3.567   1.353   4.875
 4765SOL    HW115194   3.527   1.397   4.795
 4765SOL    HW215195   3.498   1.347   4.947
 4766SOL     OW15196   0.683   0.276   4.236
 4766SOL    HW115197   0.589   0.288   4.204
 4766SOL    HW215198   0.717   0.362   4.274
 4767SOL     OW15199   2.334   4.214   3.438
 4767SOL    HW115200   2.248   4.219   3.386
 4767SOL    HW215201   2.356   4.118   3.455
 4768SOL     OW15202   4.441   2.662   6.716
 4768SOL    HW115203   4.344   2.650   6.695
 4768SOL    HW215204   4.493   2.583   6.683
 4769SOL     OW15205   2.771   4.124   0.444
 4769SOL    HW115206   2.725   4.060   0.384
 4769SOL    HW215207   2.721   4.132   0.530
 4770SOL     OW15208   0.638   1.219   5.118
 4770SOL    HW115209   0.572   1.174   5.178
 4770SOL    HW215210   0.720   1.163   5.110
 4771SOL     OW15211   1.700   6.959   4.822
 4771SOL    HW115212   1.740   6.927   4.736
 4771SOL    HW215213   1.720   6.892   4.894
 4772SOL     OW15214   3.054   5.184   2.339
 4772SOL    HW115215   3.126   5.246   2.309
 4772SOL    HW215216   3.009   5.221   2.420
 4773SOL     OW15217   2.006   5.371   4.514
 4773SOL    HW115218   2.069   5.351   4.438
 4773SOL    HW215219   2.057   5.370   4.600
 4774SOL     OW15220   1.284   4.572   0.254
 4774SOL    HW115221   1.331   4.546   0.339
 4774SOL    HW215222   1.317   4.515   0.179
 4775SOL     OW15223   6.384   6.531   5.587
 4775SOL    HW115224   6.459   6.597   5.595
 4775SOL    HW215225   6.390   6.485   5.498
 4776SOL     OW15226   0.061   1.409   6.136
 4776SOL    HW115227   0.053   1.388   6.038
 4776SOL    HW215228   0.061   1.508   6.149
 4777SOL     OW15229   1.293   0.497   2.341
 4777SOL    HW115230   1.229   0.437   2.292
 4777SOL    HW215231   1.383   0.454   2.343
 4778SOL     OW15232   2.097   1.590   6.999
 4778SOL    HW115233   2.057   1.679   6.978
 4778SOL    HW215234   2.042   1.545   0.045
 4779SOL     OW15235   5.525   0.443   4.615
 4779SOL    HW115236   5.476   0.529   4.627
 4779SOL    HW215237   5.590   0.430   4.689
 4780SOL     OW15238   5.270   2.827   5.222
 4780SOL    HW115239   5.265   2.770   5.140
 4780SOL    HW215240   5.294   2.770   5.300
 4781SOL     OW15241   2.140   5.621   2.174
 4781SOL    HW115242   2.223   5.637   2.120
 4781SOL    HW215243   2.144   5.529   2.214
 4782SOL     OW15244   6.596   0.033   4.298
 4782SOL    HW115245   6.684   7.010   4.296
 4782SOL    HW215246   6.611   0.131   4.285
 4783SOL     OW15247   0.012   3.455   6.010
 4783SOL    HW115248   6.995   3.539   5.976
 4783SOL    HW215249   0.008   3.454   6.109
 4784SOL     OW15250   5.513   3.120   6.734
 4784SOL    HW115251   5.530   3.074   6.646
 4784SOL    HW215252   5.544   3.061   6.809
 4785SOL     OW15253   0.074   6.695   4.195
 4785SOL    HW115254   0.002   6.643   4.242
 4785SOL    HW215255   0.148   6.716   4.260
 4786SOL     OW15256   0.916   5.776   6.941
 4786SOL    HW115257   0.830   5.738   6.907
 4786SOL    HW215258   0.985   5.773   6.868
 4787SOL     OW15259   3.425   1.636   4.038
 4787SOL    HW115260   3.349   1.639   3.973
 4787SOL    HW215261   3.500   1.692   4.003
 4788SOL     OW15262   6.410   5.980   0.713
 4788SOL    HW115263   6.437   6.042   0.787
 4788SOL    HW215264   6.482   5.976   0.644
 4789SOL     OW15265   5.722   1.175   2.816
 4789SOL    HW115266   5.778   1.249   2.777
 4789SOL    HW215267   5.635   1.213   2.848
 4790SOL     OW15268   6.606   1.789   4.882
 4790SOL    HW115269   6.586   1.829   4.793
 4790SOL    HW215270   6.705   1.779   4.893
 4791SOL     OW15271   0.012   0.276   0.309
 4791SOL    HW115272   6.998   0.248   0.222
 4791SOL    HW215273   0.021   0.196   0.369
 4792SOL     OW15274   2.148   3.049   3.078
 4792SOL    HW115275   2.163   3.130   3.021
 4792SOL    HW215276   2.191   3.064   3.168
 4793SOL     OW15277   1.000   3.348   5.685
 4793SOL    HW115278   1.056   3.388   5.758
 4793SOL    HW215279   1.047   3.360   5.597
 4794SOL     OW15280   4.406   1.660   4.768
 4794SOL    HW115281   4.344   1.581   4.762
 4794SOL    HW215282   4.457   1.668   4.682
 4795SOL     OW15283   6.958   1.054   6.447
 4795SOL    HW115284   6.990   0.975   6.393
 4795SOL    HW215285   7.012   1.060   6.531
 4796SOL     OW15286   4.286   1.457   5.109
 4796SOL    HW115287   4.378   1.482   5.137
 4796SOL    HW215288   4.289   1.414   5.019
 4797SOL     OW15289   1.360   5.337   5.345
 4797SOL    HW115290   1.455   5.334   5.374
 4797SOL    HW215291   1.354   5.311   5.248
 4798SOL     OW15292   4.198   4.884   6.822
 4798SOL    HW115293   4.239   4.920   6.906
 4798SOL    HW215294   4.269   4.838   6.767
 4799SOL     OW15295   4.259   2.926   6.980
 4799SOL    HW115296   4.192   2.992   7.015
 4799SOL    HW215297   4.322   2.973   6.918
 4800SOL     OW15298   0.410   4.005   0.546
 4800SOL    HW115299   0.465   4.013   0.463
 4800SOL    HW215300   0.467   4.024   0.626
 4801SOL     OW15301   5.524   2.624   1.992
 4801SOL    HW115302   5.621   2.647   1.992
 4801SOL    HW215303   5.472   2.697   1.947
 4802SOL     OW15304   6.482   0.607   4.332
 4802SOL    HW115305   6.567   0.643   4.293
 4802SOL    HW215306   6.469   0.644   4.424
 4803SOL     OW15307   5.423   3.794   5.700
 4803SOL    HW115308   5.329   3.778   5.729
 4803SOL    HW215309   5.424   3.856   5.621
 4804SOL     OW15310   4.776   1.571   0.620
 4804SOL    HW115311   4.754   1.667   0.600
 4804SOL    HW215312   4.876   1.559   0.619
 4805SOL     OW15313   6.618   1.495   0.114
 4805SOL    HW115314   6.533   1.481   0.164
 4805SOL    HW215315   6.615   1.585   0.069
 4806SOL     OW15316   0.877   0.934   3.525
 4806SOL    HW115317   0.925   0.868   3.467
 4806SOL    HW215318   0.850   0.889   3.611
 4807SOL     OW15319   0.423   3.828   5.266
 4807SOL    HW115320   0.328   3.855   5.278
 4807SOL    HW215321   0.432   3.770   5.185
 4808SOL     OW15322   3.553   6.129   1.505
 4808SOL    HW115323   3.609   6.180   1.440
 4808SOL    HW215324   3.514   6.048   1.460
 4809SOL     OW15325   3.596   3.791   1.245
 4809SOL    HW115326   3.682   3.826   1.281
 4809SOL    HW215327   3.565   3.713   1.300
 4810SOL     OW15328   0.874   4.962   4.080
 4810SOL    HW115329   0.828   5.050   4.077
 4810SOL    HW215330   0.840   4.909   4.158
 4811SOL     OW15331   3.080   3.965   4.241
 4811SOL    HW115332   3.062   3.941   4.336
 4811SOL    HW215333   3.057   4.061   4.226
 4812SOL     OW15334   1.176   0.271   2.838
 4812SOL    HW115335   1.193   0.191   2.897
 4812SOL    HW215336   1.209   0.353   2.883
 4813SOL     OW15337   6.796   1.623   5.560
 4813SOL    HW115338   6.848   1.653   5.479
 4813SOL    HW215339   6.813   1.525   5.576
 4814SOL     OW15340   5.946   4.035   1.410
 4814SOL    HW115341   5.850   4.033   1.380
 4814SOL    HW215342   5.997   3.964   1.362
 4815SOL     OW15343   5.524   4.717   1.785
 4815SOL    HW115344   5.554   4.742   1.877
 4815SOL    HW215345   5.604   4.696   1.729
 4816SOL     OW15346   2.459   1.589   2.805
 4816SOL    HW115347   2.501   1.680   2.800
 4816SOL    HW215348   2.523   1.521   2.772
 4817SOL     OW15349   4.039   2.385   0.526
 4817SOL    HW115350   4.069   2.371   0.432
 4817SOL    HW215351   4.009   2.298   0.565
 4818SOL     OW15352   3.753   0.495   5.032
 4818SOL    HW115353   3.747   0.410   5.085
 4818SOL    HW215354   3.809   0.561   5.082
 4819SOL     OW15355   3.539   0.096   1.036
 4819SOL    HW115356   3.518   0.007   1.077
 4819SOL    HW215357   3.636   0.101   1.014
 4820SOL     OW15358   5.919   3.999   2.075
 4820SOL    HW115359   5.963   3.985   1.986
 4820SOL    HW215360   5.904   3.911   2.119
 4821SOL     OW15361   0.033   5.220   1.614
 4821SOL    HW115362   7.000   5.263   1.544
 4821SOL    HW215363   0.089   5.149   1.571
 4822SOL     OW15364   1.321   4.187   2.644
 4822SOL    HW115365   1.341   4.248   2.720
 4822SOL    HW215366   1.331   4.092   2.675
 4823SOL     OW15367   1.721   1.112   4.248
 4823SOL    HW115368   1.776   1.185   4.290
 4823SOL    HW215369   1.641   1.152   4.203
 4824SOL     OW15370   5.391   2.761   1.737
 4824SOL    HW115371   5.323   2.776   1.666
 4824SOL    HW215372   5.437   2.848   1.757
 4825SOL     OW15373   0.471   3.118   3.030
 4825SOL    HW115374   0.526   3.194   2.995
 4825SOL    HW215375   0.505   3.032   2.991
 4826SOL     OW15376   6.443   6.003   0.290
 4826SOL    HW115377   6.359   5.973   0.244
 4826SOL    HW215378   6.431   6.096   0.324
 4827SOL     OW15379   5.476   1.277   1.240
 4827SOL    HW115380   5.475   1.245   1.334
 4827SOL    HW215381   5.418   1.218   1.184
 4828SOL     OW15382   4.937   3.552   6.623
 4828SOL    HW115383   4.884   3.548   6.708
 4828SOL    HW215384   5.034   3.545   6.643
 4829SOL     OW15385   3.559   0.232   5.325
 4829SOL    HW115386   3.527   0.168   5.394
 4829SOL    HW215387   3.598   0.313   5.370
 4830SOL     OW15388   3.920   6.530   5.377
 4830SOL    HW115389   4.009   6.501   5.342
 4830SOL    HW215390   3.866   6.570   5.303
 4831SOL     OW15391   6.537   4.106   5.512
 4831SOL    HW115392   6.614   4.045   5.495
 4831SOL    HW215393   6.466   4.058   5.563
 4832SOL     OW15394   2.271   2.817   6.633
 4832SOL    HW115395   2.198   2.884   6.622
 4832SOL    HW215396   2.249   2.735   6.581
 4833SOL     OW15397   4.964   1.596   2.992
 4833SOL    HW115398   4.894   1.664   3.010
 4833SOL    HW215399   4.924   1.520   2.941
 4834SOL     OW15400   6.019   0.667   2.967
 4834SOL    HW115401   5.965   0.655   2.884
 4834SOL    HW215402   5.981   0.742   3.021
 4835SOL     OW15403   2.062   0.387   6.069
 4835SOL    HW115404   2.149   0.422   6.035
 4835SOL    HW215405   2.010   0.347   5.993
 4836SOL     OW15406   5.602   2.718   2.811
 4836SOL    HW115407   5.577   2.713   2.907
 4836SOL    HW215408   5.695   2.753   2.802
 4837SOL     OW15409   1.302   4.162   0.475
 4837SOL    HW115410   1.282   4.238   0.538
 4837SOL    HW215411   1.239   4.166   0.398
 4838SOL     OW15412   2.825   5.982   2.394
 4838SOL    HW115413   2.799   5.982   2.491
 4838SOL    HW215414   2.818   6.075   2.358
 4839SOL     OW15415   0.514   6.409   6.366
 4839SOL    HW115416   0.465   6.352   6.432
 4839SOL    HW215417   0.612   6.391   6.373
 4840SOL     OW15418   6.759   6.448   0.005
 4840SOL    HW115419   6.685   6.383   7.012
 4840SOL    HW215420   6.767   6.512   6.953
 4841SOL     OW15421   2.355   5.745   2.482
 4841SOL    HW115422   2.377   5.662   2.430
 4841SOL    HW215423   2.391   5.825   2.434
 4842SOL     OW15424   3.382   6.616   1.374
 4842SOL    HW115425   3.326   6.582   1.299
 4842SOL    HW215426   3.456   6.550   1.393
 4843SOL     OW15427   0.218   3.149   0.275
 4843SOL    HW115428   0.191   3.164   0.370
 4843SOL    HW215429   0.247   3.236   0.234
 4844SOL     OW15430   6.915   1.924   5.594
 4844SOL    HW115431   6.847   1.880   5.535
 4844SOL    HW215432   6.869   1.963   5.673
 4845SOL     OW15433   5.795   5.658   3.774
 4845SOL    HW115434   5.836   5.670   3.864
 4845SOL    HW215435   5.867   5.646   3.705
 4846SOL     OW15436   1.095   4.565   0.958
 4846SOL    HW115437   1.135   4.474   0.946
 4846SOL    HW215438   1.109   4.619   0.875
 4847SOL     OW15439   4.440   2.471   4.638
 4847SOL    HW115440   4.414   2.476   4.541
 4847SOL    HW215441   4.363   2.437   4.691
 4848SOL     OW15442   3.018   2.195   2.234
 4848SOL    HW115443   2.990   2.235   2.147
 4848SOL    HW215444   3.111   2.160   2.227
 4849SOL     OW15445   1.204   6.123   0.320
 4849SOL    HW115446   1.216   6.026   0.338
 4849SOL    HW215447   1.274   6.176   0.368
 4850SOL     OW15448   4.081   0.467   2.469
 4850SOL    HW115449   4.081   0.371   2.440
 4850SOL    HW215450   3.987   0.496   2.487
 4851SOL     OW15451   5.185   6.999   5.009
 4851SOL    HW115452   5.169   6.934   5.083
 4851SOL    HW215453   5.143   0.061   5.032
 4852SOL     OW15454   1.686   1.770   1.205
 4852SOL    HW115455   1.671   1.713   1.285
 4852SOL    HW215456   1.614   1.840   1.200
 4853SOL     OW15457   3.121   0.837   1.976
 4853SOL    HW115458   3.081   0.848   1.885
 4853SOL    HW215459   3.168   0.922   2.002
 4854SOL     OW15460   4.857   6.773   0.495
 4854SOL    HW115461   4.822   6.846   0.554
 4854SOL    HW215462   4.789   6.700   0.488
 4855SOL     OW15463   0.318   2.441   2.622
 4855SOL    HW115464   0.290   2.488   2.539
 4855SOL    HW215465   0.413   2.412   2.613
 4856SOL     OW15466   2.384   4.426   3.616
 4856SOL    HW115467   2.388   4.337   3.569
 4856SOL    HW215468   2.322   4.419   3.694
 4857SOL     OW15469   0.272   1.887   5.373
 4857SOL    HW115470   0.175   1.883   5.398
 4857SOL    HW215471   0.316   1.962   5.423
 4858SOL     OW15472   0.944   1.216   3.519
 4858SOL    HW115473   0.990   1.234   3.432
 4858SOL    HW215474   0.897   1.127   3.513
 4859SOL     OW15475   2.538   5.440   5.169
 4859SOL    HW115476   2.531   5.349   5.127
 4859SOL    HW215477   2.545   5.430   5.268
 4860SOL     OW15478   4.606   4.627   0.724
 4860SOL    HW115479   4.676   4.686   0.765
 4860SOL    HW215480   4.624   4.532   0.750
 4861SOL     OW15481   4.922   3.702   5.796
 4861SOL    HW115482   5.010   3.674   5.758
 4861SOL    HW215483   4.917   3.674   5.892
 4862SOL     OW15484   1.768   6.461   2.135
 4862SOL    HW115485   1.732   6.553   2.122
 4862SOL    HW215486   1.765   6.412   2.048
 4863SOL     OW15487   5.946   4.583   6.313
 4863SOL    HW115488   5.923   4.527   6.234
 4863SOL    HW215489   6.042   4.609   6.309
 4864SOL     OW15490   3.017   1.624   3.947
 4864SOL    HW115491   3.110   1.615   3.911
 4864SOL    HW215492   2.987   1.537   3.985
 4865SOL     OW15493   1.849   6.563   5.025
 4865SOL    HW115494   1.893   6.534   4.940
 4865SOL    HW215495   1.856   6.490   5.092
 4866SOL     OW15496   6.208   4.363   6.736
 4866SOL    HW115497   6.197   4.307   6.654
 4866SOL    HW215498   6.238   4.304   6.812
 4867SOL     OW15499   5.309   6.895   2.747
 4867SOL    HW115500   5.341   6.902   2.653
 4867SOL    HW215501   5.361   6.825   2.796
 4868SOL     OW15502   7.023   4.790   1.091
 4868SOL    HW115503   6.955   4.727   1.129
 4868SOL    HW215504   0.019   4.764   0.997
 4869SOL     OW15505   0.523   1.287   0.252
 4869SOL    HW115506   0.542   1.194   0.223
 4869SOL    HW215507   0.507   1.345   0.172
 4870SOL     OW15508   0.722   5.996   2.138
 4870SOL    HW115509   0.633   6.040   2.150
 4870SOL    HW215510   0.720   5.905   2.179
 4871SOL     OW15511   1.524   1.721   4.521
 4871SOL    HW115512   1.498   1.625   4.531
 4871SOL    HW215513   1.623   1.730   4.530
 4872SOL     OW15514   5.743   6.841   2.957
 4872SOL    HW115515   5.789   6.779   3.021
 4872SOL    HW215516   5.695   6.912   3.008
 4873SOL     OW15517   6.778   5.725   5.550
 4873SOL    HW115518   6.772   5.683   5.459
 4873SOL    HW215519   6.851   5.793   5.550
 4874SOL     OW15520   5.545   2.534   2.613
 4874SOL    HW115521   5.568   2.608   2.676
 4874SOL    HW215522   5.606   2.456   2.629
 4875SOL     OW15523   5.569   6.399   5.135
 4875SOL    HW115524   5.533   6.308   5.114
 4875SOL    HW215525   5.655   6.390   5.185
 4876SOL     OW15526   1.546   0.971   3.091
 4876SOL    HW115527   1.572   0.956   3.186
 4876SOL    HW215528   1.448   0.953   3.081
 4877SOL     OW15529   0.196   1.830   4.856
 4877SOL    HW115530   0.110   1.868   4.892
 4877SOL    HW215531   0.255   1.805   4.932
 4878SOL     OW15532   0.583   2.759   2.367
 4878SOL    HW115533   0.646   2.686   2.339
 4878SOL    HW215534   0.633   2.846   2.372
 4879SOL     OW15535   5.427   1.726   3.030
 4879SOL    HW115536   5.519   1.704   2.998
 4879SOL    HW215537   5.365   1.653   3.004
 4880SOL     OW15538   6.945   2.481   6.452
 4880SOL    HW115539   7.004   2.410   6.491
 4880SOL    HW215540   6.879   2.511   6.522
 4881SOL     OW15541   1.834   2.522   1.526
 4881SOL    HW115542   1.751   2.563   1.564
 4881SOL    HW215543   1.893   2.594   1.490
 4882SOL     OW15544   4.036   1.800   4.116
 4882SOL    HW115545   4.103   1.743   4.068
 4882SOL    HW215546   4.037   1.775   4.213
 4883SOL     OW15547   6.456   4.122   1.253
 4883SOL    HW115548   6.500   4.076   1.176
 4883SOL    HW215549   6.465   4.221   1.244
 4884SOL     OW15550   2.230   6.640   1.415
 4884SOL    HW115551   2.156   6.625   1.350
 4884SOL    HW215552   2.222   6.731   1.455
 4885SOL     OW15553   1.102   4.705   0.462
 4885SOL    HW115554   1.156   4.732   0.382
 4885SOL    HW215555   1.024   4.767   0.472
 4886SOL     OW15556   2.500   0.938   1.815
 4886SOL    HW115557   2.533   0.895   1.899
 4886SOL    HW215558   2.441   1.016   1.839
 4887SOL     OW15559   6.462   6.609   1.092
 4887SOL    HW115560   6.523   6.530   1.093
 4887SOL    HW215561   6.409   6.611   1.177
 4888SOL     OW15562   3.753   6.538   3.264
 4888SOL    HW115563   3.847   6.507   3.279
 4888SOL    HW215564   3.709   6.481   3.194
 4889SOL     OW15565   6.704   3.122   3.666
 4889SOL    HW115566   6.756   3.063   3.727
 4889SOL    HW215567   6.655   3.067   3.599
 4890SOL     OW15568   0.287   1.396   4.977
 4890SOL    HW115569   0.373   1.414   5.024
 4890SOL    HW215570   0.303   1.331   4.902
 4891SOL     OW15571   2.823   5.667   6.327
 4891SOL    HW115572   2.816   5.568   6.312
 4891SOL    HW215573   2.822   5.686   6.425
 4892SOL     OW15574   5.191   5.841   2.963
 4892SOL    HW115575   5.115   5.781   2.935
 4892SOL    HW215576   5.245   5.865   2.882
 4893SOL     OW15577   0.759   3.431   1.678
 4893SOL    HW115578   0.672   3.443   1.727
 4893SOL    HW215579   0.790   3.337   1.686
 4894SOL     OW15580   4.997   0.331   1.816
 4894SOL    HW115581   5.082   0.380   1.837
 4894SOL    HW215582   4.997   0.243   1.863
 4895SOL     OW15583   6.952   4.731   4.325
 4895SOL    HW115584   0.009   4.786   4.339
 4895SOL    HW215585   6.888   4.780   4.268
 4896SOL     OW15586   1.722   5.053   4.543
 4896SOL    HW115587   1.642   5.109   4.522
 4896SOL    HW215588   1.703   4.958   4.519
 4897SOL     OW15589   1.673   6.303   4.929
 4897SOL    HW115590   1.600   6.350   4.980
 4897SOL    HW215591   1.743   6.272   4.993
 4898SOL     OW15592   4.716   1.912   3.816
 4898SOL    HW115593   4.708   1.958   3.727
 4898SOL    HW215594   4.632   1.925   3.868
 4899SOL     OW15595   6.884   5.995   1.690
 4899SOL    HW115596   6.845   6.048   1.764
 4899SOL    HW215597   6.972   6.034   1.663
 4900SOL     OW15598   3.579   5.843   5.870
 4900SOL    HW115599   3.610   5.893   5.950
 4900SOL    HW215600   3.585   5.745   5.887
 4901SOL     OW15601   0.566   1.825   5.740
 4901SOL    HW115602   0.549   1.736   5.783
 4901SOL    HW215603   0.489   1.886   5.758
 4902SOL     OW15604   1.568   6.975   5.894
 4902SOL    HW115605   1.621   6.965   5.978
 4902SOL    HW215606   1.618   0.008   5.830
 4903SOL     OW15607   5.161   4.015   2.527
 4903SOL    HW115608   5.205   3.998   2.616
 4903SOL    HW215609   5.228   4.056   2.465
 4904SOL     OW15610   1.892   0.220   0.462
 4904SOL    HW115611   1.854   0.165   0.536
 4904SOL    HW215612   1.915   0.161   0.385
 4905SOL     OW15613   3.074   6.223   2.812
 4905SOL    HW115614   3.144   6.161   2.847
 4905SOL    HW215615   3.063   6.300   2.876
 4906SOL     OW15616   4.969   3.428   5.106
 4906SOL    HW115617   5.037   3.440   5.035
 4906SOL    HW215618   4.904   3.504   5.103
 4907SOL     OW15619   5.106   1.616   6.627
 4907SOL    HW115620   5.036   1.563   6.579
 4907SOL    HW215621   5.170   1.554   6.673
 4908SOL     OW15622   4.192   6.628   6.903
 4908SOL    HW115623   4.151   6.609   6.992
 4908SOL    HW215624   4.146   6.707   6.861
 4909SOL     OW15625   5.096   4.664   4.529
 4909SOL    HW115626   5.115   4.721   4.610
 4909SOL    HW215627   4.997   4.658   4.515
 4910SOL     OW15628   4.589   1.845   5.516
 4910SOL    HW115629   4.670   1.804   5.557
 4910SOL    HW215630   4.508   1.790   5.539
 4911SOL     OW15631   0.085   2.829   2.229
 4911SOL    HW115632   7.024   2.858   2.186
 4911SOL    HW215633   0.095   2.877   2.317
 4912SOL     OW15634   5.524   2.334   3.763
 4912SOL    HW115635   5.493   2.249   3.720
 4912SOL    HW215636   5.617   2.354   3.735
 4913SOL     OW15637   0.044   3.118   5.757
 4913SOL    HW115638   0.075   3.092   5.665
 4913SOL    HW215639   7.008   3.197   5.750
 4914SOL     OW15640   4.764   0.627   3.567
 4914SOL    HW115641   4.758   0.573   3.651
 4914SOL    HW215642   4.682   0.612   3.512
 4915SOL     OW15643   3.650   5.216   5.838
 4915SOL    HW115644   3.605   5.265   5.912
 4915SOL    HW215645   3.726   5.272   5.803
 4916SOL     OW15646   6.375   2.433   3.911
 4916SOL    HW115647   6.278   2.422   3.933
 4916SOL    HW215648   6.386   2.503   3.841
 4917SOL     OW15649   4.422   6.489   0.303
 4917SOL    HW115650   4.365   6.430   0.245
 4917SOL    HW215651   4.372   6.511   0.387
 4918SOL     OW15652   6.333   5.119   2.877
 4918SOL    HW115653   6.375   5.031   2.897
 4918SOL    HW215654   6.405   5.186   2.858
 4919SOL     OW15655   3.476   3.987   2.389
 4919SOL    HW115656   3.404   4.039   2.344
 4919SOL    HW215657   3.452   3.891   2.392
 4920SOL     OW15658   6.534   1.147   5.555
 4920SOL    HW115659   6.510   1.217   5.622
 4920SOL    HW215660   6.529   1.057   5.597
 4921SOL     OW15661   0.259   6.821   2.385
 4921SOL    HW115662   0.273   6.893   2.453
 4921SOL    HW215663   0.210   6.857   2.307
 4922SOL     OW15664   3.408   2.032   6.440
 4922SOL    HW115665   3.501   1.996   6.446
 4922SOL    HW215666   3.399   2.087   6.356
 4923SOL     OW15667   3.287   1.762   1.612
 4923SOL    HW115668   3.323   1.815   1.535
 4923SOL    HW215669   3.308   1.665   1.599
 4924SOL     OW15670   2.608   0.515   5.062
 4924SOL    HW115671   2.688   0.476   5.015
 4924SOL    HW215672   2.559   0.442   5.110
 4925SOL     OW15673   5.722   6.102   3.454
 4925SOL    HW115674   5.757   6.009   3.470
 4925SOL    HW215675   5.626   6.097   3.427
 4926SOL     OW15676   5.458   2.673   1.126
 4926SOL    HW115677   5.361   2.684   1.145
 4926SOL    HW215678   5.491   2.752   1.075
 4927SOL     OW15679   3.412   1.223   6.644
 4927SOL    HW115680   3.336   1.215   6.708
 4927SOL    HW215681   3.462   1.308   6.663
 4928SOL     OW15682   0.060   1.821   0.789
 4928SOL    HW115683   7.013   1.752   0.775
 4928SOL    HW215684   0.030   1.885   0.860
 4929SOL     OW15685   0.706   6.356   4.968
 4929SOL    HW115686   0.654   6.287   4.919
 4929SOL    HW215687   0.764   6.406   4.903
 4930SOL     OW15688   5.544   6.352   2.099
 4930SOL    HW115689   5.565   6.400   2.185
 4930SOL    HW215690   5.628   6.333   2.050
 4931SOL     OW15691   6.557   5.651   0.540
 4931SOL    HW115692   6.505   5.657   0.626
 4931SOL    HW215693   6.497   5.670   0.463
 4932SOL     OW15694   3.067   3.244   1.857
 4932SOL    HW115695   3.091   3.149   1.838
 4932SOL    HW215696   2.998   3.275   1.791
 4933SOL     OW15697   2.748   6.443   5.828
 4933SOL    HW115698   2.743   6.425   5.730
 4933SOL    HW215699   2.686   6.381   5.876
 4934SOL     OW15700   4.318   5.221   2.891
 4934SOL    HW115701   4.224   5.225   2.857
 4934SOL    HW215702   4.319   5.183   2.984
 4935SOL     OW15703   0.205   1.331   6.345
 4935SOL    HW115704   0.228   1.234   6.336
 4935SOL    HW215705   0.169   1.365   6.258
 4936SOL     OW15706   3.502   2.850   0.650
 4936SOL    HW115707   3.484   2.937   0.604
 4936SOL    HW215708   3.595   2.851   0.687
 4937SOL     OW15709   4.520   2.418   5.031
 4937SOL    HW115710   4.581   2.343   5.057
 4937SOL    HW215711   4.427   2.382   5.019
 4938SOL     OW15712   4.017   5.231   6.709
 4938SOL    HW115713   4.082   5.307   6.719
 4938SOL    HW215714   3.926   5.267   6.691
 4939SOL     OW15715   4.449   3.104   6.115
 4939SOL    HW115716   4.513   3.029   6.103
 4939SOL    HW215717   4.356   3.072   6.096
 4940SOL     OW15718   1.739   6.344   4.453
 4940SOL    HW115719   1.688   6.268   4.413
 4940SOL    HW215720   1.713   6.354   4.549
 4941SOL     OW15721   5.158   0.421   0.807
 4941SOL    HW115722   5.122   0.514   0.806
 4941SOL    HW215723   5.153   0.384   0.900
 4942SOL     OW15724   5.473   3.991   5.516
 4942SOL    HW115725   5.548   4.055   5.497
 4942SOL    HW215726   5.452   3.940   5.433
 4943SOL     OW15727   5.226   2.531   1.494
 4943SOL    HW115728   5.208   2.492   1.584
 4943SOL    HW215729   5.268   2.462   1.435
 4944SOL     OW15730   2.615   4.644   2.626
 4944SOL    HW115731   2.546   4.704   2.585
 4944SOL    HW215732   2.672   4.697   2.688
 4945SOL     OW15733   0.819   6.313   4.657
 4945SOL    HW115734   0.839   6.396   4.709
 4945SOL    HW215735   0.897   6.251   4.663
 4946SOL     OW15736   0.885   4.586   2.069
 4946SOL    HW115737   0.928   4.522   2.134
 4946SOL    HW215738   0.952   4.656   2.042
 4947SOL     OW15739   0.091   6.882   0.669
 4947SOL    HW115740   0.174   6.902   0.721
 4947SOL    HW215741   0.080   6.784   0.658
 4948SOL     OW15742   1.715   1.480   2.282
 4948SOL    HW115743   1.813   1.496   2.275
 4948SOL    HW215744   1.686   1.484   2.377
 4949SOL     OW15745   4.825   1.538   4.613
 4949SOL    HW115746   4.875   1.592   4.679
 4949SOL    HW215747   4.837   1.576   4.521
 4950SOL     OW15748   2.901   5.315   5.377
 4950SOL    HW115749   2.825   5.377   5.396
 4950SOL    HW215750   2.885   5.269   5.289
 4951SOL     OW15751   4.376   1.940   3.507
 4951SOL    HW115752   4.405   1.852   3.469
 4951SOL    HW215753   4.327   1.992   3.437
 4952SOL     OW15754   0.666   5.431   4.717
 4952SOL    HW115755   0.691   5.518   4.677
 4952SOL    HW215756   0.668   5.438   4.817
 4953SOL     OW15757   1.710   5.613   1.720
 4953SOL    HW115758   1.792   5.668   1.731
 4953SOL    HW215759   1.678   5.619   1.625
 4954SOL     OW15760   5.554   5.685   6.874
 4954SOL    HW115761   5.480   5.750   6.893
 4954SOL    HW215762   5.641   5.722   6.906
 4955SOL     OW15763   0.795   6.907   1.659
 4955SOL    HW115764   0.743   6.978   1.705
 4955SOL    HW215765   0.883   6.895   1.705
 4956SOL     OW15766   4.976   6.130   4.564
 4956SOL    HW115767   4.933   6.214   4.531
 4956SOL    HW215768   4.965   6.057   4.496
 4957SOL     OW15769   0.955   7.000   3.948
 4957SOL    HW115770   0.912   0.006   4.033
 4957SOL    HW215771   0.992   6.909   3.961
 4958SOL     OW15772   6.873   6.070   0.003
 4958SOL    HW115773   6.928   6.143   0.043
 4958SOL    HW215774   6.829   6.018   0.077
 4959SOL     OW15775   1.103   0.793   1.316
 4959SOL    HW115776   1.006   0.768   1.316
 4959SOL    HW215777   1.113   0.887   1.281
 4960SOL     OW15778   3.780   6.026   4.953
 4960SOL    HW115779   3.842   6.101   4.975
 4960SOL    HW215780   3.718   6.011   5.031
 4961SOL     OW15781   4.362   0.178   5.352
 4961SOL    HW115782   4.286   0.238   5.379
 4961SOL    HW215783   4.433   0.181   5.421
 4962SOL     OW15784   6.582   2.121   1.704
 4962SOL    HW115785   6.682   2.124   1.712
 4962SOL    HW215786   6.544   2.070   1.781
 4963SOL     OW15787   6.890   4.771   1.921
 4963SOL    HW115788   6.990   4.784   1.918
 4963SOL    HW215789   6.847   4.850   1.964
 4964SOL     OW15790   3.416   6.525   3.197
 4964SOL    HW115791   3.443   6.621   3.195
 4964SOL    HW215792   3.492   6.470   3.231
 4965SOL     OW15793   6.966   6.504   4.647
 4965SOL    HW115794   6.894   6.464   4.590
 4965SOL    HW215795   0.030   6.481   4.609
 4966SOL     OW15796   3.840   4.863   3.717
 4966SOL    HW115797   3.885   4.891   3.802
 4966SOL    HW215798   3.909   4.833   3.651
 4967SOL     OW15799   4.483   1.814   5.937
 4967SOL    HW115800   4.579   1.838   5.921
 4967SOL    HW215801   4.452   1.752   5.865
 4968SOL     OW15802   5.989   3.691   5.573
 4968SOL    HW115803   5.915   3.756   5.555
 4968SOL    HW215804   5.951   3.609   5.615
 4969SOL     OW15805   0.699   1.741   2.061
 4969SOL    HW115806   0.614   1.756   2.009
 4969SOL    HW215807   0.708   1.644   2.083
 4970SOL     OW15808   1.168   2.723   5.840
 4970SOL    HW115809   1.201   2.811   5.807
 4970SOL    HW215810   1.074   2.709   5.808
 4971SOL     OW15811   6.201   5.984   3.947
 4971SOL    HW115812   6.284   5.950   3.992
 4971SOL    HW215813   6.226   6.047   3.874
 4972SOL     OW15814   1.369   2.337   5.836
 4972SOL    HW115815   1.401   2.369   5.747
 4972SOL    HW215816   1.390   2.405   5.905
 4973SOL     OW15817   5.881   6.186   3.218
 4973SOL    HW115818   5.822   6.108   3.196
 4973SOL    HW215819   5.827   6.256   3.265
 4974SOL     OW15820   4.646   6.980   1.433
 4974SOL    HW115821   4.629   6.970   1.335
 4974SOL    HW215822   4.689   0.043   1.451
 4975SOL     OW15823   5.579   5.952   0.474
 4975SOL    HW115824   5.565   6.051   0.470
 4975SOL    HW215825   5.669   5.933   0.513
 4976SOL     OW15826   4.077   0.191   4.559
 4976SOL    HW115827   4.075   0.287   4.586
 4976SOL    HW215828   4.000   0.143   4.602
 4977SOL     OW15829   3.549   3.999   0.315
 4977SOL    HW115830   3.586   3.926   0.372
 4977SOL    HW215831   3.571   3.982   0.219
 4978SOL     OW15832   6.031   2.938   5.860
 4978SOL    HW115833   5.976   2.897   5.787
 4978SOL    HW215834   6.127   2.911   5.849
 4979SOL     OW15835   1.562   1.758   4.969
 4979SOL    HW115836   1.624   1.751   5.047
 4979SOL    HW215837   1.503   1.677   4.966
 4980SOL     OW15838   2.611   5.353   2.380
 4980SOL    HW115839   2.678   5.407   2.432
 4980SOL    HW215840   2.656   5.311   2.301
 4981SOL     OW15841   4.162   6.018   5.585
 4981SOL    HW115842   4.183   6.013   5.683
 4981SOL    HW215843   4.218   6.088   5.542
 4982SOL     OW15844   2.098   2.618   0.401
 4982SOL    HW115845   2.171   2.602   0.467
 4982SOL    HW215846   2.125   2.691   0.338
 4983SOL     OW15847   5.208   3.162   4.437
 4983SOL    HW115848   5.229   3.099   4.511
 4983SOL    HW215849   5.266   3.243   4.445
 4984SOL     OW15850   4.935   3.692   2.817
 4984SOL    HW115851   4.906   3.708   2.911
 4984SOL    HW215852   4.941   3.593   2.800
 4985SOL     OW15853   5.699   3.730   2.871
 4985SOL    HW115854   5.748   3.652   2.833
 4985SOL    HW215855   5.749   3.815   2.852
 4986SOL     OW15856   4.822   4.421   2.425
 4986SOL    HW115857   4.839   4.322   2.422
 4986SOL    HW215858   4.898   4.466   2.471
 4987SOL     OW15859   0.412   3.579   1.237
 4987SOL    HW115860   0.510   3.599   1.234
 4987SOL    HW215861   0.381   3.551   1.146
 4988SOL     OW15862   0.685   2.582   5.118
 4988SOL    HW115863   0.762   2.615   5.063
 4988SOL    HW215864   0.719   2.542   5.203
 4989SOL     OW15865   0.229   0.940   0.237
 4989SOL    HW115866   0.146   0.971   0.191
 4989SOL    HW215867   0.294   1.016   0.241
 4990SOL     OW15868   1.011   2.620   5.218
 4990SOL    HW115869   0.932   2.611   5.279
 4990SOL    HW215870   0.981   2.648   5.127
 4991SOL     OW15871   1.775   2.620   4.505
 4991SOL    HW115872   1.709   2.662   4.567
 4991SOL    HW215873   1.865   2.618   4.549
 4992SOL     OW15874   3.715   0.477   5.362
 4992SOL    HW115875   3.777   0.532   5.307
 4992SOL    HW215876   3.705   0.519   5.453
 4993SOL     OW15877   3.012   5.620   4.069
 4993SOL    HW115878   2.927   5.669   4.051
 4993SOL    HW215879   3.022   5.545   4.003
 4994SOL     OW15880   6.881   6.682   2.410
 4994SOL    HW115881   6.980   6.689   2.406
 4994SOL    HW215882   6.840   6.738   2.338
 4995SOL     OW15883   6.178   2.746   5.363
 4995SOL    HW115884   6.215   2.821   5.418
 4995SOL    HW215885   6.210   2.659   5.401
 4996SOL     OW15886   0.527   1.235   4.317
 4996SOL    HW115887   0.431   1.242   4.347
 4996SOL    HW215888   0.541   1.294   4.238
 4997SOL     OW15889   0.222   2.326   3.324
 4997SOL    HW115890   0.305   2.380   3.333
 4997SOL    HW215891   0.155   2.376   3.269
 4998SOL     OW15892   1.187   5.655   5.307
 4998SOL    HW115893   1.110   5.610   5.353
 4998SOL    HW215894   1.259   5.674   5.374
 4999SOL     OW15895   6.355   4.422   1.254
 4999SOL    HW115896   6.298   4.388   1.179
 4999SOL    HW215897   6.339   4.520   1.265
 5000SOL     OW15898   0.024   5.631   4.211
 5000SOL    HW115899   6.978   5.692   4.245
 5000SOL    HW215900   7.015   5.579   4.133
 5001SOL     OW15901   4.457   4.079   5.931
 5001SOL    HW115902   4.540   4.068   5.877
 5001SOL    HW215903   4.402   3.996   5.924
 5002SOL     OW15904   2.228   1.382   1.543
 5002SOL    HW115905   2.188   1.398   1.633
 5002SOL    HW215906   2.321   1.347   1.553
 5003SOL     OW15907   6.232   5.547   3.080
 5003SOL    HW115908   6.299   5.477   3.105
 5003SOL    HW215909   6.155   5.504   3.033
 5004SOL     OW15910   3.390   5.049   0.072
 5004SOL    HW115911   3.481   5.079   0.044
 5004SOL    HW215912   3.365   5.094   0.158
 5005SOL     OW15913   4.767   2.368   6.886
 5005SOL    HW115914   4.756   2.452   6.939
 5005SOL    HW215915   4.714   2.374   6.802
 5006SOL     OW15916   5.141   4.894   3.783
 5006SOL    HW115917   5.158   4.895   3.881
 5006SOL    HW215918   5.136   4.987   3.748
 5007SOL     OW15919   3.986   1.562   4.572
 5007SOL    HW115920   4.020   1.577   4.665
 5007SOL    HW215921   4.040   1.490   4.528
 5008SOL     OW15922   6.935   1.325   3.906
 5008SOL    HW115923   7.021   1.322   3.956
 5008SOL    HW215924   6.926   1.413   3.860
 5009SOL     OW15925   1.989   6.281   4.015
 5009SOL    HW115926   2.038   6.212   3.961
 5009SOL    HW215927   1.892   6.277   3.993
 5010SOL     OW15928   3.732   3.273   4.426
 5010SOL    HW115929   3.717   3.345   4.358
 5010SOL    HW215930   3.773   3.193   4.381
 5011SOL     OW15931   1.474   3.174   2.816
 5011SOL    HW115932   1.437   3.171   2.723
 5011SOL    HW215933   1.488   3.269   2.843
 5012SOL     OW15934   6.144   3.059   6.772
 5012SOL    HW115935   6.136   3.139   6.714
 5012SOL    HW215936   6.154   3.088   6.867
 5013SOL     OW15937   4.884   1.278   6.012
 5013SOL    HW115938   4.877   1.252   5.916
 5013SOL    HW215939   4.868   1.377   6.021
 5014SOL     OW15940   6.434   6.734   6.972
 5014SOL    HW115941   6.355   6.793   6.987
 5014SOL    HW215942   6.497   6.777   6.907
 5015SOL     OW15943   5.289   2.475   3.363
 5015SOL    HW115944   5.252   2.462   3.455
 5015SOL    HW215945   5.333   2.391   3.333
 5016SOL     OW15946   2.695   6.938   2.079
 5016SOL    HW115947   2.740   6.945   2.168
 5016SOL    HW215948   2.627   7.011   2.071
 5017SOL     OW15949   2.330   2.819   1.825
 5017SOL    HW115950   2.314   2.890   1.756
 5017SOL    HW215951   2.419   2.777   1.810
 5018SOL     OW15952   6.611   5.139   4.486
 5018SOL    HW115953   6.536   5.103   4.542
 5018SOL    HW215954   6.698   5.126   4.533
 5019SOL     OW15955   2.772   5.412   6.325
 5019SOL    HW115956   2.675   5.420   6.300
 5019SOL    HW215957   2.791   5.318   6.354
 5020SOL     OW15958   5.123   5.421   6.333
 5020SOL    HW115959   5.023   5.423   6.324
 5020SOL    HW215960   5.165   5.442   6.245
 5021SOL     OW15961   2.168   5.009   6.001
 5021SOL    HW115962   2.107   5.049   5.932
 5021SOL    HW215963   2.210   4.927   5.963
 5022SOL     OW15964   1.599   4.933   0.841
 5022SOL    HW115965   1.681   4.907   0.892
 5022SOL    HW215966   1.625   4.963   0.749
 5023SOL     OW15967   6.652   3.454   2.810
 5023SOL    HW115968   6.747   3.476   2.833
 5023SOL    HW215969   6.624   3.373   2.862
 5024SOL     OW15970   5.178   3.620   5.694
 5024SOL    HW115971   5.149   3.623   5.598
 5024SOL    HW215972   5.236   3.540   5.709
 5025SOL     OW15973   6.332   1.944   2.923
 5025SOL    HW115974   6.370   1.903   3.005
 5025SOL    HW215975   6.238   1.912   2.910
 5026SOL     OW15976   0.428   6.289   2.580
 5026SOL    HW115977   0.512   6.235   2.575
 5026SOL    HW215978   0.368   6.250   2.650
 5027SOL     OW15979   0.810   6.625   3.440
 5027SOL    HW115980   0.907   6.605   3.422
 5027SOL    HW215981   0.771   6.551   3.496
 5028SOL     OW15982   1.446   0.728   2.847
 5028SOL    HW115983   1.411   0.777   2.767
 5028SOL    HW215984   1.546   0.733   2.849
 5029SOL     OW15985   6.988   0.917   2.528
 5029SOL    HW115986   0.020   0.959   2.458
 5029SOL    HW215987   6.969   0.822   2.504
 5030SOL     OW15988   1.776   5.402   6.923
 5030SOL    HW115989   1.702   5.428   6.860
 5030SOL    HW215990   1.758   5.311   6.960
 5031SOL     OW15991   5.832   0.386   5.215
 5031SOL    HW115992   5.799   0.302   5.172
 5031SOL    HW215993   5.805   0.386   5.311
 5032SOL     OW15994   1.253   6.174   1.339
 5032SOL    HW115995   1.161   6.155   1.303
 5032SOL    HW215996   1.307   6.090   1.336
 5033SOL     OW15997   1.324   3.917   5.960
 5033SOL    HW115998   1.367   3.974   5.889
 5033SOL    HW215999   1.224   3.923   5.950
 5034SOL     OW16000   6.738   4.130   0.095
 5034SOL    HW116001   6.739   4.226   0.069
 5034SOL    HW216002   6.751   4.072   0.014
 5035SOL     OW16003   6.201   4.176   1.380
 5035SOL    HW116004   6.280   4.146   1.326
 5035SOL    HW216005   6.122   4.119   1.357
 5036SOL     OW16006   1.970   0.832   2.593
 5036SOL    HW116007   1.894   0.768   2.585
 5036SOL    HW216008   2.010   0.825   2.685
 5037SOL     OW16009   4.558   2.537   3.220
 5037SOL    HW116010   4.617   2.456   3.223
 5037SOL    HW216011   4.466   2.510   3.194
 5038SOL     OW16012   2.497   6.471   6.193
 5038SOL    HW116013   2.580   6.523   6.214
 5038SOL    HW216014   2.420   6.509   6.244
 5039SOL     OW16015   1.698   1.581   3.628
 5039SOL    HW116016   1.609   1.542   3.650
 5039SOL    HW216017   1.764   1.507   3.610
 5040SOL     OW16018   2.935   3.551   6.356
 5040SOL    HW116019   2.897   3.643   6.358
 5040SOL    HW216020   2.912   3.507   6.269
 5041SOL     OW16021   0.887   5.486   1.067
 5041SOL    HW116022   0.947   5.495   0.988
 5041SOL    HW216023   0.900   5.565   1.128
 5042SOL     OW16024   5.868   2.094   6.156
 5042SOL    HW116025   5.790   2.048   6.113
 5042SOL    HW216026   5.896   2.043   6.237
 5043SOL     OW16027   4.391   0.020   3.327
 5043SOL    HW116028   4.403   0.075   3.409
 5043SOL    HW216029   4.416   6.950   3.346
 5044SOL     OW16030   6.129   4.237   2.960
 5044SOL    HW116031   6.077   4.153   2.946
 5044SOL    HW216032   6.082   4.313   2.917
 5045SOL     OW16033   6.415   3.171   6.005
 5045SOL    HW116034   6.399   3.082   6.047
 5045SOL    HW216035   6.448   3.159   5.912
 5046SOL     OW16036   3.129   3.234   5.214
 5046SOL    HW116037   3.049   3.287   5.244
 5046SOL    HW216038   3.183   3.288   5.150
 5047SOL     OW16039   1.500   1.062   2.812
 5047SOL    HW116040   1.570   1.046   2.743
 5047SOL    HW216041   1.530   1.024   2.900
 5048SOL     OW16042   5.808   3.307   1.370
 5048SOL    HW116043   5.887   3.273   1.318
 5048SOL    HW216044   5.840   3.356   1.451
 5049SOL     OW16045   1.315   2.436   2.610
 5049SOL    HW116046   1.372   2.355   2.591
 5049SOL    HW216047   1.243   2.411   2.674
 5050SOL     OW16048   0.993   3.362   0.941
 5050SOL    HW116049   1.055   3.290   0.911
 5050SOL    HW216050   0.900   3.325   0.952
 5051SOL     OW16051   3.017   4.000   0.465
 5051SOL    HW116052   2.935   4.057   0.479
 5051SOL    HW216053   3.005   3.945   0.382
 5052SOL     OW16054   5.832   3.483   0.666
 5052SOL    HW116055   5.833   3.412   0.736
 5052SOL    HW216056   5.907   3.467   0.601
 5053SOL     OW16057   2.074   4.583   0.368
 5053SOL    HW116058   2.045   4.568   0.273
 5053SOL    HW216059   2.052   4.502   0.422
 5054SOL     OW16060   3.938   5.800   4.936
 5054SOL    HW116061   3.878   5.880   4.931
 5054SOL    HW216062   3.921   5.750   5.020
 5055SOL     OW16063   1.753   2.278   4.015
 5055SOL    HW116064   1.743   2.195   4.069
 5055SOL    HW216065   1.762   2.357   4.077
 5056SOL     OW16066   1.846   2.295   5.496
 5056SOL    HW116067   1.808   2.204   5.475
 5056SOL    HW216068   1.941   2.299   5.465
 5057SOL     OW16069   0.798   4.901   3.006
 5057SOL    HW116070   0.712   4.952   3.001
 5057SOL    HW216071   0.798   4.842   3.086
 5058SOL     OW16072   3.434   3.781   6.785
 5058SOL    HW116073   3.515   3.766   6.728
 5058SOL    HW216074   3.444   3.731   6.871
 5059SOL     OW16075   4.350   1.840   2.993
 5059SOL    HW116076   4.403   1.886   2.921
 5059SOL    HW216077   4.393   1.752   3.015
 5060SOL     OW16078   0.297   3.438   5.439
 5060SOL    HW116079   0.346   3.369   5.492
 5060SOL    HW216080   0.334   3.529   5.459
 5061SOL     OW16081   3.767   2.310   5.689
 5061SOL    HW116082   3.804   2.346   5.604
 5061SOL    HW216083   3.669   2.292   5.678
 5062SOL     OW16084   5.387   0.959   3.891
 5062SOL    HW116085   5.440   0.891   3.840
 5062SOL    HW216086   5.290   0.933   3.890
 5063SOL     OW16087   0.968   1.371   1.682
 5063SOL    HW116088   0.979   1.335   1.775
 5063SOL    HW216089   0.956   1.295   1.618
 5064SOL     OW16090   5.169   5.784   0.678
 5064SOL    HW116091   5.086   5.819   0.634
 5064SOL    HW216092   5.215   5.858   0.727
 5065SOL     OW16093   2.260   1.173   2.493
 5065SOL    HW116094   2.268   1.240   2.567
 5065SOL    HW216095   2.238   1.083   2.531
 5066SOL     OW16096   2.453   4.870   2.586
 5066SOL    HW116097   2.472   4.966   2.562
 5066SOL    HW216098   2.445   4.862   2.686
 5067SOL     OW16099   5.446   2.732   0.497
 5067SOL    HW116100   5.392   2.710   0.578
 5067SOL    HW216101   5.524   2.790   0.523
 5068SOL     OW16102   2.685   5.697   0.541
 5068SOL    HW116103   2.651   5.657   0.456
 5068SOL    HW216104   2.736   5.628   0.592
 5069SOL     OW16105   3.487   4.957   4.893
 5069SOL    HW116106   3.398   4.937   4.852
 5069SOL    HW216107   3.479   4.954   4.993
 5070SOL     OW16108   5.945   3.590   4.852
 5070SOL    HW116109   5.997   3.556   4.774
 5070SOL    HW216110   6.004   3.649   4.908
 5071SOL     OW16111   2.635   6.738   3.985
 5071SOL    HW116112   2.541   6.723   4.016
 5071SOL    HW216113   2.659   6.669   3.917
 5072SOL     OW16114   0.775   1.455   0.808
 5072SOL    HW116115   0.807   1.422   0.897
 5072SOL    HW216116   0.813   1.546   0.791
 5073SOL     OW16117   2.473   0.474   2.429
 5073SOL    HW116118   2.401   0.539   2.406
 5073SOL    HW216119   2.433   0.394   2.474
 5074SOL     OW16120   3.525   2.313   1.681
 5074SOL    HW116121   3.588   2.289   1.755
 5074SOL    HW216122   3.438   2.265   1.695
 5075SOL     OW16123   0.440   3.427   7.025
 5075SOL    HW116124   0.506   3.373   6.973
 5075SOL    HW216125   0.465   3.425   0.096
 5076SOL     OW16126   6.272   0.061   6.259
 5076SOL    HW116127   6.231   0.002   6.329
 5076SOL    HW216128   6.363   0.026   6.236
 5077SOL     OW16129   0.438   4.573   3.992
 5077SOL    HW116130   0.406   4.512   4.065
 5077SOL    HW216131   0.440   4.667   4.026
 5078SOL     OW16132   0.693   2.008   4.154
 5078SOL    HW116133   0.731   2.021   4.063
 5078SOL    HW216134   0.767   1.995   4.220
 5079SOL     OW16135   1.924   2.862   5.697
 5079SOL    HW116136   1.964   2.838   5.786
 5079SOL    HW216137   1.979   2.935   5.656
 5080SOL     OW16138   5.748   5.855   7.010
 5080SOL    HW116139   5.766   5.780   0.048
 5080SOL    HW216140   5.694   5.926   0.031
 5081SOL     OW16141   2.778   5.515   5.523
 5081SOL    HW116142   2.780   5.601   5.472
 5081SOL    HW216143   2.833   5.523   5.605
 5082SOL     OW16144   5.363   6.125   1.780
 5082SOL    HW116145   5.384   6.083   1.868
 5082SOL    HW216146   5.388   6.062   1.706
 5083SOL     OW16147   1.581   0.217   3.345
 5083SOL    HW116148   1.493   0.222   3.297
 5083SOL    HW216149   1.582   0.283   3.419
 5084SOL     OW16150   2.335   4.567   5.434
 5084SOL    HW116151   2.255   4.626   5.428
 5084SOL    HW216152   2.417   4.621   5.412
 5085SOL     OW16153   0.537   4.110   5.141
 5085SOL    HW116154   0.566   4.043   5.072
 5085SOL    HW216155   0.610   4.175   5.159
 5086SOL     OW16156   1.938   5.310   1.949
 5086SOL    HW116157   1.911   5.398   1.988
 5086SOL    HW216158   2.030   5.317   1.911
 5087SOL     OW16159   6.332   4.536   2.260
 5087SOL    HW116160   6.363   4.465   2.198
 5087SOL    HW216161   6.250   4.504   2.308
 5088SOL     OW16162   4.900   6.024   1.761
 5088SOL    HW116163   4.806   6.051   1.781
 5088SOL    HW216164   4.962   6.101   1.780
 5089SOL     OW16165   5.225   5.395   5.683
 5089SOL    HW116166   5.316   5.435   5.691
 5089SOL    HW216167   5.190   5.374   5.774
 5090SOL     OW16168   2.933   6.624   5.310
 5090SOL    HW116169   2.946   6.646   5.407
 5090SOL    HW216170   2.954   6.527   5.295
 5091SOL     OW16171   6.731   6.801   6.441
 5091SOL    HW116172   6.671   6.724   6.462
 5091SOL    HW216173   6.821   6.767   6.412
 5092SOL     OW16174   2.967   3.258   4.180
 5092SOL    HW116175   2.905   3.196   4.227
 5092SOL    HW216176   3.059   3.219   4.179
 5093SOL     OW16177   2.709   2.052   2.645
 5093SOL    HW116178   2.635   2.115   2.623
 5093SOL    HW216179   2.794   2.103   2.655
 5094SOL     OW16180   1.721   5.504   5.114
 5094SOL    HW116181   1.800   5.549   5.155
 5094SOL    HW216182   1.736   5.493   5.016
 5095SOL     OW16183   6.447   1.450   3.137
 5095SOL    HW116184   6.531   1.482   3.095
 5095SOL    HW216185   6.423   1.360   3.099
 5096SOL     OW16186   5.999   2.840   5.178
 5096SOL    HW116187   6.029   2.933   5.159
 5096SOL    HW216188   6.061   2.798   5.245
 5097SOL     OW16189   1.261   0.486   5.646
 5097SOL    HW116190   1.280   0.484   5.744
 5097SOL    HW216191   1.299   0.403   5.603
 5098SOL     OW16192   3.562   3.339   0.713
 5098SOL    HW116193   3.637   3.274   0.709
 5098SOL    HW216194   3.553   3.375   0.806
 5099SOL     OW16195   1.511   0.186   2.023
 5099SOL    HW116196   1.500   0.103   2.078
 5099SOL    HW216197   1.423   0.232   2.015
 5100SOL     OW16198   5.068   3.446   2.368
 5100SOL    HW116199   4.997   3.473   2.434
 5100SOL    HW216200   5.025   3.422   2.281
 5101SOL     OW16201   3.885   0.846   6.560
 5101SOL    HW116202   3.800   0.881   6.522
 5101SOL    HW216203   3.866   0.774   6.626
 5102SOL     OW16204   4.723   4.474   4.173
 5102SOL    HW116205   4.742   4.383   4.139
 5102SOL    HW216206   4.781   4.541   4.126
 5103SOL     OW16207   0.625   1.473   6.424
 5103SOL    HW116208   0.667   1.462   6.514
 5103SOL    HW216209   0.694   1.506   6.360
 5104SOL     OW16210   3.828   3.368   1.864
 5104SOL    HW116211   3.835   3.308   1.784
 5104SOL    HW216212   3.761   3.330   1.928
 5105SOL     OW16213   4.184   3.000   6.041
 5105SOL    HW116214   4.237   2.965   5.964
 5105SOL    HW216215   4.088   2.975   6.029
 5106SOL     OW16216   4.500   2.383   0.729
 5106SOL    HW116217   4.445   2.382   0.812
 5106SOL    HW216218   4.457   2.324   0.659
 5107SOL     OW16219   4.843   3.854   0.005
 5107SOL    HW116220   4.906   3.932   0.011
 5107SOL    HW216221   4.894   3.770   7.014
 5108SOL     OW16222   4.504   5.001   0.443
 5108SOL    HW116223   4.452   5.086   0.432
 5108SOL    HW216224   4.443   4.929   0.474
 5109SOL     OW16225   1.269   2.834   1.285
 5109SOL    HW116226   1.295   2.789   1.200
 5109SOL    HW216227   1.205   2.776   1.335
 5110SOL     OW16228   4.576   6.934   5.590
 5110SOL    HW116229   4.587   6.855   5.530
 5110SOL    HW216230   4.509   6.913   5.661
 5111SOL     OW16231   0.421   6.436   4.633
 5111SOL    HW116232   0.454   6.374   4.562
 5111SOL    HW216233   0.467   6.524   4.624
 5112SOL     OW16234   6.846   6.433   3.508
 5112SOL    HW116235   6.812   6.340   3.497
 5112SOL    HW216236   6.769   6.497   3.507
 5113SOL     OW16237   1.557   3.858   6.942
 5113SOL    HW116238   1.509   3.930   6.891
 5113SOL    HW216239   1.635   3.897   6.991
 5114SOL     OW16240   4.879   4.780   1.168
 5114SOL    HW116241   4.793   4.807   1.212
 5114SOL    HW216242   4.956   4.815   1.221
 5115SOL     OW16243   1.844   4.205   0.858
 5115SOL    HW116244   1.825   4.142   0.933
 5115SOL    HW216245   1.884   4.289   0.894
 5116SOL     OW16246   1.114   0.420   6.207
 5116SOL    HW116247   1.035   0.396   6.150
 5116SOL    HW216248   1.135   0.344   6.269
 5117SOL     OW16249   1.062   2.634   3.529
 5117SOL    HW116250   1.131   2.630   3.601
 5117SOL    HW216251   1.100   2.681   3.449
 5118SOL     OW16252   4.538   5.530   6.477
 5118SOL    HW116253   4.570   5.542   6.383
 5118SOL    HW216254   4.443   5.501   6.477
 5119SOL     OW16255   5.526   0.905   0.238
 5119SOL    HW116256   5.579   0.852   0.173
 5119SOL    HW216257   5.465   0.967   0.188
 5120SOL     OW16258   5.488   6.447   6.751
 5120SOL    HW116259   5.457   6.367   6.802
 5120SOL    HW216260   5.463   6.437   6.655
 5121SOL     OW16261   1.412   3.617   6.429
 5121SOL    HW116262   1.383   3.537   6.376
 5121SOL    HW216263   1.438   3.588   6.521
 5122SOL     OW16264   5.232   4.958   4.057
 5122SOL    HW116265   5.306   4.896   4.084
 5122SOL    HW216266   5.185   4.992   4.138
 5123SOL     OW16267   4.986   3.209   1.329
 5123SOL    HW116268   4.944   3.227   1.418
 5123SOL    HW216269   5.083   3.233   1.333
 5124SOL     OW16270   2.230   6.165   5.178
 5124SOL    HW116271   2.298   6.118   5.233
 5124SOL    HW216272   2.148   6.108   5.169
 5125SOL     OW16273   6.611   1.778   3.632
 5125SOL    HW116274   6.584   1.718   3.707
 5125SOL    HW216275   6.536   1.839   3.609
 5126SOL     OW16276   1.905   0.408   1.322
 5126SOL    HW116277   1.917   0.493   1.271
 5126SOL    HW216278   1.962   0.410   1.404
 5127SOL     OW16279   2.204   5.292   0.104
 5127SOL    HW116280   2.271   5.309   0.176
 5127SOL    HW216281   2.244   5.316   0.015
 5128SOL     OW16282   6.145   0.150   2.040
 5128SOL    HW116283   6.124   0.067   1.988
 5128SOL    HW216284   6.059   0.193   2.069
 5129SOL     OW16285   5.477   6.677   1.050
 5129SOL    HW116286   5.406   6.611   1.028
 5129SOL    HW216287   5.439   6.769   1.048
 5130SOL     OW16288   0.007   4.636   3.193
 5130SOL    HW116289   7.002   4.725   3.161
 5130SOL    HW216290   6.953   4.576   3.205
 5131SOL     OW16291   2.534   2.397   2.727
 5131SOL    HW116292   2.536   2.323   2.660
 5131SOL    HW216293   2.446   2.444   2.723
 5132SOL     OW16294   2.876   6.053   5.399
 5132SOL    HW116295   2.960   6.025   5.352
 5132SOL    HW216296   2.897   6.127   5.463
 5133SOL     OW16297   3.780   5.917   5.538
 5133SOL    HW116298   3.855   5.852   5.539
 5133SOL    HW216299   3.799   5.991   5.603
 5134SOL     OW16300   6.236   4.216   6.999
 5134SOL    HW116301   6.317   4.270   7.022
 5134SOL    HW216302   6.232   4.136   0.034
 5135SOL     OW16303   5.652   1.624   4.506
 5135SOL    HW116304   5.625   1.649   4.413
 5135SOL    HW216305   5.571   1.611   4.562
 5136SOL     OW16306   4.232   0.995   4.325
 5136SOL    HW116307   4.274   1.059   4.261
 5136SOL    HW216308   4.302   0.933   4.361
 5137SOL     OW16309   3.496   4.578   6.925
 5137SOL    HW116310   3.557   4.609   6.998
 5137SOL    HW216311   3.402   4.603   6.946
 5138SOL     OW16312   2.525   3.162   6.000
 5138SOL    HW116313   2.569   3.111   6.074
 5138SOL    HW216314   2.482   3.245   6.038
 5139SOL     OW16315   0.708   0.056   3.189
 5139SOL    HW116316   0.784   0.027   3.131
 5139SOL    HW216317   0.653   0.124   3.141
 5140SOL     OW16318   3.894   2.847   1.476
 5140SOL    HW116319   3.901   2.764   1.531
 5140SOL    HW216320   3.978   2.860   1.424
 5141SOL     OW16321   6.868   3.560   6.269
 5141SOL    HW116322   6.807   3.615   6.325
 5141SOL    HW216323   6.962   3.568   6.305
 5142SOL     OW16324   5.414   3.333   4.158
 5142SOL    HW116325   5.495   3.344   4.100
 5142SOL    HW216326   5.361   3.418   4.157
 5143SOL     OW16327   6.727   4.672   4.463
 5143SOL    HW116328   6.682   4.583   4.453
 5143SOL    HW216329   6.803   4.679   4.398
 5144SOL     OW16330   1.639   1.051   4.590
 5144SOL    HW116331   1.543   1.021   4.590
 5144SOL    HW216332   1.668   1.072   4.497
 5145SOL     OW16333   3.088   5.887   6.114
 5145SOL    HW116334   3.054   5.793   6.106
 5145SOL    HW216335   3.158   5.903   6.044
 5146SOL     OW16336   2.483   4.089   6.766
 5146SOL    HW116337   2.501   4.114   6.861
 5146SOL    HW216338   2.498   3.991   6.755
 5147SOL     OW16339   6.275   4.989   6.714
 5147SOL    HW116340   6.244   5.084   6.718
 5147SOL    HW216341   6.297   4.958   6.807
 5148SOL     OW16342   0.504   6.914   1.936
 5148SOL    HW116343   0.441   6.958   1.872
 5148SOL    HW216344   0.529   6.980   2.007
 5149SOL     OW16345   6.692   1.035   5.097
 5149SOL    HW116346   6.636   1.010   5.176
 5149SOL    HW216347   6.686   0.963   5.028
 5150SOL     OW16348   1.487   5.212   4.241
 5150SOL    HW116349   1.475   5.160   4.156
 5150SOL    HW216350   1.459   5.157   4.319
 5151SOL     OW16351   4.317   1.127   6.294
 5151SOL    HW116352   4.372   1.043   6.299
 5151SOL    HW216353   4.377   1.206   6.282
 5152SOL     OW16354   0.854   5.222   0.290
 5152SOL    HW116355   0.930   5.263   0.239
 5152SOL    HW216356   0.768   5.241   0.243
 5153SOL     OW16357   1.801   1.750   0.943
 5153SOL    HW116358   1.793   1.767   1.041
 5153SOL    HW216359   1.751   1.820   0.892
 5154SOL     OW16360   2.156   3.086   4.428
 5154SOL    HW116361   2.154   3.127   4.519
 5154SOL    HW216362   2.186   2.991   4.434
 5155SOL     OW16363   3.215   0.880   2.245
 5155SOL    HW116364   3.242   0.974   2.265
 5155SOL    HW216365   3.270   0.844   2.170
 5156SOL     OW16366   5.847   3.497   5.699
 5156SOL    HW116367   5.751   3.521   5.711
 5156SOL    HW216368   5.863   3.403   5.728
 5157SOL     OW16369   5.858   3.118   3.729
 5157SOL    HW116370   5.856   3.059   3.810
 5157SOL    HW216371   5.829   3.065   3.649
 5158SOL     OW16372   4.028   0.977   0.646
 5158SOL    HW116373   4.043   1.074   0.629
 5158SOL    HW216374   3.944   0.965   0.700
 5159SOL     OW16375   1.367   2.803   4.293
 5159SOL    HW116376   1.432   2.858   4.345
 5159SOL    HW216377   1.321   2.739   4.356
 5160SOL     OW16378   2.153   2.825   3.931
 5160SOL    HW116379   2.188   2.907   3.975
 5160SOL    HW216380   2.117   2.762   4.000
 5161SOL     OW16381   1.659   2.941   6.811
 5161SOL    HW116382   1.569   2.984   6.819
 5161SOL    HW216383   1.728   3.012   6.793
 5162SOL     OW16384   6.067   6.277   5.208
 5162SOL    HW116385   6.092   6.296   5.303
 5162SOL    HW216386   6.104   6.348   5.148
 5163SOL     OW16387   5.508   3.472   0.760
 5163SOL    HW116388   5.528   3.468   0.858
 5163SOL    HW216389   5.594   3.477   0.709
 5164SOL     OW16390   5.649   5.116   6.139
 5164SOL    HW116391   5.639   5.175   6.219
 5164SOL    HW216392   5.734   5.138   6.092
 5165SOL     OW16393   6.392   4.383   4.222
 5165SOL    HW116394   6.314   4.320   4.221
 5165SOL    HW216395   6.436   4.383   4.133
 5166SOL     OW16396   1.202   0.609   2.034
 5166SOL    HW116397   1.129   0.618   1.966
 5166SOL    HW216398   1.166   0.628   2.125
 5167SOL     OW16399   0.797   6.371   5.817
 5167SOL    HW116400   0.811   6.462   5.856
 5167SOL    HW216401   0.879   6.344   5.766
 5168SOL     OW16402   3.661   2.106   2.854
 5168SOL    HW116403   3.619   2.135   2.768
 5168SOL    HW216404   3.615   2.152   2.931
 5169SOL     OW16405   3.641   4.465   6.227
 5169SOL    HW116406   3.734   4.467   6.264
 5169SOL    HW216407   3.590   4.390   6.269
 5170SOL     OW16408   5.057   4.260   4.081
 5170SOL    HW116409   4.959   4.264   4.099
 5170SOL    HW216410   5.100   4.195   4.144
 5171SOL     OW16411   2.527   4.708   4.625
 5171SOL    HW116412   2.545   4.631   4.564
 5171SOL    HW216413   2.518   4.674   4.719
 5172SOL     OW16414   2.074   4.829   0.655
 5172SOL    HW116415   2.066   4.822   0.555
 5172SOL    HW216416   2.002   4.775   0.698
 5173SOL     OW16417   6.096   3.942   5.899
 5173SOL    HW116418   6.150   3.952   5.815
 5173SOL    HW216419   6.035   4.021   5.908
 5174SOL     OW16420   1.177   4.357   5.780
 5174SOL    HW116421   1.150   4.452   5.765
 5174SOL    HW216422   1.131   4.298   5.713
 5175SOL     OW16423   0.204   5.065   6.460
 5175SOL    HW116424   0.157   5.041   6.544
 5175SOL    HW216425   0.162   5.147   6.421
 5176SOL     OW16426   5.206   3.601   0.207
 5176SOL    HW116427   5.279   3.668   0.196
 5176SOL    HW216428   5.129   3.643   0.256
 5177SOL     OW16429   5.706   6.921   6.812
 5177SOL    HW116430   5.761   6.844   6.844
 5177SOL    HW216431   5.629   6.886   6.758
 5178SOL     OW16432   2.696   1.910   1.546
 5178SOL    HW116433   2.617   1.962   1.514
 5178SOL    HW216434   2.703   1.825   1.495
 5179SOL     OW16435   2.636   6.077   5.569
 5179SOL    HW116436   2.712   6.027   5.527
 5179SOL    HW216437   2.552   6.054   5.520
 5180SOL     OW16438   3.323   2.488   0.973
 5180SOL    HW116439   3.237   2.516   0.930
 5180SOL    HW216440   3.364   2.566   1.020
 5181SOL     OW16441   3.272   5.362   2.512
 5181SOL    HW116442   3.234   5.280   2.555
 5181SOL    HW216443   3.224   5.443   2.545
 5182SOL     OW16444   4.969   4.255   1.749
 5182SOL    HW116445   4.937   4.290   1.662
 5182SOL    HW216446   5.059   4.294   1.770
 5183SOL     OW16447   4.384   0.349   3.050
 5183SOL    HW116448   4.343   0.340   2.959
 5183SOL    HW216449   4.462   0.287   3.058
 5184SOL     OW16450   0.635   1.726   3.101
 5184SOL    HW116451   0.674   1.635   3.112
 5184SOL    HW216452   0.537   1.719   3.087
 5185SOL     OW16453   4.013   0.218   2.372
 5185SOL    HW116454   4.025   0.228   2.273
 5185SOL    HW216455   4.022   0.122   2.398
 5186SOL     OW16456   5.960   4.188   0.505
 5186SOL    HW116457   5.891   4.241   0.456
 5186SOL    HW216458   6.050   4.207   0.467
 5187SOL     OW16459   5.258   1.756   4.031
 5187SOL    HW116460   5.231   1.683   3.969
 5187SOL    HW216461   5.233   1.732   4.124
 5188SOL     OW16462   1.123   3.387   4.712
 5188SOL    HW116463   1.084   3.342   4.632
 5188SOL    HW216464   1.112   3.328   4.792
 5189SOL     OW16465   4.916   5.226   6.593
 5189SOL    HW116466   5.001   5.258   6.634
 5189SOL    HW216467   4.839   5.277   6.632
 5190SOL     OW16468   1.316   2.526   3.618
 5190SOL    HW116469   1.387   2.565   3.676
 5190SOL    HW216470   1.353   2.508   3.527
 5191SOL     OW16471   4.044   0.466   1.527
 5191SOL    HW116472   4.059   0.395   1.596
 5191SOL    HW216473   4.131   0.507   1.502
 5192SOL     OW16474   5.913   4.334   2.295
 5192SOL    HW116475   5.996   4.308   2.246
 5192SOL    HW216476   5.863   4.252   2.324
 5193SOL     OW16477   5.222   3.648   2.967
 5193SOL    HW116478   5.231   3.568   2.908
 5193SOL    HW216479   5.143   3.636   3.027
 5194SOL     OW16480   5.902   1.414   5.955
 5194SOL    HW116481   5.965   1.462   6.016
 5194SOL    HW216482   5.811   1.410   5.998
 5195SOL     OW16483   6.486   6.954   5.851
 5195SOL    HW116484   6.461   0.025   5.860
 5195SOL    HW216485   6.436   6.900   5.919
 5196SOL     OW16486   0.900   3.168   1.762
 5196SOL    HW116487   0.919   3.234   1.834
 5196SOL    HW216488   0.943   3.081   1.785
 5197SOL     OW16489   3.151   5.922   4.958
 5197SOL    HW116490   3.206   5.839   4.968
 5197SOL    HW216491   3.059   5.906   4.995
 5198SOL     OW16492   4.169   6.954   5.940
 5198SOL    HW116493   4.113   7.013   5.882
 5198SOL    HW216494   4.126   6.863   5.945
 5199SOL     OW16495   1.170   5.014   1.396
 5199SOL    HW116496   1.090   5.072   1.381
 5199SOL    HW216497   1.141   4.924   1.430
 5200SOL     OW16498   0.184   0.658   5.158
 5200SOL    HW116499   0.132   0.644   5.074
 5200SOL    HW216500   0.189   0.572   5.209
 5201SOL     OW16501   6.301   4.880   5.011
 5201SOL    HW116502   6.373   4.936   5.052
 5201SOL    HW216503   6.329   4.850   4.920
 5202SOL     OW16504   3.881   2.847   5.776
 5202SOL    HW116505   3.783   2.867   5.782
 5202SOL    HW216506   3.904   2.820   5.683
 5203SOL     OW16507   1.884   0.492   6.573
 5203SOL    HW116508   1.905   0.508   6.669
 5203SOL    HW216509   1.904   0.396   6.550
 5204SOL     OW16510   2.886   0.284   0.844
 5204SOL    HW116511   2.951   0.278   0.920
 5204SOL    HW216512   2.929   0.328   0.766
 5205SOL     OW16513   0.022   6.235   1.274
 5205SOL    HW116514   0.087   6.298   1.316
 5205SOL    HW216515   6.955   6.257   1.304
 5206SOL     OW16516   1.253   5.073   3.801
 5206SOL    HW116517   1.198   5.026   3.731
 5206SOL    HW216518   1.283   5.162   3.765
 5207SOL     OW16519   6.613   6.795   3.906
 5207SOL    HW116520   6.664   6.882   3.907
 5207SOL    HW216521   6.653   6.733   3.973
 5208SOL     OW16522   5.958   2.246   0.706
 5208SOL    HW116523   5.920   2.338   0.720
 5208SOL    HW216524   5.997   2.214   0.792
 5209SOL     OW16525   5.884   5.762   3.327
 5209SOL    HW116526   5.823   5.694   3.287
 5209SOL    HW216527   5.856   5.781   3.421
 5210SOL     OW16528   5.267   3.860   0.365
 5210SOL    HW116529   5.311   3.943   0.397
 5210SOL    HW216530   5.226   3.811   0.442
 5211SOL     OW16531   5.614   2.365   5.231
 5211SOL    HW116532   5.528   2.363   5.181
 5211SOL    HW216533   5.640   2.272   5.257
 5212SOL     OW16534   0.658   3.709   0.146
 5212SOL    HW116535   0.704   3.772   0.083
 5212SOL    HW216536   0.716   3.692   0.225
 5213SOL     OW16537   3.792   3.532   3.079
 5213SOL    HW116538   3.856   3.599   3.117
 5213SOL    HW216539   3.844   3.454   3.043
 5214SOL     OW16540   5.699   3.600   5.297
 5214SOL    HW116541   5.676   3.511   5.337
 5214SOL    HW216542   5.735   3.587   5.204
 5215SOL     OW16543   0.622   3.663   4.847
 5215SOL    HW116544   0.697   3.725   4.823
 5215SOL    HW216545   0.659   3.579   4.885
 5216SOL     OW16546   5.320   5.141   1.197
 5216SOL    HW116547   5.363   5.136   1.287
 5216SOL    HW216548   5.324   5.051   1.153
 5217SOL     OW16549   4.661   6.224   3.215
 5217SOL    HW116550   4.623   6.133   3.201
 5217SOL    HW216551   4.761   6.219   3.213
 5218SOL     OW16552   6.388   0.238   0.878
 5218SOL    HW116553   6.432   0.150   0.859
 5218SOL    HW216554   6.429   0.278   0.960
 5219SOL     OW16555   3.314   1.213   5.168
 5219SOL    HW116556   3.386   1.146   5.186
 5219SOL    HW216557   3.288   1.259   5.252
 5220SOL     OW16558   2.421   5.234   3.995
 5220SOL    HW116559   2.477   5.296   3.941
 5220SOL    HW216560   2.435   5.140   3.964
 5221SOL     OW16561   6.209   5.599   1.144
 5221SOL    HW116562   6.304   5.567   1.144
 5221SOL    HW216563   6.198   5.670   1.213
 5222SOL     OW16564   6.277   3.624   1.208
 5222SOL    HW116565   6.349   3.634   1.140
 5222SOL    HW216566   6.309   3.565   1.282
 5223SOL     OW16567   0.124   3.195   0.526
 5223SOL    HW116568   0.163   3.119   0.577
 5223SOL    HW216569   0.060   3.246   0.585
 5224SOL     OW16570   0.290   2.261   4.909
 5224SOL    HW116571   0.251   2.175   4.943
 5224SOL    HW216572   0.224   2.335   4.920
 5225SOL     OW16573   7.008   1.526   4.400
 5225SOL    HW116574   6.926   1.567   4.359
 5225SOL    HW216575   0.063   1.549   4.344
 5226SOL     OW16576   0.566   6.443   3.841
 5226SOL    HW116577   0.585   6.377   3.913
 5226SOL    HW216578   0.632   6.432   3.766
 5227SOL     OW16579   0.553   3.663   5.685
 5227SOL    HW116580   0.618   3.598   5.725
 5227SOL    HW216581   0.533   3.734   5.753
 5228SOL     OW16582   0.944   1.331   5.399
 5228SOL    HW116583   0.862   1.353   5.452
 5228SOL    HW216584   0.922   1.330   5.302
 5229SOL     OW16585   3.184   1.958   6.348
 5229SOL    HW116586   3.138   1.894   6.411
 5229SOL    HW216587   3.273   1.984   6.386
 5230SOL     OW16588   6.974   6.933   1.928
 5230SOL    HW116589   7.004   6.951   1.834
 5230SOL    HW216590   6.882   6.894   1.926
 5231SOL     OW16591   6.733   3.116   1.919
 5231SOL    HW116592   6.646   3.151   1.952
 5231SOL    HW216593   6.802   3.125   1.991
 5232SOL     OW16594   2.063   2.781   5.944
 5232SOL    HW116595   2.073   2.850   6.016
 5232SOL    HW216596   2.118   2.701   5.966
 5233SOL     OW16597   3.220   6.507   2.737
 5233SOL    HW116598   3.247   6.546   2.649
 5233SOL    HW216599   3.183   6.415   2.722
 5234SOL     OW16600   3.098   2.345   6.753
 5234SOL    HW116601   3.156   2.300   6.685
 5234SOL    HW216602   3.141   2.431   6.781
 5235SOL     OW16603   2.195   2.093   1.371
 5235SOL    HW116604   2.221   2.017   1.312
 5235SOL    HW216605   2.205   2.179   1.320
 5236SOL     OW16606   2.961   5.240   1.145
 5236SOL    HW116607   3.041   5.243   1.204
 5236SOL    HW216608   2.927   5.146   1.140
 5237SOL     OW16609   1.887   2.131   2.597
 5237SOL    HW116610   1.856   2.211   2.546
 5237SOL    HW216611   1.955   2.158   2.665
 5238SOL     OW16612   0.586   6.466   2.906
 5238SOL    HW116613   0.551   6.377   2.933
 5238SOL    HW216614   0.683   6.472   2.930
 5239SOL     OW16615   2.628   3.715   1.088
 5239SOL    HW116616   2.688   3.642   1.056
 5239SOL    HW216617   2.541   3.711   1.039
 5240SOL     OW16618   2.442   3.876   5.842
 5240SOL    HW116619   2.423   3.971   5.818
 5240SOL    HW216620   2.475   3.827   5.761
 5241SOL     OW16621   0.827   6.338   2.466
 5241SOL    HW116622   0.759   6.352   2.394
 5241SOL    HW216623   0.903   6.284   2.430
 5242SOL     OW16624   4.442   1.163   6.813
 5242SOL    HW116625   4.509   1.152   6.740
 5242SOL    HW216626   4.440   1.081   6.870
 5243SOL     OW16627   2.596   6.084   1.706
 5243SOL    HW116628   2.604   6.146   1.628
 5243SOL    HW216629   2.529   6.120   1.770
 5244SOL     OW16630   5.308   1.730   0.060
 5244SOL    HW116631   5.280   1.644   0.101
 5244SOL    HW216632   5.402   1.751   0.087
 5245SOL     OW16633   3.360   3.929   1.565
 5245SOL    HW116634   3.373   3.873   1.483
 5245SOL    HW216635   3.262   3.940   1.582
 5246SOL     OW16636   6.840   4.406   6.352
 5246SOL    HW116637   6.755   4.420   6.301
 5246SOL    HW216638   6.874   4.494   6.386
 5247SOL     OW16639   4.041   2.027   6.363
 5247SOL    HW116640   4.001   1.938   6.384
 5247SOL    HW216641   4.006   2.060   6.275
 5248SOL     OW16642   5.590   1.015   3.378
 5248SOL    HW116643   5.591   1.109   3.344
 5248SOL    HW216644   5.516   1.004   3.444
 5249SOL     OW16645   0.493   4.674   0.314
 5249SOL    HW116646   0.438   4.662   0.396
 5249SOL    HW216647   0.496   4.771   0.289
 5250SOL     OW16648   1.844   5.874   1.144
 5250SOL    HW116649   1.937   5.911   1.152
 5250SOL    HW216650   1.779   5.950   1.135
 5251SOL     OW16651   0.730   5.065   0.471
 5251SOL    HW116652   0.743   5.092   0.567
 5251SOL    HW216653   0.782   5.126   0.412
 5252SOL     OW16654   3.700   6.397   2.515
 5252SOL    HW116655   3.779   6.339   2.535
 5252SOL    HW216656   3.693   6.411   2.417
 5253SOL     OW16657   6.569   5.741   5.014
 5253SOL    HW116658   6.476   5.778   5.007
 5253SOL    HW216659   6.580   5.693   5.101
 5254SOL     OW16660   5.044   6.541   3.618
 5254SOL    HW116661   5.015   6.522   3.524
 5254SOL    HW216662   5.127   6.490   3.639
 5255SOL     OW16663   6.481   1.579   5.022
 5255SOL    HW116664   6.516   1.660   4.975
 5255SOL    HW216665   6.554   1.540   5.078
 5256SOL     OW16666   6.728   1.634   2.208
 5256SOL    HW116667   6.824   1.610   2.193
 5256SOL    HW216668   6.676   1.550   2.221
 5257SOL     OW16669   4.152   1.546   6.031
 5257SOL    HW116670   4.233   1.489   6.018
 5257SOL    HW216671   4.089   1.501   6.094
 5258SOL     OW16672   4.262   1.075   3.391
 5258SOL    HW116673   4.234   1.146   3.456
 5258SOL    HW216674   4.318   1.116   3.320
 5259SOL     OW16675   6.434   5.034   3.899
 5259SOL    HW116676   6.466   5.082   3.982
 5259SOL    HW216677   6.454   4.937   3.908
 5260SOL     OW16678   2.004   0.796   0.997
 5260SOL    HW116679   1.920   0.826   0.952
 5260SOL    HW216680   2.069   0.764   0.927
 5261SOL     OW16681   5.843   4.360   6.468
 5261SOL    HW116682   5.868   4.438   6.411
 5261SOL    HW216683   5.791   4.393   6.547
 5262SOL     OW16684   1.587   1.528   2.494
 5262SOL    HW116685   1.506   1.498   2.544
 5262SOL    HW216686   1.642   1.589   2.552
 5263SOL     OW16687   1.609   6.393   2.377
 5263SOL    HW116688   1.638   6.405   2.472
 5263SOL    HW216689   1.671   6.443   2.317
 5264SOL     OW16690   6.414   1.384   1.744
 5264SOL    HW116691   6.423   1.483   1.750
 5264SOL    HW216692   6.344   1.360   1.677
 5265SOL     OW16693   6.814   4.744   5.376
 5265SOL    HW116694   6.815   4.649   5.345
 5265SOL    HW216695   6.881   4.756   5.449
 5266SOL     OW16696   1.836   0.684   6.401
 5266SOL    HW116697   1.848   0.611   6.468
 5266SOL    HW216698   1.884   0.766   6.432
 5267SOL     OW16699   5.304   2.479   4.083
 5267SOL    HW116700   5.237   2.539   4.127
 5267SOL    HW216701   5.317   2.397   4.139
 5268SOL     OW16702   5.310   0.108   5.827
 5268SOL    HW116703   5.283   0.140   5.736
 5268SOL    HW216704   5.407   0.130   5.842
 5269SOL     OW16705   0.330   6.898   3.500
 5269SOL    HW116706   0.277   6.980   3.523
 5269SOL    HW216707   0.352   6.849   3.584
 5270SOL     OW16708   0.679   1.103   6.278
 5270SOL    HW116709   0.760   1.161   6.285
 5270SOL    HW216710   0.632   1.101   6.366
 5271SOL     OW16711   0.699   5.225   3.166
 5271SOL    HW116712   0.619   5.273   3.200
 5271SOL    HW216713   0.712   5.245   3.069
 5272SOL     OW16714   4.393   0.243   6.771
 5272SOL    HW116715   4.405   0.244   6.871
 5272SOL    HW216716   4.430   0.158   6.734
 5273SOL     OW16717   2.291   1.932   2.515
 5273SOL    HW116718   2.383   1.902   2.493
 5273SOL    HW216719   2.294   1.996   2.592
 5274SOL     OW16720   5.360   4.887   1.126
 5274SOL    HW116721   5.410   4.917   1.045
 5274SOL    HW216722   5.415   4.821   1.177
 5275SOL     OW16723   4.526   2.061   6.661
 5275SOL    HW116724   4.609   2.058   6.605
 5275SOL    HW216725   4.455   2.113   6.614
 5276SOL     OW16726   4.280   6.761   1.437
 5276SOL    HW116727   4.309   6.798   1.525
 5276SOL    HW216728   4.317   6.818   1.363
 5277SOL     OW16729   2.008   3.198   1.801
 5277SOL    HW116730   2.107   3.211   1.802
 5277SOL    HW216731   1.965   3.262   1.864
 5278SOL     OW16732   4.348   3.668   1.577
 5278SOL    HW116733   4.358   3.571   1.559
 5278SOL    HW216734   4.432   3.704   1.617
 5279SOL     OW16735   2.087   5.987   2.691
 5279SOL    HW116736   2.092   6.032   2.602
 5279SOL    HW216737   1.996   5.949   2.705
 5280SOL     OW16738   4.370   6.895   5.277
 5280SOL    HW116739   4.451   6.855   5.235
 5280SOL    HW216740   4.380   6.995   5.280
 5281SOL     OW16741   0.122   3.223   2.459
 5281SOL    HW116742   0.120   3.130   2.424
 5281SOL    HW216743   0.031   3.247   2.494
 5282SOL     OW16744   4.781   1.629   1.930
 5282SOL    HW116745   4.826   1.579   1.856
 5282SOL    HW216746   4.688   1.594   1.941
 5283SOL     OW16747   5.494   5.487   6.285
 5283SOL    HW116748   5.512   5.398   6.328
 5283SOL    HW216749   5.528   5.560   6.344
 5284SOL     OW16750   4.963   2.569   3.453
 5284SOL    HW116751   4.998   2.581   3.360
 5284SOL    HW216752   5.040   2.554   3.515
 5285SOL     OW16753   3.785   5.811   2.509
 5285SOL    HW116754   3.861   5.758   2.474
 5285SOL    HW216755   3.699   5.761   2.495
 5286SOL     OW16756   2.758   5.273   2.149
 5286SOL    HW116757   2.774   5.360   2.103
 5286SOL    HW216758   2.832   5.210   2.128
 5287SOL     OW16759   0.456   1.817   1.905
 5287SOL    HW116760   0.373   1.801   1.958
 5287SOL    HW216761   0.445   1.900   1.850
 5288SOL     OW16762   4.245   1.197   0.543
 5288SOL    HW116763   4.322   1.138   0.565
 5288SOL    HW216764   4.199   1.163   0.461
 5289SOL     OW16765   2.793   6.256   0.811
 5289SOL    HW116766   2.735   6.327   0.770
 5289SOL    HW216767   2.822   6.192   0.741
 5290SOL     OW16768   4.718   5.825   0.772
 5290SOL    HW116769   4.745   5.828   0.868
 5290SOL    HW216770   4.695   5.918   0.742
 5291SOL     OW16771   1.674   4.635   6.744
 5291SOL    HW116772   1.646   4.644   6.840
 5291SOL    HW216773   1.608   4.681   6.685
 5292SOL     OW16774   5.328   2.527   6.535
 5292SOL    HW116775   5.261   2.474   6.484
 5292SOL    HW216776   5.310   2.519   6.633
 5293SOL     OW16777   1.395   1.468   4.111
 5293SOL    HW116778   1.362   1.544   4.167
 5293SOL    HW216779   1.332   1.454   4.034
 5294SOL     OW16780   4.862   2.688   5.384
 5294SOL    HW116781   4.797   2.734   5.323
 5294SOL    HW216782   4.868   2.738   5.471
 5295SOL     OW16783   5.621   1.014   2.295
 5295SOL    HW116784   5.606   1.053   2.386
 5295SOL    HW216785   5.685   1.072   2.245
 5296SOL     OW16786   0.411   3.554   0.711
 5296SOL    HW116787   0.384   3.647   0.684
 5296SOL    HW216788   0.388   3.490   0.637
 5297SOL     OW16789   1.741   3.065   2.010
 5297SOL    HW116790   1.784   3.155   2.012
 5297SOL    HW216791   1.652   3.070   2.056
 5298SOL     OW16792   1.363   5.670   1.625
 5298SOL    HW116793   1.399   5.581   1.654
 5298SOL    HW216794   1.269   5.659   1.592
 5299SOL     OW16795   3.288   0.300   1.530
 5299SOL    HW116796   3.241   0.378   1.488
 5299SOL    HW216797   3.314   0.323   1.624
 5300SOL     OW16798   6.686   5.347   3.644
 5300SOL    HW116799   6.653   5.424   3.590
 5300SOL    HW216800   6.634   5.265   3.620
 5301SOL     OW16801   4.817   0.471   0.426
 5301SOL    HW116802   4.765   0.513   0.352
 5301SOL    HW216803   4.842   0.541   0.493
 5302SOL     OW16804   6.543   4.829   3.471
 5302SOL    HW116805   6.578   4.919   3.494
 5302SOL    HW216806   6.489   4.834   3.387
 5303SOL     OW16807   0.461   5.329   3.234
 5303SOL    HW116808   0.373   5.307   3.193
 5303SOL    HW216809   0.465   5.427   3.253
 5304SOL     OW16810   5.026   2.258   5.161
 5304SOL    HW116811   5.034   2.358   5.167
 5304SOL    HW216812   4.981   2.223   5.242
 5305SOL     OW16813   2.638   0.995   2.673
 5305SOL    HW116814   2.638   1.032   2.580
 5305SOL    HW216815   2.569   0.922   2.680
 5306SOL     OW16816   2.695   6.863   4.745
 5306SOL    HW116817   2.601   6.841   4.718
 5306SOL    HW216818   2.717   6.816   4.831
 5307SOL     OW16819   4.645   0.038   6.990
 5307SOL    HW116820   4.690   0.058   0.052
 5307SOL    HW216821   4.563   7.009   7.007
 5308SOL     OW16822   7.022   1.300   2.290
 5308SOL    HW116823   6.933   1.263   2.317
 5308SOL    HW216824   7.023   1.399   2.307
 5309SOL     OW16825   3.991   3.871   4.079
 5309SOL    HW116826   3.974   3.773   4.067
 5309SOL    HW216827   4.007   3.913   3.990
 5310SOL     OW16828   5.827   1.904   0.416
 5310SOL    HW116829   5.829   1.945   0.507
 5310SOL    HW216830   5.801   1.973   0.348
 5311SOL     OW16831   1.827   5.687   0.048
 5311SOL    HW116832   1.746   5.632   0.034
 5311SOL    HW216833   1.904   5.629   0.075
 5312SOL     OW16834   0.434   3.105   1.800
 5312SOL    HW116835   0.414   3.017   1.757
 5312SOL    HW216836   0.460   3.090   1.896
 5313SOL     OW16837   1.228   5.732   0.795
 5313SOL    HW116838   1.202   5.646   0.750
 5313SOL    HW216839   1.148   5.773   0.839
 5314SOL     OW16840   3.594   4.571   0.867
 5314SOL    HW116841   3.676   4.562   0.923
 5314SOL    HW216842   3.549   4.657   0.887
 5315SOL     OW16843   5.142   2.791   2.004
 5315SOL    HW116844   5.129   2.756   1.911
 5315SOL    HW216845   5.053   2.793   2.051
 5316SOL     OW16846   6.099   5.258   4.880
 5316SOL    HW116847   6.125   5.176   4.829
 5316SOL    HW216848   6.002   5.253   4.905
 5317SOL     OW16849   6.014   5.470   2.934
 5317SOL    HW116850   5.947   5.544   2.934
 5317SOL    HW216851   6.060   5.466   2.846
 5318SOL     OW16852   0.666   2.369   4.408
 5318SOL    HW116853   0.570   2.379   4.433
 5318SOL    HW216854   0.707   2.294   4.459
 5319SOL     OW16855   3.612   0.340   1.329
 5319SOL    HW116856   3.555   0.259   1.345
 5319SOL    HW216857   3.646   0.337   1.235
 5320SOL     OW16858   6.481   3.836   5.174
 5320SOL    HW116859   6.478   3.868   5.269
 5320SOL    HW216860   6.388   3.828   5.139
 5321SOL     OW16861   1.461   5.071   6.187
 5321SOL    HW116862   1.467   4.999   6.118
 5321SOL    HW216863   1.487   5.159   6.146
 5322SOL     OW16864   3.143   6.205   0.986
 5322SOL    HW116865   3.108   6.178   1.076
 5322SOL    HW216866   3.155   6.123   0.930
 5323SOL     OW16867   6.100   3.668   0.336
 5323SOL    HW116868   6.187   3.675   0.384
 5323SOL    HW216869   6.036   3.735   0.373
 5324SOL     OW16870   3.900   3.189   1.653
 5324SOL    HW116871   3.934   3.101   1.687
 5324SOL    HW216872   3.813   3.175   1.606
 5325SOL     OW16873   4.545   5.850   4.544
 5325SOL    HW116874   4.615   5.920   4.539
 5325SOL    HW216875   4.461   5.889   4.584
 5326SOL     OW16876   0.336   0.135   2.285
 5326SOL    HW116877   0.431   0.114   2.307
 5326SOL    HW216878   0.292   0.179   2.364
 5327SOL     OW16879   6.768   0.687   4.212
 5327SOL    HW116880   6.812   0.612   4.161
 5327SOL    HW216881   6.724   0.749   4.147
 5328SOL     OW16882   3.809   5.100   1.003
 5328SOL    HW116883   3.843   5.021   1.053
 5328SOL    HW216884   3.758   5.159   1.066
 5329SOL     OW16885   6.754   5.650   0.372
 5329SOL    HW116886   6.694   5.660   0.451
 5329SOL    HW216887   6.819   5.726   0.369
 5330SOL     OW16888   3.555   4.693   0.166
 5330SOL    HW116889   3.592   4.616   0.217
 5330SOL    HW216890   3.626   4.762   0.153
 5331SOL     OW16891   4.887   2.765   6.430
 5331SOL    HW116892   4.833   2.850   6.424
 5331SOL    HW216893   4.911   2.748   6.526
 5332SOL     OW16894   5.857   3.327   0.259
 5332SOL    HW116895   5.774   3.366   0.299
 5332SOL    HW216896   5.937   3.358   0.312
 5333SOL     OW16897   1.450   1.955   4.421
 5333SOL    HW116898   1.483   1.878   4.476
 5333SOL    HW216899   1.501   2.038   4.445
 5334SOL     OW16900   3.353   6.014   1.862
 5334SOL    HW116901   3.448   6.028   1.833
 5334SOL    HW216902   3.306   5.958   1.794
 5335SOL     OW16903   0.189   4.649   1.512
 5335SOL    HW116904   0.193   4.695   1.424
 5335SOL    HW216905   0.281   4.642   1.551
 5336SOL     OW16906   1.745   2.778   4.989
 5336SOL    HW116907   1.833   2.788   4.942
 5336SOL    HW216908   1.737   2.848   5.059
 5337SOL     OW16909   6.587   4.488   0.955
 5337SOL    HW116910   6.498   4.532   0.944
 5337SOL    HW216911   6.637   4.493   0.869
 5338SOL     OW16912   6.485   3.899   0.134
 5338SOL    HW116913   6.554   3.967   0.156
 5338SOL    HW216914   6.465   3.844   0.215
 5339SOL     OW16915   5.582   3.239   2.430
 5339SOL    HW116916   5.604   3.141   2.429
 5339SOL    HW216917   5.514   3.258   2.359
 5340SOL     OW16918   4.800   3.401   1.781
 5340SOL    HW116919   4.733   3.367   1.715
 5340SOL    HW216920   4.861   3.327   1.809
 5341SOL     OW16921   4.527   4.552   3.558
 5341SOL    HW116922   4.484   4.603   3.484
 5341SOL    HW216923   4.548   4.614   3.634
 5342SOL     OW16924   6.144   5.888   5.121
 5342SOL    HW116925   6.197   5.853   5.044
 5342SOL    HW216926   6.207   5.918   5.193
 5343SOL     OW16927   3.901   3.135   6.414
 5343SOL    HW116928   3.998   3.134   6.438
 5343SOL    HW216929   3.890   3.114   6.317
 5344SOL     OW16930   0.158   1.612   6.633
 5344SOL    HW116931   0.210   1.589   6.550
 5344SOL    HW216932   0.199   1.693   6.676
 5345SOL     OW16933   5.128   1.410   6.266
 5345SOL    HW116934   5.052   1.475   6.270
 5345SOL    HW216935   5.095   1.322   6.233
 5346SOL     OW16936   3.249   5.707   2.999
 5346SOL    HW116937   3.339   5.735   3.032
 5346SOL    HW216938   3.181   5.776   3.025
 5347SOL     OW16939   5.544   1.624   4.187
 5347SOL    HW116940   5.609   1.689   4.148
 5347SOL    HW216941   5.482   1.672   4.250
 5348SOL     OW16942   5.147   2.807   4.894
 5348SOL    HW116943   5.054   2.822   4.925
 5348SOL    HW216944   5.184   2.723   4.934
 5349SOL     OW16945   1.264   3.569   1.680
 5349SOL    HW116946   1.170   3.535   1.673
 5349SOL    HW216947   1.269   3.641   1.749
 5350SOL     OW16948   1.393   6.071   0.021
 5350SOL    HW116949   1.458   6.016   6.994
 5350SOL    HW216950   1.441   6.148   0.062
 5351SOL     OW16951   6.491   6.043   3.429
 5351SOL    HW116952   6.402   6.008   3.398
 5351SOL    HW216953   6.498   6.034   3.528
 5352SOL     OW16954   1.396   3.007   5.942
 5352SOL    HW116955   1.447   2.951   5.877
 5352SOL    HW216956   1.427   3.102   5.938
 5353SOL     OW16957   4.016   4.807   3.306
 5353SOL    HW116958   4.053   4.826   3.397
 5353SOL    HW216959   4.090   4.780   3.244
 5354SOL     OW16960   3.944   5.736   1.603
 5354SOL    HW116961   3.922   5.652   1.553
 5354SOL    HW216962   4.002   5.714   1.682
 5355SOL     OW16963   5.416   5.485   5.263
 5355SOL    HW116964   5.368   5.573   5.272
 5355SOL    HW216965   5.359   5.412   5.301
 5356SOL     OW16966   1.080   6.343   0.944
 5356SOL    HW116967   1.148   6.369   0.876
 5356SOL    HW216968   1.082   6.406   1.021
 5357SOL     OW16969   6.429   4.092   2.722
 5357SOL    HW116970   6.430   4.178   2.772
 5357SOL    HW216971   6.335   4.063   2.706
 5358SOL     OW16972   5.221   1.229   6.743
 5358SOL    HW116973   5.256   1.136   6.734
 5358SOL    HW216974   5.122   1.228   6.747
 5359SOL     OW16975   3.529   2.466   6.823
 5359SOL    HW116976   3.624   2.444   6.799
 5359SOL    HW216977   3.486   2.386   6.864
 5360SOL     OW16978   5.804   4.935   3.986
 5360SOL    HW116979   5.759   5.017   4.023
 5360SOL    HW216980   5.867   4.898   4.055
 5361SOL     OW16981   1.145   5.041   2.670
 5361SOL    HW116982   1.224   4.987   2.641
 5361SOL    HW216983   1.075   5.039   2.598
 5362SOL     OW16984   5.729   1.653   2.644
 5362SOL    HW116985   5.741   1.729   2.708
 5362SOL    HW216986   5.706   1.570   2.696
 5363SOL     OW16987   5.224   5.508   3.596
 5363SOL    HW116988   5.225   5.446   3.674
 5363SOL    HW216989   5.288   5.582   3.611
 5364SOL     OW16990   3.972   1.717   2.700
 5364SOL    HW116991   4.072   1.709   2.693
 5364SOL    HW216992   3.934   1.730   2.609
 5365SOL     OW16993   3.123   3.351   4.606
 5365SOL    HW116994   3.092   3.262   4.575
 5365SOL    HW216995   3.050   3.395   4.659
 5366SOL     OW16996   6.197   6.055   3.382
 5366SOL    HW116997   6.210   6.142   3.335
 5366SOL    HW216998   6.205   5.980   3.316
 5367SOL     OW16999   6.128   5.893   1.574
 5367SOL    HW117000   6.060   5.893   1.501
 5367SOL    HW217001   6.136   5.801   1.612
 5368SOL     OW17002   0.086   6.122   4.487
 5368SOL    HW117003   0.107   6.220   4.483
 5368SOL    HW217004   0.155   6.071   4.435
 5369SOL     OW17005   4.198   5.986   2.978
 5369SOL    HW117006   4.160   6.004   3.068
 5369SOL    HW217007   4.257   6.062   2.951
 5370SOL     OW17008   1.912   3.278   0.548
 5370SOL    HW117009   1.854   3.210   0.592
 5370SOL    HW217010   1.946   3.343   0.616
 5371SOL     OW17011   6.286   5.831   4.682
 5371SOL    HW117012   6.377   5.826   4.642
 5371SOL    HW217013   6.220   5.859   4.612
 5372SOL     OW17014   1.742   6.957   3.200
 5372SOL    HW117015   1.737   6.948   3.300
 5372SOL    HW217016   1.831   6.925   3.168
 5373SOL     OW17017   2.360   1.115   6.360
 5373SOL    HW117018   2.304   1.033   6.370
 5373SOL    HW217019   2.435   1.113   6.427
 5374SOL     OW17020   1.580   3.840   1.685
 5374SOL    HW117021   1.627   3.785   1.616
 5374SOL    HW217022   1.517   3.903   1.639
 5375SOL     OW17023   2.450   4.365   5.295
 5375SOL    HW117024   2.392   4.433   5.341
 5375SOL    HW217025   2.423   4.273   5.325
 5376SOL     OW17026   0.684   7.007   6.597
 5376SOL    HW117027   0.770   6.967   6.631
 5376SOL    HW217028   0.654   6.957   6.516
 5377SOL     OW17029   1.016   1.785   3.025
 5377SOL    HW117030   1.050   1.841   3.100
 5377SOL    HW217031   0.918   1.800   3.012
 5378SOL     OW17032   4.511   6.975   2.561
 5378SOL    HW117033   4.555   6.894   2.523
 5378SOL    HW217034   4.519   0.026   2.496
 5379SOL     OW17035   1.994   1.839   3.948
 5379SOL    HW117036   2.058   1.915   3.958
 5379SOL    HW217037   1.915   1.855   4.006
 5380SOL     OW17038   4.550   5.842   1.571
 5380SOL    HW117039   4.520   5.915   1.633
 5380SOL    HW217040   4.572   5.881   1.482
 5381SOL     OW17041   3.003   0.851   3.308
 5381SOL    HW117042   3.087   0.867   3.257
 5381SOL    HW217043   2.954   0.938   3.319
 5382SOL     OW17044   4.666   0.865   3.043
 5382SOL    HW117045   4.729   0.852   2.966
 5382SOL    HW217046   4.599   0.791   3.045
 5383SOL     OW17047   2.235   2.828   4.481
 5383SOL    HW117048   2.171   2.776   4.425
 5383SOL    HW217049   2.311   2.769   4.509
 5384SOL     OW17050   5.242   5.744   5.613
 5384SOL    HW117051   5.162   5.684   5.608
 5384SOL    HW217052   5.219   5.828   5.662
 5385SOL     OW17053   4.337   3.629   6.421
 5385SOL    HW117054   4.414   3.595   6.367
 5385SOL    HW217055   4.371   3.698   6.486
 5386SOL     OW17056   4.452   4.503   3.945
 5386SOL    HW117057   4.454   4.526   4.042
 5386SOL    HW217058   4.370   4.449   3.925
 5387SOL     OW17059   1.187   1.522   3.938
 5387SOL    HW117060   1.143   1.611   3.949
 5387SOL    HW217061   1.144   1.473   3.862
 5388SOL     OW17062   6.660   6.653   4.124
 5388SOL    HW117063   6.709   6.607   4.197
 5388SOL    HW217064   6.566   6.619   4.121
 5389SOL     OW17065   5.329   1.155   4.074
 5389SOL    HW117066   5.349   1.243   4.031
 5389SOL    HW217067   5.362   1.081   4.016
 5390SOL     OW17068   6.999   3.836   3.532
 5390SOL    HW117069   6.985   3.815   3.629
 5390SOL    HW217070   6.918   3.810   3.481
 5391SOL     OW17071   3.121   2.646   0.897
 5391SOL    HW117072   3.032   2.628   0.938
 5391SOL    HW217073   3.122   2.615   0.802
 5392SOL     OW17074   5.580   0.752   4.404
 5392SOL    HW117075   5.599   0.656   4.382
 5392SOL    HW217076   5.492   0.778   4.364
 5393SOL     OW17077   4.112   1.662   3.696
 5393SOL    HW117078   4.014   1.646   3.684
 5393SOL    HW217079   4.134   1.757   3.672
 5394SOL     OW17080   0.358   2.874   1.717
 5394SOL    HW117081   0.422   2.823   1.775
 5394SOL    HW217082   0.356   2.834   1.626
 5395SOL     OW17083   6.870   1.648   0.783
 5395SOL    HW117084   6.829   1.558   0.799
 5395SOL    HW217085   6.799   1.718   0.792
 5396SOL     OW17086   4.321   3.299   0.674
 5396SOL    HW117087   4.353   3.368   0.739
 5396SOL    HW217088   4.221   3.303   0.669
 5397SOL     OW17089   6.804   0.410   2.839
 5397SOL    HW117090   6.806   0.475   2.915
 5397SOL    HW217091   6.881   0.428   2.778
 5398SOL     OW17092   0.017   3.644   2.454
 5398SOL    HW117093   6.968   3.709   2.442
 5398SOL    HW217094   0.032   3.629   2.552
 5399SOL     OW17095   1.829   3.052   0.872
 5399SOL    HW117096   1.843   2.958   0.900
 5399SOL    HW217097   1.775   3.100   0.941
 5400SOL     OW17098   4.898   3.192   1.586
 5400SOL    HW117099   4.930   3.169   1.678
 5400SOL    HW217100   4.804   3.224   1.590
 5401SOL     OW17101   5.514   2.699   1.427
 5401SOL    HW117102   5.491   2.623   1.488
 5401SOL    HW217103   5.565   2.664   1.348
 5402SOL     OW17104   1.339   5.857   2.643
 5402SOL    HW117105   1.310   5.775   2.694
 5402SOL    HW217106   1.276   5.872   2.566
 5403SOL     OW17107   5.207   2.581   6.784
 5403SOL    HW117108   5.273   2.601   6.857
 5403SOL    HW217109   5.142   2.512   6.815
 5404SOL     OW17110   5.124   6.914   6.864
 5404SOL    HW117111   5.167   6.989   6.813
 5404SOL    HW217112   5.073   6.951   6.941
 5405SOL     OW17113   0.331   5.038   0.050
 5405SOL    HW117114   0.358   5.059   0.144
 5405SOL    HW217115   0.409   5.000   0.001
 5406SOL     OW17116   2.343   1.174   5.865
 5406SOL    HW117117   2.244   1.184   5.861
 5406SOL    HW217118   2.370   1.150   5.958
 5407SOL     OW17119   1.197   6.568   3.717
 5407SOL    HW117120   1.277   6.543   3.771
 5407SOL    HW217121   1.173   6.663   3.734
 5408SOL     OW17122   2.770   1.864   4.528
 5408SOL    HW117123   2.700   1.811   4.577
 5408SOL    HW217124   2.859   1.847   4.569
 5409SOL     OW17125   1.003   2.478   2.223
 5409SOL    HW117126   1.040   2.400   2.273
 5409SOL    HW217127   1.072   2.550   2.217
 5410SOL     OW17128   6.231   2.851   0.738
 5410SOL    HW117129   6.312   2.901   0.709
 5410SOL    HW217130   6.162   2.916   0.772
 5411SOL     OW17131   3.761   5.563   0.248
 5411SOL    HW117132   3.748   5.655   0.212
 5411SOL    HW217133   3.858   5.549   0.269
 5412SOL     OW17134   0.596   2.281   5.497
 5412SOL    HW117135   0.690   2.247   5.494
 5412SOL    HW217136   0.595   2.370   5.543
 5413SOL     OW17137   0.923   4.956   4.731
 5413SOL    HW117138   0.863   4.879   4.709
 5413SOL    HW217139   0.878   5.014   4.799
 5414SOL     OW17140   5.648   4.334   5.434
 5414SOL    HW117141   5.693   4.253   5.472
 5414SOL    HW217142   5.704   4.371   5.360
 5415SOL     OW17143   2.579   1.159   0.380
 5415SOL    HW117144   2.491   1.207   0.379
 5415SOL    HW217145   2.598   1.122   0.289
 5416SOL     OW17146   3.312   5.388   6.961
 5416SOL    HW117147   3.385   5.453   6.984
 5416SOL    HW217148   3.303   5.382   6.862
 5417SOL     OW17149   5.109   6.936   3.888
 5417SOL    HW117150   5.202   6.908   3.913
 5417SOL    HW217151   5.114   7.007   3.818
 5418SOL     OW17152   6.906   3.063   5.301
 5418SOL    HW117153   6.922   2.997   5.228
 5418SOL    HW217154   6.824   3.116   5.279
 5419SOL     OW17155   3.953   1.795   6.459
 5419SOL    HW117156   3.910   1.718   6.410
 5419SOL    HW217157   4.023   1.759   6.520
 5420SOL     OW17158   1.643   2.246   1.802
 5420SOL    HW117159   1.681   2.251   1.710
 5420SOL    HW217160   1.674   2.162   1.846
 5421SOL     OW17161   3.810   5.356   2.089
 5421SOL    HW117162   3.722   5.335   2.131
 5421SOL    HW217163   3.855   5.272   2.061
 5422SOL     OW17164   2.565   5.012   3.916
 5422SOL    HW117165   2.559   4.944   3.989
 5422SOL    HW217166   2.650   5.000   3.865
 5423SOL     OW17167   4.860   6.875   1.634
 5423SOL    HW117168   4.793   6.835   1.571
 5423SOL    HW217169   4.839   6.971   1.648
 5424SOL     OW17170   4.208   3.957   5.310
 5424SOL    HW117171   4.218   3.898   5.390
 5424SOL    HW217172   4.172   3.903   5.234
 5425SOL     OW17173   1.264   4.419   6.185
 5425SOL    HW117174   1.173   4.393   6.215
 5425SOL    HW217175   1.329   4.407   6.261
 5426SOL     OW17176   6.678   4.924   1.554
 5426SOL    HW117177   6.727   4.844   1.587
 5426SOL    HW217178   6.588   4.928   1.597
 5427SOL     OW17179   4.564   3.289   0.557
 5427SOL    HW117180   4.465   3.291   0.573
 5427SOL    HW217181   4.591   3.199   0.523
 5428SOL     OW17182   5.256   4.859   3.291
 5428SOL    HW117183   5.269   4.812   3.378
 5428SOL    HW217184   5.247   4.792   3.217
 5429SOL     OW17185   3.189   6.995   4.358
 5429SOL    HW117186   3.246   0.014   4.427
 5429SOL    HW217187   3.107   6.957   4.401
 5430SOL     OW17188   2.072   3.830   5.534
 5430SOL    HW117189   1.998   3.896   5.525
 5430SOL    HW217190   2.044   3.756   5.595
 5431SOL     OW17191   4.823   4.641   0.416
 5431SOL    HW117192   4.822   4.550   0.456
 5431SOL    HW217193   4.744   4.693   0.449
 5432SOL     OW17194   0.552   5.266   6.560
 5432SOL    HW117195   0.593   5.241   6.472
 5432SOL    HW217196   0.470   5.320   6.544
 5433SOL     OW17197   3.882   6.974   1.515
 5433SOL    HW117198   3.892   6.942   1.609
 5433SOL    HW217199   3.786   6.974   1.489
 5434SOL     OW17200   4.807   0.058   4.225
 5434SOL    HW117201   4.828   0.071   4.128
 5434SOL    HW217202   4.874   0.107   4.281
 5435SOL     OW17203   6.562   5.014   0.066
 5435SOL    HW117204   6.550   4.990   0.162
 5435SOL    HW217205   6.659   5.011   0.042
 5436SOL     OW17206   1.906   4.761   2.277
 5436SOL    HW117207   1.973   4.816   2.327
 5436SOL    HW217208   1.949   4.720   2.196
 5437SOL     OW17209   3.512   6.537   0.798
 5437SOL    HW117210   3.559   6.470   0.740
 5437SOL    HW217211   3.571   6.617   0.812
 5438SOL     OW17212   4.330   6.500   1.468
 5438SOL    HW117213   4.276   6.423   1.435
 5438SOL    HW217214   4.274   6.583   1.467
 5439SOL     OW17215   1.206   4.055   1.009
 5439SOL    HW117216   1.231   4.057   1.105
 5439SOL    HW217217   1.123   4.000   0.997
 5440SOL     OW17218   5.551   6.344   3.756
 5440SOL    HW117219   5.499   6.261   3.741
 5440SOL    HW217220   5.532   6.410   3.683
 5441SOL     OW17221   5.656   2.197   4.449
 5441SOL    HW117222   5.698   2.257   4.517
 5441SOL    HW217223   5.721   2.126   4.422
 5442SOL     OW17224   2.501   0.426   6.616
 5442SOL    HW117225   2.506   0.486   6.695
 5442SOL    HW217226   2.593   0.391   6.595
 5443SOL     OW17227   5.532   0.846   3.137
 5443SOL    HW117228   5.495   0.906   3.209
 5443SOL    HW217229   5.610   0.795   3.173
 5444SOL     OW17230   6.862   1.441   6.445
 5444SOL    HW117231   6.885   1.350   6.478
 5444SOL    HW217232   6.853   1.504   6.522
 5445SOL     OW17233   6.070   6.467   5.866
 5445SOL    HW117234   6.062   6.422   5.955
 5445SOL    HW217235   5.979   6.488   5.830
 5446SOL     OW17236   0.617   4.321   5.957
 5446SOL    HW117237   0.597   4.414   5.926
 5446SOL    HW217238   0.531   4.272   5.972
 5447SOL     OW17239   6.847   1.535   1.573
 5447SOL    HW117240   6.924   1.597   1.562
 5447SOL    HW217241   6.769   1.584   1.612
 5448SOL     OW17242   5.596   5.007   2.408
 5448SOL    HW117243   5.582   4.966   2.499
 5448SOL    HW217244   5.691   4.994   2.380
 5449SOL     OW17245   2.705   0.761   1.390
 5449SOL    HW117246   2.710   0.824   1.313
 5449SOL    HW217247   2.647   0.683   1.367
 5450SOL     OW17248   4.705   6.141   2.132
 5450SOL    HW117249   4.765   6.155   2.211
 5450SOL    HW217250   4.638   6.070   2.154
 5451SOL     OW17251   6.391   6.425   3.693
 5451SOL    HW117252   6.375   6.448   3.597
 5451SOL    HW217253   6.489   6.419   3.711
 5452SOL     OW17254   2.181   4.295   3.027
 5452SOL    HW117255   2.276   4.315   3.003
 5452SOL    HW217256   2.153   4.210   2.982
 5453SOL     OW17257   6.405   4.632   4.348
 5453SOL    HW117258   6.374   4.695   4.278
 5453SOL    HW217259   6.402   4.538   4.312
 5454SOL     OW17260   6.095   4.417   3.491
 5454SOL    HW117261   6.074   4.356   3.414
 5454SOL    HW217262   6.009   4.445   3.535
 5455SOL     OW17263   2.680   1.909   3.477
 5455SOL    HW117264   2.644   1.847   3.546
 5455SOL    HW217265   2.651   1.879   3.386
 5456SOL     OW17266   5.980   2.538   0.608
 5456SOL    HW117267   5.985   2.612   0.675
 5456SOL    HW217268   5.890   2.493   0.615
 5457SOL     OW17269   6.072   1.124   6.559
 5457SOL    HW117270   6.100   1.193   6.493
 5457SOL    HW217271   6.093   1.033   6.524
 5458SOL     OW17272   5.488   4.419   6.921
 5458SOL    HW117273   5.396   4.445   6.891
 5458SOL    HW217274   5.525   4.490   6.980
 5459SOL     OW17275   2.068   3.166   4.684
 5459SOL    HW117276   2.130   3.120   4.748
 5459SOL    HW217277   1.974   3.161   4.719
 5460SOL     OW17278   0.489   0.757   1.449
 5460SOL    HW117279   0.451   0.684   1.392
 5460SOL    HW217280   0.446   0.844   1.425
 5461SOL     OW17281   6.485   1.340   5.977
 5461SOL    HW117282   6.570   1.292   6.000
 5461SOL    HW217283   6.477   1.348   5.877
 5462SOL     OW17284   5.061   4.767   6.539
 5462SOL    HW117285   5.098   4.773   6.446
 5462SOL    HW217286   5.002   4.687   6.546
 5463SOL     OW17287   0.778   3.501   6.046
 5463SOL    HW117288   0.726   3.574   6.092
 5463SOL    HW217289   0.780   3.420   6.105
 5464SOL     OW17290   1.696   5.419   5.616
 5464SOL    HW117291   1.687   5.435   5.518
 5464SOL    HW217292   1.605   5.406   5.656
 5465SOL     OW17293   0.528   6.928   4.626
 5465SOL    HW117294   0.559   6.883   4.710
 5465SOL    HW217295   0.586   7.008   4.608
 5466SOL     OW17296   5.744   1.765   4.054
 5466SOL    HW117297   5.742   1.756   3.955
 5466SOL    HW217298   5.837   1.788   4.083
 5467SOL     OW17299   4.937   3.185   4.343
 5467SOL    HW117300   4.901   3.237   4.266
 5467SOL    HW217301   5.037   3.181   4.338
 5468SOL     OW17302   0.141   1.414   1.422
 5468SOL    HW117303   0.183   1.439   1.335
 5468SOL    HW217304   0.204   1.355   1.473
 5469SOL     OW17305   3.622   0.645   4.049
 5469SOL    HW117306   3.658   0.673   3.960
 5469SOL    HW217307   3.585   0.725   4.097
 5470SOL     OW17308   4.484   4.595   4.213
 5470SOL    HW117309   4.582   4.578   4.211
 5470SOL    HW217310   4.459   4.641   4.298
 5471SOL     OW17311   5.212   0.700   2.861
 5471SOL    HW117312   5.280   0.710   2.934
 5471SOL    HW217313   5.202   0.603   2.838
 5472SOL     OW17314   3.255   3.595   6.581
 5472SOL    HW117315   3.324   3.532   6.619
 5472SOL    HW217316   3.170   3.584   6.632
 5473SOL     OW17317   3.176   5.153   1.862
 5473SOL    HW117318   3.274   5.155   1.882
 5473SOL    HW217319   3.148   5.058   1.844
 5474SOL     OW17320   0.889   5.211   2.375
 5474SOL    HW117321   0.887   5.228   2.473
 5474SOL    HW217322   0.814   5.260   2.330
 5475SOL     OW17323   1.129   0.868   5.256
 5475SOL    HW117324   1.178   0.872   5.343
 5475SOL    HW217325   1.142   0.954   5.207
 5476SOL     OW17326   2.261   6.765   5.060
 5476SOL    HW117327   2.235   6.861   5.072
 5476SOL    HW217328   2.189   6.717   5.010
 5477SOL     OW17329   1.994   3.629   3.896
 5477SOL    HW117330   1.944   3.712   3.921
 5477SOL    HW217331   2.044   3.595   3.976
 5478SOL     OW17332   5.177   4.821   5.950
 5478SOL    HW117333   5.181   4.917   5.922
 5478SOL    HW217334   5.267   4.780   5.942
 5479SOL     OW17335   5.345   2.233   4.276
 5479SOL    HW117336   5.376   2.177   4.353
 5479SOL    HW217337   5.256   2.201   4.244
 5480SOL     OW17338   1.153   3.336   4.104
 5480SOL    HW117339   1.088   3.261   4.112
 5480SOL    HW217340   1.195   3.335   4.013
 5481SOL     OW17341   4.588   1.715   6.580
 5481SOL    HW117342   4.576   1.629   6.531
 5481SOL    HW217343   4.527   1.784   6.542
 5482SOL     OW17344   5.481   3.511   1.584
 5482SOL    HW117345   5.507   3.419   1.552
 5482SOL    HW217346   5.401   3.505   1.643
 5483SOL     OW17347   6.695   2.775   6.920
 5483SOL    HW117348   6.753   2.795   7.000
 5483SOL    HW217349   6.678   2.861   6.871
 5484SOL     OW17350   6.757   6.785   4.951
 5484SOL    HW117351   6.715   6.803   4.862
 5484SOL    HW217352   6.809   6.865   4.980
 5485SOL     OW17353   3.443   0.255   4.910
 5485SOL    HW117354   3.526   0.202   4.890
 5485SOL    HW217355   3.453   0.347   4.873
 5486SOL     OW17356   1.190   0.826   4.413
 5486SOL    HW117357   1.227   0.908   4.367
 5486SOL    HW217358   1.157   0.762   4.344
 5487SOL     OW17359   4.319   5.245   0.463
 5487SOL    HW117360   4.253   5.184   0.508
 5487SOL    HW217361   4.348   5.316   0.527
 5488SOL     OW17362   5.069   0.800   5.730
 5488SOL    HW117363   5.007   0.735   5.775
 5488SOL    HW217364   5.059   0.790   5.631
 5489SOL     OW17365   0.274   4.483   3.013
 5489SOL    HW117366   0.351   4.518   2.960
 5489SOL    HW217367   0.200   4.550   3.013
 5490SOL     OW17368   2.021   2.609   6.992
 5490SOL    HW117369   1.942   2.670   6.984
 5490SOL    HW217370   2.105   2.663   6.990
 5491SOL     OW17371   0.416   5.687   1.574
 5491SOL    HW117372   0.407   5.595   1.612
 5491SOL    HW217373   0.469   5.744   1.636
 5492SOL     OW17374   1.891   1.244   5.236
 5492SOL    HW117375   1.888   1.144   5.236
 5492SOL    HW217376   1.931   1.276   5.149
 5493SOL     OW17377   2.999   2.932   0.004
 5493SOL    HW117378   2.923   2.894   6.977
 5493SOL    HW217379   2.964   2.975   0.088
 5494SOL     OW17380   5.843   2.849   2.293
 5494SOL    HW117381   5.815   2.803   2.377
 5494SOL    HW217382   5.764   2.893   2.251
 5495SOL     OW17383   3.619   2.891   2.689
 5495SOL    HW117384   3.605   2.982   2.649
 5495SOL    HW217385   3.535   2.838   2.681
 5496SOL     OW17386   3.505   5.590   1.589
 5496SOL    HW117387   3.556   5.519   1.638
 5496SOL    HW217388   3.561   5.626   1.515
 5497SOL     OW17389   6.489   6.944   1.786
 5497SOL    HW117390   6.487   6.883   1.706
 5497SOL    HW217391   6.424   6.912   1.854
 5498SOL     OW17392   4.082   6.930   5.228
 5498SOL    HW117393   4.017   6.875   5.281
 5498SOL    HW217394   4.172   6.925   5.272
 5499SOL     OW17395   0.076   1.994   4.603
 5499SOL    HW117396   0.140   1.932   4.648
 5499SOL    HW217397   0.119   2.032   4.521
 5500SOL     OW17398   2.145   5.902   1.222
 5500SOL    HW117399   2.166   5.813   1.263
 5500SOL    HW217400   2.188   5.975   1.275
 5501SOL     OW17401   1.669   6.847   2.729
 5501SOL    HW117402   1.627   6.873   2.816
 5501SOL    HW217403   1.615   6.884   2.653
 5502SOL     OW17404   4.569   3.787   0.489
 5502SOL    HW117405   4.508   3.709   0.478
 5502SOL    HW217406   4.606   3.814   0.399
 5503SOL     OW17407   0.711   6.148   4.499
 5503SOL    HW117408   0.733   6.054   4.523
 5503SOL    HW217409   0.735   6.209   4.575
 5504SOL     OW17410   3.475   2.124   4.705
 5504SOL    HW117411   3.522   2.093   4.622
 5504SOL    HW217412   3.382   2.152   4.681
 5505SOL     OW17413   3.352   4.823   5.857
 5505SOL    HW117414   3.351   4.743   5.796
 5505SOL    HW217415   3.323   4.795   5.948
 5506SOL     OW17416   6.774   6.882   5.450
 5506SOL    HW117417   6.813   6.972   5.471
 5506SOL    HW217418   6.839   6.830   5.395
 5507SOL     OW17419   3.091   5.567   4.524
 5507SOL    HW117420   3.021   5.612   4.580
 5507SOL    HW217421   3.172   5.549   4.580
 5508SOL     OW17422   2.415   0.693   5.785
 5508SOL    HW117423   2.349   0.623   5.809
 5508SOL    HW217424   2.397   0.726   5.692
 5509SOL     OW17425   6.097   6.137   6.865
 5509SOL    HW117426   6.156   6.128   6.785
 5509SOL    HW217427   6.009   6.176   6.837
 5510SOL     OW17428   4.924   0.283   5.608
 5510SOL    HW117429   4.995   0.322   5.666
 5510SOL    HW217430   4.896   0.194   5.645
 5511SOL     OW17431   0.191   1.772   1.973
 5511SOL    HW117432   0.135   1.696   1.942
 5511SOL    HW217433   0.132   1.842   2.013
 5512SOL     OW17434   1.104   6.909   0.982
 5512SOL    HW117435   1.018   6.860   0.996
 5512SOL    HW217436   1.117   6.927   0.884
 5513SOL     OW17437   3.296   4.896   4.464
 5513SOL    HW117438   3.384   4.856   4.486
 5513SOL    HW217439   3.301   4.939   4.373
 5514SOL     OW17440   5.999   5.573   3.608
 5514SOL    HW117441   5.968   5.517   3.531
 5514SOL    HW217442   6.098   5.586   3.602
 5515SOL     OW17443   6.931   3.186   2.085
 5515SOL    HW117444   0.005   3.190   2.091
 5515SOL    HW217445   6.893   3.158   2.173
 5516SOL     OW17446   1.396   3.513   6.096
 5516SOL    HW117447   1.345   3.584   6.145
 5516SOL    HW217448   1.451   3.555   6.024
 5517SOL     OW17449   2.288   1.168   2.188
 5517SOL    HW117450   2.244   1.093   2.139
 5517SOL    HW217451   2.261   1.165   2.285
 5518SOL     OW17452   5.718   4.854   5.301
 5518SOL    HW117453   5.756   4.768   5.335
 5518SOL    HW217454   5.621   4.859   5.322
 5519SOL     OW17455   5.179   3.457   3.860
 5519SOL    HW117456   5.181   3.359   3.881
 5519SOL    HW217457   5.268   3.486   3.825
 5520SOL     OW17458   1.762   3.473   1.638
 5520SOL    HW117459   1.756   3.375   1.658
 5520SOL    HW217460   1.672   3.507   1.612
 5521SOL     OW17461   5.032   5.582   1.622
 5521SOL    HW117462   5.038   5.490   1.659
 5521SOL    HW217463   4.936   5.604   1.602
 5522SOL     OW17464   2.057   3.555   2.312
 5522SOL    HW117465   2.090   3.638   2.268
 5522SOL    HW217466   1.979   3.578   2.371
 5523SOL     OW17467   3.010   0.594   1.079
 5523SOL    HW117468   2.926   0.606   1.026
 5523SOL    HW217469   3.009   0.656   1.157
 5524SOL     OW17470   6.676   5.609   6.340
 5524SOL    HW117471   6.707   5.704   6.346
 5524SOL    HW217472   6.719   5.564   6.262
 5525SOL     OW17473   6.799   5.718   4.775
 5525SOL    HW117474   6.838   5.633   4.739
 5525SOL    HW217475   6.776   5.705   4.872
 5526SOL     OW17476   5.733   2.547   4.723
 5526SOL    HW117477   5.780   2.616   4.778
 5526SOL    HW217478   5.634   2.555   4.739
 5527SOL     OW17479   2.184   3.603   1.448
 5527SOL    HW117480   2.090   3.588   1.419
 5527SOL    HW217481   2.240   3.626   1.369
 5528SOL     OW17482   0.602   3.545   3.181
 5528SOL    HW117483   0.512   3.507   3.205
 5528SOL    HW217484   0.674   3.489   3.222
 5529SOL     OW17485   1.637   1.414   5.192
 5529SOL    HW117486   1.598   1.429   5.101
 5529SOL    HW217487   1.717   1.354   5.183
 5530SOL     OW17488   1.353   3.050   0.690
 5530SOL    HW117489   1.354   3.054   0.590
 5530SOL    HW217490   1.447   3.048   0.724
 5531SOL     OW17491   2.900   2.890   5.733
 5531SOL    HW117492   2.866   2.834   5.658
 5531SOL    HW217493   2.939   2.831   5.804
 5532SOL     OW17494   2.606   1.515   0.912
 5532SOL    HW117495   2.683   1.462   0.946
 5532SOL    HW217496   2.537   1.524   0.983
 5533SOL     OW17497   4.366   0.251   1.051
 5533SOL    HW117498   4.434   0.284   1.117
 5533SOL    HW217499   4.320   0.330   1.009
 5534SOL     OW17500   0.139   4.350   5.837
 5534SOL    HW117501   0.213   4.403   5.795
 5534SOL    HW217502   0.106   4.282   5.772
 5535SOL     OW17503   5.693   3.313   3.612
 5535SOL    HW117504   5.621   3.248   3.639
 5535SOL    HW217505   5.782   3.278   3.641
 5536SOL     OW17506   1.759   0.847   3.617
 5536SOL    HW117507   1.734   0.814   3.708
 5536SOL    HW217508   1.749   0.773   3.550
 5537SOL     OW17509   4.456   0.990   4.630
 5537SOL    HW117510   4.373   0.942   4.599
 5537SOL    HW217511   4.474   0.966   4.726
 5538SOL     OW17512   5.540   1.853   0.677
 5538SOL    HW117513   5.538   1.783   0.605
 5538SOL    HW217514   5.629   1.898   0.677
 5539SOL     OW17515   3.363   6.708   0.192
 5539SOL    HW117516   3.461   6.699   0.211
 5539SOL    HW217517   3.329   6.792   0.234
 5540SOL     OW17518   5.249   0.616   6.509
 5540SOL    HW117519   5.191   0.547   6.465
 5540SOL    HW217520   5.310   0.657   6.441
 5541SOL     OW17521   4.681   3.540   6.001
 5541SOL    HW117522   4.708   3.469   5.936
 5541SOL    HW217523   4.764   3.581   6.040
 5542SOL     OW17524   4.195   4.244   6.870
 5542SOL    HW117525   4.129   4.191   6.923
 5542SOL    HW217526   4.204   4.335   6.910
 5543SOL     OW17527   1.362   0.448   0.449
 5543SOL    HW117528   1.309   0.489   0.374
 5543SOL    HW217529   1.388   0.519   0.515
 5544SOL     OW17530   3.758   5.516   6.231
 5544SOL    HW117531   3.715   5.527   6.321
 5544SOL    HW217532   3.807   5.600   6.207
 5545SOL     OW17533   4.239   0.464   3.230
 5545SOL    HW117534   4.266   0.560   3.238
 5545SOL    HW217535   4.290   0.421   3.154
 5546SOL     OW17536   0.446   4.902   4.846
 5546SOL    HW117537   0.374   4.959   4.885
 5546SOL    HW217538   0.407   4.814   4.817
 5547SOL     OW17539   5.154   1.304   4.482
 5547SOL    HW117540   5.063   1.260   4.483
 5547SOL    HW217541   5.152   1.382   4.420
 5548SOL     OW17542   0.117   3.917   4.748
 5548SOL    HW117543   0.082   3.879   4.834
 5548SOL    HW217544   0.054   3.988   4.715
 5549SOL     OW17545   4.479   2.804   0.671
 5549SOL    HW117546   4.416   2.751   0.614
 5549SOL    HW217547   4.533   2.742   0.727
 5550SOL     OW17548   1.994   4.103   1.956
 5550SOL    HW117549   1.935   4.165   1.905
 5550SOL    HW217550   1.973   4.111   2.054
 5551SOL     OW17551   1.903   5.485   3.560
 5551SOL    HW117552   1.808   5.513   3.548
 5551SOL    HW217553   1.909   5.386   3.566
 5552SOL     OW17554   0.338   6.203   6.884
 5552SOL    HW117555   0.421   6.247   6.918
 5552SOL    HW217556   0.362   6.118   6.837
 5553SOL     OW17557   4.631   0.480   6.803
 5553SOL    HW117558   4.605   0.383   6.802
 5553SOL    HW217559   4.560   0.533   6.851
 5554SOL     OW17560   5.376   2.028   1.645
 5554SOL    HW117561   5.463   2.048   1.690
 5554SOL    HW217562   5.315   2.106   1.656
 5555SOL     OW17563   1.717   4.471   2.086
 5555SOL    HW117564   1.695   4.540   2.017
 5555SOL    HW217565   1.646   4.401   2.088
 5556SOL     OW17566   0.188   0.916   4.922
 5556SOL    HW117567   0.137   1.000   4.940
 5556SOL    HW217568   0.259   0.935   4.855
 5557SOL     OW17569   3.273   6.011   2.546
 5557SOL    HW117570   3.298   6.107   2.554
 5557SOL    HW217571   3.288   5.964   2.633
 5558SOL     OW17572   4.157   4.474   0.012
 5558SOL    HW117573   4.070   4.502   0.053
 5558SOL    HW217574   4.170   4.520   6.950
 5559SOL     OW17575   2.088   7.019   2.390
 5559SOL    HW117576   2.176   7.015   2.342
 5559SOL    HW217577   2.103   7.003   2.487
 5560SOL     OW17578   1.160   6.279   2.568
 5560SOL    HW117579   1.096   6.280   2.491
 5560SOL    HW217580   1.251   6.253   2.536
 5561SOL     OW17581   3.655   6.852   3.688
 5561SOL    HW117582   3.679   6.761   3.653
 5561SOL    HW217583   3.567   6.880   3.649
 5562SOL     OW17584   3.994   4.099   1.153
 5562SOL    HW117585   3.930   4.056   1.217
 5562SOL    HW217586   4.087   4.091   1.189
 5563SOL     OW17587   2.749   4.696   3.286
 5563SOL    HW117588   2.709   4.649   3.365
 5563SOL    HW217589   2.845   4.716   3.303
 5564SOL     OW17590   5.062   0.433   5.828
 5564SOL    HW117591   5.146   0.486   5.816
 5564SOL    HW217592   5.075   0.365   5.900
 5565SOL     OW17593   3.250   2.243   6.523
 5565SOL    HW117594   3.182   2.212   6.456
 5565SOL    HW217595   3.328   2.181   6.522
 5566SOL     OW17596   1.538   3.883   6.494
 5566SOL    HW117597   1.506   3.790   6.476
 5566SOL    HW217598   1.524   3.939   6.412
 5567SOL     OW17599   6.947   4.311   1.252
 5567SOL    HW117600   7.003   4.394   1.245
 5567SOL    HW217601   7.006   4.230   1.240
 5568SOL     OW17602   4.332   6.090   1.525
 5568SOL    HW117603   4.267   6.014   1.524
 5568SOL    HW217604   4.364   6.106   1.618
 5569SOL     OW17605   2.212   3.053   4.073
 5569SOL    HW117606   2.253   3.058   4.164
 5569SOL    HW217607   2.177   3.143   4.047
 5570SOL     OW17608   0.529   4.199   2.701
 5570SOL    HW117609   0.603   4.202   2.768
 5570SOL    HW217610   0.508   4.292   2.670
 5571SOL     OW17611   6.165   4.981   1.732
 5571SOL    HW117612   6.163   4.963   1.830
 5571SOL    HW217613   6.139   5.076   1.716
 5572SOL     OW17614   1.496   3.169   5.064
 5572SOL    HW117615   1.472   3.159   4.967
 5572SOL    HW217616   1.493   3.079   5.108
 5573SOL     OW17617   2.934   5.106   4.306
 5573SOL    HW117618   2.851   5.125   4.253
 5573SOL    HW217619   3.013   5.102   4.244
 5574SOL     OW17620   0.075   2.310   6.599
 5574SOL    HW117621   0.153   2.302   6.537
 5574SOL    HW217622   0.098   2.272   6.688
 5575SOL     OW17623   0.493   0.252   1.751
 5575SOL    HW117624   0.478   0.333   1.807
 5575SOL    HW217625   0.578   0.207   1.780
 5576SOL     OW17626   2.311   4.450   3.288
 5576SOL    HW117627   2.330   4.391   3.366
 5576SOL    HW217628   2.229   4.504   3.306
 5577SOL     OW17629   1.713   3.079   5.983
 5577SOL    HW117630   1.789   3.132   5.945
 5577SOL    HW217631   1.631   3.137   5.988
 5578SOL     OW17632   3.985   3.545   3.348
 5578SOL    HW117633   4.013   3.638   3.325
 5578SOL    HW217634   4.049   3.505   3.413
 5579SOL     OW17635   0.553   3.204   1.577
 5579SOL    HW117636   0.597   3.116   1.562
 5579SOL    HW217637   0.511   3.206   1.668
 5580SOL     OW17638   5.008   1.941   5.056
 5580SOL    HW117639   4.978   1.970   5.146
 5580SOL    HW217640   5.104   1.914   5.059
 5581SOL     OW17641   0.956   1.713   6.988
 5581SOL    HW117642   1.034   1.769   6.959
 5581SOL    HW217643   0.918   1.750   0.048
 5582SOL     OW17644   2.654   2.642   6.390
 5582SOL    HW117645   2.682   2.729   6.432
 5582SOL    HW217646   2.562   2.652   6.351
 5583SOL     OW17647   5.345   1.029   2.304
 5583SOL    HW117648   5.309   0.946   2.260
 5583SOL    HW217649   5.442   1.038   2.283
 5584SOL     OW17650   0.876   3.621   5.076
 5584SOL    HW117651   0.922   3.695   5.123
 5584SOL    HW217652   0.908   3.615   4.982
 5585SOL     OW17653   4.652   4.761   2.101
 5585SOL    HW117654   4.602   4.675   2.091
 5585SOL    HW217655   4.606   4.818   2.169
 5586SOL     OW17656   6.860   2.956   6.560
 5586SOL    HW117657   6.806   2.936   6.642
 5586SOL    HW217658   6.800   2.987   6.487
 5587SOL     OW17659   5.428   0.405   6.373
 5587SOL    HW117660   5.351   0.349   6.343
 5587SOL    HW217661   5.426   0.415   6.472
 5588SOL     OW17662   3.553   6.984   1.892
 5588SOL    HW117663   3.645   7.013   1.918
 5588SOL    HW217664   3.517   6.922   1.961
 5589SOL     OW17665   5.834   5.268   6.464
 5589SOL    HW117666   5.872   5.308   6.548
 5589SOL    HW217667   5.895   5.197   6.430
 5590SOL     OW17668   5.752   5.514   4.614
 5590SOL    HW117669   5.754   5.537   4.517
 5590SOL    HW217670   5.668   5.549   4.656
 5591SOL     OW17671   5.984   1.418   1.166
 5591SOL    HW117672   5.935   1.335   1.194
 5591SOL    HW217673   5.920   1.480   1.120
 5592SOL     OW17674   0.790   4.853   3.320
 5592SOL    HW117675   0.726   4.802   3.377
 5592SOL    HW217676   0.866   4.795   3.295
 5593SOL     OW17677   6.375   2.687   0.310
 5593SOL    HW117678   6.336   2.680   0.402
 5593SOL    HW217679   6.312   2.740   0.252
 5594SOL     OW17680   5.639   2.471   5.477
 5594SOL    HW117681   5.581   2.416   5.537
 5594SOL    HW217682   5.631   2.437   5.383
 5595SOL     OW17683   0.780   2.536   5.371
 5595SOL    HW117684   0.721   2.582   5.438
 5595SOL    HW217685   0.791   2.440   5.396
 5596SOL     OW17686   4.346   6.609   2.648
 5596SOL    HW117687   4.357   6.639   2.743
 5596SOL    HW217688   4.436   6.599   2.606
 5597SOL     OW17689   5.294   3.571   3.538
 5597SOL    HW117690   5.306   3.668   3.514
 5597SOL    HW217691   5.360   3.547   3.610
 5598SOL     OW17692   5.362   2.343   5.105
 5598SOL    HW117693   5.334   2.254   5.139
 5598SOL    HW217694   5.287   2.408   5.113
 5599SOL     OW17695   0.664   1.796   3.883
 5599SOL    HW117696   0.582   1.749   3.916
 5599SOL    HW217697   0.694   1.755   3.798
 5600SOL     OW17698   1.563   2.246   3.808
 5600SOL    HW117699   1.567   2.253   3.908
 5600SOL    HW217700   1.623   2.314   3.767
 5601SOL     OW17701   2.414   1.152   5.589
 5601SOL    HW117702   2.348   1.224   5.570
 5601SOL    HW217703   2.419   1.136   5.688
 5602SOL     OW17704   1.073   1.897   1.035
 5602SOL    HW117705   1.057   1.951   0.953
 5602SOL    HW217706   1.148   1.832   1.018
 5603SOL     OW17707   5.833   2.362   6.322
 5603SOL    HW117708   5.825   2.283   6.262
 5603SOL    HW217709   5.863   2.333   6.413
 5604SOL     OW17710   6.214   1.887   5.578
 5604SOL    HW117711   6.229   1.823   5.502
 5604SOL    HW217712   6.189   1.835   5.660
 5605SOL     OW17713   0.550   2.026   4.538
 5605SOL    HW117714   0.510   1.978   4.616
 5605SOL    HW217715   0.610   2.099   4.572
 5606SOL     OW17716   4.567   6.975   1.815
 5606SOL    HW117717   4.656   7.020   1.802
 5606SOL    HW217718   4.579   6.897   1.876
 5607SOL     OW17719   5.696   1.571   1.406
 5607SOL    HW117720   5.662   1.499   1.346
 5607SOL    HW217721   5.796   1.570   1.405
 5608SOL     OW17722   4.222   6.567   5.183
 5608SOL    HW117723   4.202   6.497   5.114
 5608SOL    HW217724   4.237   6.655   5.137
 5609SOL     OW17725   2.681   6.086   6.383
 5609SOL    HW117726   2.754   6.155   6.388
 5609SOL    HW217727   2.712   6.010   6.325
 5610SOL     OW17728   4.750   1.143   6.982
 5610SOL    HW117729   4.699   1.217   6.938
 5610SOL    HW217730   4.781   1.077   6.912
 5611SOL     OW17731   1.794   4.812   3.329
 5611SOL    HW117732   1.752   4.770   3.410
 5611SOL    HW217733   1.784   4.751   3.251
 5612SOL     OW17734   2.691   6.917   5.816
 5612SOL    HW117735   2.597   6.947   5.827
 5612SOL    HW217736   2.729   6.955   5.731
 5613SOL     OW17737   3.929   4.688   1.756
 5613SOL    HW117738   3.950   4.784   1.737
 5613SOL    HW217739   3.999   4.649   1.816
 5614SOL     OW17740   4.947   2.068   2.886
 5614SOL    HW117741   4.959   2.145   2.824
 5614SOL    HW217742   5.034   2.019   2.896
 5615SOL     OW17743   1.503   0.573   0.931
 5615SOL    HW117744   1.524   0.670   0.917
 5615SOL    HW217745   1.489   0.556   1.029
 5616SOL     OW17746   1.937   0.949   4.834
 5616SOL    HW117747   1.855   0.898   4.808
 5616SOL    HW217748   1.911   1.039   4.869
 5617SOL     OW17749   2.172   0.794   4.794
 5617SOL    HW117750   2.094   0.845   4.828
 5617SOL    HW217751   2.161   0.697   4.815
 5618SOL     OW17752   0.263   4.450   3.283
 5618SOL    HW117753   0.280   4.535   3.333
 5618SOL    HW217754   0.261   4.469   3.185
 5619SOL     OW17755   2.217   3.666   5.386
 5619SOL    HW117756   2.160   3.723   5.445
 5619SOL    HW217757   2.203   3.691   5.291
 5620SOL     OW17758   3.502   1.866   6.170
 5620SOL    HW117759   3.500   1.814   6.255
 5620SOL    HW217760   3.413   1.859   6.125
 5621SOL     OW17761   1.767   2.344   5.774
 5621SOL    HW117762   1.735   2.254   5.804
 5621SOL    HW217763   1.774   2.346   5.675
 5622SOL     OW17764   5.987   0.795   5.937
 5622SOL    HW117765   5.914   0.806   6.005
 5622SOL    HW217766   5.970   0.857   5.860
 5623SOL     OW17767   1.119   5.737   6.764
 5623SOL    HW117768   1.213   5.767   6.751
 5623SOL    HW217769   1.075   5.723   6.675
 5624SOL     OW17770   1.255   4.447   3.561
 5624SOL    HW117771   1.285   4.373   3.621
 5624SOL    HW217772   1.260   4.417   3.466
 5625SOL     OW17773   6.843   2.931   4.641
 5625SOL    HW117774   6.868   2.878   4.561
 5625SOL    HW217775   6.818   2.869   4.716
 5626SOL     OW17776   4.118   6.722   4.902
 5626SOL    HW117777   4.184   6.704   4.829
 5626SOL    HW217778   4.035   6.669   4.886
 5627SOL     OW17779   1.523   6.537   1.553
 5627SOL    HW117780   1.425   6.526   1.535
 5627SOL    HW217781   1.563   6.448   1.573
 5628SOL     OW17782   2.231   1.679   4.195
 5628SOL    HW117783   2.192   1.590   4.173
 5628SOL    HW217784   2.287   1.672   4.278
 5629SOL     OW17785   3.552   3.627   2.742
 5629SOL    HW117786   3.541   3.660   2.648
 5629SOL    HW217787   3.581   3.703   2.801
 5630SOL     OW17788   0.583   4.336   1.624
 5630SOL    HW117789   0.673   4.317   1.586
 5630SOL    HW217790   0.580   4.431   1.656
 5631SOL     OW17791   4.694   0.757   6.908
 5631SOL    HW117792   4.645   0.827   6.960
 5631SOL    HW217793   4.628   0.701   6.857
 5632SOL     OW17794   4.308   3.579   6.774
 5632SOL    HW117795   4.285   3.498   6.719
 5632SOL    HW217796   4.242   3.651   6.755
 5633SOL     OW17797   6.307   2.469   4.222
 5633SOL    HW117798   6.361   2.490   4.304
 5633SOL    HW217799   6.365   2.421   4.156
 5634SOL     OW17800   3.950   5.512   4.288
 5634SOL    HW117801   3.917   5.486   4.197
 5634SOL    HW217802   3.943   5.611   4.298
 5635SOL     OW17803   2.887   2.118   4.827
 5635SOL    HW117804   2.873   2.159   4.737
 5635SOL    HW217805   2.982   2.089   4.836
 5636SOL     OW17806   3.942   5.821   3.327
 5636SOL    HW117807   3.983   5.738   3.365
 5636SOL    HW217808   3.843   5.809   3.320
 5637SOL     OW17809   5.732   0.203   3.281
 5637SOL    HW117810   5.790   0.151   3.344
 5637SOL    HW217811   5.686   0.276   3.332
 5638SOL     OW17812   5.861   3.371   6.171
 5638SOL    HW117813   5.799   3.372   6.250
 5638SOL    HW217814   5.941   3.427   6.192
 5639SOL     OW17815   2.132   1.562   6.507
 5639SOL    HW117816   2.184   1.629   6.560
 5639SOL    HW217817   2.191   1.486   6.481
 5640SOL     OW17818   2.466   0.372   3.341
 5640SOL    HW117819   2.521   0.455   3.337
 5640SOL    HW217820   2.504   0.304   3.278
 5641SOL     OW17821   6.296   5.721   4.953
 5641SOL    HW117822   6.242   5.639   4.970
 5641SOL    HW217823   6.263   5.766   4.870
 5642SOL     OW17824   1.232   2.068   6.039
 5642SOL    HW117825   1.204   2.001   6.108
 5642SOL    HW217826   1.225   2.160   6.077
 5643SOL     OW17827   5.847   2.364   4.598
 5643SOL    HW117828   5.788   2.428   4.647
 5643SOL    HW217829   5.883   2.296   4.662
 5644SOL     OW17830   3.632   0.362   6.672
 5644SOL    HW117831   3.543   0.408   6.677
 5644SOL    HW217832   3.633   0.298   6.596
 5645SOL     OW17833   5.635   2.442   4.263
 5645SOL    HW117834   5.538   2.465   4.258
 5645SOL    HW217835   5.647   2.356   4.312
 5646SOL     OW17836   1.689   4.648   3.137
 5646SOL    HW117837   1.601   4.695   3.141
 5646SOL    HW217838   1.675   4.552   3.113
 5647SOL     OW17839   6.807   5.962   2.422
 5647SOL    HW117840   6.820   5.986   2.519
 5647SOL    HW217841   6.856   5.877   2.402
 5648SOL     OW17842   4.103   6.794   3.025
 5648SOL    HW117843   4.064   6.886   3.036
 5648SOL    HW217844   4.151   6.768   3.109
 5649SOL     OW17845   0.709   6.640   3.975
 5649SOL    HW117846   0.775   6.592   4.033
 5649SOL    HW217847   0.657   6.573   3.922
 5650SOL     OW17848   6.467   4.342   7.020
 5650SOL    HW117849   6.510   4.301   6.939
 5650SOL    HW217850   6.537   4.388   0.049
 5651SOL     OW17851   1.771   0.534   1.894
 5651SOL    HW117852   1.819   0.555   1.979
 5651SOL    HW217853   1.678   0.570   1.898
 5652SOL     OW17854   1.214   5.872   1.881
 5652SOL    HW117855   1.190   5.915   1.794
 5652SOL    HW217856   1.306   5.835   1.876
 5653SOL     OW17857   6.898   6.730   0.960
 5653SOL    HW117858   6.913   6.636   0.989
 5653SOL    HW217859   6.804   6.742   0.930
 5654SOL     OW17860   2.485   6.192   5.054
 5654SOL    HW117861   2.392   6.203   5.088
 5654SOL    HW217862   2.542   6.152   5.125
 5655SOL     OW17863   6.524   2.816   4.372
 5655SOL    HW117864   6.445   2.818   4.312
 5655SOL    HW217865   6.551   2.909   4.394
 5656SOL     OW17866   0.160   3.394   0.157
 5656SOL    HW117867   0.164   3.407   0.058
 5656SOL    HW217868   0.066   3.369   0.184
 5657SOL     OW17869   4.610   5.532   5.605
 5657SOL    HW117870   4.561   5.610   5.565
 5657SOL    HW217871   4.544   5.465   5.639
 5658SOL     OW17872   2.120   2.295   5.444
 5658SOL    HW117873   2.130   2.196   5.429
 5658SOL    HW217874   2.193   2.343   5.395
 5659SOL     OW17875   3.968   4.197   6.243
 5659SOL    HW117876   3.971   4.295   6.227
 5659SOL    HW217877   3.906   4.177   6.318
 5660SOL     OW17878   4.377   0.731   6.167
 5660SOL    HW117879   4.421   0.779   6.243
 5660SOL    HW217880   4.352   0.638   6.197
 5661SOL     OW17881   1.052   5.114   5.601
 5661SOL    HW117882   1.046   5.213   5.584
 5661SOL    HW217883   1.011   5.094   5.690
 5662SOL     OW17884   2.487   6.389   2.064
 5662SOL    HW117885   2.416   6.373   2.133
 5662SOL    HW217886   2.520   6.484   2.072
 5663SOL     OW17887   0.985   2.751   6.748
 5663SOL    HW117888   0.895   2.709   6.758
 5663SOL    HW217889   1.035   2.744   6.834
 5664SOL     OW17890   4.899   3.693   4.202
 5664SOL    HW117891   4.849   3.771   4.166
 5664SOL    HW217892   4.958   3.655   4.131
 5665SOL     OW17893   2.223   1.744   0.864
 5665SOL    HW117894   2.182   1.756   0.955
 5665SOL    HW217895   2.317   1.777   0.865
 5666SOL     OW17896   5.170   1.021   4.735
 5666SOL    HW117897   5.228   1.100   4.716
 5666SOL    HW217898   5.170   0.960   4.656
 5667SOL     OW17899   2.175   5.044   4.567
 5667SOL    HW117900   2.160   5.122   4.505
 5667SOL    HW217901   2.104   5.043   4.637
 5668SOL     OW17902   5.203   3.166   3.828
 5668SOL    HW117903   5.197   3.145   3.925
 5668SOL    HW217904   5.141   3.108   3.776
 5669SOL     OW17905   6.562   4.521   6.530
 5669SOL    HW117906   6.630   4.561   6.591
 5669SOL    HW217907   6.573   4.421   6.528
 5670SOL     OW17908   0.410   1.913   2.712
 5670SOL    HW117909   0.429   1.945   2.619
 5670SOL    HW217910   0.338   1.969   2.752
 5671SOL     OW17911   0.037   6.414   3.702
 5671SOL    HW117912   0.002   6.438   3.611
 5671SOL    HW217913   0.128   6.453   3.714
 5672SOL     OW17914   4.924   3.448   5.363
 5672SOL    HW117915   4.941   3.435   5.265
 5672SOL    HW217916   4.827   3.470   5.378
 5673SOL     OW17917   0.598   0.874   0.948
 5673SOL    HW117918   0.505   0.908   0.965
 5673SOL    HW217919   0.605   0.779   0.979
 5674SOL     OW17920   1.964   5.136   5.838
 5674SOL    HW117921   1.902   5.081   5.783
 5674SOL    HW217922   1.946   5.233   5.821
 5675SOL     OW17923   2.562   1.960   0.380
 5675SOL    HW117924   2.513   1.951   0.466
 5675SOL    HW217925   2.582   2.056   0.362
 5676SOL     OW17926   2.833   2.184   1.580
 5676SOL    HW117927   2.771   2.217   1.508
 5676SOL    HW217928   2.851   2.087   1.565
 5677SOL     OW17929   6.618   0.927   1.160
 5677SOL    HW117930   6.670   0.881   1.088
 5677SOL    HW217931   6.640   1.025   1.159
 5678SOL     OW17932   3.267   2.237   1.715
 5678SOL    HW117933   3.197   2.308   1.709
 5678SOL    HW217934   3.246   2.175   1.790
 5679SOL     OW17935   6.258   3.580   4.915
 5679SOL    HW117936   6.305   3.524   4.847
 5679SOL    HW217937   6.287   3.552   5.007
 5680SOL     OW17938   1.616   6.111   5.339
 5680SOL    HW117939   1.713   6.119   5.314
 5680SOL    HW217940   1.596   6.015   5.360
 5681SOL     OW17941   0.978   3.939   3.850
 5681SOL    HW117942   0.937   3.902   3.767
 5681SOL    HW217943   0.905   3.971   3.912
 5682SOL     OW17944   2.082   4.432   2.060
 5682SOL    HW117945   2.046   4.412   2.151
 5682SOL    HW217946   2.181   4.422   2.060
 5683SOL     OW17947   6.366   1.540   6.376
 5683SOL    HW117948   6.453   1.508   6.338
 5683SOL    HW217949   6.368   1.530   6.476
 5684SOL     OW17950   2.009   2.496   5.121
 5684SOL    HW117951   1.965   2.536   5.201
 5684SOL    HW217952   2.108   2.513   5.125
 5685SOL     OW17953   2.246   1.784   3.087
 5685SOL    HW117954   2.258   1.692   3.050
 5685SOL    HW217955   2.183   1.835   3.028
 5686SOL     OW17956   3.352   5.704   6.144
 5686SOL    HW117957   3.290   5.632   6.177
 5686SOL    HW217958   3.428   5.715   6.207
 5687SOL     OW17959   2.000   6.385   6.774
 5687SOL    HW117960   2.062   6.381   6.852
 5687SOL    HW217961   1.906   6.400   6.806
 5688SOL     OW17962   2.248   2.462   3.059
 5688SOL    HW117963   2.148   2.455   3.064
 5688SOL    HW217964   2.283   2.489   3.149
 5689SOL     OW17965   0.821   2.488   1.382
 5689SOL    HW117966   0.880   2.513   1.306
 5689SOL    HW217967   0.771   2.404   1.360
 5690SOL     OW17968   1.708   5.489   0.263
 5690SOL    HW117969   1.803   5.487   0.231
 5690SOL    HW217970   1.655   5.549   0.203
 5691SOL     OW17971   3.177   1.196   2.492
 5691SOL    HW117972   3.086   1.230   2.467
 5691SOL    HW217973   3.182   1.183   2.591
 5692SOL     OW17974   4.251   4.767   1.453
 5692SOL    HW117975   4.249   4.671   1.425
 5692SOL    HW217976   4.196   4.779   1.536
 5693SOL     OW17977   4.298   0.704   1.172
 5693SOL    HW117978   4.211   0.695   1.123
 5693SOL    HW217979   4.285   0.675   1.267
 5694SOL     OW17980   1.039   6.223   1.896
 5694SOL    HW117981   1.089   6.290   1.951
 5694SOL    HW217982   1.018   6.143   1.952
 5695SOL     OW17983   1.556   0.241   1.028
 5695SOL    HW117984   1.634   0.231   0.967
 5695SOL    HW217985   1.475   0.267   0.975
 5696SOL     OW17986   1.643   0.469   3.996
 5696SOL    HW117987   1.654   0.565   3.971
 5696SOL    HW217988   1.681   0.453   4.087
 5697SOL     OW17989   6.623   3.236   0.185
 5697SOL    HW117990   6.613   3.148   0.139
 5697SOL    HW217991   6.692   3.229   0.257
 5698SOL     OW17992   2.719   2.349   4.019
 5698SOL    HW117993   2.632   2.383   3.983
 5698SOL    HW217994   2.793   2.376   3.958
 5699SOL     OW17995   1.743   2.551   3.118
 5699SOL    HW117996   1.692   2.473   3.155
 5699SOL    HW217997   1.757   2.619   3.189
 5700SOL     OW17998   6.373   0.857   3.442
 5700SOL    HW117999   6.394   0.832   3.536
 5700SOL    HW218000   6.399   0.782   3.381
 5701SOL     OW18001   0.380   1.048   1.007
 5701SOL    HW118002   0.314   1.033   0.933
 5701SOL    HW218003   0.438   1.126   0.985
 5702SOL     OW18004   2.419   6.727   4.413
 5702SOL    HW118005   2.457   6.720   4.321
 5702SOL    HW218006   2.416   6.637   4.455
 5703SOL     OW18007   0.225   2.845   6.326
 5703SOL    HW118008   0.310   2.805   6.360
 5703SOL    HW218009   0.148   2.786   6.350
 5704SOL     OW18010   4.721   4.384   3.853
 5704SOL    HW118011   4.624   4.372   3.831
 5704SOL    HW218012   4.731   4.457   3.921
 5705SOL     OW18013   6.348   6.914   5.441
 5705SOL    HW118014   6.298   6.834   5.410
 5705SOL    HW218015   6.303   6.954   5.521
 5706SOL     OW18016   4.861   2.154   0.109
 5706SOL    HW118017   4.764   2.146   0.131
 5706SOL    HW218018   4.880   2.105   0.024
 5707SOL     OW18019   5.764   5.737   2.385
 5707SOL    HW118020   5.858   5.705   2.395
 5707SOL    HW218021   5.763   5.835   2.365
 5708SOL     OW18022   4.374   6.154   2.808
 5708SOL    HW118023   4.320   6.228   2.849
 5708SOL    HW218024   4.382   6.169   2.709
 5709SOL     OW18025   0.057   1.842   2.308
 5709SOL    HW118026   0.029   1.907   2.379
 5709SOL    HW218027   0.134   1.787   2.342
 5710SOL     OW18028   3.068   2.026   0.911
 5710SOL    HW118029   3.064   2.042   0.812
 5710SOL    HW218030   3.119   2.101   0.955
 5711SOL     OW18031   5.676   1.640   1.979
 5711SOL    HW118032   5.634   1.596   2.058
 5711SOL    HW218033   5.641   1.733   1.971
 5712SOL     OW18034   6.260   6.827   1.403
 5712SOL    HW118035   6.211   6.817   1.490
 5712SOL    HW218036   6.232   6.754   1.341
 5713SOL     OW18037   2.674   6.599   0.461
 5713SOL    HW118038   2.596   6.653   0.430
 5713SOL    HW218039   2.725   6.651   0.530
 5714SOL     OW18040   6.273   6.997   1.144
 5714SOL    HW118041   6.270   6.974   1.241
 5714SOL    HW218042   6.180   6.995   1.107
 5715SOL     OW18043   0.369   0.273   1.253
 5715SOL    HW118044   0.286   0.223   1.227
 5715SOL    HW218045   0.392   0.251   1.348
 5716SOL     OW18046   6.597   4.888   5.516
 5716SOL    HW118047   6.675   4.846   5.469
 5716SOL    HW218048   6.621   4.982   5.542
 5717SOL     OW18049   1.333   5.030   2.907
 5717SOL    HW118050   1.369   4.989   2.823
 5717SOL    HW218051   1.244   5.071   2.889
 5718SOL     OW18052   0.544   3.511   0.265
 5718SOL    HW118053   0.598   3.430   0.244
 5718SOL    HW218054   0.585   3.591   0.220
 5719SOL     OW18055   2.577   3.428   0.783
 5719SOL    HW118056   2.581   3.464   0.690
 5719SOL    HW218057   2.654   3.464   0.836
 5720SOL     OW18058   2.590   4.482   6.260
 5720SOL    HW118059   2.585   4.581   6.249
 5720SOL    HW218060   2.640   4.443   6.183
 5721SOL     OW18061   2.866   3.730   0.529
 5721SOL    HW118062   2.898   3.645   0.488
 5721SOL    HW218063   2.925   3.806   0.500
 5722SOL     OW18064   1.257   1.258   6.056
 5722SOL    HW118065   1.339   1.315   6.059
 5722SOL    HW218066   1.222   1.256   5.962
 5723SOL     OW18067   4.304   3.478   0.191
 5723SOL    HW118068   4.340   3.384   0.186
 5723SOL    HW218069   4.343   3.524   0.271
 5724SOL     OW18070   5.838   2.527   4.104
 5724SOL    HW118071   5.786   2.486   4.179
 5724SOL    HW218072   5.775   2.571   4.040
 5725SOL     OW18073   6.665   3.906   4.419
 5725SOL    HW118074   6.620   3.984   4.377
 5725SOL    HW218075   6.636   3.897   4.514
 5726SOL     OW18076   5.181   4.493   2.368
 5726SOL    HW118077   5.101   4.541   2.333
 5726SOL    HW218078   5.163   4.461   2.461
 5727SOL     OW18079   0.936   2.268   5.052
 5727SOL    HW118080   1.017   2.222   5.089
 5727SOL    HW218081   0.964   2.351   5.005
 5728SOL     OW18082   4.921   6.416   4.889
 5728SOL    HW118083   4.915   6.412   4.989
 5728SOL    HW218084   4.958   6.504   4.861
 5729SOL     OW18085   1.943   2.001   5.180
 5729SOL    HW118086   1.916   1.993   5.276
 5729SOL    HW218087   1.935   1.912   5.135
 5730SOL     OW18088   6.609   3.850   4.694
 5730SOL    HW118089   6.679   3.798   4.743
 5730SOL    HW218090   6.521   3.803   4.702
 5731SOL     OW18091   0.260   6.557   2.421
 5731SOL    HW118092   0.352   6.526   2.398
 5731SOL    HW218093   0.263   6.652   2.451
 5732SOL     OW18094   0.580   0.001   3.449
 5732SOL    HW118095   0.491   6.981   3.455
 5732SOL    HW218096   0.609   0.004   3.353
 5733SOL     OW18097   3.611   0.590   5.636
 5733SOL    HW118098   3.657   0.501   5.632
 5733SOL    HW218099   3.530   0.583   5.694
 5734SOL     OW18100   2.397   6.023   3.429
 5734SOL    HW118101   2.493   6.010   3.405
 5734SOL    HW218102   2.338   5.988   3.356
 5735SOL     OW18103   2.718   1.125   1.901
 5735SOL    HW118104   2.805   1.123   1.949
 5735SOL    HW218105   2.712   1.046   1.840
 5736SOL     OW18106   1.304   5.071   6.406
 5736SOL    HW118107   1.282   5.162   6.442
 5736SOL    HW218108   1.363   5.081   6.326
 5737SOL     OW18109   5.297   4.428   0.813
 5737SOL    HW118110   5.296   4.461   0.719
 5737SOL    HW218111   5.323   4.503   0.874
 5738SOL     OW18112   1.754   3.769   6.162
 5738SOL    HW118113   1.706   3.726   6.238
 5738SOL    HW218114   1.786   3.860   6.189
 5739SOL     OW18115   0.629   1.523   1.214
 5739SOL    HW118116   0.721   1.519   1.252
 5739SOL    HW218117   0.564   1.489   1.282
 5740SOL     OW18118   3.828   5.810   6.375
 5740SOL    HW118119   3.901   5.826   6.441
 5740SOL    HW218120   3.868   5.788   6.286
 5741SOL     OW18121   0.155   4.779   3.382
 5741SOL    HW118122   0.163   4.865   3.331
 5741SOL    HW218123   0.103   4.713   3.327
 5742SOL     OW18124   6.784   6.366   4.477
 5742SOL    HW118125   6.795   6.268   4.464
 5742SOL    HW218126   6.697   6.396   4.436
 5743SOL     OW18127   1.958   6.808   4.940
 5743SOL    HW118128   1.893   6.746   4.984
 5743SOL    HW218129   2.002   6.762   4.863
 5744SOL     OW18130   5.731   6.632   2.016
 5744SOL    HW118131   5.659   6.671   2.074
 5744SOL    HW218132   5.693   6.609   1.927
 5745SOL     OW18133   1.393   1.707   3.427
 5745SOL    HW118134   1.325   1.635   3.442
 5745SOL    HW218135   1.484   1.666   3.416
 5746SOL     OW18136   6.206   4.025   0.159
 5746SOL    HW118137   6.119   3.986   0.129
 5746SOL    HW218138   6.281   3.966   0.131
 5747SOL     OW18139   0.972   6.095   2.974
 5747SOL    HW118140   0.914   6.065   3.049
 5747SOL    HW218141   1.054   6.037   2.969
 5748SOL     OW18142   2.227   5.989   3.125
 5748SOL    HW118143   2.181   6.036   3.050
 5748SOL    HW218144   2.283   5.914   3.088
 5749SOL     OW18145   2.214   1.942   3.561
 5749SOL    HW118146   2.249   1.967   3.652
 5749SOL    HW218147   2.291   1.922   3.501
 5750SOL     OW18148   6.279   5.676   2.692
 5750SOL    HW118149   6.276   5.583   2.656
 5750SOL    HW218150   6.309   5.674   2.787
 5751SOL     OW18151   2.416   2.944   6.420
 5751SOL    HW118152   2.334   2.927   6.476
 5751SOL    HW218153   2.475   3.010   6.466
 5752SOL     OW18154   6.810   0.526   7.019
 5752SOL    HW118155   6.902   0.529   6.979
 5752SOL    HW218156   6.788   0.616   0.033
 5753SOL     OW18157   3.762   2.315   0.267
 5753SOL    HW118158   3.751   2.413   0.282
 5753SOL    HW218159   3.754   2.267   0.354
 5754SOL     OW18160   6.116   4.456   0.844
 5754SOL    HW118161   6.173   4.472   0.763
 5754SOL    HW218162   6.171   4.411   0.915
 5755SOL     OW18163   3.464   3.602   1.436
 5755SOL    HW118164   3.457   3.620   1.534
 5755SOL    HW218165   3.434   3.508   1.418
 5756SOL     OW18166   0.095   6.267   4.026
 5756SOL    HW118167   0.127   6.360   4.013
 5756SOL    HW218168   0.146   6.223   4.099
 5757SOL     OW18169   0.412   5.211   1.398
 5757SOL    HW118170   0.339   5.144   1.390
 5757SOL    HW218171   0.395   5.288   1.336
 5758SOL     OW18172   0.974   1.943   5.553
 5758SOL    HW118173   0.975   1.870   5.485
 5758SOL    HW218174   1.060   1.995   5.547
 5759SOL     OW18175   5.546   1.967   5.137
 5759SOL    HW118176   5.572   1.984   5.041
 5759SOL    HW218177   5.447   1.964   5.145
 5760SOL     OW18178   1.984   5.710   1.804
 5760SOL    HW118179   2.071   5.669   1.774
 5760SOL    HW218180   1.952   5.663   1.886
 5761SOL     OW18181   5.082   0.234   5.049
 5761SOL    HW118182   5.119   0.269   4.963
 5761SOL    HW218183   4.991   0.195   5.034
 5762SOL     OW18184   5.597   6.153   1.253
 5762SOL    HW118185   5.683   6.102   1.245
 5762SOL    HW218186   5.593   6.221   1.180
 5763SOL     OW18187   1.105   1.505   1.385
 5763SOL    HW118188   1.117   1.579   1.451
 5763SOL    HW218189   1.183   1.505   1.321
 5764SOL     OW18190   4.654   3.487   5.605
 5764SOL    HW118191   4.692   3.438   5.684
 5764SOL    HW218192   4.644   3.424   5.528
 5765SOL     OW18193   5.830   4.617   0.541
 5765SOL    HW118194   5.742   4.597   0.497
 5765SOL    HW218195   5.822   4.605   0.640
 5766SOL     OW18196   2.922   1.224   3.857
 5766SOL    HW118197   2.926   1.261   3.950
 5766SOL    HW218198   2.936   1.298   3.791
 5767SOL     OW18199   6.668   6.899   0.855
 5767SOL    HW118200   6.583   6.951   0.852
 5767SOL    HW218201   6.730   6.942   0.921
 5768SOL     OW18202   6.369   0.525   2.745
 5768SOL    HW118203   6.445   0.465   2.720
 5768SOL    HW218204   6.286   0.471   2.757
 5769SOL     OW18205   2.238   5.620   3.894
 5769SOL    HW118206   2.152   5.637   3.846
 5769SOL    HW218207   2.314   5.630   3.829
 5770SOL     OW18208   6.211   0.511   1.623
 5770SOL    HW118209   6.147   0.525   1.546
 5770SOL    HW218210   6.159   0.507   1.708
 5771SOL     OW18211   0.820   1.447   2.446
 5771SOL    HW118212   0.859   1.363   2.484
 5771SOL    HW218213   0.728   1.461   2.483
 5772SOL     OW18214   6.948   4.567   6.927
 5772SOL    HW118215   6.862   4.618   6.918
 5772SOL    HW218216   6.944   4.487   6.867
 5773SOL     OW18217   5.889   5.851   4.383
 5773SOL    HW118218   5.896   5.899   4.471
 5773SOL    HW218219   5.853   5.913   4.314
 5774SOL     OW18220   2.611   5.256   2.729
 5774SOL    HW118221   2.673   5.179   2.741
 5774SOL    HW218222   2.547   5.236   2.654
 5775SOL     OW18223   0.457   0.332   0.222
 5775SOL    HW118224   0.519   0.272   0.171
 5775SOL    HW218225   0.365   0.325   0.183
 5776SOL     OW18226   5.350   0.994   6.145
 5776SOL    HW118227   5.323   0.980   6.049
 5776SOL    HW218228   5.432   1.051   6.148
 5777SOL     OW18229   5.936   0.627   5.188
 5777SOL    HW118230   5.888   0.540   5.197
 5777SOL    HW218231   6.013   0.616   5.125
 5778SOL     OW18232   2.284   6.793   3.700
 5778SOL    HW118233   2.317   6.868   3.757
 5778SOL    HW218234   2.334   6.791   3.614
 5779SOL     OW18235   4.007   0.755   2.138
 5779SOL    HW118236   4.047   0.827   2.080
 5779SOL    HW218237   3.946   0.797   2.206
 5780SOL     OW18238   5.928   3.683   1.285
 5780SOL    HW118239   5.915   3.595   1.329
 5780SOL    HW218240   6.026   3.700   1.271
 5781SOL     OW18241   2.452   4.950   4.958
 5781SOL    HW118242   2.383   4.902   5.012
 5781SOL    HW218243   2.525   4.887   4.932
 5782SOL     OW18244   3.105   1.130   3.164
 5782SOL    HW118245   3.091   1.227   3.144
 5782SOL    HW218246   3.156   1.121   3.249
 5783SOL     OW18247   2.745   6.717   1.197
 5783SOL    HW118248   2.745   6.740   1.295
 5783SOL    HW218249   2.651   6.709   1.165
 5784SOL     OW18250   2.002   5.469   0.202
 5784SOL    HW118251   2.064   5.524   0.259
 5784SOL    HW218252   2.051   5.389   0.169
 5785SOL     OW18253   2.528   1.594   0.532
 5785SOL    HW118254   2.594   1.640   0.591
 5785SOL    HW218255   2.576   1.557   0.452
 5786SOL     OW18256   0.855   3.379   0.354
 5786SOL    HW118257   0.893   3.468   0.378
 5786SOL    HW218258   0.765   3.392   0.312
 5787SOL     OW18259   0.373   3.149   5.337
 5787SOL    HW118260   0.466   3.150   5.302
 5787SOL    HW218261   0.329   3.237   5.318
 5788SOL     OW18262   1.983   2.446   1.875
 5788SOL    HW118263   1.982   2.546   1.878
 5788SOL    HW218264   1.933   2.409   1.953
 5789SOL     OW18265   2.987   5.057   6.849
 5789SOL    HW118266   3.084   5.038   6.862
 5789SOL    HW218267   2.957   5.126   6.916
 5790SOL     OW18268   6.138   5.937   3.618
 5790SOL    HW118269   6.144   5.979   3.527
 5790SOL    HW218270   6.171   6.002   3.687
 5791SOL     OW18271   3.986   1.762   1.193
 5791SOL    HW118272   4.056   1.703   1.152
 5791SOL    HW218273   3.924   1.707   1.248
 5792SOL     OW18274   4.077   2.102   2.620
 5792SOL    HW118275   4.147   2.172   2.603
 5792SOL    HW218276   4.116   2.011   2.607
 5793SOL     OW18277   3.916   2.637   6.828
 5793SOL    HW118278   3.939   2.608   6.921
 5793SOL    HW218279   3.871   2.562   6.780
 5794SOL     OW18280   3.593   6.390   0.094
 5794SOL    HW118281   3.498   6.420   0.095
 5794SOL    HW218282   3.624   6.371   0.187
 5795SOL     OW18283   2.059   6.189   1.771
 5795SOL    HW118284   2.036   6.279   1.809
 5795SOL    HW218285   1.988   6.123   1.795
 5796SOL     OW18286   5.000   0.732   6.447
 5796SOL    HW118287   4.939   0.709   6.523
 5796SOL    HW218288   5.095   0.730   6.479
 5797SOL     OW18289   6.864   2.846   0.541
 5797SOL    HW118290   6.795   2.862   0.611
 5797SOL    HW218291   6.949   2.893   0.566
 5798SOL     OW18292   1.689   3.794   4.374
 5798SOL    HW118293   1.734   3.883   4.369
 5798SOL    HW218294   1.708   3.742   4.291
 5799SOL     OW18295   2.672   0.253   3.711
 5799SOL    HW118296   2.677   0.285   3.616
 5799SOL    HW218297   2.638   0.159   3.712
 5800SOL     OW18298   1.133   0.366   1.098
 5800SOL    HW118299   1.080   0.327   1.173
 5800SOL    HW218300   1.188   0.443   1.132
 5801SOL     OW18301   1.917   1.818   2.249
 5801SOL    HW118302   1.998   1.840   2.304
 5801SOL    HW218303   1.946   1.792   2.157
 5802SOL     OW18304   0.602   0.113   2.397
 5802SOL    HW118305   0.559   0.074   2.479
 5802SOL    HW218306   0.649   0.198   2.421
 5803SOL     OW18307   0.407   6.162   4.495
 5803SOL    HW118308   0.385   6.144   4.591
 5803SOL    HW218309   0.505   6.184   4.487
 5804SOL     OW18310   5.784   1.967   2.718
 5804SOL    HW118311   5.772   1.977   2.817
 5804SOL    HW218312   5.702   1.999   2.671
 5805SOL     OW18313   1.365   2.956   2.401
 5805SOL    HW118314   1.312   2.872   2.400
 5805SOL    HW218315   1.460   2.935   2.424
 5806SOL     OW18316   6.640   4.243   1.944
 5806SOL    HW118317   6.693   4.224   2.027
 5806SOL    HW218318   6.623   4.342   1.937
 5807SOL     OW18319   1.495   1.225   2.395
 5807SOL    HW118320   1.510   1.179   2.308
 5807SOL    HW218321   1.529   1.319   2.390
 5808SOL     OW18322   6.678   0.572   5.995
 5808SOL    HW118323   6.726   0.627   5.927
 5808SOL    HW218324   6.717   0.480   5.998
 5809SOL     OW18325   0.251   2.764   4.407
 5809SOL    HW118326   0.223   2.675   4.371
 5809SOL    HW218327   0.230   2.769   4.505
 5810SOL     OW18328   3.215   6.334   5.304
 5810SOL    HW118329   3.240   6.260   5.367
 5810SOL    HW218330   3.245   6.422   5.341
 5811SOL     OW18331   3.798   4.106   6.435
 5811SOL    HW118332   3.709   4.132   6.396
 5811SOL    HW218333   3.834   4.181   6.490
 5812SOL     OW18334   5.839   2.877   6.071
 5812SOL    HW118335   5.869   2.803   6.131
 5812SOL    HW218336   5.917   2.911   6.019
 5813SOL     OW18337   5.061   5.517   0.778
 5813SOL    HW118338   5.046   5.562   0.866
 5813SOL    HW218339   5.075   5.587   0.707
 5814SOL     OW18340   5.757   1.203   2.164
 5814SOL    HW118341   5.687   1.193   2.093
 5814SOL    HW218342   5.844   1.168   2.130
 5815SOL     OW18343   6.223   3.182   4.144
 5815SOL    HW118344   6.209   3.170   4.046
 5815SOL    HW218345   6.135   3.177   4.191
 5816SOL     OW18346   0.418   3.959   2.278
 5816SOL    HW118347   0.455   3.970   2.370
 5816SOL    HW218348   0.481   3.902   2.224
 5817SOL     OW18349   6.199   3.595   3.109
 5817SOL    HW118350   6.109   3.637   3.102
 5817SOL    HW218351   6.202   3.512   3.054
 5818SOL     OW18352   2.701   0.327   4.456
 5818SOL    HW118353   2.643   0.329   4.375
 5818SOL    HW218354   2.656   0.378   4.530
 5819SOL     OW18355   3.959   4.162   0.497
 5819SOL    HW118356   3.948   4.149   0.399
 5819SOL    HW218357   3.999   4.080   0.537
 5820SOL     OW18358   6.228   0.009   2.479
 5820SOL    HW118359   6.305   0.039   2.423
 5820SOL    HW218360   6.234   6.936   2.493
 5821SOL     OW18361   6.947   0.453   2.028
 5821SOL    HW118362   6.948   0.355   2.044
 5821SOL    HW218363   6.883   0.474   1.953
 5822SOL     OW18364   1.393   4.312   2.888
 5822SOL    HW118365   1.434   4.341   2.975
 5822SOL    HW218366   1.295   4.331   2.890
 5823SOL     OW18367   1.729   6.584   3.913
 5823SOL    HW118368   1.630   6.601   3.915
 5823SOL    HW218369   1.746   6.487   3.925
 5824SOL     OW18370   1.635   6.739   2.282
 5824SOL    HW118371   1.726   6.780   2.280
 5824SOL    HW218372   1.613   6.701   2.192
 5825SOL     OW18373   4.689   1.694   3.977
 5825SOL    HW118374   4.610   1.638   3.952
 5825SOL    HW218375   4.698   1.769   3.911
 5826SOL     OW18376   1.438   6.850   5.347
 5826SOL    HW118377   1.448   6.775   5.413
 5826SOL    HW218378   1.376   6.919   5.385
 5827SOL     OW18379   2.190   4.018   3.717
 5827SOL    HW118380   2.167   3.966   3.634
 5827SOL    HW218381   2.136   4.102   3.719
 5828SOL     OW18382   4.317   0.602   5.398
 5828SOL    HW118383   4.258   0.678   5.428
 5828SOL    HW218384   4.409   0.615   5.435
 5829SOL     OW18385   2.015   0.440   2.862
 5829SOL    HW118386   2.051   0.432   2.769
 5829SOL    HW218387   1.916   0.456   2.857
 5830SOL     OW18388   4.056   5.150   4.184
 5830SOL    HW118389   4.085   5.241   4.156
 5830SOL    HW218390   4.136   5.095   4.208
 5831SOL     OW18391   2.165   1.959   4.910
 5831SOL    HW118392   2.085   1.899   4.916
 5831SOL    HW218393   2.244   1.915   4.954
 5832SOL     OW18394   3.112   5.452   1.997
 5832SOL    HW118395   3.162   5.386   1.941
 5832SOL    HW218396   3.143   5.445   2.092
 5833SOL     OW18397   3.354   5.748   6.963
 5833SOL    HW118398   3.319   5.702   0.020
 5833SOL    HW218399   3.336   5.846   6.969
 5834SOL     OW18400   6.650   2.918   6.122
 5834SOL    HW118401   6.680   2.957   6.034
 5834SOL    HW218402   6.666   2.984   6.195
 5835SOL     OW18403   4.806   1.805   3.122
 5835SOL    HW118404   4.744   1.871   3.165
 5835SOL    HW218405   4.900   1.835   3.135
 5836SOL     OW18406   5.374   6.132   2.105
 5836SOL    HW118407   5.441   6.206   2.106
 5836SOL    HW218408   5.282   6.170   2.113
 5837SOL     OW18409   3.041   4.894   6.409
 5837SOL    HW118410   3.017   4.797   6.418
 5837SOL    HW218411   2.959   4.949   6.399
 5838SOL     OW18412   4.080   2.931   0.499
 5838SOL    HW118413   4.149   2.875   0.453
 5838SOL    HW218414   4.074   3.020   0.454
 5839SOL     OW18415   1.828   2.179   0.995
 5839SOL    HW118416   1.788   2.269   0.974
 5839SOL    HW218417   1.776   2.108   0.948
 5840SOL     OW18418   0.428   3.651   3.674
 5840SOL    HW118419   0.347   3.647   3.615
 5840SOL    HW218420   0.502   3.598   3.632
 5841SOL     OW18421   5.196   1.185   0.583
 5841SOL    HW118422   5.225   1.280   0.595
 5841SOL    HW218423   5.141   1.156   0.660
 5842SOL     OW18424   2.805   1.676   1.206
 5842SOL    HW118425   2.719   1.699   1.252
 5842SOL    HW218426   2.799   1.583   1.168
 5843SOL     OW18427   3.779   3.167   0.704
 5843SOL    HW118428   3.829   3.105   0.764
 5843SOL    HW218429   3.763   3.124   0.616
 5844SOL     OW18430   0.522   5.877   5.015
 5844SOL    HW118431   0.443   5.938   5.026
 5844SOL    HW218432   0.490   5.783   5.000
 5845SOL     OW18433   1.488   6.764   2.524
 5845SOL    HW118434   1.538   6.735   2.443
 5845SOL    HW218435   1.510   6.703   2.601
 5846SOL     OW18436   0.961   4.066   5.301
 5846SOL    HW118437   0.891   4.137   5.290
 5846SOL    HW218438   1.038   4.104   5.353
 5847SOL     OW18439   1.500   3.993   6.223
 5847SOL    HW118440   1.430   3.940   6.174
 5847SOL    HW218441   1.552   4.047   6.157
 5848SOL     OW18442   1.889   5.632   2.061
 5848SOL    HW118443   1.983   5.637   2.095
 5848SOL    HW218444   1.827   5.665   2.132
 5849SOL     OW18445   2.783   5.749   6.580
 5849SOL    HW118446   2.782   5.720   6.675
 5849SOL    HW218447   2.862   5.808   6.564
 5850SOL     OW18448   0.570   1.433   1.688
 5850SOL    HW118449   0.522   1.515   1.719
 5850SOL    HW218450   0.653   1.459   1.639
 5851SOL     OW18451   6.338   3.990   4.442
 5851SOL    HW118452   6.394   3.972   4.361
 5851SOL    HW218453   6.367   4.076   4.484
 5852SOL     OW18454   4.910   4.174   2.463
 5852SOL    HW118455   4.874   4.162   2.370
 5852SOL    HW218456   4.997   4.125   2.471
 5853SOL     OW18457   4.705   4.848   6.541
 5853SOL    HW118458   4.770   4.782   6.577
 5853SOL    HW218459   4.680   4.823   6.447
 5854SOL     OW18460   3.398   4.927   5.185
 5854SOL    HW118461   3.312   4.962   5.222
 5854SOL    HW218462   3.423   4.842   5.233
 5855SOL     OW18463   2.078   2.694   2.780
 5855SOL    HW118464   2.122   2.766   2.834
 5855SOL    HW218465   1.993   2.666   2.825
 5856SOL     OW18466   1.069   6.318   2.820
 5856SOL    HW118467   1.039   6.247   2.885
 5856SOL    HW218468   1.100   6.274   2.736
 5857SOL     OW18469   5.642   4.872   6.544
 5857SOL    HW118470   5.729   4.905   6.508
 5857SOL    HW218471   5.590   4.949   6.582
 5858SOL     OW18472   1.697   0.808   2.901
 5858SOL    HW118473   1.786   0.837   2.865
 5858SOL    HW218474   1.683   0.846   2.992
 5859SOL     OW18475   5.355   5.782   1.819
 5859SOL    HW118476   5.261   5.789   1.785
 5859SOL    HW218477   5.356   5.800   1.918
 5860SOL     OW18478   0.541   4.502   2.949
 5860SOL    HW118479   0.529   4.573   3.017
 5860SOL    HW218480   0.606   4.434   2.983
 5861SOL     OW18481   4.768   0.815   5.600
 5861SOL    HW118482   4.817   0.757   5.665
 5861SOL    HW218483   4.833   0.876   5.555
 5862SOL     OW18484   6.235   5.199   3.205
 5862SOL    HW118485   6.173   5.192   3.127
 5862SOL    HW218486   6.205   5.137   3.277
 5863SOL     OW18487   3.859   7.009   6.777
 5863SOL    HW118488   3.867   0.078   6.746
 5863SOL    HW218489   3.865   7.007   6.877
 5864SOL     OW18490   3.541   3.682   2.486
 5864SOL    HW118491   3.517   3.674   2.389
 5864SOL    HW218492   3.636   3.714   2.494
 5865SOL     OW18493   6.505   0.527   6.625
 5865SOL    HW118494   6.578   0.566   6.680
 5865SOL    HW218495   6.465   0.449   6.673
 5866SOL     OW18496   3.356   2.854   2.692
 5866SOL    HW118497   3.367   2.832   2.789
 5866SOL    HW218498   3.344   2.952   2.681
 5867SOL     OW18499   3.006   1.673   1.383
 5867SOL    HW118500   3.032   1.766   1.407
 5867SOL    HW218501   2.918   1.674   1.335
 5868SOL     OW18502   0.931   1.012   6.771
 5868SOL    HW118503   0.879   0.964   6.701
 5868SOL    HW218504   0.987   0.947   6.823
 5869SOL     OW18505   1.038   5.878   3.532
 5869SOL    HW118506   1.123   5.827   3.518
 5869SOL    HW218507   0.978   5.864   3.453
 5870SOL     OW18508   3.737   6.097   4.355
 5870SOL    HW118509   3.663   6.136   4.300
 5870SOL    HW218510   3.705   6.014   4.401
 5871SOL     OW18511   3.557   3.231   3.651
 5871SOL    HW118512   3.526   3.293   3.723
 5871SOL    HW218513   3.499   3.242   3.570
 5872SOL     OW18514   4.992   6.221   0.325
 5872SOL    HW118515   4.996   6.135   0.274
 5872SOL    HW218516   4.980   6.201   0.423
 5873SOL     OW18517   4.253   6.135   2.266
 5873SOL    HW118518   4.249   6.231   2.293
 5873SOL    HW218519   4.165   6.106   2.229
 5874SOL     OW18520   0.982   3.874   5.630
 5874SOL    HW118521   0.952   3.797   5.573
 5874SOL    HW218522   0.952   3.960   5.589
 5875SOL     OW18523   3.676   1.861   1.538
 5875SOL    HW118524   3.728   1.946   1.548
 5875SOL    HW218525   3.597   1.877   1.479
 5876SOL     OW18526   3.201   3.172   1.598
 5876SOL    HW118527   3.259   3.203   1.673
 5876SOL    HW218528   3.143   3.247   1.567
 5877SOL     OW18529   5.850   4.578   1.208
 5877SOL    HW118530   5.907   4.498   1.191
 5877SOL    HW218531   5.766   4.573   1.153
 5878SOL     OW18532   2.265   4.304   2.703
 5878SOL    HW118533   2.362   4.325   2.707
 5878SOL    HW218534   2.230   4.326   2.611
 5879SOL     OW18535   0.704   4.280   4.107
 5879SOL    HW118536   0.626   4.253   4.164
 5879SOL    HW218537   0.750   4.358   4.148
 5880SOL     OW18538   3.435   5.727   0.492
 5880SOL    HW118539   3.403   5.796   0.427
 5880SOL    HW218540   3.447   5.640   0.444
 5881SOL     OW18541   1.198   5.593   4.219
 5881SOL    HW118542   1.198   5.583   4.318
 5881SOL    HW218543   1.292   5.583   4.184
 5882SOL     OW18544   4.827   0.820   2.830
 5882SOL    HW118545   4.893   0.874   2.778
 5882SOL    HW218546   4.823   0.727   2.793
 5883SOL     OW18547   0.897   3.408   5.258
 5883SOL    HW118548   0.876   3.482   5.194
 5883SOL    HW218549   0.969   3.350   5.220
 5884SOL     OW18550   0.636   0.804   3.723
 5884SOL    HW118551   0.578   0.736   3.768
 5884SOL    HW218552   0.581   0.883   3.697
 5885SOL     OW18553   5.742   6.897   0.907
 5885SOL    HW118554   5.687   6.879   0.989
 5885SOL    HW218555   5.823   6.949   0.933
 5886SOL     OW18556   0.495   0.765   6.385
 5886SOL    HW118557   0.589   0.800   6.393
 5886SOL    HW218558   0.465   0.731   6.474
 5887SOL     OW18559   4.524   6.462   3.180
 5887SOL    HW118560   4.574   6.516   3.248
 5887SOL    HW218561   4.567   6.372   3.171
 5888SOL     OW18562   0.964   0.941   2.846
 5888SOL    HW118563   1.004   0.868   2.789
 5888SOL    HW218564   0.864   0.933   2.845
 5889SOL     OW18565   2.789   0.155   6.929
 5889SOL    HW118566   2.699   0.162   6.886
 5889SOL    HW218567   2.806   0.060   6.957
 5890SOL     OW18568   3.401   5.065   5.937
 5890SOL    HW118569   3.370   4.978   5.898
 5890SOL    HW218570   3.490   5.089   5.897
 5891SOL     OW18571   2.220   3.473   6.627
 5891SOL    HW118572   2.191   3.552   6.572
 5891SOL    HW218573   2.312   3.447   6.600
 5892SOL     OW18574   1.350   6.864   2.816
 5892SOL    HW118575   1.361   6.787   2.753
 5892SOL    HW218576   1.414   6.854   2.893
 5893SOL     OW18577   1.941   0.862   3.286
 5893SOL    HW118578   1.873   0.800   3.324
 5893SOL    HW218579   1.920   0.955   3.314
 5894SOL     OW18580   0.653   3.792   4.014
 5894SOL    HW118581   0.600   3.847   3.949
 5894SOL    HW218582   0.654   3.697   3.983
 5895SOL     OW18583   5.428   3.496   3.767
 5895SOL    HW118584   5.457   3.586   3.802
 5895SOL    HW218585   5.490   3.426   3.802
 5896SOL     OW18586   4.637   2.076   5.652
 5896SOL    HW118587   4.614   1.990   5.606
 5896SOL    HW218588   4.725   2.066   5.699
 5897SOL     OW18589   4.296   0.203   1.575
 5897SOL    HW118590   4.302   0.121   1.633
 5897SOL    HW218591   4.222   0.191   1.509
 5898SOL     OW18592   2.370   6.479   3.102
 5898SOL    HW118593   2.441   6.409   3.113
 5898SOL    HW218594   2.314   6.458   3.022
 5899SOL     OW18595   5.701   0.292   3.705
 5899SOL    HW118596   5.775   0.358   3.695
 5899SOL    HW218597   5.739   0.200   3.711
 5900SOL     OW18598   3.965   5.140   2.276
 5900SOL    HW118599   3.926   5.072   2.214
 5900SOL    HW218600   3.891   5.188   2.325
 5901SOL     OW18601   3.472   6.192   5.148
 5901SOL    HW118602   3.411   6.253   5.199
 5901SOL    HW218603   3.436   6.180   5.055
 5902SOL     OW18604   6.397   1.247   6.936
 5902SOL    HW118605   6.349   1.331   6.912
 5902SOL    HW218606   6.466   1.266   7.005
 5903SOL     OW18607   6.862   3.244   6.684
 5903SOL    HW118608   6.888   3.204   6.772
 5903SOL    HW218609   6.888   3.182   6.610
 5904SOL     OW18610   0.519   4.271   2.329
 5904SOL    HW118611   0.544   4.187   2.377
 5904SOL    HW218612   0.420   4.283   2.333
 5905SOL     OW18613   6.556   4.853   1.988
 5905SOL    HW118614   6.648   4.891   1.999
 5905SOL    HW218615   6.519   4.881   1.899
 5906SOL     OW18616   0.206   1.523   4.212
 5906SOL    HW118617   0.227   1.590   4.142
 5906SOL    HW218618   0.270   1.532   4.288
 5907SOL     OW18619   1.914   6.816   2.335
 5907SOL    HW118620   1.965   6.899   2.356
 5907SOL    HW218621   1.962   6.764   2.264
 5908SOL     OW18622   0.191   2.406   6.178
 5908SOL    HW118623   0.261   2.469   6.144
 5908SOL    HW218624   0.101   2.450   6.170
 5909SOL     OW18625   6.838   3.912   0.768
 5909SOL    HW118626   6.908   3.895   0.698
 5909SOL    HW218627   6.759   3.955   0.725
 5910SOL     OW18628   2.116   1.476   3.861
 5910SOL    HW118629   2.047   1.547   3.851
 5910SOL    HW218630   2.101   1.426   3.946
 5911SOL     OW18631   6.840   5.837   6.096
 5911SOL    HW118632   6.835   5.851   6.195
 5911SOL    HW218633   6.886   5.915   6.054
 5912SOL     OW18634   1.101   0.665   4.223
 5912SOL    HW118635   1.093   0.699   4.130
 5912SOL    HW218636   1.042   0.584   4.234
 5913SOL     OW18637   6.290   1.496   6.985
 5913SOL    HW118638   6.290   1.467   0.055
 5913SOL    HW218639   6.345   1.579   6.975
 5914SOL     OW18640   0.842   6.400   0.558
 5914SOL    HW118641   0.926   6.359   0.523
 5914SOL    HW218642   0.829   6.373   0.654
 5915SOL     OW18643   3.962   1.558   5.830
 5915SOL    HW118644   4.034   1.565   5.899
 5915SOL    HW218645   3.992   1.601   5.745
 5916SOL     OW18646   1.002   6.557   2.386
 5916SOL    HW118647   1.022   6.541   2.289
 5916SOL    HW218648   0.941   6.485   2.419
 5917SOL     OW18649   3.319   4.408   0.387
 5917SOL    HW118650   3.227   4.419   0.349
 5917SOL    HW218651   3.377   4.360   0.321
 5918SOL     OW18652   2.840   6.376   4.968
 5918SOL    HW118653   2.745   6.389   4.941
 5918SOL    HW218654   2.898   6.444   4.924
 5919SOL     OW18655   3.369   3.456   4.756
 5919SOL    HW118656   3.277   3.439   4.721
 5919SOL    HW218657   3.417   3.519   4.695
 5920SOL     OW18658   6.269   0.451   5.609
 5920SOL    HW118659   6.196   0.437   5.543
 5920SOL    HW218660   6.243   0.523   5.673
 5921SOL     OW18661   2.652   4.154   6.520
 5921SOL    HW118662   2.585   4.118   6.584
 5921SOL    HW218663   2.608   4.176   6.433
 5922SOL     OW18664   5.045   2.879   2.327
 5922SOL    HW118665   4.976   2.913   2.391
 5922SOL    HW218666   5.136   2.888   2.369
 5923SOL     OW18667   6.149   0.635   3.490
 5923SOL    HW118668   6.218   0.564   3.500
 5923SOL    HW218669   6.077   0.604   3.427
 5924SOL     OW18670   5.236   6.928   3.360
 5924SOL    HW118671   5.159   6.900   3.417
 5924SOL    HW218672   5.305   6.974   3.418
 5925SOL     OW18673   4.527   0.858   1.303
 5925SOL    HW118674   4.464   0.804   1.246
 5925SOL    HW218675   4.496   0.953   1.305
 5926SOL     OW18676   4.878   4.476   3.659
 5926SOL    HW118677   4.838   4.443   3.574
 5926SOL    HW218678   4.822   4.445   3.736
 5927SOL     OW18679   0.351   4.780   1.858
 5927SOL    HW118680   0.356   4.792   1.958
 5927SOL    HW218681   0.289   4.848   1.820
 5928SOL     OW18682   2.601   0.367   0.215
 5928SOL    HW118683   2.671   0.428   0.178
 5928SOL    HW218684   2.644   0.297   0.272
 5929SOL     OW18685   1.774   0.997   0.164
 5929SOL    HW118686   1.704   0.925   0.165
 5929SOL    HW218687   1.861   0.959   0.133
 5930SOL     OW18688   1.840   3.608   2.458
 5930SOL    HW118689   1.777   3.556   2.516
 5930SOL    HW218690   1.789   3.652   2.384
 5931SOL     OW18691   5.103   6.810   3.005
 5931SOL    HW118692   5.032   6.878   2.990
 5931SOL    HW218693   5.193   6.851   2.990
 5932SOL     OW18694   2.971   1.083   6.235
 5932SOL    HW118695   3.032   1.020   6.282
 5932SOL    HW218696   3.025   1.147   6.181
 5933SOL     OW18697   6.016   6.618   4.725
 5933SOL    HW118698   6.070   6.613   4.640
 5933SOL    HW218699   5.929   6.571   4.711
 5934SOL     OW18700   3.439   3.435   6.671
 5934SOL    HW118701   3.431   3.434   6.771
 5934SOL    HW218702   3.471   3.347   6.639
 5935SOL     OW18703   1.307   6.382   5.997
 5935SOL    HW118704   1.282   6.367   5.902
 5935SOL    HW218705   1.344   6.297   6.036
 5936SOL     OW18706   3.363   3.193   1.922
 5936SOL    HW118707   3.321   3.282   1.939
 5936SOL    HW218708   3.345   3.132   1.999
 5937SOL     OW18709   0.377   3.121   1.153
 5937SOL    HW118710   0.406   3.190   1.219
 5937SOL    HW218711   0.285   3.142   1.121
 5938SOL     OW18712   0.342   4.437   4.209
 5938SOL    HW118713   0.259   4.446   4.265
 5938SOL    HW218714   0.336   4.354   4.154
 5939SOL     OW18715   3.899   1.347   5.070
 5939SOL    HW118716   3.877   1.400   4.988
 5939SOL    HW218717   3.815   1.319   5.116
 5940SOL     OW18718   4.747   5.513   2.079
 5940SOL    HW118719   4.724   5.609   2.097
 5940SOL    HW218720   4.720   5.490   1.985
 5941SOL     OW18721   7.007   2.339   2.937
 5941SOL    HW118722   0.058   2.282   2.907
 5941SOL    HW218723   0.016   2.421   2.982
 5942SOL     OW18724   5.283   3.038   5.809
 5942SOL    HW118725   5.224   3.090   5.871
 5942SOL    HW218726   5.281   3.079   5.718
 5943SOL     OW18727   2.939   4.238   1.692
 5943SOL    HW118728   2.924   4.335   1.709
 5943SOL    HW218729   2.888   4.209   1.611
 5944SOL     OW18730   6.855   3.615   6.551
 5944SOL    HW118731   6.846   3.516   6.539
 5944SOL    HW218732   6.952   3.638   6.561
 5945SOL     OW18733   6.613   6.178   4.655
 5945SOL    HW118734   6.569   6.251   4.603
 5945SOL    HW218735   6.694   6.147   4.606
 5946SOL     OW18736   2.657   3.830   0.669
 5946SOL    HW118737   2.721   3.773   0.615
 5946SOL    HW218738   2.705   3.867   0.748
 5947SOL     OW18739   4.092   3.362   4.683
 5947SOL    HW118740   3.993   3.361   4.697
 5947SOL    HW218741   4.116   3.300   4.608
 5948SOL     OW18742   5.239   3.204   1.702
 5948SOL    HW118743   5.264   3.292   1.742
 5948SOL    HW218744   5.139   3.200   1.690
 5949SOL     OW18745   0.249   4.520   2.666
 5949SOL    HW118746   0.164   4.527   2.718
 5949SOL    HW218747   0.233   4.466   2.583
 5950SOL     OW18748   3.789   6.860   5.018
 5950SOL    HW118749   3.725   6.864   4.941
 5950SOL    HW218750   3.878   6.897   4.989
 5951SOL     OW18751   0.443   3.887   6.727
 5951SOL    HW118752   0.452   3.885   6.627
 5951SOL    HW218753   0.349   3.913   6.751
 5952SOL     OW18754   4.355   4.642   0.899
 5952SOL    HW118755   4.373   4.709   0.970
 5952SOL    HW218756   4.421   4.653   0.825
 5953SOL     OW18757   6.453   3.098   5.137
 5953SOL    HW118758   6.406   3.154   5.205
 5953SOL    HW218759   6.410   3.008   5.133
 5954SOL     OW18760   1.753   6.025   4.131
 5954SOL    HW118761   1.661   5.999   4.102
 5954SOL    HW218762   1.820   5.986   4.068
 5955SOL     OW18763   5.505   3.676   0.468
 5955SOL    HW118764   5.461   3.765   0.460
 5955SOL    HW218765   5.444   3.612   0.514
 5956SOL     OW18766   5.377   2.586   5.345
 5956SOL    HW118767   5.447   2.582   5.274
 5956SOL    HW218768   5.413   2.549   5.431
 5957SOL     OW18769   6.993   2.239   3.198
 5957SOL    HW118770   6.974   2.250   3.101
 5957SOL    HW218771   6.942   2.161   3.234
 5958SOL     OW18772   3.105   0.197   2.574
 5958SOL    HW118773   3.042   0.249   2.517
 5958SOL    HW218774   3.096   0.227   2.669
 5959SOL     OW18775   4.814   2.484   4.144
 5959SOL    HW118776   4.868   2.488   4.228
 5959SOL    HW218777   4.757   2.565   4.136
 5960SOL     OW18778   4.224   6.980   6.453
 5960SOL    HW118779   4.175   0.032   6.493
 5960SOL    HW218780   4.158   6.912   6.421
 5961SOL     OW18781   2.684   2.395   3.255
 5961SOL    HW118782   2.713   2.302   3.280
 5961SOL    HW218783   2.707   2.413   3.160
 5962SOL     OW18784   5.290   5.952   0.854
 5962SOL    HW118785   5.263   5.914   0.943
 5962SOL    HW218786   5.390   5.954   0.847
 5963SOL     OW18787   2.986   3.898   7.002
 5963SOL    HW118788   3.054   3.854   6.943
 5963SOL    HW218789   2.991   3.997   6.990
 5964SOL     OW18790   2.808   6.937   2.312
 5964SOL    HW118791   2.818   6.973   2.405
 5964SOL    HW218792   2.852   6.848   2.305
 5965SOL     OW18793   1.923   0.493   6.849
 5965SOL    HW118794   2.010   0.490   6.899
 5965SOL    HW218795   1.889   0.399   6.836
 5966SOL     OW18796   2.736   1.365   4.619
 5966SOL    HW118797   2.764   1.275   4.586
 5966SOL    HW218798   2.643   1.384   4.587
 5967SOL     OW18799   3.660   1.826   4.382
 5967SOL    HW118800   3.707   1.802   4.297
 5967SOL    HW218801   3.676   1.756   4.451
 5968SOL     OW18802   5.747   2.818   1.569
 5968SOL    HW118803   5.677   2.794   1.501
 5968SOL    HW218804   5.819   2.748   1.568
 5969SOL     OW18805   5.538   0.562   0.674
 5969SOL    HW118806   5.495   0.508   0.746
 5969SOL    HW218807   5.472   0.577   0.600
 5970SOL     OW18808   0.292   3.212   0.816
 5970SOL    HW118809   0.249   3.141   0.760
 5970SOL    HW218810   0.379   3.239   0.775
 5971SOL     OW18811   6.871   6.407   4.044
 5971SOL    HW118812   6.903   6.491   4.088
 5971SOL    HW218813   6.949   6.360   4.001
 5972SOL     OW18814   5.003   4.585   1.032
 5972SOL    HW118815   4.943   4.649   1.079
 5972SOL    HW218816   5.004   4.605   0.934
 5973SOL     OW18817   3.109   1.571   2.583
 5973SOL    HW118818   3.013   1.554   2.606
 5973SOL    HW218819   3.164   1.572   2.666
 5974SOL     OW18820   5.113   1.728   5.512
 5974SOL    HW118821   5.165   1.759   5.432
 5974SOL    HW218822   5.171   1.672   5.571
 5975SOL     OW18823   4.587   5.139   0.745
 5975SOL    HW118824   4.680   5.118   0.774
 5975SOL    HW218825   4.585   5.155   0.646
 5976SOL     OW18826   2.289   2.848   5.693
 5976SOL    HW118827   2.300   2.895   5.781
 5976SOL    HW218828   2.256   2.755   5.709
 5977SOL     OW18829   6.398   4.376   0.754
 5977SOL    HW118830   6.495   4.353   0.746
 5977SOL    HW218831   6.383   4.466   0.713
 5978SOL     OW18832   2.562   3.523   0.291
 5978SOL    HW118833   2.608   3.608   0.265
 5978SOL    HW218834   2.564   3.460   0.213
 5979SOL     OW18835   5.752   0.919   1.617
 5979SOL    HW118836   5.851   0.904   1.619
 5979SOL    HW218837   5.727   0.965   1.531
 5980SOL     OW18838   2.928   2.759   1.345
 5980SOL    HW118839   2.897   2.717   1.430
 5980SOL    HW218840   3.018   2.721   1.321
 5981SOL     OW18841   2.974   2.481   0.503
 5981SOL    HW118842   3.054   2.425   0.522
 5981SOL    HW218843   2.894   2.442   0.551
 5982SOL     OW18844   5.520   3.233   0.395
 5982SOL    HW118845   5.558   3.310   0.344
 5982SOL    HW218846   5.420   3.241   0.398
 5983SOL     OW18847   0.079   0.719   3.491
 5983SOL    HW118848   0.129   0.745   3.408
 5983SOL    HW218849   0.004   0.658   3.467
 5984SOL     OW18850   5.935   0.025   3.960
 5984SOL    HW118851   6.007   0.065   4.017
 5984SOL    HW218852   5.951   6.952   3.949
 5985SOL     OW18853   6.194   3.280   2.384
 5985SOL    HW118854   6.178   3.324   2.472
 5985SOL    HW218855   6.196   3.348   2.312
 5986SOL     OW18856   4.133   3.637   4.853
 5986SOL    HW118857   4.232   3.649   4.857
 5986SOL    HW218858   4.098   3.673   4.767
 5987SOL     OW18859   0.330   6.846   5.435
 5987SOL    HW118860   0.355   6.754   5.404
 5987SOL    HW218861   0.245   6.841   5.488
 5988SOL     OW18862   0.937   2.736   6.315
 5988SOL    HW118863   0.947   2.778   6.225
 5988SOL    HW218864   1.025   2.740   6.364
 5989SOL     OW18865   0.650   5.990   5.654
 5989SOL    HW118866   0.639   6.037   5.742
 5989SOL    HW218867   0.711   6.043   5.595
 5990SOL     OW18868   3.322   4.868   1.859
 5990SOL    HW118869   3.378   4.786   1.845
 5990SOL    HW218870   3.325   4.895   1.955
 5991SOL     OW18871   4.781   0.171   0.824
 5991SOL    HW118872   4.803   0.180   0.922
 5991SOL    HW218873   4.801   0.258   0.778
 5992SOL     OW18874   3.662   6.504   1.946
 5992SOL    HW118875   3.677   6.544   1.856
 5992SOL    HW218876   3.690   6.570   2.016
 5993SOL     OW18877   5.742   2.163   0.305
 5993SOL    HW118878   5.707   2.256   0.316
 5993SOL    HW218879   5.739   2.138   0.208
 5994SOL     OW18880   0.330   3.367   0.486
 5994SOL    HW118881   0.241   3.325   0.506
 5994SOL    HW218882   0.320   3.429   0.408
 5995SOL     OW18883   5.120   3.815   1.576
 5995SOL    HW118884   5.036   3.858   1.542
 5995SOL    HW218885   5.198   3.874   1.553
 5996SOL     OW18886   2.896   5.687   1.197
 5996SOL    HW118887   2.992   5.672   1.220
 5996SOL    HW218888   2.839   5.673   1.278
 5997SOL     OW18889   6.306   0.546   3.808
 5997SOL    HW118890   6.244   0.503   3.874
 5997SOL    HW218891   6.268   0.634   3.779
 5998SOL     OW18892   5.960   6.005   0.875
 5998SOL    HW118893   6.025   6.017   0.800
 5998SOL    HW218894   5.979   5.919   0.922
 5999SOL     OW18895   4.918   2.589   1.581
 5999SOL    HW118896   4.993   2.649   1.553
 5999SOL    HW218897   4.880   2.621   1.667
 6000SOL     OW18898   0.458   4.162   1.291
 6000SOL    HW118899   0.554   4.138   1.307
 6000SOL    HW218900   0.401   4.081   1.306
 6001SOL     OW18901   6.599   5.565   5.755
 6001SOL    HW118902   6.639   5.512   5.830
 6001SOL    HW218903   6.539   5.506   5.701
 6002SOL     OW18904   6.331   4.621   5.121
 6002SOL    HW118905   6.288   4.575   5.043
 6002SOL    HW218906   6.312   4.719   5.116
 6003SOL     OW18907   1.565   2.760   4.650
 6003SOL    HW118908   1.490   2.699   4.627
 6003SOL    HW218909   1.546   2.806   4.737
 6004SOL     OW18910   4.768   2.101   4.406
 6004SOL    HW118911   4.723   2.147   4.482
 6004SOL    HW218912   4.759   2.156   4.323
 6005SOL     OW18913   4.170   4.607   6.780
 6005SOL    HW118914   4.241   4.606   6.710
 6005SOL    HW218915   4.140   4.701   6.796
 6006SOL     OW18916   3.062   6.091   6.301
 6006SOL    HW118917   3.089   6.003   6.261
 6006SOL    HW218918   3.099   6.166   6.245
 6007SOL     OW18919   2.561   5.934   6.582
 6007SOL    HW118920   2.628   5.869   6.617
 6007SOL    HW218921   2.606   5.997   6.518
 6008SOL     OW18922   3.436   4.052   6.185
 6008SOL    HW118923   3.409   3.960   6.213
 6008SOL    HW218924   3.369   4.087   6.120
 6009SOL     OW18925   3.756   5.332   3.116
 6009SOL    HW118926   3.800   5.290   3.196
 6009SOL    HW218927   3.804   5.303   3.033
 6010SOL     OW18928   0.539   5.340   4.441
 6010SOL    HW118929   0.606   5.384   4.382
 6010SOL    HW218930   0.586   5.282   4.507
 6011SOL     OW18931   6.291   1.938   1.533
 6011SOL    HW118932   6.363   1.883   1.491
 6011SOL    HW218933   6.298   1.932   1.632
 6012SOL     OW18934   6.843   0.314   6.335
 6012SOL    HW118935   6.746   0.338   6.331
 6012SOL    HW218936   6.855   0.233   6.392
 6013SOL     OW18937   5.770   1.591   2.383
 6013SOL    HW118938   5.748   1.618   2.476
 6013SOL    HW218939   5.801   1.671   2.331
 6014SOL     OW18940   3.752   3.631   3.926
 6014SOL    HW118941   3.814   3.698   3.886
 6014SOL    HW218942   3.682   3.678   3.979
 6015SOL     OW18943   5.790   0.792   4.106
 6015SOL    HW118944   5.853   0.716   4.120
 6015SOL    HW218945   5.716   0.787   4.173
 6016SOL     OW18946   4.572   1.208   4.540
 6016SOL    HW118947   4.529   1.121   4.566
 6016SOL    HW218948   4.509   1.261   4.484
 6017SOL     OW18949   6.975   2.202   5.534
 6017SOL    HW118950   6.951   2.199   5.437
 6017SOL    HW218951   6.969   2.110   5.573
 6018SOL     OW18952   2.423   1.161   4.474
 6018SOL    HW118953   2.510   1.112   4.483
 6018SOL    HW218954   2.362   1.135   4.549
 6019SOL     OW18955   6.381   3.974   6.935
 6019SOL    HW118956   6.439   3.933   7.005
 6019SOL    HW218957   6.424   4.058   6.901
 6020SOL     OW18958   0.799   4.976   6.324
 6020SOL    HW118959   0.877   4.940   6.375
 6020SOL    HW218960   0.785   4.922   6.241
 6021SOL     OW18961   5.897   6.818   3.439
 6021SOL    HW118962   5.907   6.737   3.496
 6021SOL    HW218963   5.950   6.893   3.479
 6022SOL     OW18964   6.422   1.706   1.388
 6022SOL    HW118965   6.349   1.646   1.420
 6022SOL    HW218966   6.386   1.768   1.318
 6023SOL     OW18967   3.772   0.533   2.162
 6023SOL    HW118968   3.814   0.609   2.211
 6023SOL    HW218969   3.771   0.553   2.064
 6024SOL     OW18970   1.338   6.419   0.714
 6024SOL    HW118971   1.300   6.333   0.680
 6024SOL    HW218972   1.392   6.462   0.643
 6025SOL     OW18973   3.241   0.635   4.306
 6025SOL    HW118974   3.340   0.620   4.309
 6025SOL    HW218975   3.197   0.558   4.261
 6026SOL     OW18976   5.941   5.301   4.565
 6026SOL    HW118977   5.865   5.361   4.589
 6026SOL    HW218978   6.027   5.346   4.589
 6027SOL     OW18979   5.624   4.069   6.696
 6027SOL    HW118980   5.698   4.050   6.760
 6027SOL    HW218981   5.539   4.084   6.746
 6028SOL     OW18982   5.728   5.670   6.348
 6028SOL    HW118983   5.718   5.731   6.426
 6028SOL    HW218984   5.706   5.719   6.264
 6029SOL     OW18985   2.241   0.910   2.649
 6029SOL    HW118986   2.334   0.880   2.669
 6029SOL    HW218987   2.199   0.848   2.583
 6030SOL     OW18988   5.837   3.645   4.383
 6030SOL    HW118989   5.770   3.717   4.367
 6030SOL    HW218990   5.798   3.557   4.358
 6031SOL     OW18991   0.443   5.696   5.312
 6031SOL    HW118992   0.539   5.674   5.295
 6031SOL    HW218993   0.393   5.699   5.226
 6032SOL     OW18994   3.586   5.849   3.315
 6032SOL    HW118995   3.496   5.865   3.355
 6032SOL    HW218996   3.652   5.912   3.355
 6033SOL     OW18997   1.358   1.879   2.514
 6033SOL    HW118998   1.279   1.818   2.518
 6033SOL    HW218999   1.416   1.853   2.436
 6034SOL     OW19000   1.086   0.115   0.359
 6034SOL    HW119001   1.012   0.063   0.402
 6034SOL    HW219002   1.054   0.155   0.273
 6035SOL     OW19003   2.135   0.053   2.690
 6035SOL    HW119004   2.127   7.020   2.770
 6035SOL    HW219005   2.227   0.092   2.686
 6036SOL     OW19006   6.900   2.869   0.996
 6036SOL    HW119007   6.983   2.877   1.050
 6036SOL    HW219008   6.833   2.936   1.028
 6037SOL     OW19009   5.070   2.370   6.885
 6037SOL    HW119010   5.037   2.316   6.807
 6037SOL    HW219011   4.994   2.392   6.945
 6038SOL     OW19012   0.646   2.293   5.906
 6038SOL    HW119013   0.591   2.211   5.890
 6038SOL    HW219014   0.660   2.342   5.820
 6039SOL     OW19015   3.819   3.093   3.407
 6039SOL    HW119016   3.865   3.133   3.328
 6039SOL    HW219017   3.753   3.024   3.376
 6040SOL     OW19018   0.692   1.642   0.196
 6040SOL    HW119019   0.719   1.611   0.287
 6040SOL    HW219020   0.663   1.564   0.141
 6041SOL     OW19021   2.551   3.141   5.670
 6041SOL    HW119022   2.558   3.046   5.698
 6041SOL    HW219023   2.510   3.195   5.744
 6042SOL     OW19024   3.442   5.744   3.787
 6042SOL    HW119025   3.410   5.666   3.734
 6042SOL    HW219026   3.407   5.738   3.880
 6043SOL     OW19027   2.607   0.764   3.768
 6043SOL    HW119028   2.525   0.716   3.798
 6043SOL    HW219029   2.635   0.829   3.839
 6044SOL     OW19030   1.107   3.514   1.421
 6044SOL    HW119031   1.079   3.506   1.517
 6044SOL    HW219032   1.039   3.471   1.362
 6045SOL     OW19033   4.796   1.780   3.434
 6045SOL    HW119034   4.783   1.879   3.444
 6045SOL    HW219035   4.893   1.760   3.430
 6046SOL     OW19036   3.804   3.002   2.462
 6046SOL    HW119037   3.729   3.006   2.396
 6046SOL    HW219038   3.811   2.909   2.499
 6047SOL     OW19039   6.260   1.969   0.766
 6047SOL    HW119040   6.350   2.011   0.766
 6047SOL    HW219041   6.199   2.020   0.705
 6048SOL     OW19042   5.410   5.742   4.448
 6048SOL    HW119043   5.340   5.758   4.378
 6048SOL    HW219044   5.440   5.829   4.487
 6049SOL     OW19045   4.740   4.704   5.934
 6049SOL    HW119046   4.744   4.640   5.857
 6049SOL    HW219047   4.830   4.710   5.977
 6050SOL     OW19048   3.410   6.199   2.192
 6050SOL    HW119049   3.430   6.101   2.194
 6050SOL    HW219050   3.427   6.234   2.100
 6051SOL     OW19051   0.473   1.275   3.374
 6051SOL    HW119052   0.499   1.364   3.411
 6051SOL    HW219053   0.386   1.282   3.327
 6052SOL     OW19054   5.223   6.363   0.263
 6052SOL    HW119055   5.276   6.424   0.322
 6052SOL    HW219056   5.141   6.331   0.312
 6053SOL     OW19057   4.332   2.643   5.848
 6053SOL    HW119058   4.241   2.614   5.820
 6053SOL    HW219059   4.346   2.738   5.821
 6054SOL     OW19060   3.816   4.156   0.955
 6054SOL    HW119061   3.820   4.112   0.865
 6054SOL    HW219062   3.893   4.125   1.011
 6055SOL     OW19063   3.450   4.035   0.819
 6055SOL    HW119064   3.424   4.068   0.729
 6055SOL    HW219065   3.523   4.092   0.857
 6056SOL     OW19066   5.454   6.038   4.170
 6056SOL    HW119067   5.416   6.000   4.254
 6056SOL    HW219068   5.454   5.967   4.099
 6057SOL     OW19069   4.314   6.919   4.295
 6057SOL    HW119070   4.243   6.989   4.288
 6057SOL    HW219071   4.400   6.961   4.326
 6058SOL     OW19072   5.686   2.333   5.760
 6058SOL    HW119073   5.602   2.372   5.797
 6058SOL    HW219074   5.758   2.336   5.830
 6059SOL     OW19075   4.248   2.686   0.112
 6059SOL    HW119076   4.156   2.655   0.089
 6059SOL    HW219077   4.275   2.761   0.051
 6060SOL     OW19078   2.319   3.355   0.415
 6060SOL    HW119079   2.366   3.404   0.341
 6060SOL    HW219080   2.245   3.412   0.452
 6061SOL     OW19081   3.284   4.692   0.201
 6061SOL    HW119082   3.247   4.749   0.128
 6061SOL    HW219083   3.383   4.691   0.196
 6062SOL     OW19084   1.745   2.570   7.009
 6062SOL    HW119085   1.686   2.548   0.062
 6062SOL    HW219086   1.815   2.500   6.999
 6063SOL     OW19087   4.745   4.237   6.250
 6063SOL    HW119088   4.653   4.199   6.235
 6063SOL    HW219089   4.806   4.166   6.283
 6064SOL     OW19090   6.782   5.261   1.414
 6064SOL    HW119091   6.838   5.338   1.382
 6064SOL    HW219092   6.687   5.290   1.423
 6065SOL     OW19093   0.972   0.188   2.393
 6065SOL    HW119094   1.050   0.193   2.454
 6065SOL    HW219095   0.944   0.092   2.381
 6066SOL     OW19096   5.413   5.746   3.545
 6066SOL    HW119097   5.453   5.809   3.611
 6066SOL    HW219098   5.316   5.766   3.535
 6067SOL     OW19099   5.821   6.628   6.255
 6067SOL    HW119100   5.810   6.539   6.211
 6067SOL    HW219101   5.905   6.671   6.222
 6068SOL     OW19102   4.437   2.084   4.499
 6068SOL    HW119103   4.363   2.083   4.432
 6068SOL    HW219104   4.406   2.041   4.584
 6069SOL     OW19105   0.257   3.987   6.241
 6069SOL    HW119106   0.203   3.937   6.308
 6069SOL    HW219107   0.279   3.927   6.164
 6070SOL     OW19108   2.700   1.448   0.337
 6070SOL    HW119109   2.681   1.416   0.244
 6070SOL    HW219110   2.767   1.523   0.333
 6071SOL     OW19111   6.233   0.847   5.654
 6071SOL    HW119112   6.177   0.874   5.576
 6071SOL    HW219113   6.177   0.794   5.718
 6072SOL     OW19114   0.068   2.588   0.529
 6072SOL    HW119115   0.149   2.612   0.582
 6072SOL    HW219116   7.019   2.562   0.591
 6073SOL     OW19117   4.934   2.330   0.611
 6073SOL    HW119118   4.881   2.347   0.528
 6073SOL    HW219119   4.933   2.233   0.632
 6074SOL     OW19120   0.735   6.533   2.653
 6074SOL    HW119121   0.770   6.457   2.598
 6074SOL    HW219122   0.680   6.497   2.729
 6075SOL     OW19123   5.196   0.295   6.234
 6075SOL    HW119124   5.154   0.236   6.165
 6075SOL    HW219125   5.129   0.362   6.267
 6076SOL     OW19126   1.403   5.565   3.142
 6076SOL    HW119127   1.469   5.510   3.192
 6076SOL    HW219128   1.343   5.613   3.207
 6077SOL     OW19129   5.071   6.781   2.158
 6077SOL    HW119130   5.067   6.775   2.058
 6077SOL    HW219131   4.986   6.744   2.196
 6078SOL     OW19132   4.016   4.278   0.802
 6078SOL    HW119133   4.025   4.353   0.737
 6078SOL    HW219134   3.919   4.259   0.818
 6079SOL     OW19135   3.449   3.643   7.009
 6079SOL    HW119136   3.515   3.673   0.054
 6079SOL    HW219137   3.420   3.549   0.003
 6080SOL     OW19138   6.690   5.113   6.485
 6080SOL    HW119139   6.697   5.175   6.564
 6080SOL    HW219140   6.735   5.154   6.406
 6081SOL     OW19141   1.638   3.749   3.778
 6081SOL    HW119142   1.684   3.826   3.734
 6081SOL    HW219143   1.592   3.780   3.861
 6082SOL     OW19144   4.343   0.922   0.968
 6082SOL    HW119145   4.297   0.867   1.038
 6082SOL    HW219146   4.290   1.005   0.951
 6083SOL     OW19147   4.770   0.325   6.159
 6083SOL    HW119148   4.821   0.403   6.122
 6083SOL    HW219149   4.828   0.274   6.222
 6084SOL     OW19150   0.188   6.227   2.459
 6084SOL    HW119151   0.146   6.298   2.515
 6084SOL    HW219152   0.287   6.239   2.458
 6085SOL     OW19153   0.838   6.826   0.912
 6085SOL    HW119154   0.811   6.922   0.906
 6085SOL    HW219155   0.807   6.788   0.999
 6086SOL     OW19156   3.530   4.205   6.672
 6086SOL    HW119157   3.591   4.126   6.671
 6086SOL    HW219158   3.435   4.174   6.673
 6087SOL     OW19159   5.048   6.576   0.605
 6087SOL    HW119160   4.993   6.655   0.578
 6087SOL    HW219161   4.989   6.496   0.616
 6088SOL     OW19162   5.202   5.789   3.234
 6088SOL    HW119163   5.187   5.826   3.143
 6088SOL    HW219164   5.149   5.705   3.245
 6089SOL     OW19165   6.355   4.125   3.599
 6089SOL    HW119166   6.313   4.120   3.509
 6089SOL    HW219167   6.436   4.184   3.596
 6090SOL     OW19168   3.600   5.814   4.296
 6090SOL    HW119169   3.541   5.761   4.236
 6090SOL    HW219170   3.545   5.859   4.366
 6091SOL     OW19171   1.267   1.460   2.347
 6091SOL    HW119172   1.350   1.503   2.312
 6091SOL    HW219173   1.225   1.520   2.416
 6092SOL     OW19174   3.332   6.402   1.018
 6092SOL    HW119175   3.400   6.412   0.946
 6092SOL    HW219176   3.276   6.322   1.000
 6093SOL     OW19177   2.218   2.069   2.276
 6093SOL    HW119178   2.226   2.006   2.353
 6093SOL    HW219179   2.260   2.156   2.299
 6094SOL     OW19180   0.302   6.032   5.050
 6094SOL    HW119181   0.269   6.079   5.132
 6094SOL    HW219182   0.327   6.100   4.980
 6095SOL     OW19183   4.670   5.099   1.743
 6095SOL    HW119184   4.657   5.002   1.761
 6095SOL    HW219185   4.586   5.149   1.764
 6096SOL     OW19186   5.572   6.320   3.100
 6096SOL    HW119187   5.624   6.240   3.072
 6096SOL    HW219188   5.487   6.326   3.048
 6097SOL     OW19189   1.907   5.475   1.530
 6097SOL    HW119190   1.871   5.482   1.623
 6097SOL    HW219191   1.987   5.415   1.530
 6098SOL     OW19192   6.442   1.138   4.617
 6098SOL    HW119193   6.368   1.202   4.635
 6098SOL    HW219194   6.527   1.174   4.656
 6099SOL     OW19195   3.886   0.653   6.165
 6099SOL    HW119196   3.831   0.712   6.106
 6099SOL    HW219197   3.909   0.569   6.116
 6100SOL     OW19198   0.228   6.205   5.254
 6100SOL    HW119199   0.271   6.289   5.222
 6100SOL    HW219200   0.244   6.194   5.352
 6101SOL     OW19201   0.023   2.949   1.619
 6101SOL    HW119202   0.116   2.972   1.591
 6101SOL    HW219203   6.999   2.908   1.542
 6102SOL     OW19204   4.357   6.660   2.938
 6102SOL    HW119205   4.348   6.665   3.037
 6102SOL    HW219206   4.388   6.749   2.903
 6103SOL     OW19207   6.675   1.869   2.032
 6103SOL    HW119208   6.682   1.793   2.097
 6103SOL    HW219209   6.581   1.901   2.029
 6104SOL     OW19210   6.906   0.474   4.093
 6104SOL    HW119211   6.917   0.502   3.998
 6104SOL    HW219212   6.971   0.402   4.115
 6105SOL     OW19213   3.101   4.684   5.338
 6105SOL    HW119214   3.027   4.644   5.283
 6105SOL    HW219215   3.115   4.628   5.419
 6106SOL     OW19216   6.003   5.357   6.084
 6106SOL    HW119217   5.984   5.259   6.083
 6106SOL    HW219218   5.937   5.403   6.143
 6107SOL     OW19219   5.542   5.135   5.431
 6107SOL    HW119220   5.448   5.116   5.403
 6107SOL    HW219221   5.596   5.160   5.351
 6108SOL     OW19222   2.239   1.596   0.585
 6108SOL    HW119223   2.220   1.648   0.668
 6108SOL    HW219224   2.336   1.573   0.581
 6109SOL     OW19225   6.545   6.853   3.538
 6109SOL    HW119226   6.491   6.927   3.579
 6109SOL    HW219227   6.634   6.849   3.583
 6110SOL     OW19228   1.631   1.605   4.098
 6110SOL    HW119229   1.550   1.576   4.148
 6110SOL    HW219230   1.610   1.610   4.000
 6111SOL     OW19231   2.050   4.340   0.524
 6111SOL    HW119232   2.075   4.275   0.453
 6111SOL    HW219233   1.953   4.330   0.545
 6112SOL     OW19234   5.203   0.430   2.769
 6112SOL    HW119235   5.243   0.377   2.694
 6112SOL    HW219236   5.206   0.376   2.853
 6113SOL     OW19237   2.457   5.285   0.233
 6113SOL    HW119238   2.471   5.318   0.139
 6113SOL    HW219239   2.530   5.222   0.258
 6114SOL     OW19240   4.622   1.777   0.531
 6114SOL    HW119241   4.567   1.715   0.475
 6114SOL    HW219242   4.661   1.849   0.473
 6115SOL     OW19243   0.887   0.484   5.506
 6115SOL    HW119244   0.820   0.478   5.432
 6115SOL    HW219245   0.965   0.540   5.476
 6116SOL     OW19246   4.983   1.861   6.025
 6116SOL    HW119247   5.032   1.790   5.975
 6116SOL    HW219248   5.048   1.925   6.065
 6117SOL     OW19249   1.967   2.270   1.274
 6117SOL    HW119250   1.957   2.202   1.347
 6117SOL    HW219251   1.909   2.244   1.197
 6118SOL     OW19252   6.362   0.633   0.859
 6118SOL    HW119253   6.394   0.726   0.877
 6118SOL    HW219254   6.421   0.567   0.905
 6119SOL     OW19255   6.841   2.115   0.773
 6119SOL    HW119256   6.863   2.046   0.842
 6119SOL    HW219257   6.898   2.102   0.692
 6120SOL     OW19258   2.513   0.723   4.910
 6120SOL    HW119259   2.476   0.807   4.949
 6120SOL    HW219260   2.525   0.655   4.982
 6121SOL     OW19261   0.883   3.267   4.485
 6121SOL    HW119262   0.948   3.212   4.432
 6121SOL    HW219263   0.840   3.335   4.425
 6122SOL     OW19264   5.099   5.087   5.892
 6122SOL    HW119265   5.113   5.181   5.923
 6122SOL    HW219266   5.014   5.051   5.931
 6123SOL     OW19267   5.177   1.578   5.213
 6123SOL    HW119268   5.177   1.677   5.223
 6123SOL    HW219269   5.138   1.554   5.124
 6124SOL     OW19270   2.502   6.158   3.907
 6124SOL    HW119271   2.461   6.078   3.864
 6124SOL    HW219272   2.456   6.241   3.874
 6125SOL     OW19273   2.275   2.488   6.754
 6125SOL    HW119274   2.176   2.473   6.746
 6125SOL    HW219275   2.312   2.429   6.826
 6126SOL     OW19276   6.384   2.893   5.494
 6126SOL    HW119277   6.384   2.983   5.538
 6126SOL    HW219278   6.476   2.854   5.498
 6127SOL     OW19279   4.049   2.322   1.627
 6127SOL    HW119280   3.985   2.271   1.684
 6127SOL    HW219281   4.142   2.309   1.661
 6128SOL     OW19282   5.762   5.606   0.464
 6128SOL    HW119283   5.853   5.647   0.460
 6128SOL    HW219284   5.748   5.563   0.553
 6129SOL     OW19285   1.375   5.839   2.296
 6129SOL    HW119286   1.293   5.865   2.346
 6129SOL    HW219287   1.441   5.914   2.298
 6130SOL     OW19288   6.014   2.643   0.376
 6130SOL    HW119289   6.001   2.620   0.472
 6130SOL    HW219290   5.995   2.563   0.319
 6131SOL     OW19291   6.371   1.449   2.581
 6131SOL    HW119292   6.279   1.471   2.613
 6131SOL    HW219293   6.413   1.381   2.642
 6132SOL     OW19294   3.771   1.320   6.578
 6132SOL    HW119295   3.696   1.383   6.600
 6132SOL    HW219296   3.747   1.266   6.498
 6133SOL     OW19297   1.946   1.681   3.716
 6133SOL    HW119298   1.953   1.744   3.794
 6133SOL    HW219299   1.850   1.663   3.696
 6134SOL     OW19300   6.036   6.721   6.771
 6134SOL    HW119301   5.994   6.759   6.853
 6134SOL    HW219302   5.986   6.754   6.690
 6135SOL     OW19303   6.435   0.089   6.880
 6135SOL    HW119304   6.361   0.092   6.947
 6135SOL    HW219305   6.432   0.170   6.822
 6136SOL     OW19306   1.692   3.312   3.030
 6136SOL    HW119307   1.761   3.381   3.010
 6136SOL    HW219308   1.732   3.221   3.021
 6137SOL     OW19309   6.941   4.237   2.081
 6137SOL    HW119310   6.874   4.285   2.137
 6137SOL    HW219311   6.932   4.267   1.986
 6138SOL     OW19312   4.148   0.084   1.912
 6138SOL    HW119313   4.187   7.021   1.939
 6138SOL    HW219314   4.082   0.070   1.838
 6139SOL     OW19315   1.389   0.266   5.568
 6139SOL    HW119316   1.391   0.190   5.634
 6139SOL    HW219317   1.466   0.257   5.505
 6140SOL     OW19318   1.029   0.243   3.602
 6140SOL    HW119319   0.958   0.182   3.637
 6140SOL    HW219320   1.090   0.270   3.677
 6141SOL     OW19321   0.338   1.190   5.879
 6141SOL    HW119322   0.261   1.243   5.913
 6141SOL    HW219323   0.403   1.173   5.953
 6142SOL     OW19324   0.365   0.589   1.286
 6142SOL    HW119325   0.294   0.619   1.223
 6142SOL    HW219326   0.394   0.497   1.263
 6143SOL     OW19327   6.953   3.877   5.667
 6143SOL    HW119328   6.999   3.831   5.590
 6143SOL    HW219329   7.013   3.875   5.747
 6144SOL     OW19330   4.144   5.286   3.231
 6144SOL    HW119331   4.196   5.288   3.317
 6144SOL    HW219332   4.050   5.257   3.250
 6145SOL     OW19333   4.978   3.055   4.011
 6145SOL    HW119334   5.059   3.046   4.068
 6145SOL    HW219335   5.001   3.034   3.916
 6146SOL     OW19336   5.407   6.713   5.246
 6146SOL    HW119337   5.478   6.704   5.176
 6146SOL    HW219338   5.384   6.810   5.258
 6147SOL     OW19339   1.502   2.089   3.607
 6147SOL    HW119340   1.553   2.007   3.633
 6147SOL    HW219341   1.518   2.161   3.673
 6148SOL     OW19342   3.227   5.868   0.373
 6148SOL    HW119343   3.168   5.917   0.307
 6148SOL    HW219344   3.170   5.831   0.446
 6149SOL     OW19345   3.016   0.214   1.398
 6149SOL    HW119346   2.979   0.275   1.327
 6149SOL    HW219347   3.114   0.233   1.411
 6150SOL     OW19348   0.038   4.168   5.677
 6150SOL    HW119349   0.003   4.107   5.748
 6150SOL    HW219350   0.030   4.123   5.588
 6151SOL     OW19351   4.331   4.775   4.015
 6151SOL    HW119352   4.380   4.715   4.078
 6151SOL    HW219353   4.247   4.808   4.059
 6152SOL     OW19354   1.180   5.017   4.213
 6152SOL    HW119355   1.223   5.096   4.168
 6152SOL    HW219356   1.095   5.045   4.257
 6153SOL     OW19357   4.995   5.472   1.269
 6153SOL    HW119358   5.006   5.446   1.365
 6153SOL    HW219359   5.045   5.407   1.211
 6154SOL     OW19360   5.616   2.910   2.128
 6154SOL    HW119361   5.577   3.001   2.119
 6154SOL    HW219362   5.545   2.846   2.160
 6155SOL     OW19363   1.867   1.606   3.160
 6155SOL    HW119364   1.879   1.639   3.253
 6155SOL    HW219365   1.840   1.682   3.101
 6156SOL     OW19366   5.028   5.122   1.740
 6156SOL    HW119367   4.978   5.048   1.785
 6156SOL    HW219368   5.125   5.098   1.735
 6157SOL     OW19369   1.397   2.579   2.391
 6157SOL    HW119370   1.486   2.603   2.430
 6157SOL    HW219371   1.348   2.520   2.455
 6158SOL     OW19372   3.060   2.470   5.343
 6158SOL    HW119373   3.053   2.568   5.328
 6158SOL    HW219374   3.124   2.430   5.278
 6159SOL     OW19375   6.002   2.983   0.839
 6159SOL    HW119376   6.008   3.038   0.756
 6159SOL    HW219377   5.977   3.041   0.916
 6160SOL     OW19378   1.240   0.585   0.237
 6160SOL    HW119379   1.303   0.616   0.165
 6160SOL    HW219380   1.204   0.665   0.286
 6161SOL     OW19381   4.164   3.168   6.474
 6161SOL    HW119382   4.208   3.225   6.544
 6161SOL    HW219383   4.183   3.207   6.384
 6162SOL     OW19384   5.992   5.194   3.023
 6162SOL    HW119385   5.905   5.167   2.981
 6162SOL    HW219386   6.012   5.289   3.001
 6163SOL     OW19387   5.439   6.072   3.445
 6163SOL    HW119388   5.378   6.135   3.397
 6163SOL    HW219389   5.428   6.084   3.544
 6164SOL     OW19390   3.269   4.136   4.457
 6164SOL    HW119391   3.318   4.105   4.539
 6164SOL    HW219392   3.171   4.143   4.478
 6165SOL     OW19393   3.749   1.606   0.480
 6165SOL    HW119394   3.733   1.700   0.512
 6165SOL    HW219395   3.686   1.586   0.405
 6166SOL     OW19396   1.756   2.601   6.521
 6166SOL    HW119397   1.734   2.696   6.543
 6166SOL    HW219398   1.693   2.539   6.568
 6167SOL     OW19399   1.366   3.984   3.642
 6167SOL    HW119400   1.314   3.942   3.717
 6167SOL    HW219401   1.303   4.008   3.568
 6168SOL     OW19402   0.366   3.942   4.112
 6168SOL    HW119403   0.266   3.935   4.113
 6168SOL    HW219404   0.401   3.896   4.030
 6169SOL     OW19405   2.383   6.750   0.328
 6169SOL    HW119406   2.455   6.751   0.259
 6169SOL    HW219407   2.389   6.665   0.381
 6170SOL     OW19408   3.503   4.233   0.008
 6170SOL    HW119409   3.571   4.301   7.005
 6170SOL    HW219410   3.411   4.268   7.015
 6171SOL     OW19411   2.361   4.352   2.403
 6171SOL    HW119412   2.391   4.414   2.331
 6171SOL    HW219413   2.427   4.354   2.478
 6172SOL     OW19414   1.454   6.076   2.743
 6172SOL    HW119415   1.431   6.127   2.660
 6172SOL    HW219416   1.428   5.980   2.730
 6173SOL     OW19417   1.821   5.924   2.687
 6173SOL    HW119418   1.755   5.864   2.643
 6173SOL    HW219419   1.780   6.014   2.702
 6174SOL     OW19420   5.548   5.265   2.720
 6174SOL    HW119421   5.560   5.359   2.752
 6174SOL    HW219422   5.453   5.237   2.731
 6175SOL     OW19423   5.166   0.265   3.504
 6175SOL    HW119424   5.225   0.212   3.443
 6175SOL    HW219425   5.136   0.348   3.457
 6176SOL     OW19426   6.668   3.686   5.794
 6176SOL    HW119427   6.684   3.698   5.696
 6176SOL    HW219428   6.609   3.606   5.809
 6177SOL     OW19429   6.252   2.656   6.709
 6177SOL    HW119430   6.210   2.703   6.787
 6177SOL    HW219431   6.338   2.614   6.738
 6178SOL     OW19432   6.159   3.144   1.010
 6178SOL    HW119433   6.179   3.129   0.913
 6178SOL    HW219434   6.245   3.160   1.059
 6179SOL     OW19435   0.262   2.599   5.810
 6179SOL    HW119436   0.227   2.666   5.745
 6179SOL    HW219437   0.312   2.527   5.761
 6180SOL     OW19438   4.252   6.795   0.753
 6180SOL    HW119439   4.272   6.890   0.779
 6180SOL    HW219440   4.320   6.734   0.794
 6181SOL     OW19441   4.839   6.438   6.677
 6181SOL    HW119442   4.826   6.347   6.637
 6181SOL    HW219443   4.937   6.456   6.687
 6182SOL     OW19444   4.568   6.379   6.870
 6182SOL    HW119445   4.484   6.363   6.819
 6182SOL    HW219446   4.634   6.306   6.851
 6183SOL     OW19447   3.509   0.495   3.612
 6183SOL    HW119448   3.528   0.588   3.581
 6183SOL    HW219449   3.593   0.453   3.645
 6184SOL     OW19450   0.241   6.916   6.378
 6184SOL    HW119451   0.278   7.009   6.381
 6184SOL    HW219452   0.204   6.892   6.467
 6185SOL     OW19453   6.902   3.681   5.961
 6185SOL    HW119454   6.897   3.762   6.019
 6185SOL    HW219455   6.819   3.675   5.906
 6186SOL     OW19456   5.503   0.244   4.838
 6186SOL    HW119457   5.437   0.252   4.763
 6186SOL    HW219458   5.588   0.290   4.813
 6187SOL     OW19459   4.407   4.922   3.805
 6187SOL    HW119460   4.390   4.863   3.884
 6187SOL    HW219461   4.328   4.982   3.791
 6188SOL     OW19462   2.913   6.491   1.185
 6188SOL    HW119463   2.872   6.401   1.202
 6188SOL    HW219464   2.841   6.558   1.169
 6189SOL     OW19465   5.556   5.157   3.311
 6189SOL    HW119466   5.616   5.217   3.364
 6189SOL    HW219467   5.500   5.103   3.374
 6190SOL     OW19468   5.432   2.638   7.013
 6190SOL    HW119469   5.453   2.690   0.071
 6190SOL    HW219470   5.426   2.700   6.935
 6191SOL     OW19471   6.527   1.978   0.026
 6191SOL    HW119472   6.477   1.974   0.113
 6191SOL    HW219473   6.625   1.987   0.045
 6192SOL     OW19474   2.809   2.446   6.308
 6192SOL    HW119475   2.763   2.532   6.333
 6192SOL    HW219476   2.903   2.466   6.279
 6193SOL     OW19477   5.033   0.242   1.543
 6193SOL    HW119478   5.029   0.277   1.636
 6193SOL    HW219479   5.127   0.252   1.508
 6194SOL     OW19480   2.000   0.905   0.030
 6194SOL    HW119481   2.034   0.812   0.015
 6194SOL    HW219482   2.025   0.962   6.977
 6195SOL     OW19483   3.112   0.763   6.602
 6195SOL    HW119484   3.076   0.821   6.675
 6195SOL    HW219485   3.089   0.667   6.620
 6196SOL     OW19486   0.850   1.554   6.274
 6196SOL    HW119487   0.912   1.477   6.259
 6196SOL    HW219488   0.884   1.609   6.350
 6197SOL     OW19489   2.439   3.188   0.776
 6197SOL    HW119490   2.494   3.271   0.777
 6197SOL    HW219491   2.455   3.137   0.860
 6198SOL     OW19492   3.962   4.974   2.476
 6198SOL    HW119493   4.020   4.904   2.436
 6198SOL    HW219494   3.951   5.049   2.412
 6199SOL     OW19495   1.656   6.931   6.777
 6199SOL    HW119496   1.604   6.904   6.695
 6199SOL    HW219497   1.613   6.891   6.858
 6200SOL     OW19498   4.105   0.828   6.196
 6200SOL    HW119499   4.179   0.763   6.178
 6200SOL    HW219500   4.019   0.777   6.211
 6201SOL     OW19501   2.317   3.941   5.573
 6201SOL    HW119502   2.381   3.869   5.600
 6201SOL    HW219503   2.225   3.903   5.566
 6202SOL     OW19504   3.522   1.733   0.768
 6202SOL    HW119505   3.464   1.663   0.811
 6202SOL    HW219506   3.478   1.822   0.777
 6203SOL     OW19507   4.883   1.350   4.107
 6203SOL    HW119508   4.806   1.410   4.129
 6203SOL    HW219509   4.968   1.403   4.110
 6204SOL     OW19510   2.008   6.226   5.762
 6204SOL    HW119511   1.998   6.130   5.789
 6204SOL    HW219512   2.090   6.236   5.706
 6205SOL     OW19513   5.375   6.117   6.915
 6205SOL    HW119514   5.331   6.190   6.863
 6205SOL    HW219515   5.337   6.114   7.007
 6206SOL     OW19516   5.248   0.009   2.450
 6206SOL    HW119517   5.167   6.978   2.469
 6206SOL    HW219518   5.219   0.098   2.414
 6207SOL     OW19519   1.731   4.072   5.086
 6207SOL    HW119520   1.728   3.991   5.027
 6207SOL    HW219521   1.785   4.052   5.167
 6208SOL     OW19522   6.193   6.869   5.889
 6208SOL    HW119523   6.176   6.917   5.802
 6208SOL    HW219524   6.222   6.775   5.870
 6209SOL     OW19525   4.011   5.883   0.769
 6209SOL    HW119526   4.106   5.907   0.753
 6209SOL    HW219527   3.999   5.785   0.756
 6210SOL     OW19528   5.619   4.523   3.479
 6210SOL    HW119529   5.715   4.497   3.481
 6210SOL    HW219530   5.611   4.621   3.460
 6211SOL     OW19531   2.954   6.887   4.443
 6211SOL    HW119532   2.886   6.940   4.394
 6211SOL    HW219533   2.915   6.798   4.469
 6212SOL     OW19534   6.464   6.905   4.117
 6212SOL    HW119535   6.523   6.863   4.048
 6212SOL    HW219536   6.521   6.945   4.189
 6213SOL     OW19537   6.677   0.325   6.858
 6213SOL    HW119538   6.645   0.241   6.901
 6213SOL    HW219539   6.696   0.393   6.928
 6214SOL     OW19540   6.494   4.616   2.467
 6214SOL    HW119541   6.554   4.543   2.500
 6214SOL    HW219542   6.422   4.576   2.410
 6215SOL     OW19543   3.217   2.991   0.756
 6215SOL    HW119544   3.266   2.930   0.694
 6215SOL    HW219545   3.174   3.065   0.704
 6216SOL     OW19546   5.588   1.485   2.199
 6216SOL    HW119547   5.535   1.400   2.199
 6216SOL    HW219548   5.656   1.482   2.272
 6217SOL     OW19549   5.379   3.020   0.668
 6217SOL    HW119550   5.317   2.951   0.630
 6217SOL    HW219551   5.426   3.067   0.593
 6218SOL     OW19552   2.640   5.383   4.736
 6218SOL    HW119553   2.595   5.472   4.729
 6218SOL    HW219554   2.601   5.332   4.812
 6219SOL     OW19555   1.214   1.827   5.029
 6219SOL    HW119556   1.269   1.891   4.976
 6219SOL    HW219557   1.207   1.740   4.980
 6220SOL     OW19558   2.024   4.314   5.388
 6220SOL    HW119559   2.054   4.223   5.360
 6220SOL    HW219560   2.091   4.354   5.450
 6221SOL     OW19561   3.635   5.170   4.450
 6221SOL    HW119562   3.569   5.216   4.392
 6221SOL    HW219563   3.728   5.194   4.422
 6222SOL     OW19564   7.005   0.307   1.316
 6222SOL    HW119565   0.022   0.249   1.247
 6222SOL    HW219566   6.910   0.280   1.330
 6223SOL     OW19567   4.720   2.779   4.689
 6223SOL    HW119568   4.691   2.693   4.733
 6223SOL    HW219569   4.710   2.854   4.754
 6224SOL     OW19570   3.002   1.623   5.089
 6224SOL    HW119571   3.086   1.581   5.125
 6224SOL    HW219572   3.024   1.678   5.009
 6225SOL     OW19573   3.811   3.398   0.374
 6225SOL    HW119574   3.718   3.414   0.408
 6225SOL    HW219575   3.823   3.444   0.286
 6226SOL     OW19576   5.390   0.665   4.665
 6226SOL    HW119577   5.405   0.730   4.739
 6226SOL    HW219578   5.306   0.689   4.616
 6227SOL     OW19579   3.553   4.526   5.702
 6227SOL    HW119580   3.547   4.570   5.612
 6227SOL    HW219581   3.611   4.445   5.696
 6228SOL     OW19582   0.101   0.538   3.229
 6228SOL    HW119583   0.149   0.623   3.249
 6228SOL    HW219584   0.163   0.474   3.184
 6229SOL     OW19585   2.484   2.516   2.274
 6229SOL    HW119586   2.456   2.534   2.180
 6229SOL    HW219587   2.583   2.506   2.277
 6230SOL     OW19588   2.811   2.324   3.769
 6230SOL    HW119589   2.750   2.247   3.789
 6230SOL    HW219590   2.777   2.374   3.689
 6231SOL     OW19591   6.788   5.163   1.729
 6231SOL    HW119592   6.874   5.193   1.687
 6231SOL    HW219593   6.739   5.105   1.664
 6232SOL     OW19594   0.259   0.657   0.238
 6232SOL    HW119595   0.311   0.648   0.153
 6232SOL    HW219596   0.227   0.751   0.248
 6233SOL     OW19597   4.613   2.163   6.931
 6233SOL    HW119598   4.683   2.231   6.910
 6233SOL    HW219599   4.602   2.101   6.853
 6234SOL     OW19600   2.420   1.743   4.023
 6234SOL    HW119601   2.422   1.657   3.972
 6234SOL    HW219602   2.356   1.736   4.099
 6235SOL     OW19603   2.398   0.089   2.653
 6235SOL    HW119604   2.455   0.032   2.593
 6235SOL    HW219605   2.448   0.173   2.676
 6236SOL     OW19606   0.232   4.551   0.510
 6236SOL    HW119607   0.171   4.477   0.538
 6236SOL    HW219608   0.179   4.625   0.469
 6237SOL     OW19609   4.384   7.022   0.867
 6237SOL    HW119610   4.348   0.071   0.922
 6237SOL    HW219611   4.397   0.028   0.772
 6238SOL     OW19612   4.824   5.352   0.960
 6238SOL    HW119613   4.809   5.344   1.059
 6238SOL    HW219614   4.922   5.357   0.943
 6239SOL     OW19615   2.530   0.163   3.163
 6239SOL    HW119616   2.488   0.096   3.103
 6239SOL    HW219617   2.627   0.143   3.173
 6240SOL     OW19618   1.703   3.647   0.664
 6240SOL    HW119619   1.666   3.555   0.668
 6240SOL    HW219620   1.792   3.645   0.617
 6241SOL     OW19621   3.978   0.228   1.689
 6241SOL    HW119622   4.004   0.194   1.599
 6241SOL    HW219623   3.886   0.267   1.685
 6242SOL     OW19624   4.530   2.582   3.587
 6242SOL    HW119625   4.584   2.499   3.571
 6242SOL    HW219626   4.555   2.651   3.520
 6243SOL     OW19627   5.929   6.215   4.120
 6243SOL    HW119628   5.917   6.121   4.087
 6243SOL    HW219629   5.851   6.240   4.177
 6244SOL     OW19630   2.573   1.946   2.154
 6244SOL    HW119631   2.662   1.952   2.109
 6244SOL    HW219632   2.541   2.038   2.175
 6245SOL     OW19633   3.138   4.882   0.945
 6245SOL    HW119634   3.182   4.942   0.879
 6245SOL    HW219635   3.064   4.830   0.900
 6246SOL     OW19636   2.464   1.765   5.717
 6246SOL    HW119637   2.542   1.815   5.681
 6246SOL    HW219638   2.489   1.670   5.734
 6247SOL     OW19639   6.965   6.202   3.026
 6247SOL    HW119640   6.943   6.223   2.930
 6247SOL    HW219641   7.023   6.274   3.063
 6248SOL     OW19642   0.559   5.012   1.562
 6248SOL    HW119643   0.608   4.984   1.479
 6248SOL    HW219644   0.473   5.056   1.536
 6249SOL     OW19645   6.320   4.173   6.494
 6249SOL    HW119646   6.354   4.079   6.493
 6249SOL    HW219647   6.220   4.172   6.488
 6250SOL     OW19648   6.180   6.427   0.136
 6250SOL    HW119649   6.261   6.480   0.164
 6250SOL    HW219650   6.145   6.464   0.050
 6251SOL     OW19651   4.743   1.428   0.136
 6251SOL    HW119652   4.705   1.401   0.225
 6251SOL    HW219653   4.673   1.418   0.065
 6252SOL     OW19654   2.693   6.033   5.167
 6252SOL    HW119655   2.770   6.051   5.228
 6252SOL    HW219656   2.726   6.025   5.073
 6253SOL     OW19657   2.264   4.130   2.182
 6253SOL    HW119658   2.312   4.162   2.263
 6253SOL    HW219659   2.187   4.071   2.210
 6254SOL     OW19660   5.713   0.572   0.268
 6254SOL    HW119661   5.631   0.518   0.287
 6254SOL    HW219662   5.744   0.616   0.352
 6255SOL     OW19663   0.321   1.289   2.775
 6255SOL    HW119664   0.381   1.210   2.764
 6255SOL    HW219665   0.309   1.335   2.687
 6256SOL     OW19666   3.734   5.054   2.922
 6256SOL    HW119667   3.727   5.150   2.897
 6256SOL    HW219668   3.755   5.000   2.840
 6257SOL     OW19669   5.733   2.780   6.604
 6257SOL    HW119670   5.823   2.811   6.574
 6257SOL    HW219671   5.680   2.751   6.525
 6258SOL     OW19672   4.542   1.732   2.196
 6258SOL    HW119673   4.476   1.713   2.123
 6258SOL    HW219674   4.606   1.655   2.203
 6259SOL     OW19675   3.002   2.387   1.668
 6259SOL    HW119676   2.951   2.316   1.618
 6259SOL    HW219677   2.960   2.400   1.758
 6260SOL     OW19678   3.820   4.033   6.924
 6260SOL    HW119679   3.813   4.028   6.825
 6260SOL    HW219680   3.766   3.959   6.965
 6261SOL     OW19681   4.073   1.446   0.397
 6261SOL    HW119682   4.138   1.371   0.386
 6261SOL    HW219683   4.069   1.501   0.314
 6262SOL     OW19684   0.946   4.761   6.636
 6262SOL    HW119685   0.871   4.811   6.680
 6262SOL    HW219686   0.979   4.813   6.558
 6263SOL     OW19687   6.820   6.955   0.654
 6263SOL    HW119688   6.911   6.944   0.693
 6263SOL    HW219689   6.752   6.915   0.716
 6264SOL     OW19690   2.747   1.777   0.591
 6264SOL    HW119691   2.694   1.830   0.525
 6264SOL    HW219692   2.756   1.830   0.676
 6265SOL     OW19693   4.042   3.426   1.580
 6265SOL    HW119694   4.003   3.336   1.602
 6265SOL    HW219695   4.043   3.439   1.481
 6266SOL     OW19696   2.517   0.648   3.188
 6266SOL    HW119697   2.564   0.700   3.116
 6266SOL    HW219698   2.559   0.668   3.277
 6267SOL     OW19699   3.685   0.342   6.347
 6267SOL    HW119700   3.719   0.419   6.401
 6267SOL    HW219701   3.669   0.264   6.406
 6268SOL     OW19702   3.579   5.325   2.819
 6268SOL    HW119703   3.512   5.270   2.868
 6268SOL    HW219704   3.592   5.412   2.866
 6269SOL     OW19705   5.987   5.484   1.778
 6269SOL    HW119706   5.904   5.532   1.751
 6269SOL    HW219707   6.008   5.504   1.874
 6270SOL     OW19708   0.674   0.172   4.827
 6270SOL    HW119709   0.690   0.268   4.807
 6270SOL    HW219710   0.737   0.142   4.900
 6271SOL     OW19711   6.492   1.553   0.738
 6271SOL    HW119712   6.567   1.573   0.801
 6271SOL    HW219713   6.409   1.601   0.768
 6272SOL     OW19714   2.031   2.193   3.315
 6272SOL    HW119715   2.014   2.096   3.297
 6272SOL    HW219716   2.128   2.206   3.337
 6273SOL     OW19717   3.617   1.267   1.780
 6273SOL    HW119718   3.590   1.270   1.684
 6273SOL    HW219719   3.706   1.313   1.791
 6274SOL     OW19720   3.917   6.911   6.193
 6274SOL    HW119721   3.826   6.948   6.217
 6274SOL    HW219722   3.979   6.986   6.172
 6275SOL     OW19723   2.164   0.250   4.744
 6275SOL    HW119724   2.129   0.342   4.757
 6275SOL    HW219725   2.101   0.184   4.787
 6276SOL     OW19726   1.422   5.082   4.015
 6276SOL    HW119727   1.344   5.073   3.954
 6276SOL    HW219728   1.497   5.024   3.983
 6277SOL     OW19729   5.418   3.132   2.916
 6277SOL    HW119730   5.448   3.168   2.828
 6277SOL    HW219731   5.431   3.201   2.987
 6278SOL     OW19732   5.161   0.515   4.435
 6278SOL    HW119733   5.080   0.456   4.439
 6278SOL    HW219734   5.238   0.464   4.397
 6279SOL     OW19735   4.406   1.993   0.339
 6279SOL    HW119736   4.318   1.978   0.384
 6279SOL    HW219737   4.414   1.933   0.259
 6280SOL     OW19738   0.581   4.777   5.750
 6280SOL    HW119739   0.660   4.791   5.809
 6280SOL    HW219740   0.497   4.782   5.804
 6281SOL     OW19741   2.453   6.843   5.514
 6281SOL    HW119742   2.396   6.800   5.584
 6281SOL    HW219743   2.458   6.783   5.434
 6282SOL     OW19744   2.142   6.801   4.460
 6282SOL    HW119745   2.101   6.892   4.467
 6282SOL    HW219746   2.233   6.808   4.420
 6283SOL     OW19747   6.748   2.785   4.875
 6283SOL    HW119748   6.658   2.749   4.849
 6283SOL    HW219749   6.788   2.728   4.947
 6284SOL     OW19750   1.577   4.042   5.457
 6284SOL    HW119751   1.657   4.101   5.453
 6284SOL    HW219752   1.605   3.947   5.442
 6285SOL     OW19753   1.607   4.040   3.132
 6285SOL    HW119754   1.640   3.969   3.195
 6285SOL    HW219755   1.668   4.044   3.053
 6286SOL     OW19756   5.568   0.651   3.545
 6286SOL    HW119757   5.624   0.733   3.547
 6286SOL    HW219758   5.476   0.674   3.513
 6287SOL     OW19759   4.602   4.501   1.804
 6287SOL    HW119760   4.679   4.458   1.850
 6287SOL    HW219761   4.516   4.464   1.840
 6288SOL     OW19762   5.753   3.831   0.824
 6288SOL    HW119763   5.760   3.792   0.732
 6288SOL    HW219764   5.658   3.855   0.843
 6289SOL     OW19765   1.461   1.425   3.629
 6289SOL    HW119766   1.496   1.396   3.540
 6289SOL    HW219767   1.427   1.346   3.679
 6290SOL     OW19768   5.108   3.532   3.210
 6290SOL    HW119769   5.048   3.454   3.191
 6290SOL    HW219770   5.192   3.499   3.254
 6291SOL     OW19771   3.125   4.000   3.357
 6291SOL    HW119772   3.102   3.903   3.354
 6291SOL    HW219773   3.116   4.033   3.451
 6292SOL     OW19774   1.155   2.075   2.452
 6292SOL    HW119775   1.080   2.036   2.506
 6292SOL    HW219776   1.241   2.030   2.476
 6293SOL     OW19777   4.949   0.242   0.416
 6293SOL    HW119778   5.001   0.272   0.336
 6293SOL    HW219779   4.887   0.315   0.444
 6294SOL     OW19780   4.473   5.393   3.010
 6294SOL    HW119781   4.410   5.333   2.961
 6294SOL    HW219782   4.566   5.378   2.977
 6295SOL     OW19783   5.846   6.223   6.482
 6295SOL    HW119784   5.749   6.238   6.459
 6295SOL    HW219785   5.855   6.207   6.580
 6296SOL     OW19786   6.193   1.416   3.260
 6296SOL    HW119787   6.262   1.407   3.188
 6296SOL    HW219788   6.118   1.352   3.243
 6297SOL     OW19789   5.899   6.789   5.582
 6297SOL    HW119790   5.876   6.769   5.677
 6297SOL    HW219791   5.854   6.874   5.554
 6298SOL     OW19792   1.286   2.533   4.810
 6298SOL    HW119793   1.260   2.613   4.757
 6298SOL    HW219794   1.385   2.523   4.810
 6299SOL     OW19795   6.660   3.002   6.807
 6299SOL    HW119796   6.565   3.033   6.802
 6299SOL    HW219797   6.720   3.081   6.826
 6300SOL     OW19798   5.015   0.496   3.682
 6300SOL    HW119799   5.099   0.461   3.723
 6300SOL    HW219800   5.038   0.567   3.615
 6301SOL     OW19801   3.123   0.270   0.629
 6301SOL    HW119802   3.197   0.336   0.638
 6301SOL    HW219803   3.109   0.223   0.716
 6302SOL     OW19804   1.535   1.345   3.376
 6302SOL    HW119805   1.447   1.313   3.343
 6302SOL    HW219806   1.609   1.299   3.327
 6303SOL     OW19807   2.017   6.001   5.127
 6303SOL    HW119808   1.980   5.964   5.041
 6303SOL    HW219809   2.012   5.931   5.198
 6304SOL     OW19810   2.729   1.398   6.780
 6304SOL    HW119811   2.653   1.334   6.791
 6304SOL    HW219812   2.720   1.445   6.692
 6305SOL     OW19813   6.592   0.272   1.291
 6305SOL    HW119814   6.570   0.291   1.195
 6305SOL    HW219815   6.509   0.248   1.341
 6306SOL     OW19816   6.420   2.983   3.616
 6306SOL    HW119817   6.506   2.935   3.634
 6306SOL    HW219818   6.357   2.969   3.693
 6307SOL     OW19819   2.170   4.829   0.352
 6307SOL    HW119820   2.118   4.744   0.344
 6307SOL    HW219821   2.235   4.821   0.428
 6308SOL     OW19822   3.383   2.208   5.341
 6308SOL    HW119823   3.459   2.179   5.283
 6308SOL    HW219824   3.321   2.267   5.287
 6309SOL     OW19825   5.496   2.120   4.008
 6309SOL    HW119826   5.535   2.210   4.026
 6309SOL    HW219827   5.534   2.084   3.923
 6310SOL     OW19828   1.584   5.038   4.788
 6310SOL    HW119829   1.489   5.007   4.796
 6310SOL    HW219830   1.617   5.019   4.695
 6311SOL     OW19831   5.712   0.724   4.836
 6311SOL    HW119832   5.659   0.737   4.752
 6311SOL    HW219833   5.747   0.630   4.839
 6312SOL     OW19834   3.798   4.743   5.500
 6312SOL    HW119835   3.801   4.843   5.500
 6312SOL    HW219836   3.703   4.712   5.497
 6313SOL     OW19837   2.103   5.343   3.081
 6313SOL    HW119838   2.143   5.270   3.025
 6313SOL    HW219839   2.113   5.431   3.033
 6314SOL     OW19840   2.602   6.409   3.366
 6314SOL    HW119841   2.590   6.336   3.434
 6314SOL    HW219842   2.583   6.373   3.275
 6315SOL     OW19843   3.470   3.442   0.294
 6315SOL    HW119844   3.387   3.471   0.247
 6315SOL    HW219845   3.507   3.360   0.249
 6316SOL     OW19846   4.974   2.343   5.506
 6316SOL    HW119847   4.949   2.397   5.587
 6316SOL    HW219848   5.027   2.400   5.444
 6317SOL     OW19849   5.763   6.589   4.429
 6317SOL    HW119850   5.790   6.573   4.524
 6317SOL    HW219851   5.813   6.667   4.393
 6318SOL     OW19852   2.441   1.855   4.700
 6318SOL    HW119853   2.511   1.837   4.769
 6318SOL    HW219854   2.439   1.953   4.679
 6319SOL     OW19855   0.182   1.568   3.440
 6319SOL    HW119856   0.222   1.544   3.529
 6319SOL    HW219857   0.227   1.650   3.405
 6320SOL     OW19858   6.255   3.396   2.945
 6320SOL    HW119859   6.208   3.316   2.984
 6320SOL    HW219860   6.260   3.386   2.846
 6321SOL     OW19861   2.539   3.969   0.334
 6321SOL    HW119862   2.495   3.997   0.419
 6321SOL    HW219863   2.470   3.932   0.271
 6322SOL     OW19864   1.047   0.808   6.987
 6322SOL    HW119865   1.007   0.716   6.978
 6322SOL    HW219866   1.139   0.800   7.024
 6323SOL     OW19867   3.836   2.778   0.434
 6323SOL    HW119868   3.931   2.790   0.406
 6323SOL    HW219869   3.824   2.813   0.527
 6324SOL     OW19870   4.280   1.328   6.544
 6324SOL    HW119871   4.309   1.270   6.467
 6324SOL    HW219872   4.269   1.271   6.626
 6325SOL     OW19873   0.574   2.377   2.545
 6325SOL    HW119874   0.623   2.423   2.471
 6325SOL    HW219875   0.549   2.285   2.516
 6326SOL     OW19876   4.935   5.936   1.440
 6326SOL    HW119877   4.942   6.007   1.510
 6326SOL    HW219878   4.930   5.846   1.484
 6327SOL     OW19879   5.506   5.816   5.561
 6327SOL    HW119880   5.534   5.720   5.560
 6327SOL    HW219881   5.406   5.822   5.567
 6328SOL     OW19882   3.067   3.975   6.355
 6328SOL    HW119883   3.145   3.947   6.410
 6328SOL    HW219884   3.098   4.010   6.267
 6329SOL     OW19885   0.482   1.572   3.482
 6329SOL    HW119886   0.438   1.645   3.429
 6329SOL    HW219887   0.565   1.607   3.525
 6330SOL     OW19888   3.801   1.587   0.013
 6330SOL    HW119889   3.761   1.673   7.006
 6330SOL    HW219890   3.855   1.545   6.965
 6331SOL     OW19891   6.572   2.584   1.873
 6331SOL    HW119892   6.638   2.578   1.798
 6331SOL    HW219893   6.557   2.493   1.912
 6332SOL     OW19894   5.839   5.802   1.509
 6332SOL    HW119895   5.845   5.767   1.602
 6332SOL    HW219896   5.810   5.728   1.448
 6333SOL     OW19897   3.490   4.920   2.956
 6333SOL    HW119898   3.501   4.897   2.860
 6333SOL    HW219899   3.558   4.989   2.982
 6334SOL     OW19900   1.981   1.204   2.937
 6334SOL    HW119901   1.888   1.195   2.903
 6334SOL    HW219902   1.979   1.229   3.034
 6335SOL     OW19903   6.801   1.276   6.719
 6335SOL    HW119904   6.745   1.351   6.754
 6335SOL    HW219905   6.741   1.206   6.680
 6336SOL     OW19906   0.181   2.474   4.390
 6336SOL    HW119907   0.082   2.463   4.385
 6336SOL    HW219908   0.223   2.433   4.309
 6337SOL     OW19909   6.157   4.940   5.477
 6337SOL    HW119910   6.199   4.849   5.485
 6337SOL    HW219911   6.085   4.951   5.545
 6338SOL     OW19912   3.927   1.137   3.538
 6338SOL    HW119913   3.872   1.137   3.455
 6338SOL    HW219914   4.012   1.188   3.521
 6339SOL     OW19915   6.935   1.738   3.876
 6339SOL    HW119916   6.853   1.724   3.931
 6339SOL    HW219917   6.939   1.669   3.804
 6340SOL     OW19918   2.036   5.720   4.220
 6340SOL    HW119919   1.995   5.654   4.283
 6340SOL    HW219920   2.130   5.693   4.200
 6341SOL     OW19921   0.332   4.631   3.530
 6341SOL    HW119922   0.318   4.598   3.624
 6341SOL    HW219923   0.254   4.688   3.503
 6342SOL     OW19924   1.312   2.689   1.004
 6342SOL    HW119925   1.273   2.596   1.006
 6342SOL    HW219926   1.409   2.685   1.027
 6343SOL     OW19927   3.776   1.144   6.769
 6343SOL    HW119928   3.787   1.213   6.697
 6343SOL    HW219929   3.698   1.085   6.747
 6344SOL     OW19930   0.912   4.412   4.283
 6344SOL    HW119931   0.923   4.506   4.252
 6344SOL    HW219932   0.859   4.410   4.368
 6345SOL     OW19933   3.514   1.552   1.945
 6345SOL    HW119934   3.513   1.505   1.856
 6345SOL    HW219935   3.466   1.640   1.937
 6346SOL     OW19936   0.604   4.743   3.484
 6346SOL    HW119937   0.526   4.681   3.471
 6346SOL    HW219938   0.599   4.784   3.575
 6347SOL     OW19939   2.664   0.367   1.127
 6347SOL    HW119940   2.680   0.280   1.173
 6347SOL    HW219941   2.652   0.351   1.029
 6348SOL     OW19942   0.916   3.173   4.025
 6348SOL    HW119943   0.826   3.209   4.047
 6348SOL    HW219944   0.910   3.076   4.005
 6349SOL     OW19945   2.844   0.571   0.160
 6349SOL    HW119946   2.868   0.556   0.064
 6349SOL    HW219947   2.774   0.642   0.166
 6350SOL     OW19948   1.579   6.021   2.336
 6350SOL    HW119949   1.664   5.988   2.377
 6350SOL    HW219950   1.600   6.071   2.251
 6351SOL     OW19951   6.888   1.097   2.695
 6351SOL    HW119952   6.856   1.025   2.757
 6351SOL    HW219953   6.926   1.055   2.613
 6352SOL     OW19954   0.139   5.492   1.993
 6352SOL    HW119955   0.163   5.475   1.897
 6352SOL    HW219956   0.056   5.548   1.997
 6353SOL     OW19957   0.144   6.802   1.334
 6353SOL    HW119958   0.206   6.844   1.400
 6353SOL    HW219959   0.118   6.870   1.265
 6354SOL     OW19960   0.407   6.422   3.485
 6354SOL    HW119961   0.459   6.483   3.425
 6354SOL    HW219962   0.462   6.342   3.508
 6355SOL     OW19963   1.753   2.176   3.505
 6355SOL    HW119964   1.826   2.142   3.445
 6355SOL    HW219965   1.681   2.107   3.512
 6356SOL     OW19966   3.620   3.228   1.614
 6356SOL    HW119967   3.625   3.295   1.688
 6356SOL    HW219968   3.544   3.252   1.553
 6357SOL     OW19969   4.592   2.125   0.196
 6357SOL    HW119970   4.551   2.141   0.106
 6357SOL    HW219971   4.538   2.057   0.245
 6358SOL     OW19972   6.688   2.121   3.445
 6358SOL    HW119973   6.673   2.035   3.397
 6358SOL    HW219974   6.773   2.116   3.498
 6359SOL     OW19975   0.033   1.178   6.675
 6359SOL    HW119976   6.964   1.209   6.684
 6359SOL    HW219977   0.094   1.247   6.713
 6360SOL     OW19978   3.063   5.765   4.316
 6360SOL    HW119979   3.062   5.689   4.382
 6360SOL    HW219980   3.046   5.729   4.224
 6361SOL     OW19981   4.789   5.994   6.208
 6361SOL    HW119982   4.770   6.084   6.169
 6361SOL    HW219983   4.737   5.982   6.292
 6362SOL     OW19984   5.923   5.750   6.714
 6362SOL    HW119985   5.940   5.776   6.809
 6362SOL    HW219986   5.983   5.803   6.654
 6363SOL     OW19987   0.968   5.604   4.352
 6363SOL    HW119988   1.004   5.539   4.419
 6363SOL    HW219989   1.041   5.628   4.288
 6364SOL     OW19990   2.485   2.509   5.470
 6364SOL    HW119991   2.454   2.460   5.551
 6364SOL    HW219992   2.406   2.527   5.411
 6365SOL     OW19993   4.902   6.739   2.652
 6365SOL    HW119994   4.984   6.686   2.632
 6365SOL    HW219995   4.926   6.835   2.667
 6366SOL     OW19996   0.616   5.271   5.181
 6366SOL    HW119997   0.622   5.180   5.140
 6366SOL    HW219998   0.540   5.274   5.246
 6367SOL     OW19999   5.658   6.778   4.016
 6367SOL    HW120000   5.756   6.797   4.024
 6367SOL    HW220001   5.638   6.740   3.926
 6368SOL     OW20002   2.958   6.725   4.156
 6368SOL    HW120003   3.026   6.699   4.225
 6368SOL    HW220004   2.989   6.807   4.108
 6369SOL     OW20005   2.653   5.136   4.220
 6369SOL    HW120006   2.587   5.164   4.150
 6369SOL    HW220007   2.639   5.041   4.245
 6370SOL     OW20008   6.316   2.626   1.499
 6370SOL    HW120009   6.396   2.579   1.534
 6370SOL    HW220010   6.270   2.568   1.432
 6371SOL     OW20011   5.075   2.423   2.480
 6371SOL    HW120012   5.059   2.480   2.399
 6371SOL    HW220013   5.068   2.326   2.453
 6372SOL     OW20014   3.065   6.149   2.361
 6372SOL    HW120015   3.105   6.060   2.339
 6372SOL    HW220016   3.138   6.217   2.369
 6373SOL     OW20017   4.275   4.051   6.681
 6373SOL    HW120018   4.233   4.121   6.738
 6373SOL    HW220019   4.326   4.094   6.607
 6374SOL     OW20020   3.061   3.045   2.271
 6374SOL    HW120021   3.016   3.075   2.355
 6374SOL    HW220022   3.000   3.058   2.193
 6375SOL     OW20023   1.805   6.215   2.919
 6375SOL    HW120024   1.724   6.200   2.975
 6375SOL    HW220025   1.777   6.232   2.824
 6376SOL     OW20026   6.878   2.587   5.125
 6376SOL    HW120027   6.903   2.587   5.222
 6376SOL    HW220028   6.781   2.608   5.116
 6377SOL     OW20029   0.143   1.315   4.051
 6377SOL    HW120030   0.161   1.218   4.070
 6377SOL    HW220031   0.119   1.361   4.137
 6378SOL     OW20032   4.890   4.166   3.579
 6378SOL    HW120033   4.964   4.163   3.513
 6378SOL    HW220034   4.807   4.201   3.535
 6379SOL     OW20035   2.446   4.777   3.354
 6379SOL    HW120036   2.359   4.752   3.397
 6379SOL    HW220037   2.429   4.840   3.279
 6380SOL     OW20038   0.264   0.924   6.028
 6380SOL    HW120039   0.319   1.000   5.994
 6380SOL    HW220040   0.324   0.857   6.071
 6381SOL     OW20041   3.002   3.977   2.752
 6381SOL    HW120042   3.082   4.021   2.712
 6381SOL    HW220043   2.970   4.030   2.830
 6382SOL     OW20044   0.751   3.456   5.764
 6382SOL    HW120045   0.749   3.451   5.864
 6382SOL    HW220046   0.843   3.436   5.731
 6383SOL     OW20047   2.865   1.132   4.555
 6383SOL    HW120048   2.898   1.086   4.638
 6383SOL    HW220049   2.791   1.079   4.515
 6384SOL     OW20050   6.715   4.907   3.225
 6384SOL    HW120051   6.782   4.950   3.286
 6384SOL    HW220052   6.644   4.863   3.280
 6385SOL     OW20053   0.127   5.661   4.493
 6385SOL    HW120054   0.081   5.612   4.420
 6385SOL    HW220055   0.219   5.625   4.505
 6386SOL     OW20056   2.891   4.956   1.113
 6386SOL    HW120057   2.978   4.907   1.106
 6386SOL    HW220058   2.819   4.892   1.138
 6387SOL     OW20059   6.525   0.692   5.241
 6387SOL    HW120060   6.599   0.733   5.295
 6387SOL    HW220061   6.494   0.608   5.284
 6388SOL     OW20062   2.904   4.876   2.395
 6388SOL    HW120063   2.855   4.847   2.314
 6388SOL    HW220064   3.003   4.874   2.378
 6389SOL     OW20065   0.911   5.094   3.331
 6389SOL    HW120066   0.867   5.005   3.340
 6389SOL    HW220067   0.854   5.154   3.273
 6390SOL     OW20068   0.622   3.521   3.962
 6390SOL    HW120069   0.525   3.523   3.937
 6390SOL    HW220070   0.649   3.426   3.981
 6391SOL     OW20071   3.079   1.630   0.160
 6391SOL    HW120072   3.016   1.664   0.090
 6391SOL    HW220073   3.083   1.530   0.156
 6392SOL     OW20074   1.652   0.101   4.147
 6392SOL    HW120075   1.743   0.137   4.163
 6392SOL    HW220076   1.650   0.003   4.169
 6393SOL     OW20077   6.097   6.565   0.411
 6393SOL    HW120078   6.063   6.549   0.504
 6393SOL    HW220079   6.184   6.614   0.416
 6394SOL     OW20080   2.473   4.662   0.096
 6394SOL    HW120081   2.396   4.725   0.089
 6394SOL    HW220082   2.464   4.591   0.027
 6395SOL     OW20083   6.305   1.703   0.837
 6395SOL    HW120084   6.280   1.797   0.813
 6395SOL    HW220085   6.248   1.673   0.914
 6396SOL     OW20086   5.360   4.229   5.388
 6396SOL    HW120087   5.366   4.129   5.382
 6396SOL    HW220088   5.444   4.265   5.427
 6397SOL     OW20089   0.283   1.431   1.194
 6397SOL    HW120090   0.251   1.348   1.149
 6397SOL    HW220091   0.359   1.470   1.142
 6398SOL     OW20092   3.103   1.452   1.556
 6398SOL    HW120093   3.079   1.531   1.500
 6398SOL    HW220094   3.196   1.463   1.591
 6399SOL     OW20095   2.667   5.401   6.690
 6399SOL    HW120096   2.746   5.445   6.648
 6399SOL    HW220097   2.583   5.436   6.649
 6400SOL     OW20098   2.617   5.439   3.964
 6400SOL    HW120099   2.591   5.487   4.047
 6400SOL    HW220100   2.715   5.451   3.947
 6401SOL     OW20101   0.389   4.821   4.109
 6401SOL    HW120102   0.290   4.827   4.124
 6401SOL    HW220103   0.426   4.913   4.097
 6402SOL     OW20104   2.363   0.903   3.108
 6402SOL    HW120105   2.284   0.930   3.053
 6402SOL    HW220106   2.439   0.877   3.048
 6403SOL     OW20107   0.280   5.568   0.359
 6403SOL    HW120108   0.308   5.472   0.370
 6403SOL    HW220109   0.360   5.625   0.344
 6404SOL     OW20110   5.333   1.467   3.272
 6404SOL    HW120111   5.275   1.385   3.271
 6404SOL    HW220112   5.341   1.500   3.366
 6405SOL     OW20113   2.583   1.294   2.505
 6405SOL    HW120114   2.505   1.261   2.452
 6405SOL    HW220115   2.553   1.314   2.598
 6406SOL     OW20116   2.672   2.088   3.808
 6406SOL    HW120117   2.667   2.014   3.875
 6406SOL    HW220118   2.601   2.076   3.739
 6407SOL     OW20119   3.794   5.201   6.280
 6407SOL    HW120120   3.790   5.300   6.264
 6407SOL    HW220121   3.717   5.156   6.235
 6408SOL     OW20122   6.013   1.685   6.672
 6408SOL    HW120123   6.023   1.784   6.683
 6408SOL    HW220124   5.919   1.658   6.692
 6409SOL     OW20125   1.213   4.478   2.525
 6409SOL    HW120126   1.242   4.555   2.582
 6409SOL    HW220127   1.292   4.421   2.503
 6410SOL     OW20128   1.185   1.302   0.964
 6410SOL    HW120129   1.242   1.235   0.916
 6410SOL    HW220130   1.237   1.341   1.040
 6411SOL     OW20131   1.027   0.760   3.385
 6411SOL    HW120132   1.057   0.677   3.432
 6411SOL    HW220133   1.107   0.810   3.352
 6412SOL     OW20134   0.261   2.568   5.116
 6412SOL    HW120135   0.184   2.506   5.099
 6412SOL    HW220136   0.339   2.541   5.059
 6413SOL     OW20137   6.898   4.655   0.598
 6413SOL    HW120138   6.943   4.633   0.511
 6413SOL    HW220139   6.877   4.752   0.601
 6414SOL     OW20140   5.715   6.533   2.543
 6414SOL    HW120141   5.721   6.621   2.497
 6414SOL    HW220142   5.749   6.541   2.636
 6415SOL     OW20143   1.822   2.003   1.978
 6415SOL    HW120144   1.811   2.100   1.998
 6415SOL    HW220145   1.742   1.953   2.012
 6416SOL     OW20146   1.531   0.668   6.430
 6416SOL    HW120147   1.628   0.686   6.413
 6416SOL    HW220148   1.488   0.749   6.469
 6417SOL     OW20149   0.856   6.508   2.997
 6417SOL    HW120150   0.942   6.514   2.947
 6417SOL    HW220151   0.823   6.601   3.017
 6418SOL     OW20152   6.303   6.091   2.114
 6418SOL    HW120153   6.401   6.099   2.131
 6418SOL    HW220154   6.257   6.177   2.138
 6419SOL     OW20155   3.105   4.916   1.437
 6419SOL    HW120156   3.019   4.964   1.454
 6419SOL    HW220157   3.167   4.931   1.514
 6420SOL     OW20158   1.835   4.000   6.958
 6420SOL    HW120159   1.806   4.080   7.011
 6420SOL    HW220160   1.895   4.030   6.883
 6421SOL     OW20161   5.389   1.708   1.053
 6421SOL    HW120162   5.475   1.737   1.010
 6421SOL    HW220163   5.321   1.781   1.042
 6422SOL     OW20164   5.901   1.432   3.471
 6422SOL    HW120165   5.985   1.469   3.512
 6422SOL    HW220166   5.926   1.369   3.397
 6423SOL     OW20167   4.952   3.704   0.279
 6423SOL    HW120168   4.901   3.632   0.325
 6423SOL    HW220169   4.945   3.691   0.180
 6424SOL     OW20170   0.004   4.617   5.813
 6424SOL    HW120171   0.015   4.519   5.829
 6424SOL    HW220172   6.947   4.650   5.861
 6425SOL     OW20173   0.982   4.891   2.033
 6425SOL    HW120174   1.063   4.836   2.011
 6425SOL    HW220175   0.936   4.916   1.948
 6426SOL     OW20176   0.673   2.601   3.754
 6426SOL    HW120177   0.637   2.508   3.750
 6426SOL    HW220178   0.599   2.667   3.738
 6427SOL     OW20179   2.183   3.471   4.995
 6427SOL    HW120180   2.120   3.549   5.002
 6427SOL    HW220181   2.277   3.502   5.009
 6428SOL     OW20182   6.792   3.768   2.456
 6428SOL    HW120183   6.831   3.847   2.408
 6428SOL    HW220184   6.719   3.798   2.517
 6429SOL     OW20185   1.377   0.674   4.067
 6429SOL    HW120186   1.453   0.631   4.017
 6429SOL    HW220187   1.395   0.772   4.076
 6430SOL     OW20188   5.865   3.357   1.019
 6430SOL    HW120189   5.818   3.437   1.057
 6430SOL    HW220190   5.910   3.306   1.092
 6431SOL     OW20191   5.466   6.669   2.599
 6431SOL    HW120192   5.438   6.731   2.526
 6431SOL    HW220193   5.552   6.625   2.574
 6432SOL     OW20194   5.245   3.302   0.750
 6432SOL    HW120195   5.319   3.299   0.817
 6432SOL    HW220196   5.263   3.377   0.685
 6433SOL     OW20197   2.822   3.874   1.695
 6433SOL    HW120198   2.754   3.945   1.712
 6433SOL    HW220199   2.776   3.785   1.685
 6434SOL     OW20200   1.447   4.950   1.061
 6434SOL    HW120201   1.351   4.968   1.039
 6434SOL    HW220202   1.499   4.942   0.977
 6435SOL     OW20203   4.677   4.291   6.666
 6435SOL    HW120204   4.625   4.357   6.721
 6435SOL    HW220205   4.620   4.258   6.591
 6436SOL     OW20206   1.856   2.704   3.353
 6436SOL    HW120207   1.890   2.723   3.445
 6436SOL    HW220208   1.925   2.731   3.286
 6437SOL     OW20209   1.325   0.572   6.604
 6437SOL    HW120210   1.400   0.595   6.541
 6437SOL    HW220211   1.363   0.552   6.694
 6438SOL     OW20212   1.241   3.866   3.856
 6438SOL    HW120213   1.145   3.895   3.862
 6438SOL    HW220214   1.246   3.780   3.805
 6439SOL     OW20215   0.990   6.985   1.434
 6439SOL    HW120216   0.987   6.897   1.387
 6439SOL    HW220217   0.906   6.998   1.487
 6440SOL     OW20218   1.113   1.722   2.776
 6440SOL    HW120219   1.206   1.684   2.774
 6440SOL    HW220220   1.079   1.720   2.870
 6441SOL     OW20221   2.301   1.254   3.450
 6441SOL    HW120222   2.363   1.184   3.486
 6441SOL    HW220223   2.330   1.344   3.484
 6442SOL     OW20224   3.140   1.340   4.234
 6442SOL    HW120225   3.114   1.326   4.330
 6442SOL    HW220226   3.217   1.404   4.230
 6443SOL     OW20227   2.818   2.121   0.581
 6443SOL    HW120228   2.778   2.211   0.601
 6443SOL    HW220229   2.853   2.120   0.487
 6444SOL     OW20230   0.355   0.932   2.987
 6444SOL    HW120231   0.272   0.932   2.930
 6444SOL    HW220232   0.355   1.013   3.045
 6445SOL     OW20233   4.051   3.375   5.412
 6445SOL    HW120234   4.045   3.380   5.511
 6445SOL    HW220235   3.966   3.407   5.372
 6446SOL     OW20236   6.604   1.244   0.366
 6446SOL    HW120237   6.654   1.228   0.281
 6446SOL    HW220238   6.666   1.232   0.444
 6447SOL     OW20239   1.225   0.531   2.930
 6447SOL    HW120240   1.302   0.594   2.940
 6447SOL    HW220241   1.162   0.567   2.861
 6448SOL     OW20242   5.669   3.006   2.935
 6448SOL    HW120243   5.603   3.082   2.931
 6448SOL    HW220244   5.629   2.930   2.986
 6449SOL     OW20245   3.763   2.831   0.692
 6449SOL    HW120246   3.737   2.768   0.765
 6449SOL    HW220247   3.843   2.884   0.722
 6450SOL     OW20248   6.721   3.495   0.645
 6450SOL    HW120249   6.810   3.538   0.659
 6450SOL    HW220250   6.680   3.529   0.561
 6451SOL     OW20251   2.572   6.392   4.897
 6451SOL    HW120252   2.527   6.315   4.941
 6451SOL    HW220253   2.564   6.474   4.954
 6452SOL     OW20254   3.452   6.230   3.805
 6452SOL    HW120255   3.472   6.327   3.821
 6452SOL    HW220256   3.478   6.206   3.712
 6453SOL     OW20257   1.739   5.817   6.444
 6453SOL    HW120258   1.774   5.874   6.370
 6453SOL    HW220259   1.782   5.846   6.530
 6454SOL     OW20260   3.435   1.513   5.103
 6454SOL    HW120261   3.453   1.608   5.076
 6454SOL    HW220262   3.345   1.508   5.146
 6455SOL     OW20263   5.942   2.481   5.530
 6455SOL    HW120264   5.843   2.495   5.526
 6455SOL    HW220265   5.970   2.471   5.626
 6456SOL     OW20266   0.163   0.396   3.898
 6456SOL    HW120267   0.253   0.361   3.872
 6456SOL    HW220268   0.151   0.487   3.857
 6457SOL     OW20269   6.666   2.697   0.915
 6457SOL    HW120270   6.746   2.755   0.929
 6457SOL    HW220271   6.643   2.651   1.001
 6458SOL     OW20272   1.458   5.795   3.006
 6458SOL    HW120273   1.449   5.701   3.039
 6458SOL    HW220274   1.538   5.838   3.048
 6459SOL     OW20275   5.322   5.074   6.883
 6459SOL    HW120276   5.266   5.090   6.801
 6459SOL    HW220277   5.281   5.001   6.937
 6460SOL     OW20278   3.590   5.036   6.209
 6460SOL    HW120279   3.557   4.942   6.201
 6460SOL    HW220280   3.540   5.094   6.145
 6461SOL     OW20281   3.685   5.092   4.768
 6461SOL    HW120282   3.658   5.103   4.673
 6461SOL    HW220283   3.622   5.029   4.814
 6462SOL     OW20284   2.119   3.659   4.397
 6462SOL    HW120285   2.025   3.626   4.386
 6462SOL    HW220286   2.140   3.669   4.494
 6463SOL     OW20287   1.396   4.351   5.934
 6463SOL    HW120288   1.354   4.377   6.021
 6463SOL    HW220289   1.325   4.332   5.867
 6464SOL     OW20290   0.190   5.270   3.135
 6464SOL    HW120291   0.113   5.333   3.142
 6464SOL    HW220292   0.213   5.255   3.039
 6465SOL     OW20293   6.301   1.200   3.085
 6465SOL    HW120294   6.379   1.137   3.077
 6465SOL    HW220295   6.224   1.165   3.032
 6466SOL     OW20296   7.010   2.383   4.968
 6466SOL    HW120297   7.013   2.391   4.868
 6466SOL    HW220298   6.969   2.465   5.007
 6467SOL     OW20299   2.423   0.802   6.484
 6467SOL    HW120300   2.343   0.812   6.425
 6467SOL    HW220301   2.417   0.869   6.559
 6468SOL     OW20302   5.013   4.932   0.939
 6468SOL    HW120303   5.110   4.949   0.921
 6468SOL    HW220304   5.001   4.900   1.033
 6469SOL     OW20305   0.008   1.274   5.419
 6469SOL    HW120306   6.943   1.245   5.450
 6469SOL    HW220307   0.070   1.195   5.418
 6470SOL     OW20308   6.754   0.348   5.742
 6470SOL    HW120309   6.749   0.345   5.842
 6470SOL    HW220310   6.662   0.359   5.705
 6471SOL     OW20311   5.593   4.974   5.911
 6471SOL    HW120312   5.604   5.048   5.977
 6471SOL    HW220313   5.602   5.010   5.818
 6472SOL     OW20314   1.199   6.101   1.700
 6472SOL    HW120315   1.134   6.154   1.755
 6472SOL    HW220316   1.153   6.068   1.617
 6473SOL     OW20317   2.218   1.931   6.452
 6473SOL    HW120318   2.246   1.852   6.507
 6473SOL    HW220319   2.131   1.911   6.407
 6474SOL     OW20320   1.745   2.872   5.272
 6474SOL    HW120321   1.715   2.838   5.361
 6474SOL    HW220322   1.836   2.838   5.251
 6475SOL     OW20323   4.012   6.271   4.335
 6475SOL    HW120324   3.997   6.358   4.382
 6475SOL    HW220325   3.963   6.198   4.382
 6476SOL     OW20326   4.530   5.028   2.750
 6476SOL    HW120327   4.554   5.124   2.739
 6476SOL    HW220328   4.451   5.019   2.810
 6477SOL     OW20329   6.749   5.454   0.188
 6477SOL    HW120330   6.746   5.523   0.261
 6477SOL    HW220331   6.703   5.371   0.219
 6478SOL     OW20332   4.705   6.646   0.809
 6478SOL    HW120333   4.721   6.554   0.774
 6478SOL    HW220334   4.787   6.679   0.856
 6479SOL     OW20335   4.048   5.260   2.670
 6479SOL    HW120336   3.961   5.246   2.622
 6479SOL    HW220337   4.092   5.171   2.684
 6480SOL     OW20338   2.953   2.575   0.003
 6480SOL    HW120339   3.047   2.585   6.998
 6480SOL    HW220340   2.895   2.644   6.984
 6481SOL     OW20341   4.919   1.106   1.001
 6481SOL    HW120342   4.870   1.159   0.932
 6481SOL    HW220343   4.867   1.107   1.087
 6482SOL     OW20344   0.132   0.564   6.542
 6482SOL    HW120345   0.094   0.480   6.581
 6482SOL    HW220346   0.059   0.631   6.529
 6483SOL     OW20347   1.773   6.496   2.978
 6483SOL    HW120348   1.755   6.402   2.949
 6483SOL    HW220349   1.708   6.521   3.050
 6484SOL     OW20350   4.771   6.722   3.954
 6484SOL    HW120351   4.721   6.735   4.040
 6484SOL    HW220352   4.800   6.811   3.918
 6485SOL     OW20353   1.514   2.369   3.171
 6485SOL    HW120354   1.431   2.405   3.129
 6485SOL    HW220355   1.522   2.271   3.151
 6486SOL     OW20356   1.646   3.461   3.672
 6486SOL    HW120357   1.653   3.551   3.715
 6486SOL    HW220358   1.738   3.423   3.659
 6487SOL     OW20359   5.884   6.474   4.006
 6487SOL    HW120360   5.786   6.489   3.995
 6487SOL    HW220361   5.900   6.394   4.064
 6488SOL     OW20362   3.166   5.562   5.837
 6488SOL    HW120363   3.179   5.463   5.845
 6488SOL    HW220364   3.141   5.599   5.926
 6489SOL     OW20365   2.000   1.734   5.302
 6489SOL    HW120366   2.094   1.702   5.301
 6489SOL    HW220367   1.974   1.759   5.395
 6490SOL     OW20368   3.591   1.110   0.689
 6490SOL    HW120369   3.574   1.069   0.599
 6490SOL    HW220370   3.633   1.200   0.677
 6491SOL     OW20371   3.679   1.940   6.493
 6491SOL    HW120372   3.774   1.909   6.484
 6491SOL    HW220373   3.635   1.891   6.568
 6492SOL     OW20374   5.836   6.457   0.035
 6492SOL    HW120375   5.806   6.362   0.046
 6492SOL    HW220376   5.917   6.460   7.003
 6493SOL     OW20377   1.101   6.525   6.156
 6493SOL    HW120378   1.171   6.476   6.104
 6493SOL    HW220379   1.121   6.519   6.253
 6494SOL     OW20380   0.766   0.325   3.502
 6494SOL    HW120381   0.859   0.302   3.529
 6494SOL    HW220382   0.746   0.419   3.529
 6495SOL     OW20383   5.602   4.816   2.638
 6495SOL    HW120384   5.515   4.856   2.668
 6495SOL    HW220385   5.661   4.801   2.717
 6496SOL     OW20386   1.698   7.013   2.319
 6496SOL    HW120387   1.743   6.937   2.365
 6496SOL    HW220388   1.723   0.074   2.363
 6497SOL     OW20389   1.442   4.487   0.445
 6497SOL    HW120390   1.455   4.494   0.544
 6497SOL    HW220391   1.529   4.463   0.402
 6498SOL     OW20392   2.093   4.423   4.076
 6498SOL    HW120393   2.049   4.346   4.029
 6498SOL    HW220394   2.034   4.454   4.151
 6499SOL     OW20395   5.951   1.405   3.942
 6499SOL    HW120396   5.882   1.409   4.014
 6499SOL    HW220397   5.920   1.455   3.862
 6500SOL     OW20398   5.095   5.125   3.598
 6500SOL    HW120399   5.079   5.149   3.502
 6500SOL    HW220400   5.008   5.100   3.641
 6501SOL     OW20401   6.942   4.073   1.004
 6501SOL    HW120402   6.866   4.117   1.052
 6501SOL    HW220403   6.907   4.019   0.928
 6502SOL     OW20404   0.955   5.442   2.914
 6502SOL    HW120405   0.875   5.394   2.880
 6502SOL    HW220406   1.034   5.423   2.855
 6503SOL     OW20407   4.473   6.811   4.736
 6503SOL    HW120408   4.385   6.852   4.713
 6503SOL    HW220409   4.458   6.728   4.790
 6504SOL     OW20410   3.052   0.873   0.677
 6504SOL    HW120411   2.962   0.846   0.642
 6504SOL    HW220412   3.105   0.792   0.700
 6505SOL     OW20413   6.374   5.219   1.028
 6505SOL    HW120414   6.405   5.147   1.091
 6505SOL    HW220415   6.286   5.192   0.989
 6506SOL     OW20416   2.153   2.468   1.213
 6506SOL    HW120417   2.104   2.381   1.206
 6506SOL    HW220418   2.169   2.490   1.309
 6507SOL     OW20419   2.035   0.373   1.560
 6507SOL    HW120420   2.030   0.275   1.580
 6507SOL    HW220421   2.064   0.422   1.642
 6508SOL     OW20422   2.083   1.940   2.900
 6508SOL    HW120423   2.141   1.931   2.819
 6508SOL    HW220424   2.027   2.022   2.891
 6509SOL     OW20425   0.604   2.718   4.161
 6509SOL    HW120426   0.681   2.655   4.169
 6509SOL    HW220427   0.602   2.780   4.240
 6510SOL     OW20428   5.741   4.745   6.019
 6510SOL    HW120429   5.693   4.831   5.999
 6510SOL    HW220430   5.707   4.708   6.105
 6511SOL     OW20431   6.330   5.980   6.377
 6511SOL    HW120432   6.412   5.935   6.342
 6511SOL    HW220433   6.332   6.077   6.353
 6512SOL     OW20434   4.828   6.488   3.806
 6512SOL    HW120435   4.817   6.560   3.875
 6512SOL    HW220436   4.906   6.509   3.747
 6513SOL     OW20437   3.390   6.955   3.009
 6513SOL    HW120438   3.450   6.895   3.061
 6513SOL    HW220439   3.434   0.020   3.000
 6514SOL     OW20440   3.789   6.986   4.260
 6514SOL    HW120441   3.823   0.055   4.256
 6514SOL    HW220442   3.760   6.957   4.168
 6515SOL     OW20443   1.142   6.796   5.056
 6515SOL    HW120444   1.116   6.868   5.120
 6515SOL    HW220445   1.086   6.715   5.074
 6516SOL     OW20446   0.746   1.602   5.414
 6516SOL    HW120447   0.748   1.548   5.498
 6516SOL    HW220448   0.689   1.683   5.428
 6517SOL     OW20449   1.031   1.513   0.518
 6517SOL    HW120450   1.050   1.465   0.604
 6517SOL    HW220451   1.091   1.593   0.511
 6518SOL     OW20452   6.341   6.077   1.543
 6518SOL    HW120453   6.265   6.018   1.569
 6518SOL    HW220454   6.419   6.060   1.603
 6519SOL     OW20455   2.351   2.233   3.763
 6519SOL    HW120456   2.392   2.142   3.772
 6519SOL    HW220457   2.339   2.272   3.854
 6520SOL     OW20458   5.451   5.453   1.240
 6520SOL    HW120459   5.402   5.366   1.242
 6520SOL    HW220460   5.391   5.527   1.272
 6521SOL     OW20461   0.108   1.495   5.297
 6521SOL    HW120462   0.078   1.403   5.323
 6521SOL    HW220463   0.203   1.492   5.265
 6522SOL     OW20464   2.533   5.399   5.900
 6522SOL    HW120465   2.536   5.390   6.000
 6522SOL    HW220466   2.499   5.490   5.876
 6523SOL     OW20467   2.018   2.121   6.215
 6523SOL    HW120468   1.961   2.147   6.293
 6523SOL    HW220469   1.988   2.032   6.180
 6524SOL     OW20470   4.143   3.645   3.639
 6524SOL    HW120471   4.144   3.551   3.606
 6524SOL    HW220472   4.166   3.648   3.736
 6525SOL     OW20473   0.208   2.939   3.305
 6525SOL    HW120474   0.191   2.926   3.403
 6525SOL    HW220475   0.172   3.028   3.276
 6526SOL     OW20476   1.422   5.955   5.080
 6526SOL    HW120477   1.442   6.051   5.101
 6526SOL    HW220478   1.351   5.950   5.010
 6527SOL     OW20479   1.718   0.855   4.746
 6527SOL    HW120480   1.685   0.931   4.689
 6527SOL    HW220481   1.647   0.785   4.752
 6528SOL     OW20482   6.839   1.282   4.391
 6528SOL    HW120483   6.782   1.343   4.445
 6528SOL    HW220484   6.919   1.333   4.357
 6529SOL     OW20485   6.954   2.331   2.278
 6529SOL    HW120486   6.867   2.281   2.272
 6529SOL    HW220487   6.940   2.414   2.332
 6530SOL     OW20488   6.671   1.828   0.800
 6530SOL    HW120489   6.659   1.852   0.897
 6530SOL    HW220490   6.582   1.832   0.754
 6531SOL     OW20491   4.648   2.712   4.199
 6531SOL    HW120492   4.643   2.706   4.299
 6531SOL    HW220493   4.662   2.807   4.172
 6532SOL     OW20494   6.962   1.643   6.268
 6532SOL    HW120495   6.930   1.574   6.333
 6532SOL    HW220496   6.921   1.732   6.290
 6533SOL     OW20497   4.534   0.444   1.173
 6533SOL    HW120498   4.633   0.445   1.159
 6533SOL    HW220499   4.500   0.538   1.177
 6534SOL     OW20500   2.165   3.874   1.150
 6534SOL    HW120501   2.208   3.947   1.097
 6534SOL    HW220502   2.102   3.824   1.091
 6535SOL     OW20503   0.854   3.869   5.898
 6535SOL    HW120504   0.921   3.806   5.936
 6535SOL    HW220505   0.855   3.863   5.798
 6536SOL     OW20506   6.452   2.455   0.093
 6536SOL    HW120507   6.434   2.546   0.129
 6536SOL    HW220508   6.480   2.394   0.168
 6537SOL     OW20509   1.347   0.082   0.436
 6537SOL    HW120510   1.248   0.094   0.435
 6537SOL    HW220511   1.371   7.023   0.388
 6538SOL     OW20512   2.609   2.966   7.018
 6538SOL    HW120513   2.662   2.978   0.077
 6538SOL    HW220514   2.641   2.885   6.969
 6539SOL     OW20515   2.195   2.131   0.042
 6539SOL    HW120516   2.244   2.070   0.104
 6539SOL    HW220517   2.252   2.150   6.988
 6540SOL     OW20518   3.170   1.368   4.965
 6540SOL    HW120519   3.225   1.333   5.041
 6540SOL    HW220520   3.178   1.468   4.960
 6541SOL     OW20521   2.090   2.516   6.211
 6541SOL    HW120522   2.118   2.450   6.141
 6541SOL    HW220523   1.993   2.504   6.230
 6542SOL     OW20524   5.875   4.397   3.651
 6542SOL    HW120525   5.862   4.334   3.727
 6542SOL    HW220526   5.877   4.491   3.685
 6543SOL     OW20527   6.400   6.033   6.883
 6543SOL    HW120528   6.384   6.075   6.794
 6543SOL    HW220529   6.348   6.083   6.953
 6544SOL     OW20530   6.334   6.834   4.531
 6544SOL    HW120531   6.341   6.741   4.495
 6544SOL    HW220532   6.243   6.848   4.571
 6545SOL     OW20533   5.003   1.646   5.847
 6545SOL    HW120534   5.081   1.605   5.800
 6545SOL    HW220535   4.928   1.658   5.782
 6546SOL     OW20536   2.940   4.660   6.442
 6546SOL    HW120537   2.849   4.700   6.450
 6546SOL    HW220538   2.952   4.622   6.351
 6547SOL     OW20539   4.876   2.401   6.479
 6547SOL    HW120540   4.905   2.473   6.542
 6547SOL    HW220541   4.836   2.443   6.397
 6548SOL     OW20542   7.003   4.758   5.584
 6548SOL    HW120543   0.011   4.717   5.668
 6548SOL    HW220544   0.021   4.847   5.570
 6549SOL     OW20545   3.685   1.663   1.117
 6549SOL    HW120546   3.738   1.647   1.201
 6549SOL    HW220547   3.699   1.587   1.054
 6550SOL     OW20548   0.491   5.593   3.246
 6550SOL    HW120549   0.527   5.642   3.324
 6550SOL    HW220550   0.510   5.644   3.162
 6551SOL     OW20551   2.008   4.728   2.023
 6551SOL    HW120552   2.031   4.630   2.015
 6551SOL    HW220553   2.057   4.779   1.952
 6552SOL     OW20554   2.767   5.282   5.837
 6552SOL    HW120555   2.763   5.241   5.746
 6552SOL    HW220556   2.681   5.327   5.857
 6553SOL     OW20557   1.006   3.351   2.499
 6553SOL    HW120558   0.996   3.286   2.575
 6553SOL    HW220559   0.919   3.395   2.480
 6554SOL     OW20560   6.974   2.639   5.410
 6554SOL    HW120561   0.030   2.584   5.432
 6554SOL    HW220562   6.964   2.712   5.478
 6555SOL     OW20563   0.234   1.258   2.144
 6555SOL    HW120564   0.272   1.342   2.106
 6555SOL    HW220565   0.152   1.280   2.197
 6556SOL     OW20566   4.127   6.250   4.707
 6556SOL    HW120567   4.033   6.242   4.674
 6556SOL    HW220568   4.151   6.169   4.760
 6557SOL     OW20569   6.573   5.481   1.390
 6557SOL    HW120570   6.580   5.575   1.357
 6557SOL    HW220571   6.560   5.482   1.490
 6558SOL     OW20572   6.272   5.614   6.890
 6558SOL    HW120573   6.312   5.548   6.825
 6558SOL    HW220574   6.222   5.565   6.961
 6559SOL     OW20575   4.200   3.702   0.836
 6559SOL    HW120576   4.230   3.794   0.861
 6559SOL    HW220577   4.103   3.691   0.857
 6560SOL     OW20578   3.892   2.145   0.092
 6560SOL    HW120579   3.988   2.157   0.118
 6560SOL    HW220580   3.834   2.208   0.144
 6561SOL     OW20581   4.128   3.304   3.847
 6561SOL    HW120582   4.137   3.248   3.929
 6561SOL    HW220583   4.132   3.244   3.766
 6562SOL     OW20584   6.507   3.869   6.179
 6562SOL    HW120585   6.562   3.917   6.111
 6562SOL    HW220586   6.433   3.820   6.133
 6563SOL     OW20587   1.602   5.429   2.188
 6563SOL    HW120588   1.549   5.489   2.247
 6563SOL    HW220589   1.598   5.462   2.094
 6564SOL     OW20590   1.075   5.535   2.260
 6564SOL    HW120591   1.143   5.520   2.333
 6564SOL    HW220592   1.121   5.534   2.171
 6565SOL     OW20593   6.696   2.992   5.744
 6565SOL    HW120594   6.606   3.030   5.725
 6565SOL    HW220595   6.690   2.892   5.749
 6566SOL     OW20596   3.683   6.738   0.982
 6566SOL    HW120597   3.752   6.779   0.923
 6566SOL    HW220598   3.644   6.809   1.041
 6567SOL     OW20599   5.383   2.936   1.376
 6567SOL    HW120600   5.434   3.017   1.405
 6567SOL    HW220601   5.433   2.854   1.404
 6568SOL     OW20602   3.968   4.336   1.476
 6568SOL    HW120603   3.938   4.279   1.553
 6568SOL    HW220604   4.068   4.329   1.467
 6569SOL     OW20605   0.643   4.688   6.875
 6569SOL    HW120606   0.698   4.615   6.916
 6569SOL    HW220607   0.552   4.653   6.854
 6570SOL     OW20608   6.145   2.478   1.363
 6570SOL    HW120609   6.095   2.401   1.401
 6570SOL    HW220610   6.153   2.467   1.264
 6571SOL     OW20611   2.759   5.584   3.684
 6571SOL    HW120612   2.663   5.597   3.707
 6571SOL    HW220613   2.795   5.505   3.733
 6572SOL     OW20614   0.849   4.142   5.956
 6572SOL    HW120615   0.839   4.049   5.920
 6572SOL    HW220616   0.762   4.190   5.950
 6573SOL     OW20617   1.715   1.732   2.691
 6573SOL    HW120618   1.687   1.828   2.681
 6573SOL    HW220619   1.808   1.721   2.659
 6574SOL     OW20620   3.045   4.937   3.188
 6574SOL    HW120621   3.119   4.887   3.232
 6574SOL    HW220622   2.991   4.984   3.258
 6575SOL     OW20623   0.467   1.658   2.801
 6575SOL    HW120624   0.419   1.740   2.769
 6575SOL    HW220625   0.425   1.626   2.886
 6576SOL     OW20626   1.061   6.183   6.227
 6576SOL    HW120627   1.027   6.174   6.133
 6576SOL    HW220628   1.132   6.114   6.243
 6577SOL     OW20629   6.524   2.312   3.607
 6577SOL    HW120630   6.520   2.282   3.512
 6577SOL    HW220631   6.501   2.409   3.612
 6578SOL     OW20632   6.149   5.024   3.873
 6578SOL    HW120633   6.249   5.022   3.882
 6578SOL    HW220634   6.124   5.086   3.799
 6579SOL     OW20635   0.340   4.029   2.769
 6579SOL    HW120636   0.354   3.980   2.855
 6579SOL    HW220637   0.419   4.088   2.752
 6580SOL     OW20638   6.153   2.422   1.721
 6580SOL    HW120639   6.226   2.455   1.662
 6580SOL    HW220640   6.161   2.323   1.733
 6581SOL     OW20641   2.621   1.795   6.102
 6581SOL    HW120642   2.665   1.709   6.124
 6581SOL    HW220643   2.550   1.814   6.170
 6582SOL     OW20644   6.401   6.979   2.915
 6582SOL    HW120645   6.344   7.008   2.838
 6582SOL    HW220646   6.496   7.009   2.900
 6583SOL     OW20647   5.710   1.579   5.782
 6583SOL    HW120648   5.751   1.628   5.705
 6583SOL    HW220649   5.775   1.511   5.817
 6584SOL     OW20650   5.956   1.710   6.189
 6584SOL    HW120651   6.043   1.662   6.203
 6584SOL    HW220652   5.937   1.769   6.268
 6585SOL     OW20653   1.528   1.303   6.882
 6585SOL    HW120654   1.442   1.351   6.865
 6585SOL    HW220655   1.603   1.352   6.838
 6586SOL     OW20656   6.457   2.427   5.895
 6586SOL    HW120657   6.556   2.422   5.908
 6586SOL    HW220658   6.436   2.485   5.816
 6587SOL     OW20659   2.203   6.614   3.260
 6587SOL    HW120660   2.122   6.555   3.265
 6587SOL    HW220661   2.271   6.572   3.199
 6588SOL     OW20662   1.513   3.121   0.200
 6588SOL    HW120663   1.597   3.146   0.152
 6588SOL    HW220664   1.434   3.141   0.141
 6589SOL     OW20665   4.375   1.752   5.666
 6589SOL    HW120666   4.321   1.689   5.609
 6589SOL    HW220667   4.315   1.822   5.704
 6590SOL     OW20668   0.155   1.179   5.066
 6590SOL    HW120669   0.059   1.182   5.039
 6590SOL    HW220670   0.197   1.268   5.053
 6591SOL     OW20671   5.479   1.248   2.918
 6591SOL    HW120672   5.395   1.301   2.907
 6591SOL    HW220673   5.457   1.151   2.917
 6592SOL     OW20674   4.904   5.701   4.223
 6592SOL    HW120675   4.934   5.623   4.279
 6592SOL    HW220676   4.899   5.673   4.127
 6593SOL     OW20677   3.666   1.099   2.365
 6593SOL    HW120678   3.587   1.125   2.310
 6593SOL    HW220679   3.714   1.181   2.396
 6594SOL     OW20680   5.781   0.474   6.631
 6594SOL    HW120681   5.800   0.496   6.536
 6594SOL    HW220682   5.722   0.545   6.671
 6595SOL     OW20683   1.635   4.040   0.715
 6595SOL    HW120684   1.572   4.087   0.777
 6595SOL    HW220685   1.689   3.974   0.767
 6596SOL     OW20686   4.055   6.979   4.968
 6596SOL    HW120687   4.049   6.959   5.066
 6596SOL    HW220688   4.084   6.897   4.919
 6597SOL     OW20689   0.314   4.608   5.321
 6597SOL    HW120690   0.231   4.584   5.371
 6597SOL    HW220691   0.394   4.569   5.368
 6598SOL     OW20692   1.584   5.936   5.658
 6598SOL    HW120693   1.517   6.002   5.624
 6598SOL    HW220694   1.666   5.984   5.689
 6599SOL     OW20695   4.040   4.410   5.852
 6599SOL    HW120696   4.134   4.382   5.870
 6599SOL    HW220697   4.024   4.500   5.893
 6600SOL     OW20698   4.753   5.928   4.075
 6600SOL    HW120699   4.826   5.888   4.019
 6600SOL    HW220700   4.767   6.027   4.083
 6601SOL     OW20701   1.001   0.443   0.253
 6601SOL    HW120702   1.089   0.486   0.234
 6601SOL    HW220703   0.969   0.471   0.344
 6602SOL     OW20704   6.224   1.535   1.503
 6602SOL    HW120705   6.232   1.436   1.508
 6602SOL    HW220706   6.199   1.570   1.594
 6603SOL     OW20707   2.131   3.613   3.581
 6603SOL    HW120708   2.059   3.556   3.621
 6603SOL    HW220709   2.220   3.580   3.611
 6604SOL     OW20710   3.534   5.654   2.533
 6604SOL    HW120711   3.453   5.672   2.477
 6604SOL    HW220712   3.510   5.665   2.630
 6605SOL     OW20713   5.825   6.180   0.045
 6605SOL    HW120714   5.898   6.169   0.113
 6605SOL    HW220715   5.746   6.125   0.072
 6606SOL     OW20716   5.082   0.905   2.752
 6606SOL    HW120717   5.160   0.967   2.744
 6606SOL    HW220718   5.111   0.819   2.794
 6607SOL     OW20719   0.919   2.399   2.487
 6607SOL    HW120720   0.889   2.478   2.540
 6607SOL    HW220721   0.937   2.426   2.392
 6608SOL     OW20722   6.106   3.629   4.288
 6608SOL    HW120723   6.011   3.635   4.317
 6608SOL    HW220724   6.110   3.619   4.189
 6609SOL     OW20725   5.710   1.923   6.579
 6609SOL    HW120726   5.700   1.825   6.562
 6609SOL    HW220727   5.646   1.974   6.522
 6610SOL     OW20728   2.561   0.597   7.012
 6610SOL    HW120729   2.486   0.659   6.990
 6610SOL    HW220730   2.529   0.502   7.005
 6611SOL     OW20731   5.876   2.718   2.744
 6611SOL    HW120732   5.882   2.765   2.833
 6611SOL    HW220733   5.961   2.669   2.727
 6612SOL     OW20734   1.740   6.490   6.903
 6612SOL    HW120735   1.662   6.493   6.966
 6612SOL    HW220736   1.786   6.579   6.904
 6613SOL     OW20737   4.649   5.402   1.821
 6613SOL    HW120738   4.702   5.343   1.761
 6613SOL    HW220739   4.603   5.346   1.890
 6614SOL     OW20740   5.290   5.940   5.987
 6614SOL    HW120741   5.338   6.009   6.042
 6614SOL    HW220742   5.194   5.938   6.014
 6615SOL     OW20743   1.007   3.831   5.209
 6615SOL    HW120744   0.982   3.917   5.252
 6615SOL    HW220745   1.098   3.839   5.169
 6616SOL     OW20746   4.684   0.329   4.696
 6616SOL    HW120747   4.764   0.355   4.641
 6616SOL    HW220748   4.648   0.241   4.664
 6617SOL     OW20749   4.068   0.148   5.745
 6617SOL    HW120750   4.006   0.173   5.671
 6617SOL    HW220751   4.141   0.215   5.751
 6618SOL     OW20752   0.537   4.598   1.342
 6618SOL    HW120753   0.504   4.610   1.249
 6618SOL    HW220754   0.464   4.556   1.397
 6619SOL     OW20755   4.994   5.698   2.797
 6619SOL    HW120756   4.911   5.696   2.853
 6619SOL    HW220757   4.979   5.647   2.713
 6620SOL     OW20758   1.900   2.612   5.341
 6620SOL    HW120759   1.810   2.577   5.368
 6620SOL    HW220760   1.952   2.636   5.423
 6621SOL     OW20761   2.700   3.762   0.216
 6621SOL    HW120762   2.794   3.793   0.206
 6621SOL    HW220763   2.645   3.834   0.259
 6622SOL     OW20764   0.180   6.262   0.427
 6622SOL    HW120765   0.159   6.341   0.371
 6622SOL    HW220766   0.279   6.256   0.441
 6623SOL     OW20767   3.494   3.608   1.964
 6623SOL    HW120768   3.419   3.562   2.011
 6623SOL    HW220769   3.471   3.704   1.952
 6624SOL     OW20770   4.006   4.804   4.410
 6624SOL    HW120771   4.064   4.764   4.481
 6624SOL    HW220772   3.912   4.811   4.444
 6625SOL     OW20773   6.710   0.697   0.534
 6625SOL    HW120774   6.760   0.685   0.619
 6625SOL    HW220775   6.775   0.716   0.460
 6626SOL     OW20776   3.590   4.985   3.632
 6626SOL    HW120777   3.674   4.947   3.669
 6626SOL    HW220778   3.590   4.974   3.532
 6627SOL     OW20779   2.075   6.574   1.193
 6627SOL    HW120780   1.999   6.527   1.239
 6627SOL    HW220781   2.047   6.598   1.100
 6628SOL     OW20782   3.947   5.875   2.961
 6628SOL    HW120783   3.901   5.911   2.879
 6628SOL    HW220784   4.031   5.928   2.977
 6629SOL     OW20785   3.322   4.666   0.534
 6629SOL    HW120786   3.313   4.585   0.476
 6629SOL    HW220787   3.231   4.698   0.562
 6630SOL     OW20788   3.176   2.040   0.060
 6630SOL    HW120789   3.164   1.973   0.133
 6630SOL    HW220790   3.087   2.074   0.030
 6631SOL     OW20791   4.873   0.805   2.259
 6631SOL    HW120792   4.872   0.794   2.358
 6631SOL    HW220793   4.788   0.848   2.229
 6632SOL     OW20794   6.795   1.851   1.746
 6632SOL    HW120795   6.734   1.805   1.681
 6632SOL    HW220796   6.757   1.841   1.838
 6633SOL     OW20797   0.725   0.055   1.125
 6633SOL    HW120798   0.781   0.067   1.042
 6633SOL    HW220799   0.723   6.984   1.150
 6634SOL     OW20800   6.988   2.842   6.128
 6634SOL    HW120801   6.912   2.893   6.087
 6634SOL    HW220802   6.975   2.838   6.227
 6635SOL     OW20803   4.676   4.254   3.207
 6635SOL    HW120804   4.689   4.284   3.113
 6635SOL    HW220805   4.718   4.164   3.220
 6636SOL     OW20806   2.205   2.619   4.138
 6636SOL    HW120807   2.205   2.524   4.169
 6636SOL    HW220808   2.130   2.669   4.182
 6637SOL     OW20809   6.762   0.368   0.836
 6637SOL    HW120810   6.741   0.355   0.739
 6637SOL    HW220811   6.816   0.451   0.848
 6638SOL     OW20812   2.458   5.689   5.910
 6638SOL    HW120813   2.446   5.662   5.815
 6638SOL    HW220814   2.555   5.685   5.934
 6639SOL     OW20815   5.753   5.367   0.105
 6639SOL    HW120816   5.764   5.466   0.111
 6639SOL    HW220817   5.667   5.340   0.148
 6640SOL     OW20818   5.933   2.863   3.284
 6640SOL    HW120819   5.891   2.807   3.356
 6640SOL    HW220820   5.887   2.952   3.279
 6641SOL     OW20821   1.985   4.506   5.774
 6641SOL    HW120822   1.951   4.560   5.851
 6641SOL    HW220823   1.909   4.455   5.733
 6642SOL     OW20824   0.395   6.031   0.186
 6642SOL    HW120825   0.326   6.079   0.131
 6642SOL    HW220826   0.398   5.935   0.158
 6643SOL     OW20827   4.794   4.680   6.765
 6643SOL    HW120828   4.737   4.762   6.768
 6643SOL    HW220829   4.802   4.641   6.857
 6644SOL     OW20830   3.031   4.842   2.005
 6644SOL    HW120831   3.089   4.825   1.926
 6644SOL    HW220832   2.982   4.758   2.029
 6645SOL     OW20833   0.684   5.289   5.684
 6645SOL    HW120834   0.702   5.321   5.591
 6645SOL    HW220835   0.744   5.337   5.748
 6646SOL     OW20836   2.564   5.567   4.202
 6646SOL    HW120837   2.565   5.660   4.239
 6646SOL    HW220838   2.620   5.508   4.259
 6647SOL     OW20839   3.151   2.086   1.910
 6647SOL    HW120840   3.132   1.988   1.909
 6647SOL    HW220841   3.075   2.134   1.955
 6648SOL     OW20842   4.879   5.797   2.244
 6648SOL    HW120843   4.954   5.831   2.187
 6648SOL    HW220844   4.792   5.813   2.198
 6649SOL     OW20845   3.710   2.229   6.530
 6649SOL    HW120846   3.664   2.140   6.531
 6649SOL    HW220847   3.808   2.215   6.547
 6650SOL     OW20848   3.374   1.924   2.974
 6650SOL    HW120849   3.438   1.886   3.040
 6650SOL    HW220850   3.424   1.976   2.905
 6651SOL     OW20851   1.158   2.702   6.524
 6651SOL    HW120852   1.149   2.618   6.577
 6651SOL    HW220853   1.118   2.778   6.574
 6652SOL     OW20854   6.607   5.536   2.830
 6652SOL    HW120855   6.545   5.613   2.842
 6652SOL    HW220856   6.700   5.565   2.852
 6653SOL     OW20857   3.349   3.591   3.854
 6653SOL    HW120858   3.330   3.679   3.810
 6653SOL    HW220859   3.396   3.531   3.789
 6654SOL     OW20860   2.277   3.240   1.743
 6654SOL    HW120861   2.342   3.305   1.784
 6654SOL    HW220862   2.327   3.171   1.691
 6655SOL     OW20863   2.610   6.270   1.500
 6655SOL    HW120864   2.694   6.311   1.464
 6655SOL    HW220865   2.531   6.321   1.468
 6656SOL     OW20866   6.200   2.462   1.093
 6656SOL    HW120867   6.190   2.534   1.025
 6656SOL    HW220868   6.297   2.440   1.105
 6657SOL     OW20869   2.871   6.279   6.354
 6657SOL    HW120870   2.953   6.222   6.345
 6657SOL    HW220871   2.895   6.375   6.338
 6658SOL     OW20872   5.169   0.757   5.358
 6658SOL    HW120873   5.164   0.657   5.348
 6658SOL    HW220874   5.243   0.780   5.421
 6659SOL     OW20875   1.952   2.781   6.732
 6659SOL    HW120876   1.854   2.791   6.746
 6659SOL    HW220877   1.992   2.870   6.711
 6660SOL     OW20878   6.889   6.773   3.124
 6660SOL    HW120879   6.914   6.701   3.189
 6660SOL    HW220880   6.795   6.759   3.093
 6661SOL     OW20881   0.583   5.953   3.857
 6661SOL    HW120882   0.498   5.945   3.807
 6661SOL    HW220883   0.659   5.965   3.793
 6662SOL     OW20884   1.405   2.468   0.169
 6662SOL    HW120885   1.395   2.566   0.153
 6662SOL    HW220886   1.500   2.447   0.192
 6663SOL     OW20887   0.406   5.528   2.600
 6663SOL    HW120888   0.352   5.600   2.557
 6663SOL    HW220889   0.398   5.444   2.548
 6664SOL     OW20890   1.373   1.253   3.025
 6664SOL    HW120891   1.355   1.193   2.947
 6664SOL    HW220892   1.471   1.258   3.042
 6665SOL     OW20893   2.558   6.753   3.081
 6665SOL    HW120894   2.499   6.672   3.081
 6665SOL    HW220895   2.529   6.815   3.154
 6666SOL     OW20896   6.332   0.450   6.988
 6666SOL    HW120897   6.421   0.496   6.985
 6666SOL    HW220898   6.292   0.461   0.054
 6667SOL     OW20899   6.747   4.332   4.785
 6667SOL    HW120900   6.697   4.256   4.745
 6667SOL    HW220901   6.818   4.362   4.720
 6668SOL     OW20902   0.428   4.689   1.622
 6668SOL    HW120903   0.527   4.685   1.610
 6668SOL    HW220904   0.406   4.720   1.714
 6669SOL     OW20905   2.152   6.079   2.417
 6669SOL    HW120906   2.144   6.008   2.347
 6669SOL    HW220907   2.234   6.133   2.401
 6670SOL     OW20908   3.708   4.462   0.299
 6670SOL    HW120909   3.692   4.482   0.396
 6670SOL    HW220910   3.658   4.379   0.273
 6671SOL     OW20911   6.641   3.102   4.402
 6671SOL    HW120912   6.734   3.133   4.381
 6671SOL    HW220913   6.576   3.153   4.347
 6672SOL     OW20914   1.494   1.127   5.794
 6672SOL    HW120915   1.566   1.161   5.734
 6672SOL    HW220916   1.533   1.105   5.884
 6673SOL     OW20917   4.569   4.538   1.539
 6673SOL    HW120918   4.580   4.519   1.637
 6673SOL    HW220919   4.539   4.632   1.527
 6674SOL     OW20920   0.584   6.875   4.057
 6674SOL    HW120921   0.548   6.926   3.979
 6674SOL    HW220922   0.608   6.782   4.028
 6675SOL     OW20923   5.857   4.832   0.332
 6675SOL    HW120924   5.790   4.813   0.260
 6675SOL    HW220925   5.838   4.774   0.411
 6676SOL     OW20926   0.955   2.451   6.127
 6676SOL    HW120927   0.863   2.489   6.127
 6676SOL    HW220928   0.978   2.419   6.036
 6677SOL     OW20929   0.812   3.312   0.631
 6677SOL    HW120930   0.792   3.279   0.539
 6677SOL    HW220931   0.894   3.369   0.630
 6678SOL     OW20932   0.937   3.055   5.729
 6678SOL    HW120933   0.941   3.155   5.729
 6678SOL    HW220934   0.864   3.025   5.667
 6679SOL     OW20935   1.818   1.818   4.170
 6679SOL    HW120936   1.761   1.752   4.123
 6679SOL    HW220937   1.766   1.902   4.187
 6680SOL     OW20938   2.930   6.573   6.304
 6680SOL    HW120939   2.832   6.594   6.312
 6680SOL    HW220940   2.959   6.585   6.209
 6681SOL     OW20941   5.151   4.899   0.611
 6681SOL    HW120942   5.097   4.955   0.548
 6681SOL    HW220943   5.182   4.955   0.688
 6682SOL     OW20944   0.192   6.675   1.808
 6682SOL    HW120945   0.247   6.690   1.890
 6682SOL    HW220946   0.171   6.763   1.766
 6683SOL     OW20947   5.236   2.046   3.987
 6683SOL    HW120948   5.322   2.084   4.020
 6683SOL    HW220949   5.242   1.946   3.987
 6684SOL     OW20950   1.932   0.110   2.918
 6684SOL    HW120951   1.965   0.016   2.929
 6684SOL    HW220952   1.947   0.140   2.823
 6685SOL     OW20953   5.010   3.559   6.328
 6685SOL    HW120954   5.105   3.528   6.322
 6685SOL    HW220955   4.988   3.580   6.423
 6686SOL     OW20956   6.532   3.999   3.308
 6686SOL    HW120957   6.436   4.026   3.313
 6686SOL    HW220958   6.554   3.974   3.214
 6687SOL     OW20959   1.183   2.145   0.579
 6687SOL    HW120960   1.255   2.214   0.591
 6687SOL    HW220961   1.185   2.111   0.485
 6688SOL     OW20962   0.610   5.148   2.538
 6688SOL    HW120963   0.668   5.069   2.559
 6688SOL    HW220964   0.622   5.175   2.443
 6689SOL     OW20965   4.452   4.754   0.156
 6689SOL    HW120966   4.511   4.700   0.096
 6689SOL    HW220967   4.400   4.693   0.215
 6690SOL     OW20968   1.729   2.679   0.776
 6690SOL    HW120969   1.801   2.715   0.717
 6690SOL    HW220970   1.645   2.732   0.762
 6691SOL     OW20971   2.317   4.428   1.580
 6691SOL    HW120972   2.334   4.511   1.527
 6691SOL    HW220973   2.261   4.365   1.526
 6692SOL     OW20974   3.304   3.990   5.441
 6692SOL    HW120975   3.284   4.059   5.372
 6692SOL    HW220976   3.272   3.901   5.408
 6693SOL     OW20977   4.218   3.495   5.188
 6693SOL    HW120978   4.295   3.555   5.210
 6693SOL    HW220979   4.181   3.456   5.272
 6694SOL     OW20980   3.581   6.183   1.079
 6694SOL    HW120981   3.486   6.153   1.082
 6694SOL    HW220982   3.628   6.152   1.161
 6695SOL     OW20983   1.495   2.297   6.948
 6695SOL    HW120984   1.448   2.362   7.008
 6695SOL    HW220985   1.565   2.247   7.000
 6696SOL     OW20986   1.948   2.860   1.761
 6696SOL    HW120987   1.850   2.839   1.768
 6696SOL    HW220988   1.966   2.950   1.800
 6697SOL     OW20989   4.906   1.263   3.030
 6697SOL    HW120990   4.832   1.213   3.074
 6697SOL    HW220991   4.919   1.227   2.937
 6698SOL     OW20992   3.897   3.499   0.616
 6698SOL    HW120993   3.870   3.464   0.527
 6698SOL    HW220994   3.876   3.597   0.621
 6699SOL     OW20995   1.462   4.411   0.104
 6699SOL    HW120996   1.534   4.381   0.167
 6699SOL    HW220997   1.421   4.331   0.060
 6700SOL     OW20998   6.888   5.970   0.318
 6700SOL    HW120999   6.892   6.055   0.369
 6700SOL    HW221000   6.961   5.909   0.348
 6701SOL     OW21001   0.793   2.049   0.592
 6701SOL    HW121002   0.781   2.147   0.607
 6701SOL    HW221003   0.766   1.998   0.673
 6702SOL     OW21004   2.886   1.922   1.084
 6702SOL    HW121005   2.973   1.914   1.035
 6702SOL    HW221006   2.867   1.836   1.131
 6703SOL     OW21007   0.487   2.072   0.087
 6703SOL    HW121008   0.430   2.131   0.144
 6703SOL    HW221009   0.473   1.976   0.113
 6704SOL     OW21010   5.389   1.731   2.206
 6704SOL    HW121011   5.455   1.805   2.218
 6704SOL    HW221012   5.439   1.646   2.188
 6705SOL     OW21013   5.789   1.699   0.040
 6705SOL    HW121014   5.713   1.727   0.098
 6705SOL    HW221015   5.874   1.707   0.091
 6706SOL     OW21016   0.458   4.739   6.313
 6706SOL    HW121017   0.523   4.793   6.259
 6706SOL    HW221018   0.377   4.795   6.331
 6707SOL     OW21019   1.403   6.188   2.466
 6707SOL    HW121020   1.465   6.116   2.435
 6707SOL    HW221021   1.443   6.277   2.446
 6708SOL     OW21022   2.330   6.104   1.306
 6708SOL    HW121023   2.381   6.054   1.236
 6708SOL    HW221024   2.360   6.199   1.306
 6709SOL     OW21025   4.415   1.537   2.992
 6709SOL    HW121026   4.392   1.550   2.895
 6709SOL    HW221027   4.491   1.472   2.999
 6710SOL     OW21028   3.475   2.560   0.644
 6710SOL    HW121029   3.571   2.530   0.640
 6710SOL    HW221030   3.471   2.659   0.637
 6711SOL     OW21031   3.705   4.181   0.690
 6711SOL    HW121032   3.625   4.231   0.658
 6711SOL    HW221033   3.782   4.198   0.629
 6712SOL     OW21034   3.497   5.501   0.348
 6712SOL    HW121035   3.453   5.554   0.276
 6712SOL    HW221036   3.592   5.482   0.322
 6713SOL     OW21037   2.276   1.868   2.026
 6713SOL    HW121038   2.228   1.922   2.095
 6713SOL    HW221039   2.373   1.864   2.049
 6714SOL     OW21040   6.334   0.878   4.088
 6714SOL    HW121041   6.321   0.967   4.132
 6714SOL    HW221042   6.341   0.891   3.989
 6715SOL     OW21043   0.556   1.295   1.112
 6715SOL    HW121044   0.586   1.385   1.142
 6715SOL    HW221045   0.578   1.283   1.014
 6716SOL     OW21046   2.179   6.000   0.355
 6716SOL    HW121047   2.186   5.936   0.278
 6716SOL    HW221048   2.231   6.083   0.335
 6717SOL     OW21049   3.265   1.733   6.770
 6717SOL    HW121050   3.176   1.706   6.734
 6717SOL    HW221051   3.264   1.726   6.869
 6718SOL     OW21052   3.500   6.790   0.537
 6718SOL    HW121053   3.468   6.833   0.453
 6718SOL    HW221054   3.594   6.758   0.525
 6719SOL     OW21055   0.219   0.158   5.520
 6719SOL    HW121056   0.277   0.107   5.457
 6719SOL    HW221057   0.243   0.255   5.519
 6720SOL     OW21058   2.040   5.042   1.962
 6720SOL    HW121059   2.097   4.988   1.900
 6720SOL    HW221060   1.944   5.029   1.940
 6721SOL     OW21061   5.867   6.580   3.581
 6721SOL    HW121062   5.927   6.537   3.649
 6721SOL    HW221063   5.827   6.509   3.523
 6722SOL     OW21064   4.494   3.479   6.967
 6722SOL    HW121065   4.486   3.503   0.039
 6722SOL    HW221066   4.436   3.540   6.913
 6723SOL     OW21067   3.934   6.347   2.073
 6723SOL    HW121068   3.931   6.355   2.173
 6723SOL    HW221069   3.842   6.332   2.038
 6724SOL     OW21070   3.154   5.198   5.386
 6724SOL    HW121071   3.084   5.270   5.381
 6724SOL    HW221072   3.111   5.109   5.370
 6725SOL     OW21073   0.529   4.585   2.176
 6725SOL    HW121074   0.586   4.548   2.250
 6725SOL    HW221075   0.475   4.511   2.136
 6726SOL     OW21076   2.401   1.964   2.925
 6726SOL    HW121077   2.351   1.913   2.995
 6726SOL    HW221078   2.428   2.053   2.960
 6727SOL     OW21079   3.799   3.588   6.819
 6727SOL    HW121080   3.856   3.549   6.747
 6727SOL    HW221081   3.801   3.527   6.899
 6728SOL     OW21082   4.561   1.403   3.729
 6728SOL    HW121083   4.629   1.418   3.657
 6728SOL    HW221084   4.476   1.449   3.704
 6729SOL     OW21085   5.488   0.422   2.187
 6729SOL    HW121086   5.508   0.436   2.284
 6729SOL    HW221087   5.411   0.360   2.178
 6730SOL     OW21088   1.915   0.631   0.169
 6730SOL    HW121089   1.906   0.533   0.181
 6730SOL    HW221090   2.012   0.656   0.168
 6731SOL     OW21091   2.738   4.876   1.869
 6731SOL    HW121092   2.759   4.778   1.876
 6731SOL    HW221093   2.821   4.926   1.843
 6732SOL     OW21094   2.100   4.751   1.297
 6732SOL    HW121095   2.010   4.789   1.275
 6732SOL    HW221096   2.169   4.823   1.291
 6733SOL     OW21097   5.273   6.008   5.689
 6733SOL    HW121098   5.271   5.998   5.789
 6733SOL    HW221099   5.292   6.103   5.665
 6734SOL     OW21100   2.266   3.255   5.646
 6734SOL    HW121101   2.220   3.166   5.647
 6734SOL    HW221102   2.332   3.258   5.571
 6735SOL     OW21103   6.938   5.074   5.844
 6735SOL    HW121104   6.985   5.021   5.915
 6735SOL    HW221105   6.966   5.170   5.849
 6736SOL     OW21106   2.085   3.671   2.761
 6736SOL    HW121107   2.108   3.749   2.703
 6736SOL    HW221108   2.085   3.587   2.706
 6737SOL     OW21109   2.373   1.114   0.965
 6737SOL    HW121110   2.369   1.032   0.907
 6737SOL    HW221111   2.281   1.141   0.990
 6738SOL     OW21112   2.980   1.159   2.022
 6738SOL    HW121113   3.078   1.160   2.002
 6738SOL    HW221114   2.965   1.120   2.113
 6739SOL     OW21115   3.660   5.968   4.696
 6739SOL    HW121116   3.607   6.044   4.658
 6739SOL    HW221117   3.675   5.984   4.793
 6740SOL     OW21118   6.466   2.170   3.819
 6740SOL    HW121119   6.443   2.253   3.869
 6740SOL    HW221120   6.505   2.194   3.730
 6741SOL     OW21121   6.550   0.154   6.580
 6741SOL    HW121122   6.507   0.221   6.640
 6741SOL    HW221123   6.647   0.173   6.572
 6742SOL     OW21124   6.335   6.220   6.004
 6742SOL    HW121125   6.262   6.170   5.957
 6742SOL    HW221126   6.396   6.155   6.049
 6743SOL     OW21127   4.697   3.068   0.814
 6743SOL    HW121128   4.719   3.038   0.907
 6743SOL    HW221129   4.624   3.136   0.818
 6744SOL     OW21130   4.859   5.016   5.991
 6744SOL    HW121131   4.788   5.058   6.047
 6744SOL    HW221132   4.925   4.969   6.050
 6745SOL     OW21133   6.895   4.457   3.510
 6745SOL    HW121134   6.870   4.552   3.527
 6745SOL    HW221135   6.860   4.428   3.421
 6746SOL     OW21136   6.948   1.531   1.250
 6746SOL    HW121137   6.967   1.471   1.327
 6746SOL    HW221138   0.004   1.537   1.192
 6747SOL     OW21139   5.779   6.529   5.856
 6747SOL    HW121140   5.719   6.597   5.898
 6747SOL    HW221141   5.738   6.497   5.770
 6748SOL     OW21142   0.180   0.401   1.911
 6748SOL    HW121143   0.217   0.313   1.940
 6748SOL    HW221144   0.080   0.395   1.905
 6749SOL     OW21145   3.774   6.496   1.103
 6749SOL    HW121146   3.725   6.561   1.043
 6749SOL    HW221147   3.772   6.405   1.061
 6750SOL     OW21148   2.465   3.239   5.423
 6750SOL    HW121149   2.490   3.160   5.479
 6750SOL    HW221150   2.486   3.219   5.327
 6751SOL     OW21151   3.445   1.803   5.369
 6751SOL    HW121152   3.447   1.804   5.469
 6751SOL    HW221153   3.511   1.736   5.335
 6752SOL     OW21154   6.382   1.990   0.253
 6752SOL    HW121155   6.383   1.911   0.315
 6752SOL    HW221156   6.288   2.023   0.244
 6753SOL     OW21157   5.142   2.380   6.397
 6753SOL    HW121158   5.049   2.378   6.434
 6753SOL    HW221159   5.138   2.382   6.297
 6754SOL     OW21160   5.966   0.592   0.179
 6754SOL    HW121161   6.012   0.549   0.257
 6754SOL    HW221162   5.867   0.585   0.190
 6755SOL     OW21163   5.049   1.944   3.238
 6755SOL    HW121164   5.091   2.003   3.306
 6755SOL    HW221165   5.039   1.851   3.275
 6756SOL     OW21166   5.186   4.044   3.927
 6756SOL    HW121167   5.134   4.070   4.008
 6756SOL    HW221168   5.154   4.096   3.848
 6757SOL     OW21169   5.402   5.160   1.456
 6757SOL    HW121170   5.453   5.081   1.490
 6757SOL    HW221171   5.426   5.241   1.510
 6758SOL     OW21172   5.307   2.251   3.027
 6758SOL    HW121173   5.273   2.162   2.997
 6758SOL    HW221174   5.325   2.309   2.947
 6759SOL     OW21175   0.197   4.769   3.841
 6759SOL    HW121176   0.193   4.671   3.823
 6759SOL    HW221177   0.161   4.819   3.762
 6760SOL     OW21178   0.528   4.335   4.905
 6760SOL    HW121179   0.526   4.435   4.902
 6760SOL    HW221180   0.436   4.299   4.892
 6761SOL     OW21181   5.966   3.486   6.548
 6761SOL    HW121182   5.968   3.480   6.648
 6761SOL    HW221183   5.918   3.569   6.520
 6762SOL     OW21184   5.591   5.112   4.191
 6762SOL    HW121185   5.571   5.193   4.246
 6762SOL    HW221186   5.526   5.106   4.115
 6763SOL     OW21187   5.324   6.231   5.848
 6763SOL    HW121188   5.411   6.193   5.816
 6763SOL    HW221189   5.329   6.331   5.844
 6764SOL     OW21190   2.337   3.678   6.973
 6764SOL    HW121191   2.244   3.684   6.938
 6764SOL    HW221192   2.380   3.593   6.942
 6765SOL     OW21193   5.152   5.228   2.535
 6765SOL    HW121194   5.125   5.134   2.514
 6765SOL    HW221195   5.207   5.264   2.460
 6766SOL     OW21196   1.338   1.182   5.484
 6766SOL    HW121197   1.256   1.126   5.497
 6766SOL    HW221198   1.386   1.192   5.572
 6767SOL     OW21199   1.080   2.362   5.881
 6767SOL    HW121200   1.176   2.343   5.904
 6767SOL    HW221201   1.037   2.278   5.848
 6768SOL     OW21202   0.136   0.161   5.803
 6768SOL    HW121203   0.159   0.143   5.707
 6768SOL    HW221204   0.158   0.256   5.824
 6769SOL     OW21205   1.591   3.002   6.332
 6769SOL    HW121206   1.666   2.968   6.276
 6769SOL    HW221207   1.504   2.963   6.300
 6770SOL     OW21208   6.940   1.545   3.703
 6770SOL    HW121209   6.858   1.496   3.673
 6770SOL    HW221210   7.008   1.543   3.629
 6771SOL     OW21211   4.030   1.184   2.557
 6771SOL    HW121212   3.933   1.184   2.581
 6771SOL    HW221213   4.054   1.271   2.515
 6772SOL     OW21214   0.818   1.095   1.856
 6772SOL    HW121215   0.798   1.002   1.888
 6772SOL    HW221216   0.808   1.159   1.931
 6773SOL     OW21217   1.043   0.751   1.593
 6773SOL    HW121218   1.075   0.791   1.508
 6773SOL    HW221219   0.943   0.755   1.595
 6774SOL     OW21220   2.965   1.724   5.506
 6774SOL    HW121221   2.890   1.788   5.493
 6774SOL    HW221222   3.047   1.759   5.460
 6775SOL     OW21223   0.643   2.891   4.627
 6775SOL    HW121224   0.683   2.983   4.620
 6775SOL    HW221225   0.605   2.879   4.719
 6776SOL     OW21226   3.446   3.647   3.279
 6776SOL    HW121227   3.359   3.673   3.238
 6776SOL    HW221228   3.517   3.711   3.252
 6777SOL     OW21229   6.869   6.134   6.730
 6777SOL    HW121230   6.785   6.186   6.715
 6777SOL    HW221231   6.893   6.137   6.827
 6778SOL     OW21232   5.617   5.912   1.903
 6778SOL    HW121233   5.553   5.835   1.907
 6778SOL    HW221234   5.700   5.889   1.953
 6779SOL     OW21235   5.060   4.286   6.543
 6779SOL    HW121236   5.017   4.204   6.580
 6779SOL    HW221237   5.137   4.313   6.601
 6780SOL     OW21238   3.325   1.108   2.286
 6780SOL    HW121239   3.285   1.125   2.376
 6780SOL    HW221240   3.309   1.188   2.228
 6781SOL     OW21241   6.154   2.480   3.010
 6781SOL    HW121242   6.125   2.539   3.085
 6781SOL    HW221243   6.090   2.404   3.000
 6782SOL     OW21244   6.807   1.953   3.172
 6782SOL    HW121245   6.730   1.925   3.229
 6782SOL    HW221246   6.877   1.882   3.174
 6783SOL     OW21247   0.398   6.035   5.991
 6783SOL    HW121248   0.482   6.051   5.939
 6783SOL    HW221249   0.339   6.115   5.986
 6784SOL     OW21250   1.528   4.079   1.183
 6784SOL    HW121251   1.582   4.143   1.238
 6784SOL    HW221252   1.453   4.043   1.238
 6785SOL     OW21253   5.559   4.932   3.838
 6785SOL    HW121254   5.638   4.930   3.899
 6785SOL    HW221255   5.553   4.845   3.789
 6786SOL     OW21256   6.120   2.116   5.762
 6786SOL    HW121257   6.033   2.088   5.723
 6786SOL    HW221258   6.120   2.101   5.861
 6787SOL     OW21259   3.120   1.881   0.264
 6787SOL    HW121260   3.097   1.793   0.222
 6787SOL    HW221261   3.131   1.868   0.363
 6788SOL     OW21262   0.367   4.365   1.453
 6788SOL    HW121263   0.440   4.360   1.521
 6788SOL    HW221264   0.378   4.289   1.388
 6789SOL     OW21265   5.705   4.697   2.883
 6789SOL    HW121266   5.676   4.611   2.841
 6789SOL    HW221267   5.693   4.692   2.982
 6790SOL     OW21268   0.472   5.804   7.024
 6790SOL    HW121269   0.384   5.760   0.009
 6790SOL    HW221270   0.528   5.789   0.080
 6791SOL     OW21271   2.563   6.645   3.508
 6791SOL    HW121272   2.583   6.567   3.448
 6791SOL    HW221273   2.473   6.682   3.486
 6792SOL     OW21274   4.073   0.137   6.175
 6792SOL    HW121275   4.113   0.199   6.108
 6792SOL    HW221276   4.064   0.184   6.263
 6793SOL     OW21277   1.905   3.359   6.312
 6793SOL    HW121278   1.810   3.380   6.289
 6793SOL    HW221279   1.965   3.430   6.273
 6794SOL     OW21280   6.113   2.486   5.027
 6794SOL    HW121281   6.079   2.573   4.992
 6794SOL    HW221282   6.056   2.456   5.103
 6795SOL     OW21283   1.467   0.791   1.556
 6795SOL    HW121284   1.530   0.797   1.479
 6795SOL    HW221285   1.467   0.698   1.592
 6796SOL     OW21286   6.628   1.748   2.838
 6796SOL    HW121287   6.538   1.728   2.799
 6796SOL    HW221288   6.628   1.723   2.935
 6797SOL     OW21289   1.244   3.041   1.108
 6797SOL    HW121290   1.272   2.988   1.188
 6797SOL    HW221291   1.148   3.066   1.116
 6798SOL     OW21292   4.905   1.193   2.176
 6798SOL    HW121293   4.852   1.108   2.183
 6798SOL    HW221294   4.988   1.176   2.124
 6799SOL     OW21295   6.275   6.958   3.147
 6799SOL    HW121296   6.357   6.951   3.205
 6799SOL    HW221297   6.303   6.973   3.052
 6800SOL     OW21298   6.416   3.200   1.671
 6800SOL    HW121299   6.467   3.286   1.662
 6800SOL    HW221300   6.478   3.123   1.654
 6801SOL     OW21301   1.060   6.374   6.428
 6801SOL    HW121302   1.126   6.362   6.502
 6801SOL    HW221303   1.067   6.297   6.364
 6802SOL     OW21304   3.078   4.696   1.756
 6802SOL    HW121305   3.170   4.669   1.783
 6802SOL    HW221306   3.011   4.634   1.796
 6803SOL     OW21307   4.968   5.681   6.304
 6803SOL    HW121308   5.021   5.687   6.219
 6803SOL    HW221309   4.943   5.586   6.321
 6804SOL     OW21310   3.516   5.084   2.293
 6804SOL    HW121311   3.527   5.163   2.233
 6804SOL    HW221312   3.479   5.114   2.381
 6805SOL     OW21313   0.765   4.309   4.525
 6805SOL    HW121314   0.666   4.315   4.517
 6805SOL    HW221315   0.802   4.261   4.445
 6806SOL     OW21316   6.026   3.338   1.777
 6806SOL    HW121317   6.086   3.258   1.785
 6806SOL    HW221318   6.009   3.356   1.680
 6807SOL     OW21319   3.204   4.049   2.574
 6807SOL    HW121320   3.254   4.124   2.531
 6807SOL    HW221321   3.213   3.966   2.519
 6808SOL     OW21322   3.227   0.528   3.670
 6808SOL    HW121323   3.235   0.628   3.672
 6808SOL    HW221324   3.316   0.488   3.647
 6809SOL     OW21325   5.777   3.070   0.320
 6809SOL    HW121326   5.806   3.154   0.274
 6809SOL    HW221327   5.710   3.093   0.392
 6810SOL     OW21328   2.946   0.452   4.361
 6810SOL    HW121329   2.862   0.416   4.402
 6810SOL    HW221330   3.020   0.446   4.427
 6811SOL     OW21331   6.403   1.164   1.018
 6811SOL    HW121332   6.485   1.177   1.074
 6811SOL    HW221333   6.372   1.253   0.983
 6812SOL     OW21334   3.124   4.946   5.230
 6812SOL    HW121335   3.118   4.940   5.130
 6812SOL    HW221336   3.119   4.854   5.269
 6813SOL     OW21337   0.128   4.203   2.225
 6813SOL    HW121338   0.037   4.230   2.194
 6813SOL    HW221339   0.186   4.185   2.146
 6814SOL     OW21340   5.790   1.189   0.537
 6814SOL    HW121341   5.822   1.215   0.446
 6814SOL    HW221342   5.813   1.261   0.602
 6815SOL     OW21343   0.891   5.954   6.542
 6815SOL    HW121344   0.917   5.860   6.519
 6815SOL    HW221345   0.960   5.995   6.600
 6816SOL     OW21346   6.937   0.237   4.404
 6816SOL    HW121347   6.870   0.217   4.332
 6816SOL    HW221348   6.956   0.335   4.405
 6817SOL     OW21349   4.425   2.114   0.989
 6817SOL    HW121350   4.359   2.045   0.961
 6817SOL    HW221351   4.382   2.178   1.052
 6818SOL     OW21352   0.767   0.069   4.593
 6818SOL    HW121353   0.719   0.107   4.672
 6818SOL    HW221354   0.858   0.110   4.586
 6819SOL     OW21355   4.805   4.419   2.016
 6819SOL    HW121356   4.870   4.395   2.088
 6819SOL    HW221357   4.713   4.394   2.045
 6820SOL     OW21358   2.842   5.059   1.571
 6820SOL    HW121359   2.809   5.138   1.519
 6820SOL    HW221360   2.846   5.082   1.668
 6821SOL     OW21361   3.396   2.827   5.217
 6821SOL    HW121362   3.385   2.727   5.219
 6821SOL    HW221363   3.322   2.868   5.164
 6822SOL     OW21364   5.996   3.748   5.101
 6822SOL    HW121365   6.091   3.770   5.124
 6822SOL    HW221366   5.953   3.827   5.059
 6823SOL     OW21367   0.491   2.874   4.848
 6823SOL    HW121368   0.520   2.867   4.944
 6823SOL    HW221369   0.423   2.947   4.840
 6824SOL     OW21370   1.042   6.957   5.261
 6824SOL    HW121371   0.956   6.924   5.301
 6824SOL    HW221372   1.048   0.031   5.273
 6825SOL     OW21373   4.246   4.256   1.447
 6825SOL    HW121374   4.230   4.176   1.390
 6825SOL    HW221375   4.314   4.234   1.517
 6826SOL     OW21376   6.300   7.019   3.584
 6826SOL    HW121377   6.301   0.042   3.497
 6826SOL    HW221378   6.310   0.060   3.659
 6827SOL     OW21379   4.513   5.480   5.265
 6827SOL    HW121380   4.553   5.559   5.217
 6827SOL    HW221381   4.417   5.499   5.284
 6828SOL     OW21382   3.260   1.983   2.355
 6828SOL    HW121383   3.282   2.013   2.262
 6828SOL    HW221384   3.212   1.895   2.351
 6829SOL     OW21385   3.686   0.011   3.151
 6829SOL    HW121386   3.700   6.993   3.240
 6829SOL    HW221387   3.625   0.089   3.161
 6830SOL     OW21388   4.149   4.868   2.281
 6830SOL    HW121389   4.212   4.945   2.274
 6830SOL    HW221390   4.173   4.799   2.211
 6831SOL     OW21391   1.564   1.741   6.616
 6831SOL    HW121392   1.599   1.826   6.654
 6831SOL    HW221393   1.640   1.678   6.597
 6832SOL     OW21394   2.942   2.545   6.580
 6832SOL    HW121395   2.871   2.477   6.600
 6832SOL    HW221396   3.030   2.498   6.569
 6833SOL     OW21397   3.571   5.364   6.059
 6833SOL    HW121398   3.482   5.365   6.105
 6833SOL    HW221399   3.641   5.398   6.122
 6834SOL     OW21400   6.468   6.714   6.510
 6834SOL    HW121401   6.452   6.762   6.596
 6834SOL    HW221402   6.490   6.780   6.439
 6835SOL     OW21403   3.096   0.883   4.204
 6835SOL    HW121404   3.151   0.806   4.235
 6835SOL    HW221405   3.025   0.903   4.272
 6836SOL     OW21406   1.146   4.623   6.775
 6836SOL    HW121407   1.086   4.687   6.727
 6836SOL    HW221408   1.111   4.608   6.868
 6837SOL     OW21409   5.745   0.617   2.177
 6837SOL    HW121410   5.778   0.524   2.159
 6837SOL    HW221411   5.672   0.614   2.245
 6838SOL     OW21412   2.720   3.842   5.536
 6838SOL    HW121413   2.730   3.827   5.438
 6838SOL    HW221414   2.741   3.937   5.558
 6839SOL     OW21415   6.221   2.969   4.607
 6839SOL    HW121416   6.315   2.998   4.621
 6839SOL    HW221417   6.160   3.047   4.623
 6840SOL     OW21418   3.160   6.172   4.880
 6840SOL    HW121419   3.073   6.196   4.837
 6840SOL    HW221420   3.155   6.077   4.911
 6841SOL     OW21421   4.567   6.868   0.999
 6841SOL    HW121422   4.512   6.927   0.941
 6841SOL    HW221423   4.576   6.778   0.956
 6842SOL     OW21424   0.559   3.624   4.567
 6842SOL    HW121425   0.471   3.671   4.568
 6842SOL    HW221426   0.574   3.578   4.655
 6843SOL     OW21427   4.604   2.201   1.506
 6843SOL    HW121428   4.568   2.125   1.453
 6843SOL    HW221429   4.700   2.183   1.529
 6844SOL     OW21430   3.403   5.393   4.034
 6844SOL    HW121431   3.483   5.334   4.026
 6844SOL    HW221432   3.365   5.386   4.126
 6845SOL     OW21433   3.839   4.607   0.980
 6845SOL    HW121434   3.903   4.666   0.930
 6845SOL    HW221435   3.886   4.524   1.009
 6846SOL     OW21436   4.011   3.191   2.440
 6846SOL    HW121437   4.024   3.197   2.341
 6846SOL    HW221438   3.926   3.141   2.460
 6847SOL     OW21439   6.245   3.821   1.571
 6847SOL    HW121440   6.212   3.730   1.599
 6847SOL    HW221441   6.309   3.856   1.639
 6848SOL     OW21442   6.281   6.140   3.731
 6848SOL    HW121443   6.283   6.239   3.727
 6848SOL    HW221444   6.375   6.104   3.732
 6849SOL     OW21445   3.307   6.377   4.353
 6849SOL    HW121446   3.229   6.324   4.386
 6849SOL    HW221447   3.377   6.316   4.317
 6850SOL     OW21448   5.228   3.259   1.132
 6850SOL    HW121449   5.143   3.240   1.083
 6850SOL    HW221450   5.306   3.239   1.073
 6851SOL     OW21451   1.398   5.907   5.333
 6851SOL    HW121452   1.439   5.818   5.352
 6851SOL    HW221453   1.404   5.926   5.235
 6852SOL     OW21454   0.148   4.970   1.769
 6852SOL    HW121455   0.084   4.948   1.695
 6852SOL    HW221456   0.155   5.069   1.779
 6853SOL     OW21457   6.608   3.580   5.107
 6853SOL    HW121458   6.540   3.510   5.084
 6853SOL    HW221459   6.561   3.665   5.132
 6854SOL     OW21460   0.318   2.116   6.881
 6854SOL    HW121461   0.258   2.194   6.897
 6854SOL    HW221462   0.377   2.103   6.961
 6855SOL     OW21463   2.962   6.363   2.106
 6855SOL    HW121464   2.901   6.334   2.034
 6855SOL    HW221465   2.981   6.461   2.097
 6856SOL     OW21466   0.484   4.618   4.987
 6856SOL    HW121467   0.429   4.693   5.023
 6856SOL    HW221468   0.581   4.638   5.000
 6857SOL     OW21469   4.073   1.299   5.776
 6857SOL    HW121470   4.171   1.278   5.777
 6857SOL    HW221471   4.060   1.397   5.788
 6858SOL     OW21472   3.671   2.603   5.324
 6858SOL    HW121473   3.696   2.699   5.316
 6858SOL    HW221474   3.573   2.591   5.306
 6859SOL     OW21475   3.723   0.318   0.138
 6859SOL    HW121476   3.673   0.377   0.200
 6859SOL    HW221477   3.817   0.351   0.128
 6860SOL     OW21478   4.931   4.742   0.181
 6860SOL    HW121479   4.868   4.674   0.142
 6860SOL    HW221480   4.902   4.765   0.274
 6861SOL     OW21481   5.662   4.351   0.669
 6861SOL    HW121482   5.642   4.369   0.573
 6861SOL    HW221483   5.610   4.413   0.727
 6862SOL     OW21484   3.710   5.477   3.556
 6862SOL    HW121485   3.661   5.504   3.473
 6862SOL    HW221486   3.683   5.383   3.580
 6863SOL     OW21487   0.592   3.052   3.697
 6863SOL    HW121488   0.664   2.988   3.670
 6863SOL    HW221489   0.607   3.141   3.654
 6864SOL     OW21490   4.336   5.458   5.814
 6864SOL    HW121491   4.283   5.435   5.895
 6864SOL    HW221492   4.386   5.377   5.783
 6865SOL     OW21493   6.058   3.172   4.763
 6865SOL    HW121494   6.059   3.205   4.857
 6865SOL    HW221495   6.115   3.232   4.706
 6866SOL     OW21496   0.640   3.597   2.009
 6866SOL    HW121497   0.600   3.552   1.929
 6866SOL    HW221498   0.705   3.535   2.054
 6867SOL     OW21499   2.661   4.605   2.336
 6867SOL    HW121500   2.667   4.619   2.435
 6867SOL    HW221501   2.716   4.674   2.288
 6868SOL     OW21502   1.717   5.183   5.013
 6868SOL    HW121503   1.749   5.133   5.093
 6868SOL    HW221504   1.652   5.126   4.962
 6869SOL     OW21505   6.437   3.388   4.774
 6869SOL    HW121506   6.371   3.328   4.729
 6869SOL    HW221507   6.511   3.410   4.710
 6870SOL     OW21508   5.206   3.674   2.387
 6870SOL    HW121509   5.156   3.588   2.381
 6870SOL    HW221510   5.150   3.748   2.351
 6871SOL     OW21511   4.813   0.190   1.426
 6871SOL    HW121512   4.736   0.233   1.473
 6871SOL    HW221513   4.897   0.208   1.477
 6872SOL     OW21514   3.032   3.549   0.053
 6872SOL    HW121515   3.002   3.597   6.996
 6872SOL    HW221516   2.979   3.466   0.065
 6873SOL     OW21517   5.565   4.474   5.925
 6873SOL    HW121518   5.475   4.477   5.880
 6873SOL    HW221519   5.636   4.463   5.856
 6874SOL     OW21520   1.090   2.705   5.471
 6874SOL    HW121521   1.068   2.681   5.377
 6874SOL    HW221522   1.157   2.779   5.472
 6875SOL     OW21523   2.889   1.717   4.159
 6875SOL    HW121524   2.879   1.651   4.234
 6875SOL    HW221525   2.942   1.675   4.085
 6876SOL     OW21526   3.521   6.507   5.647
 6876SOL    HW121527   3.454   6.491   5.720
 6876SOL    HW221528   3.582   6.428   5.639
 6877SOL     OW21529   2.584   3.831   7.004
 6877SOL    HW121530   2.652   3.815   0.050
 6877SOL    HW221531   2.496   3.792   0.008
 6878SOL     OW21532   1.743   1.766   4.776
 6878SOL    HW121533   1.750   1.705   4.697
 6878SOL    HW221534   1.659   1.745   4.827
 6879SOL     OW21535   0.939   1.519   5.773
 6879SOL    HW121536   0.959   1.473   5.859
 6879SOL    HW221537   0.898   1.609   5.791
 6880SOL     OW21538   2.012   4.454   5.166
 6880SOL    HW121539   2.014   4.421   5.260
 6880SOL    HW221540   2.081   4.406   5.112
 6881SOL     OW21541   6.435   4.863   1.702
 6881SOL    HW121542   6.404   4.809   1.624
 6881SOL    HW221543   6.376   4.943   1.713
 6882SOL     OW21544   2.072   0.327   5.360
 6882SOL    HW121545   2.165   0.325   5.397
 6882SOL    HW221546   2.072   0.295   5.266
 6883SOL     OW21547   3.163   5.834   1.698
 6883SOL    HW121548   3.134   5.929   1.686
 6883SOL    HW221549   3.162   5.811   1.795
 6884SOL     OW21550   2.962   4.925   2.916
 6884SOL    HW121551   2.986   4.919   3.013
 6884SOL    HW221552   3.042   4.954   2.863
 6885SOL     OW21553   3.865   5.351   5.112
 6885SOL    HW121554   3.817   5.390   5.033
 6885SOL    HW221555   3.802   5.339   5.188
 6886SOL     OW21556   5.112   2.169   2.371
 6886SOL    HW121557   5.136   2.105   2.444
 6886SOL    HW221558   5.146   2.133   2.284
 6887SOL     OW21559   4.927   0.397   4.616
 6887SOL    HW121560   4.955   0.480   4.664
 6887SOL    HW221561   5.006   0.335   4.608
 6888SOL     OW21562   5.244   5.802   4.760
 6888SOL    HW121563   5.244   5.773   4.855
 6888SOL    HW221564   5.325   5.858   4.741
 6889SOL     OW21565   1.578   4.134   5.999
 6889SOL    HW121566   1.618   4.110   5.910
 6889SOL    HW221567   1.499   4.193   5.985
 6890SOL     OW21568   2.188   0.660   0.116
 6890SOL    HW121569   2.251   0.634   0.189
 6890SOL    HW221570   2.237   0.665   0.029
 6891SOL     OW21571   3.204   4.909   4.719
 6891SOL    HW121572   3.152   4.994   4.710
 6891SOL    HW221573   3.226   4.873   4.628
 6892SOL     OW21574   4.183   1.161   3.846
 6892SOL    HW121575   4.150   1.254   3.861
 6892SOL    HW221576   4.280   1.155   3.870
 6893SOL     OW21577   6.367   0.076   2.222
 6893SOL    HW121578   6.433   0.138   2.181
 6893SOL    HW221579   6.277   0.120   2.225
 6894SOL     OW21580   6.206   4.588   6.028
 6894SOL    HW121581   6.225   4.616   6.122
 6894SOL    HW221582   6.235   4.493   6.016
 6895SOL     OW21583   4.264   5.161   6.590
 6895SOL    HW121584   4.187   5.133   6.648
 6895SOL    HW221585   4.241   5.142   6.495
 6896SOL     OW21586   4.199   6.628   3.714
 6896SOL    HW121587   4.177   6.533   3.689
 6896SOL    HW221588   4.207   6.635   3.813
 6897SOL     OW21589   3.492   2.076   0.459
 6897SOL    HW121590   3.452   2.092   0.369
 6897SOL    HW221591   3.566   2.142   0.475
 6898SOL     OW21592   4.097   1.457   2.504
 6898SOL    HW121593   4.109   1.549   2.466
 6898SOL    HW221594   4.009   1.452   2.552
 6899SOL     OW21595   5.669   6.645   6.840
 6899SOL    HW121596   5.602   6.577   6.811
 6899SOL    HW221597   5.678   6.643   6.939
 6900SOL     OW21598   4.057   1.556   5.266
 6900SOL    HW121599   4.131   1.562   5.199
 6900SOL    HW221600   4.018   1.464   5.265
 6901SOL     OW21601   1.494   0.639   0.085
 6901SOL    HW121602   1.544   0.642   0.172
 6901SOL    HW221603   1.541   0.695   0.017
 6902SOL     OW21604   6.267   5.469   1.528
 6902SOL    HW121605   6.169   5.464   1.506
 6902SOL    HW221606   6.290   5.562   1.554
 6903SOL     OW21607   4.255   4.019   1.291
 6903SOL    HW121608   4.350   4.003   1.263
 6903SOL    HW221609   4.213   3.933   1.321
 6904SOL     OW21610   6.958   1.464   3.022
 6904SOL    HW121611   0.028   1.473   2.991
 6904SOL    HW221612   6.955   1.413   3.108
 6905SOL     OW21613   4.384   4.860   1.068
 6905SOL    HW121614   4.380   4.900   0.977
 6905SOL    HW221615   4.292   4.859   1.108
 6906SOL     OW21616   4.164   5.968   4.106
 6906SOL    HW121617   4.066   5.989   4.109
 6906SOL    HW221618   4.177   5.870   4.114
 6907SOL     OW21619   3.623   1.609   1.664
 6907SOL    HW121620   3.626   1.696   1.615
 6907SOL    HW221621   3.715   1.571   1.673
 6908SOL     OW21622   0.110   6.396   6.386
 6908SOL    HW121623   0.011   6.393   6.373
 6908SOL    HW221624   0.131   6.414   6.482
 6909SOL     OW21625   4.731   3.298   6.755
 6909SOL    HW121626   4.730   3.248   6.841
 6909SOL    HW221627   4.715   3.396   6.773
 6910SOL     OW21628   6.607   1.386   2.184
 6910SOL    HW121629   6.516   1.382   2.225
 6910SOL    HW221630   6.604   1.343   2.094
 6911SOL     OW21631   4.156   0.658   5.195
 6911SOL    HW121632   4.189   0.677   5.102
 6911SOL    HW221633   4.228   0.613   5.247
 6912SOL     OW21634   4.857   5.091   1.191
 6912SOL    HW121635   4.947   5.072   1.229
 6912SOL    HW221636   4.814   5.005   1.163
 6913SOL     OW21637   5.009   5.357   5.218
 6913SOL    HW121638   4.950   5.288   5.176
 6913SOL    HW221639   4.987   5.365   5.315
 6914SOL     OW21640   6.217   4.934   0.148
 6914SOL    HW121641   6.222   4.935   0.048
 6914SOL    HW221642   6.214   4.839   0.180
 6915SOL     OW21643   1.144   5.872   1.260
 6915SOL    HW121644   1.227   5.815   1.264
 6915SOL    HW221645   1.143   5.923   1.174
 6916SOL     OW21646   7.021   1.647   6.906
 6916SOL    HW121647   0.074   1.693   6.947
 6916SOL    HW221648   0.021   1.615   6.814
 6917SOL     OW21649   5.048   0.020   6.569
 6917SOL    HW121650   4.986   6.968   6.562
 6917SOL    HW221651   5.046   0.055   6.663
 6918SOL     OW21652   2.331   2.851   3.556
 6918SOL    HW121653   2.319   2.903   3.472
 6918SOL    HW221654   2.377   2.765   3.535
 6919SOL     OW21655   1.468   6.161   3.533
 6919SOL    HW121656   1.456   6.259   3.543
 6919SOL    HW221657   1.524   6.142   3.452
 6920SOL     OW21658   4.741   6.255   4.746
 6920SOL    HW121659   4.815   6.280   4.808
 6920SOL    HW221660   4.704   6.338   4.703
 6921SOL     OW21661   0.138   6.718   2.787
 6921SOL    HW121662   0.057   6.660   2.781
 6921SOL    HW221663   0.120   6.792   2.852
 6922SOL     OW21664   1.583   5.604   0.022
 6922SOL    HW121665   1.531   5.687   0.040
 6922SOL    HW221666   1.537   5.550   6.977
 6923SOL     OW21667   4.631   6.477   4.635
 6923SOL    HW121668   4.669   6.538   4.566
 6923SOL    HW221669   4.565   6.527   4.691
 6924SOL     OW21670   6.726   5.991   1.399
 6924SOL    HW121671   6.765   6.031   1.482
 6924SOL    HW221672   6.767   6.034   1.318
 6925SOL     OW21673   5.804   5.694   2.964
 6925SOL    HW121674   5.880   5.744   3.006
 6925SOL    HW221675   5.759   5.753   2.897
 6926SOL     OW21676   2.908   3.659   4.494
 6926SOL    HW121677   2.907   3.612   4.583
 6926SOL    HW221678   2.965   3.608   4.430
 6927SOL     OW21679   4.405   3.681   6.049
 6927SOL    HW121680   4.386   3.613   6.120
 6927SOL    HW221681   4.483   3.650   5.994
 6928SOL     OW21682   6.145   6.879   6.416
 6928SOL    HW121683   6.204   6.911   6.490
 6928SOL    HW221684   6.059   6.845   6.454
 6929SOL     OW21685   3.588   4.975   0.404
 6929SOL    HW121686   3.612   5.071   0.418
 6929SOL    HW221687   3.607   4.949   0.309
 6930SOL     OW21688   1.198   6.417   3.222
 6930SOL    HW121689   1.208   6.317   3.225
 6930SOL    HW221690   1.117   6.444   3.274
 6931SOL     OW21691   1.622   0.877   1.959
 6931SOL    HW121692   1.572   0.926   1.888
 6931SOL    HW221693   1.630   0.934   2.040
 6932SOL     OW21694   2.923   2.313   0.088
 6932SOL    HW121695   2.868   2.265   0.019
 6932SOL    HW221696   2.937   2.407   0.059
 6933SOL     OW21697   3.744   6.619   6.740
 6933SOL    HW121698   3.772   6.687   6.673
 6933SOL    HW221699   3.654   6.642   6.776
 6934SOL     OW21700   6.231   4.304   6.025
 6934SOL    HW121701   6.283   4.275   6.106
 6934SOL    HW221702   6.133   4.302   6.045
 6935SOL     OW21703   4.488   5.685   3.537
 6935SOL    HW121704   4.495   5.655   3.632
 6935SOL    HW221705   4.524   5.614   3.476
 6936SOL     OW21706   1.597   4.275   1.364
 6936SOL    HW121707   1.539   4.280   1.445
 6936SOL    HW221708   1.689   4.249   1.391
 6937SOL     OW21709   4.368   6.980   6.209
 6937SOL    HW121710   4.317   6.991   6.295
 6937SOL    HW221711   4.311   7.011   6.133
 6938SOL     OW21712   5.611   2.037   4.888
 6938SOL    HW121713   5.699   1.995   4.865
 6938SOL    HW221714   5.626   2.132   4.915
 6939SOL     OW21715   0.756   5.288   2.800
 6939SOL    HW121716   0.797   5.318   2.714
 6939SOL    HW221717   0.707   5.202   2.785
 6940SOL     OW21718   3.884   0.636   5.212
 6940SOL    HW121719   3.865   0.724   5.255
 6940SOL    HW221720   3.980   0.632   5.186
 6941SOL     OW21721   3.943   3.044   3.109
 6941SOL    HW121722   3.943   3.033   3.010
 6941SOL    HW221723   4.019   3.103   3.136
 6942SOL     OW21724   7.012   1.505   0.332
 6942SOL    HW121725   6.936   1.480   0.272
 6942SOL    HW221726   6.976   1.554   0.412
 6943SOL     OW21727   5.111   6.040   6.689
 6943SOL    HW121728   5.046   6.027   6.764
 6943SOL    HW221729   5.156   5.953   6.668
 6944SOL     OW21730   1.671   6.689   6.267
 6944SOL    HW121731   1.732   6.610   6.276
 6944SOL    HW221732   1.586   6.670   6.317
 6945SOL     OW21733   5.088   2.007   5.470
 6945SOL    HW121734   5.077   1.924   5.525
 6945SOL    HW221735   5.008   2.018   5.410
 6946SOL     OW21736   6.213   4.732   3.739
 6946SOL    HW121737   6.294   4.777   3.702
 6946SOL    HW221738   6.220   4.727   3.838
 6947SOL     OW21739   3.744   0.005   2.849
 6947SOL    HW121740   3.769   0.024   2.944
 6947SOL    HW221741   3.762   6.934   2.829
 6948SOL     OW21742   3.801   1.460   4.813
 6948SOL    HW121743   3.712   1.445   4.856
 6948SOL    HW221744   3.830   1.377   4.766
 6949SOL     OW21745   5.152   0.650   2.433
 6949SOL    HW121746   5.073   0.603   2.471
 6949SOL    HW221747   5.142   0.656   2.333
 6950SOL     OW21748   2.058   0.899   3.562
 6950SOL    HW121749   1.993   0.825   3.550
 6950SOL    HW221750   2.128   0.894   3.490
 6951SOL     OW21751   5.720   5.327   5.810
 6951SOL    HW121752   5.786   5.379   5.757
 6951SOL    HW221753   5.665   5.389   5.867
 6952SOL     OW21754   0.263   5.105   4.917
 6952SOL    HW121755   0.329   5.164   4.871
 6952SOL    HW221756   0.184   5.158   4.946
 6953SOL     OW21757   5.107   1.467   4.957
 6953SOL    HW121758   5.128   1.498   4.864
 6953SOL    HW221759   5.023   1.412   4.955
 6954SOL     OW21760   0.527   5.005   2.855
 6954SOL    HW121761   0.484   5.074   2.797
 6954SOL    HW221762   0.514   4.914   2.814
 6955SOL     OW21763   6.084   5.304   2.296
 6955SOL    HW121764   5.987   5.324   2.301
 6955SOL    HW221765   6.135   5.388   2.276
 6956SOL     OW21766   3.341   4.885   1.606
 6956SOL    HW121767   3.368   4.791   1.590
 6956SOL    HW221768   3.343   4.905   1.705
 6957SOL     OW21769   0.811   3.716   0.383
 6957SOL    HW121770   0.842   3.808   0.359
 6957SOL    HW221771   0.816   3.705   0.483
 6958SOL     OW21772   2.518   3.533   6.226
 6958SOL    HW121773   2.442   3.570   6.279
 6958SOL    HW221774   2.563   3.607   6.176
 6959SOL     OW21775   3.426   1.081   4.255
 6959SOL    HW121776   3.384   1.127   4.177
 6959SOL    HW221777   3.355   1.052   4.319
 6960SOL     OW21778   7.002   5.180   6.876
 6960SOL    HW121779   6.955   5.104   6.921
 6960SOL    HW221780   0.070   5.152   6.852
 6961SOL     OW21781   6.693   1.555   3.075
 6961SOL    HW121782   6.785   1.547   3.038
 6961SOL    HW221783   6.689   1.511   3.165
 6962SOL     OW21784   4.438   3.528   0.447
 6962SOL    HW121785   4.487   3.447   0.480
 6962SOL    HW221786   4.348   3.532   0.489
 6963SOL     OW21787   6.069   5.559   2.027
 6963SOL    HW121788   6.089   5.604   2.113
 6963SOL    HW221789   6.117   5.471   2.024
 6964SOL     OW21790   3.927   6.220   5.124
 6964SOL    HW121791   4.008   6.264   5.087
 6964SOL    HW221792   3.947   6.185   5.216
 6965SOL     OW21793   6.819   3.102   6.000
 6965SOL    HW121794   6.816   3.102   5.900
 6965SOL    HW221795   6.832   3.195   6.033
 6966SOL     OW21796   4.459   2.483   3.839
 6966SOL    HW121797   4.485   2.535   3.758
 6966SOL    HW221798   4.537   2.428   3.871
 6967SOL     OW21799   2.148   1.392   6.835
 6967SOL    HW121800   2.141   1.470   6.896
 6967SOL    HW221801   2.057   1.354   6.820
 6968SOL     OW21802   4.867   0.173   2.270
 6968SOL    HW121803   4.898   0.266   2.287
 6968SOL    HW221804   4.770   0.174   2.246
 6969SOL     OW21805   3.383   1.486   1.628
 6969SOL    HW121806   3.386   1.402   1.683
 6969SOL    HW221807   3.471   1.533   1.635
 6970SOL     OW21808   4.809   3.529   0.451
 6970SOL    HW121809   4.728   3.519   0.509
 6970SOL    HW221810   4.887   3.554   0.508
 6971SOL     OW21811   5.603   0.803   2.698
 6971SOL    HW121812   5.645   0.831   2.611
 6971SOL    HW221813   5.637   0.712   2.723
 6972SOL     OW21814   5.451   4.633   4.523
 6972SOL    HW121815   5.538   4.684   4.523
 6972SOL    HW221816   5.378   4.692   4.489
 6973SOL     OW21817   2.287   4.749   3.783
 6973SOL    HW121818   2.345   4.806   3.725
 6973SOL    HW221819   2.193   4.781   3.778
 6974SOL     OW21820   3.538   3.866   4.754
 6974SOL    HW121821   3.515   3.769   4.756
 6974SOL    HW221822   3.617   3.880   4.693
 6975SOL     OW21823   3.653   1.330   5.785
 6975SOL    HW121824   3.698   1.390   5.718
 6975SOL    HW221825   3.716   1.311   5.860
 6976SOL     OW21826   2.018   4.943   6.875
 6976SOL    HW121827   2.002   4.997   6.957
 6976SOL    HW221828   2.116   4.925   6.865
 6977SOL     OW21829   3.495   2.105   2.604
 6977SOL    HW121830   3.513   2.124   2.507
 6977SOL    HW221831   3.400   2.074   2.614
 6978SOL     OW21832   6.377   0.944   2.899
 6978SOL    HW121833   6.316   0.903   2.968
 6978SOL    HW221834   6.468   0.903   2.908
 6979SOL     OW21835   0.496   4.970   3.288
 6979SOL    HW121836   0.458   5.057   3.258
 6979SOL    HW221837   0.592   4.965   3.261
 6980SOL     OW21838   3.421   0.757   4.634
 6980SOL    HW121839   3.384   0.669   4.604
 6980SOL    HW221840   3.521   0.757   4.620
 6981SOL     OW21841   2.750   4.831   6.545
 6981SOL    HW121842   2.677   4.774   6.584
 6981SOL    HW221843   2.755   4.917   6.597
 6982SOL     OW21844   0.163   6.389   4.484
 6982SOL    HW121845   0.183   6.411   4.389
 6982SOL    HW221846   0.244   6.405   4.540
 6983SOL     OW21847   6.174   0.776   3.792
 6983SOL    HW121848   6.080   0.798   3.816
 6983SOL    HW221849   6.235   0.849   3.823
 6984SOL     OW21850   1.738   1.453   6.829
 6984SOL    HW121851   1.711   1.536   6.879
 6984SOL    HW221852   1.794   1.479   6.750
 6985SOL     OW21853   4.545   6.477   2.010
 6985SOL    HW121854   4.576   6.531   1.932
 6985SOL    HW221855   4.536   6.381   1.983
 6986SOL     OW21856   2.223   6.389   4.970
 6986SOL    HW121857   2.215   6.342   5.058
 6986SOL    HW221858   2.133   6.397   4.927
 6987SOL     OW21859   0.414   3.609   6.406
 6987SOL    HW121860   0.341   3.614   6.473
 6987SOL    HW221861   0.380   3.564   6.323
 6988SOL     OW21862   4.793   0.821   4.605
 6988SOL    HW121863   4.713   0.877   4.583
 6988SOL    HW221864   4.854   0.872   4.665
 6989SOL     OW21865   1.726   2.446   4.220
 6989SOL    HW121866   1.636   2.446   4.263
 6989SOL    HW221867   1.784   2.515   4.263
 6990SOL     OW21868   3.601   3.264   6.960
 6990SOL    HW121869   3.652   3.349   6.956
 6990SOL    HW221870   3.656   3.190   6.919
 6991SOL     OW21871   4.310   4.292   5.463
 6991SOL    HW121872   4.241   4.236   5.509
 6991SOL    HW221873   4.276   4.320   5.373
 6992SOL     OW21874   5.296   6.865   5.556
 6992SOL    HW121875   5.235   6.859   5.477
 6992SOL    HW221876   5.385   6.899   5.527
 6993SOL     OW21877   0.546   6.891   2.855
 6993SOL    HW121878   0.509   6.946   2.931
 6993SOL    HW221879   0.485   6.815   2.836
 6994SOL     OW21880   1.206   2.967   0.018
 6994SOL    HW121881   1.263   2.929   6.970
 6994SOL    HW221882   1.137   2.899   0.044
 6995SOL     OW21883   0.268   5.759   3.011
 6995SOL    HW121884   0.290   5.685   2.947
 6995SOL    HW221885   0.353   5.795   3.049
 6996SOL     OW21886   2.182   6.595   6.011
 6996SOL    HW121887   2.232   6.527   5.957
 6996SOL    HW221888   2.088   6.566   6.024
 6997SOL     OW21889   4.576   0.099   4.595
 6997SOL    HW121890   4.638   0.021   4.599
 6997SOL    HW221891   4.482   0.067   4.592
 6998SOL     OW21892   1.688   2.907   3.087
 6998SOL    HW121893   1.641   2.837   3.033
 6998SOL    HW221894   1.777   2.871   3.117
 6999SOL     OW21895   3.850   1.659   6.262
 6999SOL    HW121896   3.851   1.691   6.167
 6999SOL    HW221897   3.870   1.561   6.264
 7000SOL     OW21898   6.908   6.380   1.461
 7000SOL    HW121899   6.959   6.454   1.504
 7000SOL    HW221900   6.815   6.377   1.497
 7001SOL     OW21901   2.565   2.141   5.463
 7001SOL    HW121902   2.564   2.153   5.364
 7001SOL    HW221903   2.609   2.220   5.506
 7002SOL     OW21904   1.825   4.863   2.654
 7002SOL    HW121905   1.804   4.827   2.745
 7002SOL    HW221906   1.924   4.861   2.640
 7003SOL     OW21907   2.761   6.135   0.242
 7003SOL    HW121908   2.684   6.161   0.184
 7003SOL    HW221909   2.746   6.043   0.278
 7004SOL     OW21910   1.197   5.065   1.076
 7004SOL    HW121911   1.108   5.105   1.053
 7004SOL    HW221912   1.208   5.062   1.175
 7005SOL     OW21913   5.579   6.918   5.467
 7005SOL    HW121914   5.587   6.834   5.521
 7005SOL    HW221915   5.633   6.910   5.384
 7006SOL     OW21916   4.343   4.827   5.060
 7006SOL    HW121917   4.310   4.733   5.044
 7006SOL    HW221918   4.274   4.892   5.027
 7007SOL     OW21919   4.857   5.217   2.489
 7007SOL    HW121920   4.933   5.278   2.466
 7007SOL    HW221921   4.771   5.256   2.457
 7008SOL     OW21922   0.618   4.762   4.266
 7008SOL    HW121923   0.615   4.662   4.276
 7008SOL    HW221924   0.547   4.791   4.202
 7009SOL     OW21925   0.181   4.617   2.366
 7009SOL    HW121926   0.243   4.682   2.411
 7009SOL    HW221927   0.214   4.524   2.382
 7010SOL     OW21928   4.136   4.791   6.369
 7010SOL    HW121929   4.059   4.812   6.429
 7010SOL    HW221930   4.174   4.876   6.333
 7011SOL     OW21931   2.442   1.510   4.912
 7011SOL    HW121932   2.384   1.511   4.830
 7011SOL    HW221933   2.535   1.537   4.888
 7012SOL     OW21934   1.180   1.242   2.205
 7012SOL    HW121935   1.266   1.207   2.170
 7012SOL    HW221936   1.196   1.326   2.257
 7013SOL     OW21937   0.904   0.619   2.406
 7013SOL    HW121938   0.839   0.688   2.436
 7013SOL    HW221939   0.856   0.541   2.367
 7014SOL     OW21940   2.675   5.114   1.268
 7014SOL    HW121941   2.736   5.081   1.196
 7014SOL    HW221942   2.617   5.039   1.299
 7015SOL     OW21943   5.049   2.560   2.236
 7015SOL    HW121944   5.143   2.555   2.204
 7015SOL    HW221945   5.028   2.653   2.265
 7016SOL     OW21946   3.284   5.022   0.740
 7016SOL    HW121947   3.325   5.093   0.797
 7016SOL    HW221948   3.356   4.972   0.692
 7017SOL     OW21949   3.775   1.716   4.158
 7017SOL    HW121950   3.859   1.760   4.129
 7017SOL    HW221951   3.788   1.617   4.159
 7018SOL     OW21952   0.093   5.178   4.086
 7018SOL    HW121953   7.019   5.178   4.095
 7018SOL    HW221954   0.134   5.198   4.175
 7019SOL     OW21955   1.897   5.970   0.112
 7019SOL    HW121956   1.880   5.873   0.098
 7019SOL    HW221957   1.894   5.991   0.210
 7020SOL     OW21958   6.836   6.859   5.883
 7020SOL    HW121959   6.762   6.819   5.829
 7020SOL    HW221960   6.813   6.856   5.980
 7021SOL     OW21961   3.117   0.982   5.995
 7021SOL    HW121962   3.124   0.999   5.897
 7021SOL    HW221963   3.022   0.960   6.017
 7022SOL     OW21964   5.279   5.516   6.585
 7022SOL    HW121965   5.277   5.528   6.486
 7022SOL    HW221966   5.361   5.465   6.611
 7023SOL     OW21967   6.387   4.307   2.874
 7023SOL    HW121968   6.312   4.277   2.933
 7023SOL    HW221969   6.350   4.339   2.787
 7024SOL     OW21970   0.419   6.180   0.725
 7024SOL    HW121971   0.389   6.178   0.629
 7024SOL    HW221972   0.362   6.118   0.779
 7025SOL     OW21973   2.648   0.398   5.971
 7025SOL    HW121974   2.597   0.446   6.043
 7025SOL    HW221975   2.589   0.385   5.892
 7026SOL     OW21976   4.278   1.864   0.947
 7026SOL    HW121977   4.184   1.839   0.929
 7026SOL    HW221978   4.339   1.813   0.887
 7027SOL     OW21979   4.292   0.015   4.630
 7027SOL    HW121980   4.211   0.071   4.610
 7027SOL    HW221981   4.265   6.945   4.642
 7028SOL     OW21982   3.369   6.716   4.699
 7028SOL    HW121983   3.281   6.759   4.681
 7028SOL    HW221984   3.399   6.736   4.792
 7029SOL     OW21985   3.273   0.391   5.406
 7029SOL    HW121986   3.333   0.386   5.326
 7029SOL    HW221987   3.185   0.349   5.383
 7030SOL     OW21988   2.061   3.960   4.152
 7030SOL    HW121989   2.131   3.889   4.149
 7030SOL    HW221990   2.009   3.952   4.237
 7031SOL     OW21991   2.549   6.581   5.077
 7031SOL    HW121992   2.454   6.612   5.070
 7031SOL    HW221993   2.602   6.649   5.128
 7032SOL     OW21994   5.897   1.354   2.718
 7032SOL    HW121995   5.951   1.435   2.740
 7032SOL    HW221996   5.914   1.327   2.623
 7033SOL     OW21997   6.582   0.300   4.265
 7033SOL    HW121998   6.482   0.306   4.253
 7033SOL    HW221999   6.615   0.385   4.306
 7034SOL     OW22000   6.270   5.923   3.128
 7034SOL    HW122001   6.345   5.877   3.175
 7034SOL    HW222002   6.285   6.022   3.131
 7035SOL     OW22003   6.472   5.190   1.947
 7035SOL    HW122004   6.538   5.179   2.021
 7035SOL    HW222005   6.384   5.150   1.974
 7036SOL     OW22006   6.595   4.578   1.275
 7036SOL    HW122007   6.566   4.558   1.181
 7036SOL    HW222008   6.586   4.496   1.330
 7037SOL     OW22009   1.250   6.973   6.647
 7037SOL    HW122010   1.341   6.970   6.607
 7037SOL    HW222011   1.237   6.894   6.708
 7038SOL     OW22012   1.700   4.215   4.299
 7038SOL    HW122013   1.633   4.203   4.225
 7038SOL    HW222014   1.657   4.264   4.375
 7039SOL     OW22015   4.512   1.450   6.489
 7039SOL    HW122016   4.523   1.403   6.402
 7039SOL    HW222017   4.428   1.420   6.534
 7040SOL     OW22018   4.779   2.631   6.023
 7040SOL    HW122019   4.765   2.560   5.954
 7040SOL    HW222020   4.781   2.590   6.114
 7041SOL     OW22021   2.737   1.374   2.292
 7041SOL    HW122022   2.689   1.357   2.206
 7041SOL    HW222023   2.673   1.365   2.368
 7042SOL     OW22024   2.305   0.468   6.422
 7042SOL    HW122025   2.359   0.486   6.505
 7042SOL    HW222026   2.220   0.422   6.448
 7043SOL     OW22027   1.455   2.081   3.123
 7043SOL    HW122028   1.399   2.043   3.049
 7043SOL    HW222029   1.446   2.024   3.204
 7044SOL     OW22030   4.936   6.169   2.336
 7044SOL    HW122031   4.915   6.248   2.393
 7044SOL    HW222032   5.000   6.197   2.264
 7045SOL     OW22033   5.480   5.376   0.869
 7045SOL    HW122034   5.503   5.470   0.842
 7045SOL    HW222035   5.564   5.328   0.896
 7046SOL     OW22036   2.471   0.805   4.655
 7046SOL    HW122037   2.474   0.766   4.747
 7046SOL    HW222038   2.384   0.783   4.612
 7047SOL     OW22039   1.912   1.310   4.113
 7047SOL    HW122040   1.836   1.338   4.054
 7047SOL    HW222041   1.945   1.220   4.084
 7048SOL     OW22042   6.438   6.577   0.188
 7048SOL    HW122043   6.435   6.639   0.110
 7048SOL    HW222044   6.505   6.610   0.254
 7049SOL     OW22045   2.223   1.314   0.575
 7049SOL    HW122046   2.230   1.412   0.556
 7049SOL    HW222047   2.285   1.289   0.649
 7050SOL     OW22048   3.931   3.933   4.945
 7050SOL    HW122049   3.934   3.986   4.860
 7050SOL    HW222050   3.915   3.994   5.022
 7051SOL     OW22051   6.032   6.888   2.195
 7051SOL    HW122052   5.948   6.903   2.143
 7051SOL    HW222053   6.091   6.968   2.188
 7052SOL     OW22054   6.346   1.848   3.178
 7052SOL    HW122055   6.256   1.883   3.204
 7052SOL    HW222056   6.371   1.773   3.239
 7053SOL     OW22057   6.964   4.619   6.471
 7053SOL    HW122058   0.019   4.594   6.417
 7053SOL    HW222059   6.945   4.716   6.460
 7054SOL     OW22060   6.991   0.117   1.694
 7054SOL    HW122061   6.897   0.102   1.663
 7054SOL    HW222062   0.002   0.201   1.653
 7055SOL     OW22063   3.361   6.869   5.360
 7055SOL    HW122064   3.301   6.836   5.287
 7055SOL    HW222065   3.307   6.917   5.429
 7056SOL     OW22066   4.805   5.240   3.553
 7056SOL    HW122067   4.767   5.204   3.468
 7056SOL    HW222068   4.806   5.167   3.622
 7057SOL     OW22069   0.845   6.085   3.268
 7057SOL    HW122070   0.866   5.990   3.292
 7057SOL    HW222071   0.750   6.092   3.238
 7058SOL     OW22072   0.620   5.010   5.088
 7058SOL    HW122073   0.647   4.963   5.172
 7058SOL    HW222074   0.565   4.948   5.032
 7059SOL     OW22075   1.498   0.269   2.713
 7059SOL    HW122076   1.457   0.277   2.804
 7059SOL    HW222077   1.450   0.198   2.661
 7060SOL     OW22078   3.016   0.006   1.128
 7060SOL    HW122079   3.087   7.022   1.197
 7060SOL    HW222080   2.998   6.942   1.086
 7061SOL     OW22081   0.223   1.296   2.486
 7061SOL    HW122082   0.145   1.286   2.425
 7061SOL    HW222083   0.295   1.232   2.461
 7062SOL     OW22084   5.974   1.684   5.029
 7062SOL    HW122085   5.917   1.621   5.082
 7062SOL    HW222086   6.019   1.634   4.954
 7063SOL     OW22087   2.983   6.663   1.815
 7063SOL    HW122088   3.022   6.674   1.723
 7063SOL    HW222089   2.965   6.752   1.855
 7064SOL     OW22090   4.140   2.403   0.238
 7064SOL    HW122091   4.176   2.317   0.202
 7064SOL    HW222092   4.216   2.461   0.266
 7065SOL     OW22093   4.715   3.929   1.695
 7065SOL    HW122094   4.650   3.973   1.633
 7065SOL    HW222095   4.724   3.984   1.778
 7066SOL     OW22096   3.708   6.291   0.311
 7066SOL    HW122097   3.780   6.309   0.378
 7066SOL    HW222098   3.649   6.218   0.345
 7067SOL     OW22099   0.286   4.057   5.038
 7067SOL    HW122100   0.373   4.082   5.080
 7067SOL    HW222101   0.302   4.018   4.948
 7068SOL     OW22102   1.026   0.763   3.042
 7068SOL    HW122103   1.012   0.828   2.968
 7068SOL    HW222104   0.947   0.765   3.104
 7069SOL     OW22105   1.457   4.077   5.191
 7069SOL    HW122106   1.548   4.099   5.156
 7069SOL    HW222107   1.457   4.087   5.291
 7070SOL     OW22108   5.955   5.625   4.757
 7070SOL    HW122109   5.877   5.575   4.721
 7070SOL    HW222110   5.926   5.715   4.789
 7071SOL     OW22111   1.430   6.583   5.444
 7071SOL    HW122112   1.508   6.521   5.437
 7071SOL    HW222113   1.373   6.572   5.363
 7072SOL     OW22114   0.355   6.318   6.599
 7072SOL    HW122115   0.311   6.230   6.581
 7072SOL    HW222116   0.288   6.391   6.586
 7073SOL     OW22117   0.802   0.770   5.961
 7073SOL    HW122118   0.787   0.866   5.937
 7073SOL    HW222119   0.900   0.752   5.966
 7074SOL     OW22120   3.546   2.697   1.454
 7074SOL    HW122121   3.632   2.698   1.506
 7074SOL    HW222122   3.474   2.656   1.510
 7075SOL     OW22123   1.056   5.460   3.441
 7075SOL    HW122124   1.045   5.393   3.367
 7075SOL    HW222125   1.101   5.416   3.519
 7076SOL     OW22126   2.789   2.763   6.893
 7076SOL    HW122127   2.718   2.693   6.888
 7076SOL    HW222128   2.830   2.777   6.803
 7077SOL     OW22129   2.201   5.401   5.679
 7077SOL    HW122130   2.117   5.456   5.675
 7077SOL    HW222131   2.225   5.383   5.774
 7078SOL     OW22132   6.218   0.787   3.097
 7078SOL    HW122133   6.181   0.807   3.188
 7078SOL    HW222134   6.146   0.747   3.040
 7079SOL     OW22135   5.229   5.712   5.334
 7079SOL    HW122136   5.228   5.723   5.434
 7079SOL    HW222137   5.266   5.795   5.292
 7080SOL     OW22138   5.075   0.280   4.073
 7080SOL    HW122139   5.039   0.277   4.167
 7080SOL    HW222140   5.002   0.257   4.009
 7081SOL     OW22141   3.789   1.069   5.086
 7081SOL    HW122142   3.746   1.093   4.999
 7081SOL    HW222143   3.719   1.048   5.153
 7082SOL     OW22144   5.391   0.774   6.296
 7082SOL    HW122145   5.377   0.861   6.250
 7082SOL    HW222146   5.387   0.700   6.230
 7083SOL     OW22147   3.369   0.093   6.049
 7083SOL    HW122148   3.391   0.179   6.095
 7083SOL    HW222149   3.325   0.113   5.961
 7084SOL     OW22150   6.751   6.100   6.481
 7084SOL    HW122151   6.750   6.177   6.417
 7084SOL    HW222152   6.833   6.105   6.537
 7085SOL     OW22153   2.541   2.341   1.194
 7085SOL    HW122154   2.486   2.376   1.118
 7085SOL    HW222155   2.592   2.261   1.164
 7086SOL     OW22156   6.552   0.981   6.358
 7086SOL    HW122157   6.615   0.906   6.378
 7086SOL    HW222158   6.459   0.945   6.351
 7087SOL     OW22159   1.604   2.931   3.974
 7087SOL    HW122160   1.509   2.922   3.945
 7087SOL    HW222161   1.663   2.941   3.893
 7088SOL     OW22162   6.618   2.457   5.342
 7088SOL    HW122163   6.696   2.448   5.405
 7088SOL    HW222164   6.647   2.435   5.249
 7089SOL     OW22165   2.599   1.755   0.180
 7089SOL    HW122166   2.600   1.661   0.214
 7089SOL    HW222167   2.614   1.818   0.256
 7090SOL     OW22168   2.434   2.126   4.602
 7090SOL    HW122169   2.374   2.164   4.532
 7090SOL    HW222170   2.512   2.188   4.616
 7091SOL     OW22171   0.207   5.707   0.027
 7091SOL    HW122172   0.158   5.662   0.101
 7091SOL    HW222173   0.142   5.756   6.994
 7092SOL     OW22174   3.043   3.556   0.420
 7092SOL    HW122175   3.076   3.534   0.512
 7092SOL    HW222176   3.120   3.586   0.364
 7093SOL     OW22177   3.346   3.056   4.996
 7093SOL    HW122178   3.399   3.141   4.994
 7093SOL    HW222179   3.399   2.983   4.954
 7094SOL     OW22180   0.211   0.398   5.896
 7094SOL    HW122181   0.303   0.369   5.920
 7094SOL    HW222182   0.174   0.456   5.969
 7095SOL     OW22183   0.957   3.140   6.502
 7095SOL    HW122184   0.967   3.236   6.476
 7095SOL    HW222185   0.882   3.099   6.450
 7096SOL     OW22186   4.811   1.547   2.239
 7096SOL    HW122187   4.752   1.475   2.204
 7096SOL    HW222188   4.906   1.518   2.233
 7097SOL     OW22189   0.181   0.661   1.902
 7097SOL    HW122190   0.192   0.562   1.894
 7097SOL    HW222191   0.209   0.706   1.817
 7098SOL     OW22192   1.816   6.587   5.950
 7098SOL    HW122193   1.855   6.637   5.873
 7098SOL    HW222194   1.725   6.623   5.970
 7099SOL     OW22195   0.033   0.933   6.191
 7099SOL    HW122196   0.112   0.946   6.131
 7099SOL    HW222197   6.997   1.011   6.183
 7100SOL     OW22198   5.826   2.790   1.257
 7100SOL    HW122199   5.760   2.858   1.225
 7100SOL    HW222200   5.860   2.817   1.348
 7101SOL     OW22201   2.759   7.020   5.214
 7101SOL    HW122202   2.855   0.025   5.210
 7101SOL    HW222203   2.717   0.006   5.124
 7102SOL     OW22204   4.695   2.597   0.805
 7102SOL    HW122205   4.641   2.529   0.755
 7102SOL    HW222206   4.700   2.571   0.901
 7103SOL     OW22207   3.605   6.672   6.418
 7103SOL    HW122208   3.597   6.573   6.431
 7103SOL    HW222209   3.680   6.707   6.475
 7104SOL     OW22210   0.880   2.292   3.178
 7104SOL    HW122211   0.860   2.224   3.248
 7104SOL    HW222212   0.922   2.248   3.099
 7105SOL     OW22213   3.226   3.988   5.056
 7105SOL    HW122214   3.142   3.996   5.002
 7105SOL    HW222215   3.233   4.066   5.118
 7106SOL     OW22216   3.356   2.558   5.330
 7106SOL    HW122217   3.319   2.496   5.260
 7106SOL    HW222218   3.305   2.547   5.415
 7107SOL     OW22219   2.838   1.216   0.181
 7107SOL    HW122220   2.836   1.261   0.270
 7107SOL    HW222221   2.823   1.118   0.194
 7108SOL     OW22222   4.807   0.189   1.137
 7108SOL    HW122223   4.757   0.162   1.220
 7108SOL    HW222224   4.829   0.286   1.141
 7109SOL     OW22225   3.576   6.396   6.439
 7109SOL    HW122226   3.523   6.357   6.364
 7109SOL    HW222227   3.541   6.361   6.526
 7110SOL     OW22228   4.258   4.981   3.395
 7110SOL    HW122229   4.316   5.062   3.403
 7110SOL    HW222230   4.231   4.968   3.300
 7111SOL     OW22231   2.080   3.312   4.040
 7111SOL    HW122232   2.069   3.291   4.137
 7111SOL    HW222233   1.990   3.311   3.995
 7112SOL     OW22234   1.147   6.683   3.079
 7112SOL    HW122235   1.168   6.592   3.114
 7112SOL    HW222236   1.104   6.674   2.989
 7113SOL     OW22237   4.004   3.738   4.349
 7113SOL    HW122238   4.052   3.822   4.322
 7113SOL    HW222239   4.001   3.676   4.271
 7114SOL     OW22240   3.561   1.028   0.428
 7114SOL    HW122241   3.518   0.957   0.372
 7114SOL    HW222242   3.641   1.064   0.380
 7115SOL     OW22243   4.900   1.821   1.032
 7115SOL    HW122244   4.860   1.855   1.117
 7115SOL    HW222245   4.884   1.888   0.959
 7116SOL     OW22246   5.442   3.799   3.014
 7116SOL    HW122247   5.524   3.776   2.961
 7116SOL    HW222248   5.369   3.735   2.991
 7117SOL     OW22249   5.654   6.615   1.752
 7117SOL    HW122250   5.658   6.516   1.735
 7117SOL    HW222251   5.618   6.661   1.671
 7118SOL     OW22252   6.752   3.298   1.169
 7118SOL    HW122253   6.664   3.336   1.143
 7118SOL    HW222254   6.786   3.345   1.251
 7119SOL     OW22255   6.105   1.963   3.241
 7119SOL    HW122256   6.161   2.028   3.190
 7119SOL    HW222257   6.037   2.013   3.295
 7120SOL     OW22258   5.008   0.481   3.223
 7120SOL    HW122259   4.958   0.398   3.198
 7120SOL    HW222260   4.972   0.558   3.170
 7121SOL     OW22261   3.426   6.609   2.261
 7121SOL    HW122262   3.501   6.544   2.266
 7121SOL    HW222263   3.340   6.560   2.247
 7122SOL     OW22264   6.164   0.843   6.362
 7122SOL    HW122265   6.211   0.854   6.274
 7122SOL    HW222266   6.103   0.764   6.357
 7123SOL     OW22267   2.282   4.942   1.135
 7123SOL    HW122268   2.263   5.040   1.135
 7123SOL    HW222269   2.267   4.905   1.043
 7124SOL     OW22270   0.671   5.127   0.802
 7124SOL    HW122271   0.628   5.049   0.758
 7124SOL    HW222272   0.648   5.128   0.900
 7125SOL     OW22273   5.876   6.265   2.704
 7125SOL    HW122274   5.909   6.359   2.693
 7125SOL    HW222275   5.952   6.206   2.729
 7126SOL     OW22276   1.337   4.972   0.474
 7126SOL    HW122277   1.357   4.912   0.551
 7126SOL    HW222278   1.334   5.067   0.505
 7127SOL     OW22279   3.559   6.207   4.597
 7127SOL    HW122280   3.479   6.234   4.650
 7127SOL    HW222281   3.576   6.275   4.526
 7128SOL     OW22282   3.206   4.237   1.513
 7128SOL    HW122283   3.129   4.237   1.576
 7128SOL    HW222284   3.218   4.145   1.475
 7129SOL     OW22285   2.541   0.534   1.321
 7129SOL    HW122286   2.588   0.471   1.259
 7129SOL    HW222287   2.442   0.516   1.319
 7130SOL     OW22288   2.002   4.979   3.067
 7130SOL    HW122289   1.947   4.901   3.037
 7130SOL    HW222290   2.038   5.026   2.986
 7131SOL     OW22291   2.643   0.709   3.442
 7131SOL    HW122292   2.732   0.702   3.487
 7131SOL    HW222293   2.599   0.796   3.468
 7132SOL     OW22294   3.138   3.969   3.086
 7132SOL    HW122295   3.230   3.976   3.049
 7132SOL    HW222296   3.139   3.994   3.183
 7133SOL     OW22297   5.296   5.191   2.776
 7133SOL    HW122298   5.241   5.137   2.839
 7133SOL    HW222299   5.243   5.211   2.694
 7134SOL     OW22300   5.507   3.762   3.841
 7134SOL    HW122301   5.556   3.746   3.927
 7134SOL    HW222302   5.573   3.785   3.769
 7135SOL     OW22303   0.862   1.856   4.946
 7135SOL    HW122304   0.918   1.813   4.876
 7135SOL    HW222305   0.921   1.905   5.010
 7136SOL     OW22306   2.242   1.686   0.292
 7136SOL    HW122307   2.251   1.657   0.387
 7136SOL    HW222308   2.320   1.653   0.240
 7137SOL     OW22309   4.121   0.669   4.783
 7137SOL    HW122310   4.023   0.685   4.768
 7137SOL    HW222311   4.153   0.597   4.721
 7138SOL     OW22312   2.871   4.245   0.774
 7138SOL    HW122313   2.911   4.184   0.843
 7138SOL    HW222314   2.781   4.211   0.748
 7139SOL     OW22315   3.526   2.275   0.968
 7139SOL    HW122316   3.564   2.266   1.060
 7139SOL    HW222317   3.468   2.356   0.964
 7140SOL     OW22318   6.425   3.361   5.035
 7140SOL    HW122319   6.455   3.267   5.048
 7140SOL    HW222320   6.420   3.382   4.938
 7141SOL     OW22321   2.943   6.657   0.701
 7141SOL    HW122322   3.029   6.685   0.657
 7141SOL    HW222323   2.958   6.573   0.753
 7142SOL     OW22324   3.983   5.775   4.346
 7142SOL    HW122325   3.931   5.821   4.418
 7142SOL    HW222326   4.075   5.816   4.341
 7143SOL     OW22327   1.874   3.364   4.604
 7143SOL    HW122328   1.954   3.304   4.600
 7143SOL    HW222329   1.860   3.408   4.515
 7144SOL     OW22330   0.460   2.495   3.401
 7144SOL    HW122331   0.455   2.583   3.355
 7144SOL    HW222332   0.514   2.432   3.345
 7145SOL     OW22333   4.977   0.208   6.799
 7145SOL    HW122334   4.948   0.235   6.890
 7145SOL    HW222335   5.024   0.284   6.754
 7146SOL     OW22336   3.495   4.861   0.625
 7146SOL    HW122337   3.454   4.775   0.595
 7146SOL    HW222338   3.543   4.903   0.549
 7147SOL     OW22339   0.282   0.335   3.206
 7147SOL    HW122340   0.308   0.309   3.299
 7147SOL    HW222341   0.362   0.329   3.146
 7148SOL     OW22342   0.765   0.785   1.481
 7148SOL    HW122343   0.801   0.793   1.388
 7148SOL    HW222344   0.665   0.786   1.478
 7149SOL     OW22345   6.054   1.292   4.178
 7149SOL    HW122346   6.085   1.293   4.083
 7149SOL    HW222347   5.989   1.217   4.192
 7150SOL     OW22348   6.007   3.345   0.014
 7150SOL    HW122349   6.030   3.434   0.054
 7150SOL    HW222350   5.937   3.301   0.069
 7151SOL     OW22351   2.762   6.029   0.980
 7151SOL    HW122352   2.853   5.990   0.996
 7151SOL    HW222353   2.770   6.109   0.921
 7152SOL     OW22354   1.485   2.605   3.815
 7152SOL    HW122355   1.584   2.594   3.802
 7152SOL    HW222356   1.466   2.616   3.913
 7153SOL     OW22357   3.572   1.212   3.662
 7153SOL    HW122358   3.641   1.154   3.704
 7153SOL    HW222359   3.489   1.210   3.717
 7154SOL     OW22360   4.991   5.915   3.925
 7154SOL    HW122361   5.040   5.829   3.938
 7154SOL    HW222362   5.038   5.988   3.973
 7155SOL     OW22363   2.763   0.116   1.140
 7155SOL    HW122364   2.857   0.081   1.137
 7155SOL    HW222365   2.718   0.097   1.053
 7156SOL     OW22366   6.964   5.663   5.131
 7156SOL    HW122367   7.018   5.723   5.071
 7156SOL    HW222368   6.922   5.591   5.077
 7157SOL     OW22369   4.547   4.583   1.132
 7157SOL    HW122370   4.586   4.657   1.186
 7157SOL    HW222371   4.612   4.555   1.061
 7158SOL     OW22372   6.323   0.049   4.350
 7158SOL    HW122373   6.310   7.000   4.417
 7158SOL    HW222374   6.414   0.042   4.310
 7159SOL     OW22375   0.691   5.692   6.836
 7159SOL    HW122376   0.660   5.694   6.741
 7159SOL    HW222377   0.615   5.716   6.896
 7160SOL     OW22378   5.291   0.652   2.118
 7160SOL    HW122379   5.353   0.673   2.194
 7160SOL    HW222380   5.342   0.656   2.032
 7161SOL     OW22381   3.770   3.368   3.843
 7161SOL    HW122382   3.721   3.382   3.757
 7161SOL    HW222383   3.777   3.455   3.892
 7162SOL     OW22384   3.374   4.889   3.198
 7162SOL    HW122385   3.441   4.892   3.273
 7162SOL    HW222386   3.422   4.898   3.111
 7163SOL     OW22387   2.397   0.505   2.776
 7163SOL    HW122388   2.455   0.428   2.752
 7163SOL    HW222389   2.317   0.507   2.716
 7164SOL     OW22390   2.329   1.254   2.966
 7164SOL    HW122391   2.288   1.301   2.887
 7164SOL    HW222392   2.291   1.162   2.973
 7165SOL     OW22393   4.707   0.795   1.878
 7165SOL    HW122394   4.620   0.798   1.928
 7165SOL    HW222395   4.746   0.703   1.884
 7166SOL     OW22396   5.016   4.790   1.701
 7166SOL    HW122397   4.954   4.729   1.751
 7166SOL    HW222398   5.110   4.755   1.709
 7167SOL     OW22399   4.894   2.851   5.033
 7167SOL    HW122400   4.849   2.897   4.956
 7167SOL    HW222401   4.824   2.817   5.096
 7168SOL     OW22402   1.429   0.966   3.917
 7168SOL    HW122403   1.487   1.040   3.883
 7168SOL    HW222404   1.345   1.003   3.956
 7169SOL     OW22405   1.777   2.699   5.983
 7169SOL    HW122406   1.702   2.666   5.925
 7169SOL    HW222407   1.864   2.689   5.934
 7170SOL     OW22408   6.474   4.870   4.517
 7170SOL    HW122409   6.483   4.797   4.450
 7170SOL    HW222410   6.565   4.907   4.539
 7171SOL     OW22411   4.169   3.194   5.226
 7171SOL    HW122412   4.185   3.255   5.149
 7171SOL    HW222413   4.117   3.244   5.297
 7172SOL     OW22414   1.519   0.172   0.634
 7172SOL    HW122415   1.460   0.156   0.555
 7172SOL    HW222416   1.532   0.086   0.683
 7173SOL     OW22417   6.706   6.416   5.643
 7173SOL    HW122418   6.646   6.396   5.721
 7173SOL    HW222419   6.771   6.487   5.669
 7174SOL     OW22420   1.477   5.518   0.453
 7174SOL    HW122421   1.513   5.467   0.375
 7174SOL    HW222422   1.512   5.478   0.537
 7175SOL     OW22423   6.731   3.638   5.513
 7175SOL    HW122424   6.768   3.678   5.429
 7175SOL    HW222425   6.693   3.548   5.494
 7176SOL     OW22426   5.754   3.944   1.683
 7176SOL    HW122427   5.778   3.928   1.587
 7176SOL    HW222428   5.690   4.021   1.689
 7177SOL     OW22429   0.816   6.354   2.151
 7177SOL    HW122430   0.841   6.440   2.106
 7177SOL    HW222431   0.843   6.277   2.092
 7178SOL     OW22432   0.465   2.572   6.158
 7178SOL    HW122433   0.481   2.481   6.197
 7178SOL    HW222434   0.546   2.600   6.105
 7179SOL     OW22435   2.708   3.697   6.104
 7179SOL    HW122436   2.739   3.770   6.043
 7179SOL    HW222437   2.776   3.624   6.105
 7180SOL     OW22438   0.124   6.174   2.188
 7180SOL    HW122439   0.164   6.178   2.279
 7180SOL    HW222440   0.126   6.080   2.155
 7181SOL     OW22441   5.155   1.138   2.047
 7181SOL    HW122442   5.191   1.180   1.964
 7181SOL    HW222443   5.220   1.072   2.083
 7182SOL     OW22444   2.988   3.718   5.419
 7182SOL    HW122445   2.898   3.753   5.445
 7182SOL    HW222446   3.026   3.665   5.495
 7183SOL     OW22447   1.046   5.622   2.591
 7183SOL    HW122448   1.093   5.617   2.679
 7183SOL    HW222449   1.098   5.571   2.523
 7184SOL     OW22450   2.091   6.297   3.625
 7184SOL    HW122451   2.104   6.394   3.648
 7184SOL    HW222452   2.162   6.268   3.561
 7185SOL     OW22453   4.621   2.383   6.615
 7185SOL    HW122454   4.677   2.313   6.571
 7185SOL    HW222455   4.525   2.371   6.588
 7186SOL     OW22456   0.707   6.521   4.490
 7186SOL    HW122457   0.679   6.455   4.421
 7186SOL    HW222458   0.728   6.473   4.575
 7187SOL     OW22459   2.038   4.676   1.584
 7187SOL    HW122460   2.089   4.684   1.499
 7187SOL    HW222461   1.961   4.739   1.583
 7188SOL     OW22462   5.216   1.511   0.939
 7188SOL    HW122463   5.151   1.497   1.014
 7188SOL    HW222464   5.281   1.582   0.963
 7189SOL     OW22465   5.988   0.939   4.531
 7189SOL    HW122466   6.005   0.915   4.626
 7189SOL    HW222467   6.048   1.015   4.505
 7190SOL     OW22468   4.755   4.864   3.338
 7190SOL    HW122469   4.778   4.834   3.431
 7190SOL    HW222470   4.821   4.826   3.274
 7191SOL     OW22471   1.667   3.450   2.604
 7191SOL    HW122472   1.604   3.462   2.681
 7191SOL    HW222473   1.712   3.362   2.611
 7192SOL     OW22474   3.062   4.848   5.685
 7192SOL    HW122475   3.024   4.902   5.610
 7192SOL    HW222476   3.130   4.903   5.735
 7193SOL     OW22477   4.440   1.706   3.362
 7193SOL    HW122478   4.354   1.708   3.311
 7193SOL    HW222479   4.516   1.689   3.299
 7194SOL     OW22480   2.964   1.411   1.807
 7194SOL    HW122481   3.010   1.327   1.838
 7194SOL    HW222482   3.013   1.490   1.842
 7195SOL     OW22483   0.849   5.581   1.487
 7195SOL    HW122484   0.877   5.619   1.398
 7195SOL    HW222485   0.929   5.568   1.545
 7196SOL     OW22486   3.492   3.298   2.291
 7196SOL    HW122487   3.393   3.301   2.286
 7196SOL    HW222488   3.522   3.332   2.380
 7197SOL     OW22489   0.621   2.323   6.188
 7197SOL    HW122490   0.640   2.349   6.093
 7197SOL    HW222491   0.666   2.237   6.209
 7198SOL     OW22492   1.385   6.197   6.756
 7198SOL    HW122493   1.363   6.186   6.853
 7198SOL    HW222494   1.484   6.198   6.744
 7199SOL     OW22495   6.529   6.410   2.727
 7199SOL    HW122496   6.604   6.427   2.663
 7199SOL    HW222497   6.483   6.324   2.702
 7200SOL     OW22498   2.098   1.351   1.285
 7200SOL    HW122499   2.140   1.351   1.376
 7200SOL    HW222500   2.045   1.435   1.274
 7201SOL     OW22501   2.220   4.357   3.848
 7201SOL    HW122502   2.146   4.311   3.799
 7201SOL    HW222503   2.181   4.415   3.920
 7202SOL     OW22504   3.627   0.969   6.428
 7202SOL    HW122505   3.580   0.993   6.513
 7202SOL    HW222506   3.688   1.043   6.401
 7203SOL     OW22507   5.517   1.084   6.707
 7203SOL    HW122508   5.502   1.142   6.627
 7203SOL    HW222509   5.610   1.046   6.703
 7204SOL     OW22510   5.990   1.863   2.590
 7204SOL    HW122511   5.924   1.916   2.643
 7204SOL    HW222512   6.082   1.899   2.607
 7205SOL     OW22513   2.445   4.506   2.198
 7205SOL    HW122514   2.541   4.521   2.220
 7205SOL    HW222515   2.438   4.447   2.117
 7206SOL     OW22516   6.065   0.979   1.709
 7206SOL    HW122517   6.142   0.925   1.743
 7206SOL    HW222518   6.023   1.028   1.785
 7207SOL     OW22519   3.779   6.980   2.236
 7207SOL    HW122520   3.689   6.950   2.266
 7207SOL    HW222521   3.777   0.053   2.216
 7208SOL     OW22522   2.994   0.253   5.437
 7208SOL    HW122523   2.974   0.274   5.341
 7208SOL    HW222524   2.908   0.238   5.487
 7209SOL     OW22525   4.108   3.670   4.597
 7209SOL    HW122526   4.081   3.684   4.502
 7209SOL    HW222527   4.103   3.573   4.620
 7210SOL     OW22528   4.127   0.496   4.357
 7210SOL    HW122529   4.059   0.508   4.285
 7210SOL    HW222530   4.219   0.507   4.319
 7211SOL     OW22531   1.347   5.385   2.952
 7211SOL    HW122532   1.432   5.343   2.919
 7211SOL    HW222533   1.370   5.460   3.015
 7212SOL     OW22534   5.563   6.649   4.264
 7212SOL    HW122535   5.607   6.705   4.193
 7212SOL    HW222536   5.632   6.617   4.329
 7213SOL     OW22537   5.411   0.751   5.494
 7213SOL    HW122538   5.395   0.667   5.546
 7213SOL    HW222539   5.506   0.755   5.465
 7214SOL     OW22540   1.248   4.926   5.108
 7214SOL    HW122541   1.167   4.883   5.069
 7214SOL    HW222542   1.221   5.001   5.168
 7215SOL     OW22543   1.273   3.622   3.714
 7215SOL    HW122544   1.355   3.647   3.663
 7215SOL    HW222545   1.199   3.601   3.649
 7216SOL     OW22546   2.172   1.028   1.607
 7216SOL    HW122547   2.249   1.000   1.549
 7216SOL    HW222548   2.106   0.953   1.613
 7217SOL     OW22549   1.102   2.743   2.175
 7217SOL    HW122550   1.122   2.754   2.078
 7217SOL    HW222551   1.150   2.813   2.227
 7218SOL     OW22552   5.701   2.740   5.430
 7218SOL    HW122553   5.723   2.765   5.336
 7218SOL    HW222554   5.672   2.644   5.434
 7219SOL     OW22555   3.916   1.635   2.119
 7219SOL    HW122556   3.875   1.714   2.075
 7219SOL    HW222557   3.862   1.553   2.096
 7220SOL     OW22558   6.930   0.737   2.958
 7220SOL    HW122559   6.913   0.651   3.007
 7220SOL    HW222560   0.001   0.764   2.970
 7221SOL     OW22561   5.972   5.622   5.658
 7221SOL    HW122562   5.924   5.695   5.610
 7221SOL    HW222563   5.989   5.546   5.596
 7222SOL     OW22564   0.080   6.477   2.198
 7222SOL    HW122565   0.087   6.381   2.173
 7222SOL    HW222566   0.145   6.497   2.272
 7223SOL     OW22567   3.463   0.745   5.454
 7223SOL    HW122568   3.528   0.692   5.508
 7223SOL    HW222569   3.460   0.710   5.361
 7224SOL     OW22570   4.714   6.639   4.429
 7224SOL    HW122571   4.652   6.639   4.351
 7224SOL    HW222572   4.801   6.598   4.403
 7225SOL     OW22573   2.216   6.332   6.970
 7225SOL    HW122574   2.250   6.384   0.023
 7225SOL    HW222575   2.192   6.239   7.000
 7226SOL     OW22576   6.392   6.993   0.863
 7226SOL    HW122577   6.346   6.992   0.952
 7226SOL    HW222578   6.340   0.025   0.800
 7227SOL     OW22579   6.071   2.733   6.199
 7227SOL    HW122580   6.115   2.693   6.119
 7227SOL    HW222581   6.129   2.807   6.236
 7228SOL     OW22582   1.286   0.843   3.070
 7228SOL    HW122583   1.194   0.816   3.042
 7228SOL    HW222584   1.353   0.794   3.014
 7229SOL     OW22585   0.707   0.408   3.246
 7229SOL    HW122586   0.737   0.349   3.171
 7229SOL    HW222587   0.731   0.366   3.333
 7230SOL     OW22588   5.970   3.703   3.016
 7230SOL    HW122589   5.902   3.670   3.082
 7230SOL    HW222590   5.955   3.660   2.928
 7231SOL     OW22591   5.226   1.044   6.452
 7231SOL    HW122592   5.306   1.104   6.455
 7231SOL    HW222593   5.191   1.039   6.358
 7232SOL     OW22594   3.590   4.675   1.286
 7232SOL    HW122595   3.517   4.643   1.227
 7232SOL    HW222596   3.622   4.599   1.344
 7233SOL     OW22597   6.770   2.173   6.153
 7233SOL    HW122598   6.859   2.157   6.111
 7233SOL    HW222599   6.771   2.260   6.203
 7234SOL     OW22600   5.981   2.133   2.056
 7234SOL    HW122601   5.947   2.052   2.102
 7234SOL    HW222602   5.905   2.195   2.035
 7235SOL     OW22603   6.093   3.320   4.992
 7235SOL    HW122604   6.029   3.393   5.014
 7235SOL    HW222605   6.184   3.344   5.027
 7236SOL     OW22606   3.220   0.851   3.182
 7236SOL    HW122607   3.258   0.910   3.111
 7236SOL    HW222608   3.265   0.761   3.177
 7237SOL     OW22609   5.944   6.052   6.043
 7237SOL    HW122610   5.899   5.963   6.037
 7237SOL    HW222611   5.994   6.058   6.130
 7238SOL     OW22612   1.149   1.066   1.290
 7238SOL    HW122613   1.243   1.100   1.301
 7238SOL    HW222614   1.098   1.130   1.233
 7239SOL     OW22615   4.092   1.504   1.770
 7239SOL    HW122616   4.177   1.496   1.719
 7239SOL    HW222617   4.101   1.459   1.859
 7240SOL     OW22618   3.317   4.092   0.501
 7240SOL    HW122619   3.387   4.055   0.440
 7240SOL    HW222620   3.230   4.046   0.483
 7241SOL     OW22621   3.361   0.328   5.152
 7241SOL    HW122622   3.439   0.291   5.202
 7241SOL    HW222623   3.371   0.306   5.055
 7242SOL     OW22624   4.796   4.571   7.018
 7242SOL    HW122625   4.703   4.544   0.017
 7242SOL    HW222626   4.852   4.489   7.008
 7243SOL     OW22627   0.060   5.770   0.339
 7243SOL    HW122628   0.130   5.751   0.407
 7243SOL    HW222629   0.052   5.691   0.277
 7244SOL     OW22630   5.899   1.350   0.724
 7244SOL    HW122631   5.837   1.314   0.794
 7244SOL    HW222632   5.896   1.450   0.725
 7245SOL     OW22633   6.868   1.862   3.626
 7245SOL    HW122634   6.773   1.837   3.648
 7245SOL    HW222635   6.909   1.907   3.705
 7246SOL     OW22636   0.769   6.148   5.453
 7246SOL    HW122637   0.707   6.212   5.499
 7246SOL    HW222638   0.739   6.135   5.359
 7247SOL     OW22639   3.423   5.607   2.777
 7247SOL    HW122640   3.335   5.574   2.810
 7247SOL    HW222641   3.496   5.572   2.836
 7248SOL     OW22642   3.176   0.385   4.720
 7248SOL    HW122643   3.105   0.452   4.740
 7248SOL    HW222644   3.156   0.299   4.767
 7249SOL     OW22645   6.189   5.352   0.010
 7249SOL    HW122646   6.273   5.348   6.982
 7249SOL    HW222647   6.123   5.286   6.999
 7250SOL     OW22648   2.930   4.087   6.571
 7250SOL    HW122649   2.833   4.074   6.550
 7250SOL    HW222650   2.985   4.053   6.495
 7251SOL     OW22651   5.364   7.007   5.258
 7251SOL    HW122652   5.370   0.054   5.189
 7251SOL    HW222653   5.302   0.011   5.331
 7252SOL     OW22654   4.135   3.815   5.088
 7252SOL    HW122655   4.222   3.821   5.040
 7252SOL    HW222656   4.062   3.851   5.030
 7253SOL     OW22657   5.204   5.356   1.060
 7253SOL    HW122658   5.248   5.279   1.106
 7253SOL    HW222659   5.275   5.418   1.026
 7254SOL     OW22660   4.853   6.366   5.166
 7254SOL    HW122661   4.758   6.368   5.197
 7254SOL    HW222662   4.909   6.423   5.227
 7255SOL     OW22663   3.613   4.123   2.201
 7255SOL    HW122664   3.559   4.080   2.273
 7255SOL    HW222665   3.640   4.215   2.229
 7256SOL     OW22666   4.891   4.911   3.973
 7256SOL    HW122667   4.817   4.971   3.940
 7256SOL    HW222668   4.979   4.955   3.955
 7257SOL     OW22669   5.803   4.146   3.492
 7257SOL    HW122670   5.844   4.076   3.551
 7257SOL    HW222671   5.836   4.236   3.520
 7258SOL     OW22672   3.081   6.848   5.226
 7258SOL    HW122673   3.044   6.760   5.255
 7258SOL    HW222674   3.112   6.842   5.131
 7259SOL     OW22675   1.882   5.391   5.811
 7259SOL    HW122676   1.815   5.404   5.738
 7259SOL    HW222677   1.932   5.476   5.827
 7260SOL     OW22678   3.520   2.038   1.839
 7260SOL    HW122679   3.584   2.053   1.764
 7260SOL    HW222680   3.558   2.074   1.924
 7261SOL     OW22681   1.252   3.816   1.811
 7261SOL    HW122682   1.219   3.848   1.899
 7261SOL    HW222683   1.339   3.861   1.789
 7262SOL     OW22684   6.118   1.919   5.042
 7262SOL    HW122685   6.201   1.905   5.095
 7262SOL    HW222686   6.061   1.837   5.047
 7263SOL     OW22687   4.245   6.721   1.884
 7263SOL    HW122688   4.151   6.698   1.906
 7263SOL    HW222689   4.293   6.638   1.853
 7264SOL     OW22690   1.105   6.933   4.834
 7264SOL    HW122691   1.130   6.879   4.914
 7264SOL    HW222692   1.047   6.877   4.774
 7265SOL     OW22693   4.226   3.838   5.931
 7265SOL    HW122694   4.296   3.783   5.976
 7265SOL    HW222695   4.171   3.886   5.999
 7266SOL     OW22696   5.189   1.615   1.842
 7266SOL    HW122697   5.273   1.571   1.810
 7266SOL    HW222698   5.142   1.658   1.765
 7267SOL     OW22699   0.229   2.909   4.171
 7267SOL    HW122700   0.233   2.849   4.251
 7267SOL    HW222701   0.258   2.858   4.090
 7268SOL     OW22702   3.222   6.907   1.267
 7268SOL    HW122703   3.271   6.848   1.204
 7268SOL    HW222704   3.247   6.885   1.361
 7269SOL     OW22705   1.823   6.900   1.989
 7269SOL    HW122706   1.773   6.970   1.939
 7269SOL    HW222707   1.760   6.829   2.020
 7270SOL     OW22708   3.529   1.388   2.786
 7270SOL    HW122709   3.557   1.466   2.730
 7270SOL    HW222710   3.430   1.393   2.802
 7271SOL     OW22711   5.985   4.797   4.196
 7271SOL    HW122712   5.896   4.753   4.210
 7271SOL    HW222713   6.036   4.797   4.283
 7272SOL     OW22714   5.977   2.258   1.427
 7272SOL    HW122715   6.007   2.183   1.486
 7272SOL    HW222716   5.881   2.244   1.403
 7273SOL     OW22717   6.074   6.053   6.279
 7273SOL    HW122718   6.165   6.012   6.282
 7273SOL    HW222719   6.081   6.151   6.298
 7274SOL     OW22720   0.257   4.302   4.754
 7274SOL    HW122721   0.230   4.363   4.680
 7274SOL    HW222722   0.218   4.334   4.840
 7275SOL     OW22723   5.900   6.703   1.256
 7275SOL    HW122724   5.914   6.674   1.350
 7275SOL    HW222725   5.823   6.766   1.251
 7276SOL     OW22726   2.955   2.202   4.011
 7276SOL    HW122727   2.928   2.240   3.922
 7276SOL    HW222728   2.875   2.198   4.071
 7277SOL     OW22729   5.399   1.750   4.381
 7277SOL    HW122730   5.394   1.731   4.479
 7277SOL    HW222731   5.338   1.826   4.359
 7278SOL     OW22732   2.214   1.616   3.622
 7278SOL    HW122733   2.195   1.547   3.692
 7278SOL    HW222734   2.147   1.689   3.627
 7279SOL     OW22735   4.296   4.443   1.060
 7279SOL    HW122736   4.290   4.486   0.970
 7279SOL    HW222737   4.366   4.490   1.114
 7280SOL     OW22738   6.337   1.724   5.355
 7280SOL    HW122739   6.272   1.659   5.315
 7280SOL    HW222740   6.380   1.777   5.282
 7281SOL     OW22741   4.145   5.791   2.141
 7281SOL    HW122742   4.112   5.881   2.171
 7281SOL    HW222743   4.081   5.720   2.171
 7282SOL     OW22744   6.294   3.847   2.256
 7282SOL    HW122745   6.296   3.927   2.316
 7282SOL    HW222746   6.251   3.771   2.304
 7283SOL     OW22747   4.689   5.156   3.042
 7283SOL    HW122748   4.754   5.091   3.002
 7283SOL    HW222749   4.722   5.249   3.030
 7284SOL     OW22750   0.149   1.557   2.586
 7284SOL    HW122751   0.177   1.466   2.556
 7284SOL    HW222752   0.065   1.550   2.640
 7285SOL     OW22753   4.921   3.153   1.866
 7285SOL    HW122754   5.006   3.139   1.916
 7285SOL    HW222755   4.848   3.099   1.907
 7286SOL     OW22756   6.269   1.566   3.924
 7286SOL    HW122757   6.238   1.472   3.910
 7286SOL    HW222758   6.213   1.628   3.868
 7287SOL     OW22759   2.865   1.391   2.957
 7287SOL    HW122760   2.835   1.486   2.945
 7287SOL    HW222761   2.837   1.337   2.877
 7288SOL     OW22762   2.495   1.798   2.359
 7288SOL    HW122763   2.524   1.849   2.278
 7288SOL    HW222764   2.437   1.722   2.331
 7289SOL     OW22765   6.611   2.133   1.416
 7289SOL    HW122766   6.661   2.219   1.426
 7289SOL    HW222767   6.574   2.105   1.504
 7290SOL     OW22768   3.934   1.200   4.747
 7290SOL    HW122769   4.031   1.203   4.771
 7290SOL    HW222770   3.921   1.138   4.669
 7291SOL     OW22771   2.405   1.359   0.783
 7291SOL    HW122772   2.481   1.408   0.824
 7291SOL    HW222773   2.391   1.272   0.831
 7292SOL     OW22774   2.571   6.947   2.533
 7292SOL    HW122775   2.661   6.991   2.527
 7292SOL    HW222776   2.583   6.848   2.537
 7293SOL     OW22777   6.689   1.736   4.019
 7293SOL    HW122778   6.649   1.691   4.099
 7293SOL    HW222779   6.749   1.810   4.049
 7294SOL     OW22780   3.325   6.286   2.519
 7294SOL    HW122781   3.353   6.296   2.424
 7294SOL    HW222782   3.381   6.346   2.576
 7295SOL     OW22783   5.559   4.149   1.063
 7295SOL    HW122784   5.515   4.227   1.107
 7295SOL    HW222785   5.513   4.065   1.091
 7296SOL     OW22786   4.637   5.194   2.095
 7296SOL    HW122787   4.543   5.163   2.085
 7296SOL    HW222788   4.650   5.231   2.187
 7297SOL     OW22789   4.375   6.876   1.212
 7297SOL    HW122790   4.443   6.867   1.139
 7297SOL    HW222791   4.326   6.962   1.201
 7298SOL     OW22792   3.718   5.208   0.425
 7298SOL    HW122793   3.769   5.289   0.454
 7298SOL    HW222794   3.756   5.175   0.338
 7299SOL     OW22795   1.209   3.133   6.333
 7299SOL    HW122796   1.153   3.095   6.407
 7299SOL    HW222797   1.263   3.060   6.291
 7300SOL     OW22798   6.880   5.344   2.360
 7300SOL    HW122799   6.904   5.263   2.413
 7300SOL    HW222800   6.952   5.363   2.294
 7301SOL     OW22801   4.376   1.819   6.425
 7301SOL    HW122802   4.355   1.914   6.398
 7301SOL    HW222803   4.319   1.757   6.372
 7302SOL     OW22804   5.629   1.909   5.843
 7302SOL    HW122805   5.605   1.930   5.938
 7302SOL    HW222806   5.552   1.864   5.798
 7303SOL     OW22807   2.813   1.728   2.014
 7303SOL    HW122808   2.757   1.759   1.937
 7303SOL    HW222809   2.824   1.802   2.079
 7304SOL     OW22810   2.809   5.514   0.685
 7304SOL    HW122811   2.813   5.420   0.650
 7304SOL    HW222812   2.805   5.511   0.785
 7305SOL     OW22813   5.946   1.249   0.286
 7305SOL    HW122814   5.934   1.264   0.188
 7305SOL    HW222815   5.975   1.155   0.302
 7306SOL     OW22816   1.043   2.948   1.745
 7306SOL    HW122817   1.114   2.901   1.797
 7306SOL    HW222818   0.987   2.882   1.695
 7307SOL     OW22819   1.901   0.276   0.967
 7307SOL    HW122820   1.829   0.337   0.934
 7307SOL    HW222821   1.879   0.181   0.942
 7308SOL     OW22822   4.183   1.134   2.880
 7308SOL    HW122823   4.096   1.138   2.929
 7308SOL    HW222824   4.199   1.220   2.832
 7309SOL     OW22825   2.415   4.989   3.700
 7309SOL    HW122826   2.470   4.930   3.640
 7309SOL    HW222827   2.469   5.015   3.779
 7310SOL     OW22828   2.629   2.849   6.040
 7310SOL    HW122829   2.656   2.896   5.955
 7310SOL    HW222830   2.626   2.915   6.115
 7311SOL     OW22831   0.405   5.909   5.494
 7311SOL    HW122832   0.486   5.914   5.552
 7311SOL    HW222833   0.417   5.835   5.427
 7312SOL     OW22834   6.498   1.955   3.992
 7312SOL    HW122835   6.528   1.881   3.932
 7312SOL    HW222836   6.477   2.036   3.936
 7313SOL     OW22837   2.483   0.758   2.665
 7313SOL    HW122838   2.524   0.742   2.575
 7313SOL    HW222839   2.478   0.671   2.714
 7314SOL     OW22840   0.716   4.593   5.578
 7314SOL    HW122841   0.677   4.675   5.619
 7314SOL    HW222842   0.775   4.547   5.645
 7315SOL     OW22843   2.254   4.728   2.230
 7315SOL    HW122844   2.211   4.726   2.140
 7315SOL    HW222845   2.330   4.664   2.232
 7316SOL     OW22846   3.800   1.583   1.354
 7316SOL    HW122847   3.750   1.631   1.425
 7316SOL    HW222848   3.815   1.489   1.381
 7317SOL     OW22849   4.197   2.157   0.189
 7317SOL    HW122850   4.248   2.120   0.267
 7317SOL    HW222851   4.198   2.092   0.114
 7318SOL     OW22852   5.327   6.517   0.471
 7318SOL    HW122853   5.243   6.558   0.505
 7318SOL    HW222854   5.366   6.458   0.542
 7319SOL     OW22855   5.571   6.322   6.273
 7319SOL    HW122856   5.645   6.302   6.209
 7319SOL    HW222857   5.484   6.326   6.224
 7320SOL     OW22858   0.802   2.338   0.988
 7320SOL    HW122859   0.893   2.360   0.952
 7320SOL    HW222860   0.733   2.367   0.923
 7321SOL     OW22861   1.711   2.174   0.046
 7321SOL    HW122862   1.776   2.126   0.104
 7321SOL    HW222863   1.744   2.177   6.977
 7322SOL     OW22864   1.234   3.311   3.369
 7322SOL    HW122865   1.333   3.315   3.360
 7322SOL    HW222866   1.206   3.357   3.453
 7323SOL     OW22867   0.616   2.659   0.500
 7323SOL    HW122868   0.652   2.648   0.407
 7323SOL    HW222869   0.639   2.750   0.534
 7324SOL     OW22870   4.827   3.739   3.323
 7324SOL    HW122871   4.805   3.670   3.392
 7324SOL    HW222872   4.918   3.776   3.341
 7325SOL     OW22873   4.352   1.139   5.732
 7325SOL    HW122874   4.424   1.073   5.752
 7325SOL    HW222875   4.306   1.113   5.647
 7326SOL     OW22876   3.824   0.617   0.483
 7326SOL    HW122877   3.771   0.571   0.554
 7326SOL    HW222878   3.766   0.682   0.434
 7327SOL     OW22879   1.468   4.437   3.140
 7327SOL    HW122880   1.459   4.531   3.109
 7327SOL    HW222881   1.564   4.409   3.134
 7328SOL     OW22882   4.717   4.874   5.087
 7328SOL    HW122883   4.758   4.919   5.008
 7328SOL    HW222884   4.733   4.775   5.081
 7329SOL     OW22885   3.178   3.232   1.194
 7329SOL    HW122886   3.183   3.145   1.144
 7329SOL    HW222887   3.235   3.300   1.148
 7330SOL     OW22888   2.571   3.278   1.496
 7330SOL    HW122889   2.573   3.260   1.594
 7330SOL    HW222890   2.632   3.355   1.475
 7331SOL     OW22891   5.328   2.551   2.435
 7331SOL    HW122892   5.399   2.530   2.502
 7331SOL    HW222893   5.245   2.500   2.457
 7332SOL     OW22894   3.101   6.295   6.145
 7332SOL    HW122895   3.039   6.238   6.090
 7332SOL    HW222896   3.079   6.392   6.130
 7333SOL     OW22897   0.465   1.456   1.405
 7333SOL    HW122898   0.395   1.385   1.392
 7333SOL    HW222899   0.500   1.453   1.498
 7334SOL     OW22900   1.799   5.969   3.723
 7334SOL    HW122901   1.882   5.968   3.667
 7334SOL    HW222902   1.820   5.939   3.816
 7335SOL     OW22903   0.157   3.951   2.311
 7335SOL    HW122904   0.255   3.939   2.293
 7335SOL    HW222905   0.131   4.046   2.291
 7336SOL     OW22906   2.715   6.534   1.706
 7336SOL    HW122907   2.752   6.602   1.770
 7336SOL    HW222908   2.634   6.571   1.662
 7337SOL     OW22909   2.724   1.268   3.208
 7337SOL    HW122910   2.737   1.282   3.110
 7337SOL    HW222911   2.655   1.198   3.223
 7338SOL     OW22912   5.107   3.795   1.201
 7338SOL    HW122913   5.118   3.895   1.209
 7338SOL    HW222914   5.071   3.759   1.287
 7339SOL     OW22915   0.065   6.108   4.753
 7339SOL    HW122916   0.057   6.146   4.661
 7339SOL    HW222917   0.052   6.009   4.750
 7340SOL     OW22918   3.185   6.848   0.618
 7340SOL    HW122919   3.240   6.765   0.621
 7340SOL    HW222920   3.177   6.886   0.710
 7341SOL     OW22921   6.496   5.494   4.851
 7341SOL    HW122922   6.500   5.591   4.874
 7341SOL    HW222923   6.463   5.442   4.930
 7342SOL     OW22924   1.444   5.242   1.141
 7342SOL    HW122925   1.510   5.176   1.178
 7342SOL    HW222926   1.352   5.217   1.169
 7343SOL     OW22927   5.059   3.025   2.795
 7343SOL    HW122928   5.000   2.944   2.793
 7343SOL    HW222929   5.119   3.021   2.875
 7344SOL     OW22930   2.339   0.944   0.260
 7344SOL    HW122931   2.245   0.914   0.244
 7344SOL    HW222932   2.338   1.041   0.285
 7345SOL     OW22933   3.326   5.309   0.531
 7345SOL    HW122934   3.370   5.395   0.556
 7345SOL    HW222935   3.315   5.252   0.612
 7346SOL     OW22936   3.653   4.960   1.799
 7346SOL    HW122937   3.630   4.896   1.873
 7346SOL    HW222938   3.643   4.915   1.711
 7347SOL     OW22939   6.602   3.380   2.175
 7347SOL    HW122940   6.645   3.470   2.178
 7347SOL    HW222941   6.667   3.311   2.206
 7348SOL     OW22942   0.767   1.616   5.138
 7348SOL    HW122943   0.746   1.711   5.115
 7348SOL    HW222944   0.759   1.603   5.237
 7349SOL     OW22945   3.350   1.189   0.435
 7349SOL    HW122946   3.434   1.136   0.446
 7349SOL    HW222947   3.359   1.250   0.357
 7350SOL     OW22948   2.169   1.313   2.741
 7350SOL    HW122949   2.101   1.289   2.810
 7350SOL    HW222950   2.128   1.377   2.675
 7351SOL     OW22951   4.517   4.498   0.047
 7351SOL    HW122952   4.514   4.412   0.096
 7351SOL    HW222953   4.501   4.482   6.975
 7352SOL     OW22954   6.451   1.201   3.594
 7352SOL    HW122955   6.398   1.184   3.511
 7352SOL    HW222956   6.537   1.150   3.589
 7353SOL     OW22957   4.975   2.191   4.841
 7353SOL    HW122958   5.004   2.209   4.935
 7353SOL    HW222959   5.006   2.100   4.813
 7354SOL     OW22960   6.555   4.383   4.971
 7354SOL    HW122961   6.641   4.382   4.920
 7354SOL    HW222962   6.564   4.445   5.049
 7355SOL     OW22963   1.058   4.565   1.379
 7355SOL    HW122964   1.073   4.638   1.312
 7355SOL    HW222965   1.094   4.594   1.468
 7356SOL     OW22966   6.758   1.304   5.588
 7356SOL    HW122967   6.695   1.287   5.512
 7356SOL    HW222968   6.728   1.254   5.669
 7357SOL     OW22969   0.181   1.425   0.807
 7357SOL    HW122970   0.168   1.436   0.708
 7357SOL    HW222971   0.177   1.328   0.830
 7358SOL     OW22972   3.319   0.790   3.898
 7358SOL    HW122973   3.256   0.811   3.973
 7358SOL    HW222974   3.274   0.810   3.811
 7359SOL     OW22975   3.360   3.163   2.712
 7359SOL    HW122976   3.412   3.155   2.797
 7359SOL    HW222977   3.397   3.238   2.657
 7360SOL     OW22978   0.544   3.385   5.560
 7360SOL    HW122979   0.549   3.464   5.500
 7360SOL    HW222980   0.631   3.337   5.560
 7361SOL     OW22981   5.127   0.018   2.184
 7361SOL    HW122982   5.097   6.948   2.179
 7361SOL    HW222983   5.053   0.074   2.220
 7362SOL     OW22984   1.972   6.902   6.273
 7362SOL    HW122985   1.892   6.936   6.225
 7362SOL    HW222986   1.957   6.807   6.299
 7363SOL     OW22987   5.829   3.090   6.261
 7363SOL    HW122988   5.822   3.021   6.188
 7363SOL    HW222989   5.881   3.168   6.228
 7364SOL     OW22990   5.333   0.953   1.558
 7364SOL    HW122991   5.348   1.051   1.553
 7364SOL    HW222992   5.235   0.934   1.565
 7365SOL     OW22993   3.406   0.765   2.061
 7365SOL    HW122994   3.357   0.758   1.974
 7365SOL    HW222995   3.450   0.678   2.082
 7366SOL     OW22996   0.681   5.557   0.092
 7366SOL    HW122997   0.689   5.547   7.018
 7366SOL    HW222998   0.769   5.583   0.130
 7367SOL     OW22999   5.216   3.563   6.661
 7367SOL    HW123000   5.253   3.555   6.569
 7367SOL    HW223001   5.287   3.543   6.728
 7368SOL     OW23002   2.969   3.322   3.436
 7368SOL    HW123003   2.989   3.263   3.514
 7368SOL    HW223004   2.899   3.388   3.462
 7369SOL     OW23005   4.778   2.543   6.285
 7369SOL    HW123006   4.790   2.622   6.345
 7369SOL    HW223007   4.681   2.518   6.281
 7370SOL     OW23008   1.896   6.471   1.367
 7370SOL    HW123009   1.890   6.373   1.388
 7370SOL    HW223010   1.804   6.506   1.350
 7371SOL     OW23011   2.251   4.844   4.161
 7371SOL    HW123012   2.338   4.879   4.196
 7371SOL    HW223013   2.262   4.747   4.138
 7372SOL     OW23014   3.206   6.706   5.923
 7372SOL    HW123015   3.238   6.772   5.855
 7372SOL    HW223016   3.242   6.731   6.013
 7373SOL     OW23017   3.708   0.663   1.911
 7373SOL    HW123018   3.616   0.643   1.875
 7373SOL    HW223019   3.709   0.754   1.951
 7374SOL     OW23020   2.058   3.704   6.522
 7374SOL    HW123021   2.042   3.760   6.603
 7374SOL    HW223022   2.096   3.761   6.449
 7375SOL     OW23023   1.591   6.828   2.997
 7375SOL    HW123024   1.617   6.893   3.068
 7375SOL    HW223025   1.569   6.740   3.038
 7376SOL     OW23026   2.491   3.733   5.633
 7376SOL    HW123027   2.467   3.653   5.579
 7376SOL    HW223028   2.584   3.762   5.609
 7377SOL     OW23029   4.610   4.811   1.740
 7377SOL    HW123030   4.568   4.803   1.650
 7377SOL    HW223031   4.687   4.746   1.746
 7378SOL     OW23032   6.728   2.378   5.839
 7378SOL    HW123033   6.730   2.375   5.739
 7378SOL    HW223034   6.821   2.390   5.873
 7379SOL     OW23035   4.356   1.092   1.277
 7379SOL    HW123036   4.404   1.174   1.248
 7379SOL    HW223037   4.268   1.087   1.231
 7380SOL     OW23038   6.740   2.412   4.483
 7380SOL    HW123039   6.671   2.484   4.484
 7380SOL    HW223040   6.695   2.323   4.475
 7381SOL     OW23041   5.326   2.308   0.080
 7381SOL    HW123042   5.332   2.390   0.024
 7381SOL    HW223043   5.329   2.227   0.021
 7382SOL     OW23044   6.653   5.854   3.855
 7382SOL    HW123045   6.680   5.759   3.872
 7382SOL    HW223046   6.734   5.913   3.863
 7383SOL     OW23047   6.530   6.051   3.720
 7383SOL    HW123048   6.588   6.131   3.735
 7383SOL    HW223049   6.573   5.971   3.762
 7384SOL     OW23050   6.004   1.312   1.739
 7384SOL    HW123051   6.080   1.305   1.674
 7384SOL    HW223052   5.997   1.227   1.792
 7385SOL     OW23053   5.025   0.095   1.932
 7385SOL    HW123054   5.062   0.056   1.848
 7385SOL    HW223055   5.086   0.074   2.008
 7386SOL     OW23056   0.614   2.858   5.756
 7386SOL    HW123057   0.646   2.845   5.850
 7386SOL    HW223058   0.628   2.953   5.729
 7387SOL     OW23059   3.859   6.007   3.781
 7387SOL    HW123060   3.780   5.971   3.831
 7387SOL    HW223061   3.879   6.100   3.814
 7388SOL     OW23062   6.065   4.274   4.554
 7388SOL    HW123063   6.096   4.341   4.487
 7388SOL    HW223064   5.999   4.211   4.511
 7389SOL     OW23065   0.729   4.029   5.658
 7389SOL    HW123066   0.698   4.003   5.566
 7389SOL    HW223067   0.799   4.100   5.650
 7390SOL     OW23068   1.968   6.587   5.443
 7390SOL    HW123069   1.973   6.577   5.543
 7390SOL    HW223070   1.987   6.682   5.419
 7391SOL     OW23071   0.079   3.717   7.014
 7391SOL    HW123072   0.089   3.703   0.087
 7391SOL    HW223073   7.009   3.704   6.988
 7392SOL     OW23074   2.142   5.066   3.288
 7392SOL    HW123075   2.097   5.136   3.344
 7392SOL    HW223076   2.077   5.031   3.221
 7393SOL     OW23077   0.729   3.313   1.012
 7393SOL    HW123078   0.692   3.221   1.004
 7393SOL    HW223079   0.688   3.373   0.943
 7394SOL     OW23080   3.011   3.340   6.544
 7394SOL    HW123081   2.943   3.353   6.616
 7394SOL    HW223082   3.020   3.425   6.492
 7395SOL     OW23083   1.978   6.696   0.615
 7395SOL    HW123084   1.933   6.612   0.644
 7395SOL    HW223085   1.910   6.760   0.579
 7396SOL     OW23086   1.385   7.008   0.925
 7396SOL    HW123087   1.293   6.973   0.943
 7396SOL    HW223088   1.385   0.082   0.933
 7397SOL     OW23089   6.417   4.514   4.604
 7397SOL    HW123090   6.500   4.553   4.642
 7397SOL    HW223091   6.393   4.563   4.519
 7398SOL     OW23092   4.115   6.043   3.224
 7398SOL    HW123093   4.063   5.969   3.265
 7398SOL    HW223094   4.205   6.049   3.268
 7399SOL     OW23095   5.161   4.198   4.831
 7399SOL    HW123096   5.065   4.197   4.803
 7399SOL    HW223097   5.192   4.292   4.839
 7400SOL     OW23098   2.462   5.102   6.679
 7400SOL    HW123099   2.442   5.029   6.744
 7400SOL    HW223100   2.560   5.118   6.674
 7401SOL     OW23101   5.274   1.494   4.298
 7401SOL    HW123102   5.325   1.560   4.353
 7401SOL    HW223103   5.336   1.421   4.267
 7402SOL     OW23104   2.093   6.973   3.366
 7402SOL    HW123105   2.040   6.944   3.287
 7402SOL    HW223106   2.164   6.906   3.385
 7403SOL     OW23107   1.904   3.694   1.769
 7403SOL    HW123108   1.843   3.636   1.715
 7403SOL    HW223109   1.997   3.659   1.763
 7404SOL     OW23110   1.048   1.451   2.901
 7404SOL    HW123111   1.062   1.352   2.898
 7404SOL    HW223112   1.116   1.493   2.962
 7405SOL     OW23113   2.948   4.582   5.944
 7405SOL    HW123114   3.022   4.526   5.907
 7405SOL    HW223115   2.978   4.677   5.952
 7406SOL     OW23116   0.438   5.492   1.940
 7406SOL    HW123117   0.489   5.577   1.931
 7406SOL    HW223118   0.349   5.509   1.980
 7407SOL     OW23119   1.556   0.700   5.675
 7407SOL    HW123120   1.504   0.652   5.746
 7407SOL    HW223121   1.649   0.718   5.707
 7408SOL     OW23122   0.603   3.513   5.304
 7408SOL    HW123123   0.555   3.565   5.232
 7408SOL    HW223124   0.696   3.547   5.313
 7409SOL     OW23125   2.927   5.668   6.081
 7409SOL    HW123126   2.886   5.666   6.172
 7409SOL    HW223127   2.856   5.685   6.013
 7410SOL     OW23128   5.959   5.223   0.986
 7410SOL    HW123129   6.043   5.270   0.960
 7410SOL    HW223130   5.904   5.203   0.905
 7411SOL     OW23131   4.873   5.460   5.983
 7411SOL    HW123132   4.834   5.493   5.897
 7411SOL    HW223133   4.815   5.490   6.059
 7412SOL     OW23134   1.203   2.533   6.887
 7412SOL    HW123135   1.173   2.485   6.805
 7412SOL    HW223136   1.290   2.580   6.869
 7413SOL     OW23137   6.903   3.161   4.259
 7413SOL    HW123138   6.996   3.127   4.248
 7413SOL    HW223139   6.903   3.236   4.326
 7414SOL     OW23140   6.433   5.728   2.917
 7414SOL    HW123141   6.483   5.805   2.956
 7414SOL    HW223142   6.367   5.694   2.984
 7415SOL     OW23143   2.723   1.787   2.493
 7415SOL    HW123144   2.635   1.796   2.448
 7415SOL    HW223145   2.748   1.875   2.535
 7416SOL     OW23146   5.385   6.845   3.942
 7416SOL    HW123147   5.374   6.770   3.878
 7416SOL    HW223148   5.481   6.852   3.969
 7417SOL     OW23149   0.969   5.994   0.331
 7417SOL    HW123150   0.947   5.953   0.242
 7417SOL    HW223151   1.047   6.057   0.319
 7418SOL     OW23152   1.198   3.566   0.399
 7418SOL    HW123153   1.251   3.487   0.428
 7418SOL    HW223154   1.256   3.648   0.403
 7419SOL     OW23155   5.378   0.854   4.861
 7419SOL    HW123156   5.449   0.924   4.856
 7419SOL    HW223157   5.289   0.895   4.837
 7420SOL     OW23158   6.950   5.647   1.963
 7420SOL    HW123159   6.933   5.682   1.871
 7420SOL    HW223160   6.871   5.665   2.021
 7421SOL     OW23161   4.346   2.969   1.468
 7421SOL    HW123162   4.325   2.878   1.502
 7421SOL    HW223163   4.374   3.028   1.544
 7422SOL     OW23164   1.208   2.814   0.779
 7422SOL    HW123165   1.248   2.902   0.755
 7422SOL    HW223166   1.253   2.778   0.861
 7423SOL     OW23167   2.225   5.624   6.975
 7423SOL    HW123168   2.290   5.556   6.940
 7423SOL    HW223169   2.134   5.604   6.940
 7424SOL     OW23170   5.775   1.368   4.523
 7424SOL    HW123171   5.859   1.388   4.472
 7424SOL    HW223172   5.725   1.454   4.539
 7425SOL     OW23173   4.110   6.703   5.929
 7425SOL    HW123174   4.161   6.638   5.874
 7425SOL    HW223175   4.070   6.656   6.008
 7426SOL     OW23176   0.554   1.025   0.160
 7426SOL    HW123177   0.492   1.039   0.082
 7426SOL    HW223178   0.649   1.031   0.129
 7427SOL     OW23179   4.379   5.542   4.384
 7427SOL    HW123180   4.302   5.604   4.366
 7427SOL    HW223181   4.457   5.595   4.418
 7428SOL     OW23182   2.735   1.949   5.902
 7428SOL    HW123183   2.801   1.899   5.959
 7428SOL    HW223184   2.642   1.931   5.935
 7429SOL     OW23185   6.607   6.573   3.476
 7429SOL    HW123186   6.527   6.534   3.431
 7429SOL    HW223187   6.604   6.672   3.471
 7430SOL     OW23188   0.773   4.264   4.992
 7430SOL    HW123189   0.821   4.335   4.940
 7430SOL    HW223190   0.678   4.260   4.961
 7431SOL     OW23191   0.919   4.675   2.718
 7431SOL    HW123192   0.933   4.713   2.626
 7431SOL    HW223193   0.876   4.585   2.711
 7432SOL     OW23194   1.001   6.148   5.191
 7432SOL    HW123195   0.901   6.139   5.185
 7432SOL    HW223196   1.026   6.244   5.181
 7433SOL     OW23197   6.584   5.700   1.063
 7433SOL    HW123198   6.618   5.736   1.150
 7433SOL    HW223199   6.544   5.609   1.078
 7434SOL     OW23200   4.654   0.120   6.500
 7434SOL    HW123201   4.574   0.063   6.515
 7434SOL    HW223202   4.672   0.175   6.581
 7435SOL     OW23203   1.493   5.971   0.640
 7435SOL    HW123204   1.592   5.977   0.644
 7435SOL    HW223205   1.455   5.970   0.733
 7436SOL     OW23206   5.113   2.996   6.826
 7436SOL    HW123207   5.017   2.977   6.843
 7436SOL    HW223208   5.121   3.080   6.772
 7437SOL     OW23209   0.166   5.737   6.048
 7437SOL    HW123210   0.124   5.826   6.031
 7437SOL    HW223211   0.260   5.738   6.014
 7438SOL     OW23212   6.351   4.161   1.895
 7438SOL    HW123213   6.302   4.174   1.808
 7438SOL    HW223214   6.448   4.181   1.882
 7439SOL     OW23215   1.406   6.400   3.812
 7439SOL    HW123216   1.463   6.324   3.844
 7439SOL    HW223217   1.420   6.414   3.714
 7440SOL     OW23218   0.851   2.340   4.012
 7440SOL    HW123219   0.935   2.289   4.035
 7440SOL    HW223220   0.821   2.313   3.920
 7441SOL     OW23221   5.323   0.206   3.975
 7441SOL    HW123222   5.231   0.229   4.007
 7441SOL    HW223223   5.365   0.142   4.039
 7442SOL     OW23224   1.689   1.274   0.079
 7442SOL    HW123225   1.707   1.177   0.093
 7442SOL    HW223226   1.624   1.285   0.004
 7443SOL     OW23227   6.853   1.216   0.909
 7443SOL    HW123228   6.815   1.131   0.874
 7443SOL    HW223229   6.950   1.203   0.932
 7444SOL     OW23230   0.200   2.628   6.564
 7444SOL    HW123231   0.291   2.654   6.532
 7444SOL    HW223232   0.158   2.566   6.497
 7445SOL     OW23233   5.630   2.977   2.486
 7445SOL    HW123234   5.580   2.967   2.573
 7445SOL    HW223235   5.711   2.918   2.487
 7446SOL     OW23236   6.914   3.412   0.997
 7446SOL    HW123237   6.876   3.338   1.052
 7446SOL    HW223238   6.966   3.374   0.921
 7447SOL     OW23239   0.614   4.368   6.305
 7447SOL    HW123240   0.537   4.310   6.331
 7447SOL    HW223241   0.612   4.383   6.206
 7448SOL     OW23242   6.841   6.580   5.990
 7448SOL    HW123243   6.927   6.616   5.955
 7448SOL    HW223244   6.766   6.608   5.929
 7449SOL     OW23245   4.388   1.246   1.867
 7449SOL    HW123246   4.424   1.163   1.911
 7449SOL    HW223247   4.303   1.273   1.913
 7450SOL     OW23248   3.158   0.227   2.833
 7450SOL    HW123249   3.127   0.156   2.895
 7450SOL    HW223250   3.251   0.254   2.856
 7451SOL     OW23251   1.605   0.983   3.379
 7451SOL    HW123252   1.526   1.042   3.364
 7451SOL    HW223253   1.608   0.954   3.474
 7452SOL     OW23254   1.618   6.738   4.980
 7452SOL    HW123255   1.558   6.816   4.999
 7452SOL    HW223256   1.608   6.670   5.052
 7453SOL     OW23257   5.185   5.948   5.075
 7453SOL    HW123258   5.115   6.019   5.085
 7453SOL    HW223259   5.142   5.858   5.076
 7454SOL     OW23260   0.642   3.450   0.794
 7454SOL    HW123261   0.581   3.514   0.746
 7454SOL    HW223262   0.678   3.384   0.728
 7455SOL     OW23263   5.560   1.736   0.193
 7455SOL    HW123264   5.568   1.662   0.260
 7455SOL    HW223265   5.514   1.814   0.235
 7456SOL     OW23266   1.861   3.164   5.530
 7456SOL    HW123267   1.879   3.243   5.471
 7456SOL    HW223268   1.942   3.105   5.532
 7457SOL     OW23269   5.802   0.291   6.167
 7457SOL    HW123270   5.832   0.340   6.085
 7457SOL    HW223271   5.826   0.194   6.157
 7458SOL     OW23272   2.526   0.786   0.411
 7458SOL    HW123273   2.487   0.854   0.348
 7458SOL    HW223274   2.524   0.822   0.504
 7459SOL     OW23275   4.434   0.524   4.761
 7459SOL    HW123276   4.500   0.458   4.724
 7459SOL    HW223277   4.426   0.511   4.860
 7460SOL     OW23278   0.719   5.024   0.043
 7460SOL    HW123279   0.780   4.971   0.102
 7460SOL    HW223280   0.729   4.992   6.974
 7461SOL     OW23281   4.617   0.367   4.010
 7461SOL    HW123282   4.675   0.419   3.947
 7461SOL    HW223283   4.620   0.270   3.985
 7462SOL     OW23284   1.986   1.521   2.308
 7462SOL    HW123285   1.962   1.618   2.310
 7462SOL    HW223286   2.061   1.507   2.244
 7463SOL     OW23287   3.161   3.522   2.256
 7463SOL    HW123288   3.243   3.580   2.253
 7463SOL    HW223289   3.181   3.439   2.308
 7464SOL     OW23290   5.346   6.377   6.143
 7464SOL    HW123291   5.279   6.305   6.156
 7464SOL    HW223292   5.339   6.412   6.049
 7465SOL     OW23293   3.217   0.554   1.482
 7465SOL    HW123294   3.123   0.579   1.459
 7465SOL    HW223295   3.230   0.557   1.581
 7466SOL     OW23296   0.918   0.142   6.314
 7466SOL    HW123297   0.954   0.083   6.386
 7466SOL    HW223298   0.862   0.214   6.355
 7467SOL     OW23299   6.270   1.873   1.186
 7467SOL    HW123300   6.175   1.902   1.171
 7467SOL    HW223301   6.332   1.939   1.142
 7468SOL     OW23302   6.366   3.722   3.608
 7468SOL    HW123303   6.390   3.625   3.604
 7468SOL    HW223304   6.340   3.753   3.517
 7469SOL     OW23305   6.904   1.379   2.004
 7469SOL    HW123306   6.880   1.340   2.093
 7469SOL    HW223307   6.950   1.310   1.948
 7470SOL     OW23308   0.310   2.650   2.435
 7470SOL    HW123309   0.220   2.691   2.415
 7470SOL    HW223310   0.375   2.723   2.455
 7471SOL     OW23311   6.178   5.768   6.199
 7471SOL    HW123312   6.171   5.730   6.107
 7471SOL    HW223313   6.132   5.707   6.264
 7472SOL     OW23314   3.226   5.649   3.349
 7472SOL    HW123315   3.264   5.741   3.360
 7472SOL    HW223316   3.174   5.625   3.431
 7473SOL     OW23317   0.419   3.626   5.066
 7473SOL    HW123318   0.366   3.547   5.100
 7473SOL    HW223319   0.415   3.628   4.966
 7474SOL     OW23320   4.272   0.900   2.714
 7474SOL    HW123321   4.222   0.930   2.633
 7474SOL    HW223322   4.263   0.969   2.786
 7475SOL     OW23323   4.179   1.744   0.033
 7475SOL    HW123324   4.120   1.702   0.102
 7475SOL    HW223325   4.195   1.679   6.984
 7476SOL     OW23326   3.130   6.920   4.967
 7476SOL    HW123327   3.101   7.010   4.999
 7476SOL    HW223328   3.104   6.908   4.872
 7477SOL     OW23329   4.811   2.230   3.407
 7477SOL    HW123330   4.820   2.311   3.464
 7477SOL    HW223331   4.740   2.246   3.338
 7478SOL     OW23332   2.243   4.943   0.846
 7478SOL    HW123333   2.335   4.945   0.806
 7478SOL    HW223334   2.186   4.877   0.797
 7479SOL     OW23335   4.755   0.595   6.349
 7479SOL    HW123336   4.802   0.594   6.437
 7479SOL    HW223337   4.817   0.565   6.277
 7480SOL     OW23338   0.029   5.068   1.161
 7480SOL    HW123339   0.060   5.000   1.095
 7480SOL    HW223340   6.978   5.031   1.214
 7481SOL     OW23341   6.262   5.507   0.548
 7481SOL    HW123342   6.208   5.556   0.616
 7481SOL    HW223343   6.314   5.573   0.493
 7482SOL     OW23344   4.982   0.234   4.319
 7482SOL    HW123345   4.906   0.291   4.350
 7482SOL    HW223346   5.032   0.199   4.398
 7483SOL     OW23347   3.443   0.364   6.219
 7483SOL    HW123348   3.428   0.446   6.163
 7483SOL    HW223349   3.535   0.366   6.257
 7484SOL     OW23350   2.511   0.170   2.112
 7484SOL    HW123351   2.467   0.184   2.024
 7484SOL    HW223352   2.574   0.246   2.130
 7485SOL     OW23353   1.506   6.865   6.547
 7485SOL    HW123354   1.575   6.892   6.480
 7485SOL    HW223355   1.492   6.766   6.543
 7486SOL     OW23356   1.852   0.220   5.484
 7486SOL    HW123357   1.922   0.264   5.427
 7486SOL    HW223358   1.819   0.137   5.438
 7487SOL     OW23359   4.423   5.174   3.423
 7487SOL    HW123360   4.433   5.274   3.416
 7487SOL    HW223361   4.509   5.134   3.455
 7488SOL     OW23362   3.721   0.906   5.786
 7488SOL    HW123363   3.766   0.975   5.841
 7488SOL    HW223364   3.767   0.898   5.697
 7489SOL     OW23365   6.327   3.710   3.339
 7489SOL    HW123366   6.274   3.655   3.273
 7489SOL    HW223367   6.413   3.663   3.359
 7490SOL     OW23368   5.519   1.445   1.816
 7490SOL    HW123369   5.539   1.508   1.892
 7490SOL    HW223370   5.603   1.427   1.765
 7491SOL     OW23371   6.444   5.566   6.481
 7491SOL    HW123372   6.386   5.647   6.486
 7491SOL    HW223373   6.530   5.589   6.434
 7492SOL     OW23374   2.448   2.684   4.536
 7492SOL    HW123375   2.442   2.619   4.612
 7492SOL    HW223376   2.510   2.648   4.467
 7493SOL     OW23377   5.434   3.475   0.027
 7493SOL    HW123378   5.387   3.557   7.019
 7493SOL    HW223379   5.411   3.398   6.993
 7494SOL     OW23380   4.853   1.986   1.238
 7494SOL    HW123381   4.898   2.008   1.325
 7494SOL    HW223382   4.864   2.062   1.175
 7495SOL     OW23383   0.299   1.710   2.383
 7495SOL    HW123384   0.392   1.687   2.353
 7495SOL    HW223385   0.280   1.664   2.470
 7496SOL     OW23386   1.186   4.570   5.349
 7496SOL    HW123387   1.201   4.615   5.261
 7496SOL    HW223388   1.190   4.471   5.337
 7497SOL     OW23389   2.315   4.886   1.497
 7497SOL    HW123390   2.361   4.807   1.538
 7497SOL    HW223391   2.314   4.962   1.562
 7498SOL     OW23392   4.399   1.379   4.395
 7498SOL    HW123393   4.425   1.468   4.357
 7498SOL    HW223394   4.398   1.311   4.322
 7499SOL     OW23395   4.882   5.654   3.936
 7499SOL    HW123396   4.820   5.655   3.858
 7499SOL    HW223397   4.953   5.584   3.922
 7500SOL     OW23398   5.230   4.616   1.534
 7500SOL    HW123399   5.263   4.705   1.566
 7500SOL    HW223400   5.161   4.629   1.464
 7501SOL     OW23401   6.871   4.405   3.814
 7501SOL    HW123402   6.916   4.416   3.725
 7501SOL    HW223403   6.787   4.353   3.802
 7502SOL     OW23404   2.273   1.491   4.706
 7502SOL    HW123405   2.225   1.424   4.650
 7502SOL    HW223406   2.256   1.583   4.671
 7503SOL     OW23407   2.451   2.616   5.975
 7503SOL    HW123408   2.508   2.693   6.003
 7503SOL    HW223409   2.370   2.611   6.034
 7504SOL     OW23410   4.072   5.643   3.921
 7504SOL    HW123411   4.069   5.686   3.831
 7504SOL    HW223412   4.155   5.674   3.969
 7505SOL     OW23413   1.299   1.487   4.868
 7505SOL    HW123414   1.293   1.577   4.825
 7505SOL    HW223415   1.266   1.492   4.962
 7506SOL     OW23416   3.691   1.460   3.520
 7506SOL    HW123417   3.673   1.363   3.536
 7506SOL    HW223418   3.693   1.479   3.422
 7507SOL     OW23419   1.087   6.138   5.860
 7507SOL    HW123420   1.070   6.228   5.819
 7507SOL    HW223421   1.105   6.071   5.788
 7508SOL     OW23422   4.618   0.129   3.872
 7508SOL    HW123423   4.522   0.155   3.878
 7508SOL    HW223424   4.642   0.111   3.776
 7509SOL     OW23425   4.746   3.752   5.586
 7509SOL    HW123426   4.775   3.761   5.681
 7509SOL    HW223427   4.724   3.656   5.567
 7510SOL     OW23428   3.806   4.164   4.823
 7510SOL    HW123429   3.813   4.264   4.819
 7510SOL    HW223430   3.830   4.133   4.915
 7511SOL     OW23431   1.262   0.977   2.386
 7511SOL    HW123432   1.326   1.015   2.320
 7511SOL    HW223433   1.237   0.884   2.358
 7512SOL     OW23434   2.104   2.718   1.929
 7512SOL    HW123435   2.034   2.770   1.880
 7512SOL    HW223436   2.194   2.753   1.905
 7513SOL     OW23437   1.331   2.931   6.796
 7513SOL    HW123438   1.381   3.013   6.770
 7513SOL    HW223439   1.242   2.930   6.750
 7514SOL     OW23440   2.626   5.967   3.313
 7514SOL    HW123441   2.706   5.924   3.354
 7514SOL    HW223442   2.620   5.941   3.216
 7515SOL     OW23443   6.218   5.431   2.552
 7515SOL    HW123444   6.186   5.370   2.624
 7515SOL    HW223445   6.151   5.435   2.478
 7516SOL     OW23446   0.676   0.951   2.876
 7516SOL    HW123447   0.675   0.963   2.975
 7516SOL    HW223448   0.636   0.863   2.853
 7517SOL     OW23449   0.355   3.977   1.490
 7517SOL    HW123450   0.415   4.032   1.547
 7517SOL    HW223451   0.261   4.012   1.497
 7518SOL     OW23452   4.743   5.636   3.706
 7518SOL    HW123453   4.795   5.557   3.674
 7518SOL    HW223454   4.655   5.606   3.742
 7519SOL     OW23455   2.292   5.651   4.159
 7519SOL    HW123456   2.388   5.626   4.171
 7519SOL    HW223457   2.264   5.631   4.065
 7520SOL     OW23458   2.408   0.077   4.797
 7520SOL    HW123459   2.330   0.118   4.749
 7520SOL    HW223460   2.431   7.015   4.755
 7521SOL     OW23461   5.197   4.306   6.035
 7521SOL    HW123462   5.189   4.315   6.134
 7521SOL    HW223463   5.239   4.388   5.997
 7522SOL     OW23464   1.996   0.839   1.881
 7522SOL    HW123465   2.031   0.809   1.792
 7522SOL    HW223466   1.911   0.890   1.867
 7523SOL     OW23467   6.213   6.581   6.530
 7523SOL    HW123468   6.174   6.602   6.620
 7523SOL    HW223469   6.249   6.664   6.489
 7524SOL     OW23470   6.673   1.444   4.552
 7524SOL    HW123471   6.580   1.428   4.520
 7524SOL    HW223472   6.709   1.528   4.512
 7525SOL     OW23473   1.743   6.771   1.161
 7525SOL    HW123474   1.724   6.839   1.231
 7525SOL    HW223475   1.730   6.679   1.199
 7526SOL     OW23476   3.619   3.183   5.165
 7526SOL    HW123477   3.587   3.239   5.088
 7526SOL    HW223478   3.664   3.101   5.130
 7527SOL     OW23479   5.503   4.556   2.566
 7527SOL    HW123480   5.513   4.636   2.625
 7527SOL    HW223481   5.425   4.501   2.597
 7528SOL     OW23482   6.717   4.119   6.226
 7528SOL    HW123483   6.807   4.122   6.269
 7528SOL    HW223484   6.658   4.056   6.276
 7529SOL     OW23485   3.058   0.585   5.956
 7529SOL    HW123486   3.057   0.670   5.903
 7529SOL    HW223487   3.051   0.507   5.894
 7530SOL     OW23488   0.409   3.493   2.240
 7530SOL    HW123489   0.454   3.538   2.317
 7530SOL    HW223490   0.311   3.488   2.256
 7531SOL     OW23491   3.542   2.161   3.125
 7531SOL    HW123492   3.456   2.211   3.114
 7531SOL    HW223493   3.542   2.114   3.213
 7532SOL     OW23494   5.046   4.982   2.427
 7532SOL    HW123495   5.095   4.916   2.370
 7532SOL    HW223496   4.974   4.935   2.478
 7533SOL     OW23497   3.759   0.317   4.598
 7533SOL    HW123498   3.790   0.265   4.677
 7533SOL    HW223499   3.722   0.405   4.628
 7534SOL     OW23500   4.884   0.006   4.714
 7534SOL    HW123501   4.879   0.036   4.809
 7534SOL    HW223502   4.846   6.939   4.705
 7535SOL     OW23503   3.220   3.610   6.304
 7535SOL    HW123504   3.201   3.611   6.402
 7535SOL    HW223505   3.152   3.555   6.258
 7536SOL     OW23506   3.448   6.029   3.994
 7536SOL    HW123507   3.431   6.091   3.918
 7536SOL    HW223508   3.543   5.998   3.992
 7537SOL     OW23509   2.340   4.798   5.937
 7537SOL    HW123510   2.351   4.704   5.905
 7537SOL    HW223511   2.332   4.799   6.036
 7538SOL     OW23512   3.520   3.369   2.614
 7538SOL    HW123513   3.518   3.469   2.617
 7538SOL    HW223514   3.615   3.338   2.617
 7539SOL     OW23515   1.995   2.861   4.632
 7539SOL    HW123516   2.091   2.884   4.615
 7539SOL    HW223517   1.959   2.922   4.703
 7540SOL     OW23518   1.930   1.465   0.572
 7540SOL    HW123519   1.946   1.532   0.499
 7540SOL    HW223520   1.949   1.508   0.660
 7541SOL     OW23521   6.768   2.698   5.801
 7541SOL    HW123522   6.817   2.616   5.774
 7541SOL    HW223523   6.736   2.689   5.896
 7542SOL     OW23524   1.887   0.043   6.690
 7542SOL    HW123525   1.953   0.007   6.624
 7542SOL    HW223526   1.813   7.002   6.703
 7543SOL     OW23527   3.703   3.044   6.823
 7543SOL    HW123528   3.798   3.072   6.832
 7543SOL    HW223529   3.698   2.947   6.799
 7544SOL     OW23530   1.948   2.165   2.890
 7544SOL    HW123531   1.852   2.140   2.898
 7544SOL    HW223532   1.973   2.228   2.964
 7545SOL     OW23533   5.305   6.615   4.350
 7545SOL    HW123534   5.254   6.640   4.268
 7545SOL    HW223535   5.403   6.621   4.333
 7546SOL     OW23536   5.029   0.456   6.413
 7546SOL    HW123537   4.965   0.523   6.375
 7546SOL    HW223538   4.981   0.370   6.433
 7547SOL     OW23539   3.304   0.235   0.314
 7547SOL    HW123540   3.296   0.252   0.412
 7547SOL    HW223541   3.259   0.308   0.263
 7548SOL     OW23542   1.150   2.426   1.398
 7548SOL    HW123543   1.148   2.516   1.442
 7548SOL    HW223544   1.207   2.364   1.452
 7549SOL     OW23545   6.192   2.316   2.146
 7549SOL    HW123546   6.103   2.270   2.154
 7549SOL    HW223547   6.256   2.276   2.211
 7550SOL     OW23548   1.951   5.502   1.134
 7550SOL    HW123549   1.921   5.424   1.080
 7550SOL    HW223550   1.871   5.552   1.167
 7551SOL     OW23551   4.740   3.963   6.535
 7551SOL    HW123552   4.793   4.023   6.595
 7551SOL    HW223553   4.790   3.951   6.448
 7552SOL     OW23554   3.571   5.181   3.996
 7552SOL    HW123555   3.549   5.083   3.993
 7552SOL    HW223556   3.598   5.206   4.090
 7553SOL     OW23557   4.345   4.707   5.762
 7553SOL    HW123558   4.307   4.717   5.854
 7553SOL    HW223559   4.353   4.610   5.740
 7554SOL     OW23560   6.269   0.992   1.190
 7554SOL    HW123561   6.317   0.931   1.254
 7554SOL    HW223562   6.335   1.035   1.128
 7555SOL     OW23563   0.914   5.829   5.288
 7555SOL    HW123564   0.995   5.876   5.322
 7555SOL    HW223565   0.876   5.878   5.210
 7556SOL     OW23566   0.182   3.177   4.275
 7556SOL    HW123567   0.258   3.238   4.299
 7556SOL    HW223568   0.218   3.087   4.251
 7557SOL     OW23569   4.652   3.887   0.261
 7557SOL    HW123570   4.690   3.979   0.271
 7557SOL    HW223571   4.688   3.846   0.177
 7558SOL     OW23572   1.600   3.439   4.003
 7558SOL    HW123573   1.528   3.423   3.934
 7558SOL    HW223574   1.610   3.358   4.060
 7559SOL     OW23575   0.682   4.648   1.107
 7559SOL    HW123576   0.719   4.740   1.097
 7559SOL    HW223577   0.594   4.641   1.061
 7560SOL     OW23578   4.301   6.661   6.605
 7560SOL    HW123579   4.234   6.714   6.658
 7560SOL    HW223580   4.268   6.568   6.593
 7561SOL     OW23581   0.740   2.909   1.028
 7561SOL    HW123582   0.666   2.855   1.069
 7561SOL    HW223583   0.702   2.979   0.968
 7562SOL     OW23584   4.845   5.509   5.401
 7562SOL    HW123585   4.798   5.510   5.313
 7562SOL    HW223586   4.785   5.545   5.471
 7563SOL     OW23587   1.955   1.105   2.554
 7563SOL    HW123588   2.003   1.119   2.467
 7563SOL    HW223589   1.949   1.007   2.573
 7564SOL     OW23590   5.085   6.143   4.115
 7564SOL    HW123591   5.001   6.137   4.168
 7564SOL    HW223592   5.160   6.173   4.174
 7565SOL     OW23593   4.672   4.422   0.944
 7565SOL    HW123594   4.595   4.375   0.900
 7565SOL    HW223595   4.744   4.356   0.963
 7566SOL     OW23596   1.630   6.093   4.736
 7566SOL    HW123597   1.536   6.087   4.703
 7566SOL    HW223598   1.641   6.179   4.786
 7567SOL     OW23599   2.934   3.309   0.355
 7567SOL    HW123600   2.853   3.273   0.401
 7567SOL    HW223601   2.932   3.409   0.356
 7568SOL     OW23602   5.186   4.381   3.075
 7568SOL    HW123603   5.256   4.312   3.055
 7568SOL    HW223604   5.135   4.354   3.157
 7569SOL     OW23605   4.265   0.115   0.403
 7569SOL    HW123606   4.187   0.144   0.346
 7569SOL    HW223607   4.284   0.019   0.386
 7570SOL     OW23608   6.373   4.804   4.769
 7570SOL    HW123609   6.366   4.850   4.681
 7570SOL    HW223610   6.450   4.740   4.767
 7571SOL     OW23611   5.286   4.035   2.150
 7571SOL    HW123612   5.340   3.984   2.084
 7571SOL    HW223613   5.203   3.984   2.172
 7572SOL     OW23614   2.373   1.770   4.422
 7572SOL    HW123615   2.402   1.787   4.516
 7572SOL    HW223616   2.292   1.826   4.402
 7573SOL     OW23617   2.267   5.839   5.133
 7573SOL    HW123618   2.187   5.785   5.159
 7573SOL    HW223619   2.242   5.903   5.060
 7574SOL     OW23620   5.150   6.344   2.664
 7574SOL    HW123621   5.181   6.378   2.753
 7574SOL    HW223622   5.200   6.260   2.641
 7575SOL     OW23623   4.313   2.298   4.830
 7575SOL    HW123624   4.285   2.204   4.810
 7575SOL    HW223625   4.264   2.331   4.911
 7576SOL     OW23626   6.042   3.227   1.226
 7576SOL    HW123627   6.073   3.181   1.142
 7576SOL    HW223628   6.103   3.204   1.301
 7577SOL     OW23629   4.672   0.406   5.507
 7577SOL    HW123630   4.769   0.390   5.525
 7577SOL    HW223631   4.619   0.332   5.548
 7578SOL     OW23632   2.516   4.544   4.368
 7578SOL    HW123633   2.506   4.451   4.404
 7578SOL    HW223634   2.432   4.569   4.318
 7579SOL     OW23635   3.778   1.407   3.253
 7579SOL    HW123636   3.791   1.331   3.190
 7579SOL    HW223637   3.768   1.492   3.201
 7580SOL     OW23638   1.860   4.127   3.378
 7580SOL    HW123639   1.792   4.095   3.313
 7580SOL    HW223640   1.814   4.161   3.460
 7581SOL     OW23641   5.845   0.623   1.090
 7581SOL    HW123642   5.922   0.675   1.053
 7581SOL    HW223643   5.779   0.603   1.018
 7582SOL     OW23644   2.651   1.134   0.957
 7582SOL    HW123645   2.668   1.137   1.055
 7582SOL    HW223646   2.553   1.122   0.940
 7583SOL     OW23647   0.457   3.620   2.473
 7583SOL    HW123648   0.540   3.676   2.472
 7583SOL    HW223649   0.377   3.678   2.485
 7584SOL     OW23650   2.348   0.975   1.400
 7584SOL    HW123651   2.382   0.889   1.439
 7584SOL    HW223652   2.282   0.955   1.328
 7585SOL     OW23653   1.510   4.729   5.664
 7585SOL    HW123654   1.597   4.717   5.712
 7585SOL    HW223655   1.449   4.787   5.718
 7586SOL     OW23656   2.544   1.191   2.158
 7586SOL    HW123657   2.580   1.183   2.065
 7586SOL    HW223658   2.445   1.202   2.155
 7587SOL     OW23659   1.866   1.211   6.464
 7587SOL    HW123660   1.774   1.242   6.439
 7587SOL    HW223661   1.916   1.187   6.381
 7588SOL     OW23662   0.032   4.016   1.226
 7588SOL    HW123663   0.015   4.052   1.135
 7588SOL    HW223664   0.113   3.958   1.225
 7589SOL     OW23665   5.851   6.129   0.488
 7589SOL    HW123666   5.910   6.101   0.412
 7589SOL    HW223667   5.825   6.225   0.476
 7590SOL     OW23668   1.971   1.138   6.200
 7590SOL    HW123669   2.054   1.084   6.195
 7590SOL    HW223670   1.961   1.192   6.117
 7591SOL     OW23671   6.652   4.883   0.349
 7591SOL    HW123672   6.699   4.851   0.431
 7591SOL    HW223673   6.553   4.879   0.364
 7592SOL     OW23674   5.444   5.441   0.226
 7592SOL    HW123675   5.407   5.532   0.247
 7592SOL    HW223676   5.484   5.402   0.309
 7593SOL     OW23677   5.839   2.646   6.266
 7593SOL    HW123678   5.832   2.568   6.328
 7593SOL    HW223679   5.935   2.668   6.250
 7594SOL     OW23680   1.524   5.867   4.037
 7594SOL    HW123681   1.562   5.774   4.043
 7594SOL    HW223682   1.439   5.865   3.985
 7595SOL     OW23683   6.296   2.938   0.026
 7595SOL    HW123684   6.244   3.023   0.018
 7595SOL    HW223685   6.382   2.955   0.072
 7596SOL     OW23686   5.299   4.455   1.962
 7596SOL    HW123687   5.296   4.554   1.978
 7596SOL    HW223688   5.301   4.408   2.050
 7597SOL     OW23689   3.240   5.382   1.597
 7597SOL    HW123690   3.151   5.424   1.616
 7597SOL    HW223691   3.313   5.449   1.615
 7598SOL     OW23692   6.347   1.140   3.360
 7598SOL    HW123693   6.307   1.187   3.281
 7598SOL    HW223694   6.347   1.042   3.343
 7599SOL     OW23695   6.527   2.377   2.120
 7599SOL    HW123696   6.490   2.401   2.210
 7599SOL    HW223697   6.453   2.361   2.056
 7600SOL     OW23698   1.774   1.990   1.651
 7600SOL    HW123699   1.793   2.084   1.623
 7600SOL    HW223700   1.836   1.928   1.603
 7601SOL     OW23701   2.668   6.432   5.297
 7601SOL    HW123702   2.761   6.404   5.270
 7601SOL    HW223703   2.626   6.484   5.223
 7602SOL     OW23704   1.900   3.634   4.700
 7602SOL    HW123705   1.827   3.699   4.677
 7602SOL    HW223706   1.876   3.544   4.665
 7603SOL     OW23707   0.816   0.489   1.852
 7603SOL    HW123708   0.732   0.443   1.879
 7603SOL    HW223709   0.875   0.425   1.803
 7604SOL     OW23710   5.019   6.425   6.360
 7604SOL    HW123711   5.030   6.486   6.438
 7604SOL    HW223712   4.940   6.365   6.375
 7605SOL     OW23713   5.766   4.419   6.137
 7605SOL    HW123714   5.723   4.457   6.055
 7605SOL    HW223715   5.698   4.409   6.209
 7606SOL     OW23716   5.756   2.101   2.251
 7606SOL    HW123717   5.752   2.158   2.169
 7606SOL    HW223718   5.764   2.159   2.332
 7607SOL     OW23719   5.280   6.679   6.783
 7607SOL    HW123720   5.229   6.757   6.819
 7607SOL    HW223721   5.316   6.625   6.859
 7608SOL     OW23722   3.493   2.847   3.464
 7608SOL    HW123723   3.574   2.851   3.407
 7608SOL    HW223724   3.412   2.872   3.410
 7609SOL     OW23725   1.298   2.986   4.581
 7609SOL    HW123726   1.385   2.974   4.535
 7609SOL    HW223727   1.247   3.061   4.538
 7610SOL     OW23728   5.056   7.003   1.387
 7610SOL    HW123729   5.025   6.919   1.342
 7610SOL    HW223730   4.985   0.048   1.377
 7611SOL     OW23731   1.864   1.989   1.313
 7611SOL    HW123732   1.958   1.957   1.326
 7611SOL    HW223733   1.814   1.923   1.256
 7612SOL     OW23734   4.151   1.360   3.130
 7612SOL    HW123735   4.104   1.443   3.160
 7612SOL    HW223736   4.162   1.363   3.031
 7613SOL     OW23737   4.669   1.038   2.192
 7613SOL    HW123738   4.600   0.971   2.218
 7613SOL    HW223739   4.645   1.127   2.230
 7614SOL     OW23740   4.155   1.949   0.460
 7614SOL    HW123741   4.088   1.878   0.439
 7614SOL    HW223742   4.128   1.997   0.543
 7615SOL     OW23743   3.561   5.075   5.598
 7615SOL    HW123744   3.601   5.122   5.677
 7615SOL    HW223745   3.634   5.045   5.537
 7616SOL     OW23746   6.173   4.711   4.012
 7616SOL    HW123747   6.091   4.741   4.059
 7616SOL    HW223748   6.171   4.612   4.000
 7617SOL     OW23749   3.326   5.766   2.381
 7617SOL    HW123750   3.322   5.841   2.447
 7617SOL    HW223751   3.235   5.753   2.341
 7618SOL     OW23752   1.527   2.840   0.765
 7618SOL    HW123753   1.445   2.789   0.738
 7618SOL    HW223754   1.506   2.900   0.842
 7619SOL     OW23755   6.009   3.436   5.411
 7619SOL    HW123756   5.995   3.342   5.444
 7619SOL    HW223757   5.944   3.497   5.456
 7620SOL     OW23758   3.344   6.718   1.910
 7620SOL    HW123759   3.312   6.654   1.840
 7620SOL    HW223760   3.443   6.711   1.918
 7621SOL     OW23761   2.360   1.497   1.922
 7621SOL    HW123762   2.387   1.586   1.884
 7621SOL    HW223763   2.441   1.452   1.961
 7622SOL     OW23764   4.751   2.372   0.397
 7622SOL    HW123765   4.683   2.303   0.371
 7622SOL    HW223766   4.814   2.388   0.321
 7623SOL     OW23767   5.181   0.444   5.278
 7623SOL    HW123768   5.141   0.361   5.242
 7623SOL    HW223769   5.218   0.427   5.369
 7624SOL     OW23770   0.402   0.298   3.451
 7624SOL    HW123771   0.441   0.389   3.438
 7624SOL    HW223772   0.453   0.250   3.522
 7625SOL     OW23773   4.574   0.299   1.545
 7625SOL    HW123774   4.481   0.261   1.542
 7625SOL    HW223775   4.593   0.331   1.638
 7626SOL     OW23776   1.554   5.325   4.751
 7626SOL    HW123777   1.583   5.240   4.794
 7626SOL    HW223778   1.635   5.379   4.728
 7627SOL     OW23779   6.981   2.661   0.233
 7627SOL    HW123780   6.916   2.612   0.291
 7627SOL    HW223781   0.039   2.678   0.285
 7628SOL     OW23782   3.542   1.888   1.085
 7628SOL    HW123783   3.478   1.910   1.011
 7628SOL    HW223784   3.576   1.795   1.074
 7629SOL     OW23785   6.321   5.471   3.724
 7629SOL    HW123786   6.288   5.562   3.749
 7629SOL    HW223787   6.396   5.480   3.658
 7630SOL     OW23788   6.332   0.664   2.415
 7630SOL    HW123789   6.415   0.610   2.413
 7630SOL    HW223790   6.320   0.704   2.506
 7631SOL     OW23791   0.558   2.334   3.742
 7631SOL    HW123792   0.560   2.236   3.723
 7631SOL    HW223793   0.472   2.356   3.787
 7632SOL     OW23794   4.561   1.612   6.867
 7632SOL    HW123795   4.589   1.680   6.934
 7632SOL    HW223796   4.586   1.642   6.775
 7633SOL     OW23797   5.283   4.294   6.698
 7633SOL    HW123798   5.255   4.374   6.752
 7633SOL    HW223799   5.315   4.222   6.760
 7634SOL     OW23800   0.950   1.661   2.346
 7634SOL    HW123801   0.952   1.649   2.246
 7634SOL    HW223802   0.910   1.580   2.388
 7635SOL     OW23803   2.888   4.643   5.536
 7635SOL    HW123804   2.822   4.679   5.470
 7635SOL    HW223805   2.950   4.716   5.564
 7636SOL     OW23806   1.259   0.409   4.060
 7636SOL    HW123807   1.339   0.396   4.118
 7636SOL    HW223808   1.231   0.505   4.062
 7637SOL     OW23809   1.973   5.977   4.288
 7637SOL    HW123810   2.015   5.893   4.251
 7637SOL    HW223811   1.893   6.001   4.232
 7638SOL     OW23812   4.814   4.978   2.009
 7638SOL    HW123813   4.764   4.892   2.022
 7638SOL    HW223814   4.756   5.055   2.038
 7639SOL     OW23815   1.040   1.738   4.485
 7639SOL    HW123816   0.987   1.803   4.431
 7639SOL    HW223817   1.002   1.646   4.474
 7640SOL     OW23818   2.573   2.343   6.817
 7640SOL    HW123819   2.665   2.305   6.809
 7640SOL    HW223820   2.551   2.395   6.734
 7641SOL     OW23821   6.456   3.639   2.731
 7641SOL    HW123822   6.507   3.714   2.688
 7641SOL    HW223823   6.520   3.569   2.761
 7642SOL     OW23824   2.798   1.648   2.876
 7642SOL    HW123825   2.872   1.621   2.815
 7642SOL    HW223826   2.739   1.713   2.829
 7643SOL     OW23827   4.667   2.739   3.012
 7643SOL    HW123828   4.737   2.779   3.072
 7643SOL    HW223829   4.581   2.731   3.063
 7644SOL     OW23830   0.267   3.654   3.209
 7644SOL    HW123831   0.329   3.577   3.194
 7644SOL    HW223832   0.207   3.663   3.130
 7645SOL     OW23833   4.968   4.028   6.669
 7645SOL    HW123834   4.979   3.978   6.755
 7645SOL    HW223835   5.051   4.019   6.615
 7646SOL     OW23836   1.585   1.964   2.651
 7646SOL    HW123837   1.494   1.935   2.619
 7646SOL    HW223838   1.649   1.962   2.574
 7647SOL     OW23839   2.118   4.307   1.348
 7647SOL    HW123840   2.166   4.381   1.302
 7647SOL    HW223841   2.031   4.289   1.302
 7648SOL     OW23842   4.128   0.740   3.386
 7648SOL    HW123843   4.199   0.773   3.324
 7648SOL    HW223844   4.039   0.751   3.343
 7649SOL     OW23845   2.988   0.665   1.354
 7649SOL    HW123846   2.903   0.614   1.365
 7649SOL    HW223847   2.991   0.740   1.420
 7650SOL     OW23848   6.247   4.905   2.661
 7650SOL    HW123849   6.273   4.983   2.719
 7650SOL    HW223850   6.320   4.836   2.665
 7651SOL     OW23851   3.973   1.412   6.174
 7651SOL    HW123852   3.908   1.349   6.131
 7651SOL    HW223853   3.982   1.390   6.271
 7652SOL     OW23854   1.126   2.889   2.609
 7652SOL    HW123855   1.144   2.885   2.707
 7652SOL    HW223856   1.103   2.798   2.575
 7653SOL     OW23857   3.181   2.213   1.074
 7653SOL    HW123858   3.207   2.216   1.171
 7653SOL    HW223859   3.226   2.287   1.025
 7654SOL     OW23860   4.917   3.579   3.574
 7654SOL    HW123861   4.985   3.507   3.586
 7654SOL    HW223862   4.889   3.614   3.664
 7655SOL     OW23863   4.527   6.279   5.636
 7655SOL    HW123864   4.489   6.367   5.664
 7655SOL    HW223865   4.608   6.295   5.579
 7656SOL     OW23866   1.146   6.412   4.831
 7656SOL    HW123867   1.164   6.319   4.860
 7656SOL    HW223868   1.232   6.461   4.821
 7657SOL     OW23869   4.419   1.188   4.183
 7657SOL    HW123870   4.500   1.133   4.203
 7657SOL    HW223871   4.415   1.207   4.084
 7658SOL     OW23872   3.964   0.436   6.010
 7658SOL    HW123873   3.984   0.477   5.921
 7658SOL    HW223874   4.043   0.384   6.042
 7659SOL     OW23875   5.759   0.146   1.116
 7659SOL    HW123876   5.841   0.095   1.087
 7659SOL    HW223877   5.782   0.243   1.125
 7660SOL     OW23878   5.821   4.565   4.570
 7660SOL    HW123879   5.763   4.488   4.600
 7660SOL    HW223880   5.902   4.529   4.524
 7661SOL     OW23881   5.674   3.144   3.331
 7661SOL    HW123882   5.576   3.141   3.354
 7661SOL    HW223883   5.727   3.103   3.404
 7662SOL     OW23884   0.001   5.279   2.111
 7662SOL    HW123885   0.081   5.314   2.063
 7662SOL    HW223886   6.955   5.257   2.045
 7663SOL     OW23887   0.086   5.488   0.550
 7663SOL    HW123888   0.158   5.513   0.486
 7663SOL    HW223889   0.018   5.431   0.503
 7664SOL     OW23890   2.111   5.360   3.961
 7664SOL    HW123891   2.197   5.316   3.985
 7664SOL    HW223892   2.126   5.458   3.946
 7665SOL     OW23893   2.835   6.777   4.961
 7665SOL    HW123894   2.891   6.697   4.941
 7665SOL    HW223895   2.877   6.830   5.034
 7666SOL     OW23896   0.872   0.857   0.945
 7666SOL    HW123897   0.773   0.855   0.951
 7666SOL    HW223898   0.900   0.881   0.852
 7667SOL     OW23899   4.749   5.771   6.463
 7667SOL    HW123900   4.678   5.715   6.420
 7667SOL    HW223901   4.833   5.767   6.408
 7668SOL     OW23902   3.313   3.689   1.105
 7668SOL    HW123903   3.389   3.753   1.117
 7668SOL    HW223904   3.271   3.669   1.193
 7669SOL     OW23905   5.105   6.452   4.183
 7669SOL    HW123906   5.055   6.387   4.126
 7669SOL    HW223907   5.080   6.545   4.157
 7670SOL     OW23908   1.843   4.688   0.779
 7670SOL    HW123909   1.761   4.652   0.735
 7670SOL    HW223910   1.846   4.655   0.874
 7671SOL     OW23911   6.008   2.274   4.376
 7671SOL    HW123912   6.065   2.345   4.333
 7671SOL    HW223913   5.964   2.312   4.458
 7672SOL     OW23914   5.275   1.115   2.758
 7672SOL    HW123915   5.299   1.139   2.664
 7672SOL    HW223916   5.349   1.060   2.799
 7673SOL     OW23917   0.644   4.885   1.267
 7673SOL    HW123918   0.581   4.925   1.201
 7673SOL    HW223919   0.617   4.790   1.286
 7674SOL     OW23920   5.971   0.883   4.835
 7674SOL    HW123921   6.006   0.896   4.928
 7674SOL    HW223922   5.876   0.850   4.840
 7675SOL     OW23923   4.397   6.194   3.716
 7675SOL    HW123924   4.453   6.193   3.633
 7675SOL    HW223925   4.441   6.251   3.785
 7676SOL     OW23926   1.757   0.010   1.073
 7676SOL    HW123927   1.720   0.056   1.154
 7676SOL    HW223928   1.768   6.938   1.093
 7677SOL     OW23929   2.286   2.891   2.869
 7677SOL    HW123930   2.232   2.947   2.932
 7677SOL    HW223931   2.320   2.947   2.794
 7678SOL     OW23932   5.922   6.939   0.334
 7678SOL    HW123933   5.911   6.840   0.329
 7678SOL    HW223934   5.844   6.984   0.290
 7679SOL     OW23935   1.116   5.031   5.364
 7679SOL    HW123936   1.104   5.063   5.457
 7679SOL    HW223937   1.051   5.077   5.303
 7680SOL     OW23938   4.128   2.335   6.753
 7680SOL    HW123939   4.179   2.412   6.716
 7680SOL    HW223940   4.180   2.292   6.827
 7681SOL     OW23941   2.665   1.701   6.909
 7681SOL    HW123942   2.583   1.654   6.875
 7681SOL    HW223943   2.659   1.710   7.008
 7682SOL     OW23944   3.627   7.011   1.444
 7682SOL    HW123945   3.580   0.050   1.384
 7682SOL    HW223946   3.562   6.970   1.507
 7683SOL     OW23947   5.336   1.778   3.325
 7683SOL    HW123948   5.373   1.685   3.332
 7683SOL    HW223949   5.314   1.797   3.230
 7684SOL     OW23950   4.302   2.105   6.314
 7684SOL    HW123951   4.326   2.111   6.217
 7684SOL    HW223952   4.203   2.094   6.324
 7685SOL     OW23953   3.502   3.016   0.914
 7685SOL    HW123954   3.447   2.932   0.918
 7685SOL    HW223955   3.446   3.091   0.879
 7686SOL     OW23956   3.654   0.092   3.972
 7686SOL    HW123957   3.614   0.001   3.983
 7686SOL    HW223958   3.581   0.158   3.952
 7687SOL     OW23959   4.817   4.962   5.575
 7687SOL    HW123960   4.823   4.867   5.543
 7687SOL    HW223961   4.910   4.997   5.591
 7688SOL     OW23962   6.820   6.101   4.486
 7688SOL    HW123963   6.787   6.010   4.458
 7688SOL    HW223964   6.920   6.100   4.491
 7689SOL     OW23965   3.874   6.245   4.610
 7689SOL    HW123966   3.816   6.301   4.669
 7689SOL    HW223967   3.816   6.196   4.545
 7690SOL     OW23968   0.227   5.599   3.340
 7690SOL    HW123969   0.322   5.574   3.318
 7690SOL    HW223970   0.193   5.664   3.272
 7691SOL     OW23971   4.993   3.698   4.447
 7691SOL    HW123972   4.950   3.704   4.357
 7691SOL    HW223973   4.955   3.619   4.497
 7692SOL     OW23974   2.500   6.724   1.880
 7692SOL    HW123975   2.402   6.741   1.876
 7692SOL    HW223976   2.549   6.810   1.891
 7693SOL     OW23977   5.336   1.765   6.738
 7693SOL    HW123978   5.256   1.720   6.700
 7693SOL    HW223979   5.342   1.858   6.701
 7694SOL     OW23980   6.930   5.150   4.536
 7694SOL    HW123981   6.956   5.059   4.569
 7694SOL    HW223982   7.009   5.194   4.495
 7695SOL     OW23983   4.077   0.855   0.273
 7695SOL    HW123984   3.987   0.818   0.250
 7695SOL    HW223985   4.107   0.818   0.361
 7696SOL     OW23986   0.631   3.143   5.797
 7696SOL    HW123987   0.661   3.238   5.799
 7696SOL    HW223988   0.532   3.140   5.794
 7697SOL     OW23989   3.747   1.842   1.826
 7697SOL    HW123990   3.738   1.902   1.747
 7697SOL    HW223991   3.663   1.787   1.836
 7698SOL     OW23992   6.900   3.390   5.775
 7698SOL    HW123993   6.952   3.380   5.860
 7698SOL    HW223994   6.961   3.418   5.701
 7699SOL     OW23995   2.361   4.890   6.832
 7699SOL    HW123996   2.325   4.885   6.925
 7699SOL    HW223997   2.425   4.815   6.817
 7700SOL     OW23998   5.215   6.354   4.847
 7700SOL    HW123999   5.143   6.286   4.837
 7700SOL    HW224000   5.249   6.353   4.941
 7701SOL     OW24001   5.849   1.913   4.834
 7701SOL    HW124002   5.904   1.832   4.853
 7701SOL    HW224003   5.909   1.993   4.825
 7702SOL     OW24004   2.282   6.588   6.280
 7702SOL    HW124005   2.200   6.538   6.308
 7702SOL    HW224006   2.273   6.616   6.185
 7703SOL     OW24007   0.349   1.531   6.434
 7703SOL    HW124008   0.302   1.452   6.393
 7703SOL    HW224009   0.446   1.509   6.447
 7704SOL     OW24010   4.733   4.153   0.332
 7704SOL    HW124011   4.818   4.108   0.359
 7704SOL    HW224012   4.698   4.206   0.409
 7705SOL     OW24013   2.871   5.213   5.121
 7705SOL    HW124014   2.882   5.292   5.061
 7705SOL    HW224015   2.941   5.145   5.100
 7706SOL     OW24016   6.917   1.011   4.704
 7706SOL    HW124017   6.982   1.067   4.755
 7706SOL    HW224018   6.967   0.950   4.641
 7707SOL     OW24019   0.492   4.995   6.091
 7707SOL    HW124020   0.419   4.986   6.159
 7707SOL    HW224021   0.512   5.092   6.077
 7708SOL     OW24022   4.155   6.533   4.625
 7708SOL    HW124023   4.097   6.528   4.544
 7708SOL    HW224024   4.112   6.482   4.700
 7709SOL     OW24025   3.818   2.028   2.068
 7709SOL    HW124026   3.751   2.102   2.062
 7709SOL    HW224027   3.813   1.971   1.986
 7710SOL     OW24028   2.358   1.836   7.009
 7710SOL    HW124029   2.334   1.868   0.075
 7710SOL    HW224030   2.293   1.873   6.943
 7711SOL     OW24031   5.641   6.586   6.505
 7711SOL    HW124032   5.715   6.581   6.572
 7711SOL    HW224033   5.680   6.593   6.413
 7712SOL     OW24034   5.246   5.572   1.382
 7712SOL    HW124035   5.186   5.566   1.462
 7712SOL    HW224036   5.198   5.620   1.309
 7713SOL     OW24037   1.505   4.803   6.619
 7713SOL    HW124038   1.435   4.840   6.680
 7713SOL    HW224039   1.579   4.869   6.610
 7714SOL     OW24040   5.633   4.478   3.843
 7714SOL    HW124041   5.548   4.517   3.879
 7714SOL    HW224042   5.707   4.544   3.853
 7715SOL     OW24043   4.716   1.187   0.823
 7715SOL    HW124044   4.778   1.226   0.755
 7715SOL    HW224045   4.658   1.259   0.861
 7716SOL     OW24046   4.572   2.261   3.258
 7716SOL    HW124047   4.482   2.294   3.229
 7716SOL    HW224048   4.626   2.236   3.178
 7717SOL     OW24049   3.276   1.438   6.288
 7717SOL    HW124050   3.178   1.458   6.295
 7717SOL    HW224051   3.290   1.360   6.227
 7718SOL     OW24052   2.928   5.990   3.992
 7718SOL    HW124053   3.018   6.012   4.030
 7718SOL    HW224054   2.907   6.054   3.918
 7719SOL     OW24055   6.602   2.104   4.204
 7719SOL    HW124056   6.666   2.160   4.151
 7719SOL    HW224057   6.546   2.050   4.142
 7720SOL     OW24058   5.599   5.527   2.080
 7720SOL    HW124059   5.566   5.541   2.173
 7720SOL    HW224060   5.666   5.452   2.079
 7721SOL     OW24061   1.826   4.378   2.801
 7721SOL    HW124062   1.739   4.428   2.804
 7721SOL    HW224063   1.901   4.442   2.789
 7722SOL     OW24064   6.802   5.449   4.151
 7722SOL    HW124065   6.837   5.373   4.097
 7722SOL    HW224066   6.827   5.436   4.247
 7723SOL     OW24067   6.597   3.481   0.368
 7723SOL    HW124068   6.616   3.395   0.321
 7723SOL    HW224069   6.624   3.558   0.310
 7724SOL     OW24070   1.791   4.614   1.047
 7724SOL    HW124071   1.708   4.565   1.077
 7724SOL    HW224072   1.794   4.703   1.092
 7725SOL     OW24073   4.948   3.148   4.645
 7725SOL    HW124074   4.971   3.106   4.557
 7725SOL    HW224075   5.014   3.220   4.665
 7726SOL     OW24076   6.745   4.679   3.633
 7726SOL    HW124077   6.706   4.728   3.554
 7726SOL    HW224078   6.804   4.740   3.685
 7727SOL     OW24079   6.774   2.563   1.700
 7727SOL    HW124080   6.860   2.613   1.705
 7727SOL    HW224081   6.777   2.497   1.625
 7728SOL     OW24082   2.588   2.404   2.999
 7728SOL    HW124083   2.494   2.435   3.013
 7728SOL    HW224084   2.610   2.407   2.901
 7729SOL     OW24085   5.499   2.261   0.574
 7729SOL    HW124086   5.424   2.326   0.568
 7729SOL    HW224087   5.582   2.301   0.534
 7730SOL     OW24088   5.476   0.751   2.287
 7730SOL    HW124089   5.466   0.718   2.382
 7730SOL    HW224090   5.529   0.836   2.287
 7731SOL     OW24091   6.092   1.459   6.549
 7731SOL    HW124092   6.017   1.447   6.485
 7731SOL    HW224093   6.093   1.553   6.583
 7732SOL     OW24094   4.389   4.985   0.831
 7732SOL    HW124095   4.471   5.038   0.809
 7732SOL    HW224096   4.338   4.966   0.748
 7733SOL     OW24097   3.247   0.284   2.249
 7733SOL    HW124098   3.254   0.371   2.298
 7733SOL    HW224099   3.153   0.250   2.257
 7734SOL     OW24100   2.087   1.912   3.321
 7734SOL    HW124101   2.117   1.934   3.414
 7734SOL    HW224102   2.160   1.863   3.273
 7735SOL     OW24103   5.033   4.136   0.096
 7735SOL    HW124104   5.020   4.106   0.191
 7735SOL    HW224105   4.956   4.194   0.069
 7736SOL     OW24106   6.384   4.724   6.507
 7736SOL    HW124107   6.318   4.746   6.578
 7736SOL    HW224108   6.445   4.651   6.538
 7737SOL     OW24109   4.888   1.233   0.631
 7737SOL    HW124110   4.954   1.304   0.654
 7737SOL    HW224111   4.827   1.266   0.559
 7738SOL     OW24112   2.726   4.985   6.786
 7738SOL    HW124113   2.817   5.004   6.823
 7738SOL    HW224114   2.659   4.989   6.861
 7739SOL     OW24115   6.200   3.205   1.478
 7739SOL    HW124116   6.113   3.167   1.510
 7739SOL    HW224117   6.275   3.166   1.532
 7740SOL     OW24118   0.306   6.539   3.124
 7740SOL    HW124119   0.378   6.470   3.124
 7740SOL    HW224120   0.348   6.630   3.121
 7741SOL     OW24121   2.389   5.458   4.436
 7741SOL    HW124122   2.467   5.422   4.384
 7741SOL    HW224123   2.410   5.456   4.533
 7742SOL     OW24124   6.345   0.964   3.834
 7742SOL    HW124125   6.357   1.062   3.849
 7742SOL    HW224126   6.421   0.929   3.778
 7743SOL     OW24127   4.321   2.352   3.193
 7743SOL    HW124128   4.302   2.377   3.288
 7743SOL    HW224129   4.239   2.310   3.153
 7744SOL     OW24130   6.913   0.278   4.891
 7744SOL    HW124131   6.878   0.220   4.817
 7744SOL    HW224132   7.005   0.249   4.915
 7745SOL     OW24133   4.674   3.839   5.952
 7745SOL    HW124134   4.718   3.896   6.021
 7745SOL    HW224135   4.695   3.743   5.970
 7746SOL     OW24136   1.673   0.748   0.302
 7746SOL    HW124137   1.751   0.700   0.262
 7746SOL    HW224138   1.675   0.738   0.401
 7747SOL     OW24139   5.692   5.850   1.099
 7747SOL    HW124140   5.723   5.938   1.135
 7747SOL    HW224141   5.755   5.778   1.127
 7748SOL     OW24142   3.157   3.779   6.836
 7748SOL    HW124143   3.244   3.814   6.799
 7748SOL    HW224144   3.130   3.697   6.785
 7749SOL     OW24145   6.176   3.301   5.988
 7749SOL    HW124146   6.114   3.257   5.923
 7749SOL    HW224147   6.263   3.251   5.988
 7750SOL     OW24148   5.754   4.673   2.407
 7750SOL    HW124149   5.757   4.575   2.428
 7750SOL    HW224150   5.695   4.720   2.473
 7751SOL     OW24151   0.564   2.563   2.059
 7751SOL    HW124152   0.636   2.626   2.090
 7751SOL    HW224153   0.539   2.502   2.134
 7752SOL     OW24154   5.060   2.135   3.490
 7752SOL    HW124155   4.971   2.153   3.450
 7752SOL    HW224156   5.056   2.150   3.589
 7753SOL     OW24157   3.511   1.730   4.682
 7753SOL    HW124158   3.586   1.682   4.638
 7753SOL    HW224159   3.438   1.665   4.705
 7754SOL     OW24160   5.011   6.460   2.294
 7754SOL    HW124161   4.944   6.452   2.368
 7754SOL    HW224162   5.079   6.529   2.318
 7755SOL     OW24163   0.553   5.021   4.617
 7755SOL    HW124164   0.499   4.990   4.539
 7755SOL    HW224165   0.524   4.972   4.699
 7756SOL     OW24166   2.938   5.093   2.099
 7756SOL    HW124167   2.958   4.996   2.085
 7756SOL    HW224168   2.972   5.121   2.189
 7757SOL     OW24169   0.338   4.401   2.079
 7757SOL    HW124170   0.299   4.316   2.043
 7757SOL    HW224171   0.291   4.479   2.037
 7758SOL     OW24172   1.509   1.581   5.415
 7758SOL    HW124173   1.566   1.518   5.362
 7758SOL    HW224174   1.429   1.607   5.361
 7759SOL     OW24175   2.543   2.213   0.871
 7759SOL    HW124176   2.455   2.174   0.846
 7759SOL    HW224177   2.533   2.312   0.886
 7760SOL     OW24178   4.644   2.741   0.228
 7760SOL    HW124179   4.630   2.671   0.298
 7760SOL    HW224180   4.719   2.801   0.256
 7761SOL     OW24181   4.989   5.370   4.114
 7761SOL    HW124182   5.001   5.397   4.210
 7761SOL    HW224183   4.912   5.307   4.106
 7762SOL     OW24184   6.107   1.895   2.172
 7762SOL    HW124185   6.044   1.877   2.247
 7762SOL    HW224186   6.195   1.925   2.209
 7763SOL     OW24187   2.434   0.154   4.131
 7763SOL    HW124188   2.339   0.165   4.100
 7763SOL    HW224189   2.485   0.101   4.063
 7764SOL     OW24190   2.357   3.832   6.105
 7764SOL    HW124191   2.401   3.809   6.018
 7764SOL    HW224192   2.334   3.929   6.105
 7765SOL     OW24193   5.785   2.808   4.837
 7765SOL    HW124194   5.793   2.908   4.830
 7765SOL    HW224195   5.748   2.785   4.927
 7766SOL     OW24196   5.882   3.977   6.277
 7766SOL    HW124197   5.813   3.997   6.347
 7766SOL    HW224198   5.858   3.893   6.228
 7767SOL     OW24199   3.335   0.516   3.932
 7767SOL    HW124200   3.269   0.532   3.858
 7767SOL    HW224201   3.388   0.599   3.948
 7768SOL     OW24202   4.298   5.160   3.674
 7768SOL    HW124203   4.288   5.167   3.575
 7768SOL    HW224204   4.359   5.232   3.707
 7769SOL     OW24205   3.941   2.791   5.515
 7769SOL    HW124206   4.004   2.717   5.492
 7769SOL    HW224207   3.887   2.815   5.435
 7770SOL     OW24208   1.837   2.969   4.393
 7770SOL    HW124209   1.909   2.931   4.451
 7770SOL    HW224210   1.804   2.899   4.330
 7771SOL     OW24211   2.506   3.361   6.589
 7771SOL    HW124212   2.520   3.336   6.493
 7771SOL    HW224213   2.511   3.280   6.646
 7772SOL     OW24214   5.615   6.982   1.916
 7772SOL    HW124215   5.634   0.055   1.923
 7772SOL    HW224216   5.516   6.967   1.911
 7773SOL     OW24217   3.016   6.024   0.223
 7773SOL    HW124218   2.920   6.053   0.224
 7773SOL    HW224219   3.071   6.094   0.179
 7774SOL     OW24220   4.685   1.359   2.540
 7774SOL    HW124221   4.691   1.351   2.440
 7774SOL    HW224222   4.771   1.395   2.576
 7775SOL     OW24223   2.582   1.708   1.371
 7775SOL    HW124224   2.500   1.723   1.316
 7775SOL    HW224225   2.558   1.659   1.454
 7776SOL     OW24226   1.652   1.316   4.448
 7776SOL    HW124227   1.602   1.326   4.533
 7776SOL    HW224228   1.677   1.406   4.413
 7777SOL     OW24229   5.798   5.717   4.049
 7777SOL    HW124230   5.849   5.636   4.079
 7777SOL    HW224231   5.700   5.702   4.064
 7778SOL     OW24232   6.909   4.834   3.048
 7778SOL    HW124233   6.829   4.844   3.107
 7778SOL    HW224234   6.922   4.919   2.996
 7779SOL     OW24235   4.725   6.199   1.468
 7779SOL    HW124236   4.667   6.123   1.439
 7779SOL    HW224237   4.669   6.280   1.485
 7780SOL     OW24238   5.835   6.393   4.967
 7780SOL    HW124239   5.933   6.411   4.955
 7780SOL    HW224240   5.813   6.392   5.065
 7781SOL     OW24241   1.475   2.994   0.970
 7781SOL    HW124242   1.535   3.056   1.021
 7781SOL    HW224243   1.383   2.998   1.009
 7782SOL     OW24244   5.119   2.498   4.774
 7782SOL    HW124245   5.030   2.477   4.733
 7782SOL    HW224246   5.174   2.415   4.777
 7783SOL     OW24247   1.752   6.616   4.343
 7783SOL    HW124248   1.851   6.625   4.333
 7783SOL    HW224249   1.727   6.519   4.344
 7784SOL     OW24250   1.565   1.848   1.758
 7784SOL    HW124251   1.645   1.899   1.724
 7784SOL    HW224252   1.485   1.870   1.702
 7785SOL     OW24253   6.967   6.573   3.311
 7785SOL    HW124254   0.003   6.641   3.352
 7785SOL    HW224255   6.939   6.507   3.380
 7786SOL     OW24256   4.250   1.206   5.227
 7786SOL    HW124257   4.263   1.303   5.206
 7786SOL    HW224258   4.323   1.152   5.185
 7787SOL     OW24259   2.624   2.398   1.800
 7787SOL    HW124260   2.618   2.314   1.854
 7787SOL    HW224261   2.720   2.421   1.785
 7788SOL     OW24262   6.850   4.650   1.229
 7788SOL    HW124263   6.887   4.643   1.322
 7788SOL    HW224264   6.756   4.615   1.228
 7789SOL     OW24265   3.158   1.511   5.953
 7789SOL    HW124266   3.255   1.516   5.927
 7789SOL    HW224267   3.102   1.556   5.884
 7790SOL     OW24268   4.275   4.466   1.732
 7790SOL    HW124269   4.258   4.388   1.671
 7790SOL    HW224270   4.325   4.435   1.813
 7791SOL     OW24271   2.892   5.719   2.658
 7791SOL    HW124272   2.937   5.808   2.663
 7791SOL    HW224273   2.896   5.674   2.748
 7792SOL     OW24274   0.378   1.663   3.081
 7792SOL    HW124275   0.335   1.574   3.064
 7792SOL    HW224276   0.309   1.728   3.114
 7793SOL     OW24277   5.132   0.585   0.341
 7793SOL    HW124278   5.121   0.492   0.307
 7793SOL    HW224279   5.095   0.650   0.275
 7794SOL     OW24280   1.119   6.945   3.197
 7794SOL    HW124281   1.155   6.854   3.175
 7794SOL    HW224282   1.072   6.942   3.285
 7795SOL     OW24283   3.219   5.149   0.294
 7795SOL    HW124284   3.256   5.183   0.380
 7795SOL    HW224285   3.195   5.053   0.303
 7796SOL     OW24286   3.191   2.766   0.109
 7796SOL    HW124287   3.123   2.818   0.058
 7796SOL    HW224288   3.179   2.781   0.207
 7797SOL     OW24289   0.564   5.728   3.470
 7797SOL    HW124290   0.592   5.688   3.558
 7797SOL    HW224291   0.554   5.827   3.480
 7798SOL     OW24292   1.472   3.428   0.440
 7798SOL    HW124293   1.529   3.411   0.520
 7798SOL    HW224294   1.446   3.525   0.437
 7799SOL     OW24295   2.848   5.874   3.465
 7799SOL    HW124296   2.790   5.913   3.537
 7799SOL    HW224297   2.930   5.835   3.507
 7800SOL     OW24298   0.550   6.508   2.439
 7800SOL    HW124299   0.596   6.569   2.503
 7800SOL    HW224300   0.535   6.419   2.482
 7801SOL     OW24301   1.469   1.814   2.005
 7801SOL    HW124302   1.487   1.846   1.912
 7801SOL    HW224303   1.387   1.859   2.041
 7802SOL     OW24304   6.750   3.636   4.466
 7802SOL    HW124305   6.695   3.715   4.441
 7802SOL    HW224306   6.816   3.662   4.536
 7803SOL     OW24307   3.154   2.357   5.571
 7803SOL    HW124308   3.142   2.258   5.575
 7803SOL    HW224309   3.115   2.391   5.486
 7804SOL     OW24310   3.607   2.116   5.142
 7804SOL    HW124311   3.669   2.044   5.111
 7804SOL    HW224312   3.528   2.120   5.080
 7805SOL     OW24313   5.148   3.373   0.035
 7805SOL    HW124314   5.202   3.385   6.977
 7805SOL    HW224315   5.182   3.434   0.107
 7806SOL     OW24316   0.040   1.371   5.866
 7806SOL    HW124317   7.022   1.281   5.855
 7806SOL    HW224318   0.065   1.407   5.776
 7807SOL     OW24319   1.941   4.868   6.162
 7807SOL    HW124320   2.010   4.911   6.103
 7807SOL    HW224321   1.917   4.931   6.236
 7808SOL     OW24322   6.997   3.839   2.941
 7808SOL    HW124323   6.955   3.771   3.001
 7808SOL    HW224324   0.015   3.910   2.997
 7809SOL     OW24325   4.760   5.471   2.651
 7809SOL    HW124326   4.858   5.469   2.668
 7809SOL    HW224327   4.731   5.565   2.634
 7810SOL     OW24328   2.684   6.665   6.235
 7810SOL    HW124329   2.655   6.750   6.279
 7810SOL    HW224330   2.706   6.682   6.139
 7811SOL     OW24331   1.227   6.154   3.231
 7811SOL    HW124332   1.220   6.089   3.155
 7811SOL    HW224333   1.297   6.122   3.295
 7812SOL     OW24334   2.994   1.533   6.296
 7812SOL    HW124335   2.938   1.481   6.361
 7812SOL    HW224336   2.937   1.565   6.220
 7813SOL     OW24337   5.297   0.511   0.538
 7813SOL    HW124338   5.262   0.464   0.619
 7813SOL    HW224339   5.220   0.542   0.482
 7814SOL     OW24340   6.612   3.208   2.549
 7814SOL    HW124341   6.688   3.261   2.510
 7814SOL    HW224342   6.547   3.185   2.476
 7815SOL     OW24343   5.850   4.654   5.432
 7815SOL    HW124344   5.823   4.667   5.527
 7815SOL    HW224345   5.943   4.618   5.428
 7816SOL     OW24346   0.765   1.367   5.606
 7816SOL    HW124347   0.722   1.284   5.641
 7816SOL    HW224348   0.834   1.399   5.672
 7817SOL     OW24349   3.980   2.525   0.048
 7817SOL    HW124350   3.888   2.530   0.086
 7817SOL    HW224351   4.029   2.448   0.090
 7818SOL     OW24352   5.985   0.459   3.362
 7818SOL    HW124353   5.889   0.485   3.350
 7818SOL    HW224354   6.002   0.372   3.316
 7819SOL     OW24355   1.463   3.135   4.760
 7819SOL    HW124356   1.547   3.163   4.713
 7819SOL    HW224357   1.390   3.123   4.692
 7820SOL     OW24358   0.922   0.180   4.972
 7820SOL    HW124359   0.988   0.106   4.964
 7820SOL    HW224360   0.857   0.159   5.045
 7821SOL     OW24361   4.176   6.487   0.462
 7821SOL    HW124362   4.196   6.450   0.553
 7821SOL    HW224363   4.186   6.415   0.394
 7822SOL     OW24364   0.029   1.545   4.977
 7822SOL    HW124365   7.011   1.455   4.976
 7822SOL    HW224366   0.127   1.535   4.990
 7823SOL     OW24367   2.417   3.482   5.516
 7823SOL    HW124368   2.466   3.400   5.487
 7823SOL    HW224369   2.350   3.508   5.446
 7824SOL     OW24370   5.370   3.334   3.115
 7824SOL    HW124371   5.403   3.417   3.160
 7824SOL    HW224372   5.310   3.284   3.178
 7825SOL     OW24373   3.673   3.498   2.148
 7825SOL    HW124374   3.683   3.401   2.128
 7825SOL    HW224375   3.605   3.539   2.087
 7826SOL     OW24376   6.769   0.258   1.488
 7826SOL    HW124377   6.706   0.284   1.415
 7826SOL    HW224378   6.733   0.179   1.537
 7827SOL     OW24379   4.604   3.369   0.794
 7827SOL    HW124380   4.519   3.403   0.836
 7827SOL    HW224381   4.591   3.359   0.696
 7828SOL     OW24382   0.574   5.624   0.535
 7828SOL    HW124383   0.572   5.609   0.634
 7828SOL    HW224384   0.634   5.556   0.492
 7829SOL     OW24385   4.014   3.403   2.938
 7829SOL    HW124386   4.077   3.466   2.893
 7829SOL    HW224387   3.932   3.393   2.883
 7830SOL     OW24388   6.133   3.568   0.089
 7830SOL    HW124389   6.132   3.611   0.179
 7830SOL    HW224390   6.227   3.559   0.056
 7831SOL     OW24391   2.005   2.524   6.649
 7831SOL    HW124392   1.992   2.615   6.689
 7831SOL    HW224393   1.919   2.491   6.612
 7832SOL     OW24394   2.705   2.559   5.166
 7832SOL    HW124395   2.626   2.619   5.159
 7832SOL    HW224396   2.738   2.558   5.261
 7833SOL     OW24397   1.582   6.697   0.832
 7833SOL    HW124398   1.501   6.703   0.890
 7833SOL    HW224399   1.609   6.789   0.802
 7834SOL     OW24400   0.119   0.328   1.566
 7834SOL    HW124401   0.051   0.329   1.493
 7834SOL    HW224402   0.165   0.417   1.570
 7835SOL     OW24403   2.843   2.049   4.247
 7835SOL    HW124404   2.906   1.979   4.280
 7835SOL    HW224405   2.751   2.011   4.243
 7836SOL     OW24406   1.957   0.898   6.568
 7836SOL    HW124407   1.956   0.841   6.651
 7836SOL    HW224408   1.871   0.948   6.561
 7837SOL     OW24409   5.137   6.544   3.066
 7837SOL    HW124410   5.126   6.642   3.047
 7837SOL    HW224411   5.064   6.493   3.021
 7838SOL     OW24412   3.307   6.801   4.227
 7838SOL    HW124413   3.397   6.843   4.214
 7838SOL    HW224414   3.251   6.860   4.285
 7839SOL     OW24415   0.030   4.925   3.998
 7839SOL    HW124416   0.089   4.864   3.945
 7839SOL    HW224417   0.078   5.011   4.017
 7840SOL     OW24418   5.214   2.977   5.508
 7840SOL    HW124419   5.157   3.027   5.442
 7840SOL    HW224420   5.308   2.974   5.475
 7841SOL     OW24421   1.216   1.851   6.453
 7841SOL    HW124422   1.145   1.870   6.385
 7841SOL    HW224423   1.306   1.868   6.413
 7842SOL     OW24424   2.677   1.020   2.358
 7842SOL    HW124425   2.774   1.029   2.336
 7842SOL    HW224426   2.624   1.084   2.302
 7843SOL     OW24427   6.487   3.380   1.074
 7843SOL    HW124428   6.456   3.471   1.045
 7843SOL    HW224429   6.415   3.337   1.129
 7844SOL     OW24430   4.017   1.264   4.216
 7844SOL    HW124431   3.995   1.213   4.299
 7844SOL    HW224432   4.038   1.200   4.142
 7845SOL     OW24433   1.075   0.708   3.949
 7845SOL    HW124434   1.149   0.713   3.882
 7845SOL    HW224435   1.005   0.777   3.927
 7846SOL     OW24436   3.514   6.860   2.181
 7846SOL    HW124437   3.457   6.788   2.221
 7846SOL    HW224438   3.470   6.949   2.194
 7847SOL     OW24439   6.709   0.483   0.280
 7847SOL    HW124440   6.803   0.511   0.261
 7847SOL    HW224441   6.654   0.565   0.300
 7848SOL     OW24442   4.449   4.304   0.808
 7848SOL    HW124443   4.373   4.284   0.869
 7848SOL    HW224444   4.515   4.229   0.812
 7849SOL     OW24445   5.807   3.930   4.994
 7849SOL    HW124446   5.778   3.947   4.900
 7849SOL    HW224447   5.845   4.013   5.034
 7850SOL     OW24448   0.717   1.105   4.477
 7850SOL    HW124449   0.641   1.129   4.416
 7850SOL    HW224450   0.803   1.135   4.437
 7851SOL     OW24451   4.577   6.704   0.219
 7851SOL    HW124452   4.517   6.624   0.226
 7851SOL    HW224453   4.567   6.760   0.301
 7852SOL     OW24454   1.881   6.861   0.055
 7852SOL    HW124455   1.807   6.928   0.046
 7852SOL    HW224456   1.895   6.814   6.993
 7853SOL     OW24457   2.166   3.142   0.774
 7853SOL    HW124458   2.158   3.048   0.740
 7853SOL    HW224459   2.263   3.167   0.779
 7854SOL     OW24460   3.373   4.008   2.847
 7854SOL    HW124461   3.424   4.068   2.908
 7854SOL    HW224462   3.341   4.060   2.768
 7855SOL     OW24463   3.557   0.062   5.586
 7855SOL    HW124464   3.628   0.054   5.656
 7855SOL    HW224465   3.508   0.148   5.598
 7856SOL     OW24466   4.428   3.455   6.215
 7856SOL    HW124467   4.495   3.399   6.166
 7856SOL    HW224468   4.340   3.407   6.217
 7857SOL     OW24469   0.790   2.162   4.532
 7857SOL    HW124470   0.848   2.139   4.611
 7857SOL    HW224471   0.835   2.133   4.448
 7858SOL     OW24472   6.206   4.502   3.183
 7858SOL    HW124473   6.214   4.542   3.092
 7858SOL    HW224474   6.279   4.536   3.241
 7859SOL     OW24475   0.685   6.129   6.402
 7859SOL    HW124476   0.599   6.081   6.382
 7859SOL    HW224477   0.733   6.081   6.476
 7860SOL     OW24478   3.613   0.202   1.655
 7860SOL    HW124479   3.654   0.129   1.600
 7860SOL    HW224480   3.648   0.291   1.626
 7861SOL     OW24481   5.422   4.060   0.493
 7861SOL    HW124482   5.387   4.099   0.577
 7861SOL    HW224483   5.513   4.020   0.509
 7862SOL     OW24484   3.435   4.369   1.555
 7862SOL    HW124485   3.363   4.307   1.523
 7862SOL    HW224486   3.514   4.363   1.493
 7863SOL     OW24487   6.042   5.742   2.432
 7863SOL    HW124488   5.984   5.733   2.513
 7863SOL    HW224489   6.096   5.826   2.440
 7864SOL     OW24490   0.558   5.812   4.297
 7864SOL    HW124491   0.572   5.736   4.360
 7864SOL    HW224492   0.478   5.794   4.240
 7865SOL     OW24493   3.274   0.509   2.394
 7865SOL    HW124494   3.307   0.484   2.485
 7865SOL    HW224495   3.216   0.590   2.401
 7866SOL     OW24496   2.480   2.655   4.082
 7866SOL    HW124497   2.516   2.742   4.048
 7866SOL    HW224498   2.383   2.664   4.102
 7867SOL     OW24499   5.590   4.109   2.572
 7867SOL    HW124500   5.516   4.071   2.517
 7867SOL    HW224501   5.556   4.135   2.662
 7868SOL     OW24502   5.337   6.934   1.046
 7868SOL    HW124503   5.243   6.912   1.019
 7868SOL    HW224504   5.336   7.000   1.121
 7869SOL     OW24505   6.925   2.124   3.571
 7869SOL    HW124506   7.016   2.165   3.558
 7869SOL    HW224507   6.933   2.025   3.575
 7870SOL     OW24508   0.263   6.211   3.154
 7870SOL    HW124509   0.274   6.220   3.055
 7870SOL    HW224510   0.210   6.288   3.189
 7871SOL     OW24511   5.893   3.482   4.098
 7871SOL    HW124512   5.849   3.480   4.188
 7871SOL    HW224513   5.870   3.398   4.048
 7872SOL     OW24514   6.553   3.270   3.855
 7872SOL    HW124515   6.591   3.210   3.785
 7872SOL    HW224516   6.610   3.265   3.937
 7873SOL     OW24517   6.747   5.034   5.302
 7873SOL    HW124518   6.791   4.945   5.289
 7873SOL    HW224519   6.712   5.041   5.395
 7874SOL     OW24520   6.457   0.868   0.392
 7874SOL    HW124521   6.380   0.806   0.405
 7874SOL    HW224522   6.490   0.901   0.481
 7875SOL     OW24523   4.680   3.578   6.790
 7875SOL    HW124524   4.608   3.546   6.852
 7875SOL    HW224525   4.642   3.646   6.727
 7876SOL     OW24526   6.442   0.863   4.753
 7876SOL    HW124527   6.452   0.962   4.740
 7876SOL    HW224528   6.352   0.834   4.720
 7877SOL     OW24529   6.633   2.592   2.383
 7877SOL    HW124530   6.606   2.685   2.357
 7877SOL    HW224531   6.710   2.563   2.327
 7878SOL     OW24532   4.629   4.321   1.388
 7878SOL    HW124533   4.612   4.402   1.444
 7878SOL    HW224534   4.573   4.326   1.305
 7879SOL     OW24535   5.046   0.574   5.059
 7879SOL    HW124536   4.953   0.536   5.066
 7879SOL    HW224537   5.103   0.537   5.132
 7880SOL     OW24538   0.929   6.582   5.974
 7880SOL    HW124539   0.991   6.608   5.901
 7880SOL    HW224540   0.980   6.569   6.059
 7881SOL     OW24541   0.480   5.071   4.103
 7881SOL    HW124542   0.422   5.127   4.044
 7881SOL    HW224543   0.573   5.068   4.067
 7882SOL     OW24544   0.804   4.221   1.927
 7882SOL    HW124545   0.773   4.308   1.887
 7882SOL    HW224546   0.821   4.155   1.854
 7883SOL     OW24547   3.517   2.079   3.386
 7883SOL    HW124548   3.581   2.005   3.364
 7883SOL    HW224549   3.548   2.126   3.468
 7884SOL     OW24550   0.939   3.854   4.699
 7884SOL    HW124551   0.986   3.916   4.636
 7884SOL    HW224552   0.899   3.906   4.774
 7885SOL     OW24553   5.520   5.588   3.812
 7885SOL    HW124554   5.526   5.555   3.907
 7885SOL    HW224555   5.612   5.610   3.779
 7886SOL     OW24556   4.985   2.987   3.327
 7886SOL    HW124557   4.913   3.054   3.346
 7886SOL    HW224558   5.065   3.006   3.384
 7887SOL     OW24559   2.065   2.927   1.283
 7887SOL    HW124560   2.080   2.967   1.193
 7887SOL    HW224561   2.153   2.901   1.324
 7888SOL     OW24562   5.883   1.182   5.018
 7888SOL    HW124563   5.928   1.103   4.978
 7888SOL    HW224564   5.848   1.241   4.945
 7889SOL     OW24565   5.767   4.699   0.006
 7889SOL    HW124566   5.709   4.757   6.974
 7889SOL    HW224567   5.862   4.705   7.000
 7890SOL     OW24568   1.902   3.513   4.372
 7890SOL    HW124569   1.916   3.418   4.346
 7890SOL    HW224570   1.844   3.558   4.304
 7891SOL     OW24571   6.625   1.864   4.332
 7891SOL    HW124572   6.615   1.947   4.278
 7891SOL    HW224573   6.536   1.819   4.340
 7892SOL     OW24574   0.974   1.747   5.382
 7892SOL    HW124575   0.903   1.680   5.400
 7892SOL    HW224576   1.047   1.705   5.328
 7893SOL     OW24577   5.696   0.104   6.943
 7893SOL    HW124578   5.768   0.164   6.906
 7893SOL    HW224579   5.702   0.014   6.900
 7894SOL     OW24580   3.686   2.093   6.148
 7894SOL    HW124581   3.643   2.004   6.142
 7894SOL    HW224582   3.645   2.146   6.223
 7895SOL     OW24583   5.402   6.739   3.015
 7895SOL    HW124584   5.385   6.682   3.096
 7895SOL    HW224585   5.401   6.835   3.042
 7896SOL     OW24586   2.368   2.442   1.032
 7896SOL    HW124587   2.299   2.482   1.093
 7896SOL    HW224588   2.335   2.445   0.938
 7897SOL     OW24589   3.967   2.568   0.847
 7897SOL    HW124590   4.019   2.614   0.776
 7897SOL    HW224591   4.017   2.571   0.934
 7898SOL     OW24592   5.524   6.413   3.353
 7898SOL    HW124593   5.428   6.441   3.360
 7898SOL    HW224594   5.546   6.394   3.257
 7899SOL     OW24595   6.533   4.598   3.999
 7899SOL    HW124596   6.510   4.502   3.979
 7899SOL    HW224597   6.629   4.604   4.026
 7900SOL     OW24598   0.789   4.065   1.209
 7900SOL    HW124599   0.881   4.032   1.228
 7900SOL    HW224600   0.752   4.018   1.129
 7901SOL     OW24601   0.260   1.356   6.729
 7901SOL    HW124602   0.256   1.452   6.701
 7901SOL    HW224603   0.326   1.307   6.672
 7902SOL     OW24604   1.173   0.194   2.587
 7902SOL    HW124605   1.215   0.103   2.593
 7902SOL    HW224606   1.171   0.235   2.679
 7903SOL     OW24607   2.772   2.193   5.055
 7903SOL    HW124608   2.845   2.217   5.119
 7903SOL    HW224609   2.813   2.168   4.967
 7904SOL     OW24610   4.906   1.524   2.669
 7904SOL    HW124611   4.940   1.431   2.683
 7904SOL    HW224612   4.982   1.584   2.644
 7905SOL     OW24613   5.069   1.453   0.689
 7905SOL    HW124614   5.107   1.509   0.615
 7905SOL    HW224615   5.113   1.479   0.775
 7906SOL     OW24616   1.064   5.431   0.833
 7906SOL    HW124617   1.037   5.446   0.738
 7906SOL    HW224618   1.125   5.352   0.839
 7907SOL     OW24619   6.280   0.115   2.729
 7907SOL    HW124620   6.203   0.151   2.781
 7907SOL    HW224621   6.247   0.081   2.641
 7908SOL     OW24622   0.570   0.136   6.315
 7908SOL    HW124623   0.558   0.112   6.219
 7908SOL    HW224624   0.591   0.054   6.368
 7909SOL     OW24625   5.813   4.085   2.371
 7909SOL    HW124626   5.733   4.051   2.420
 7909SOL    HW224627   5.839   4.020   2.300
 7910SOL     OW24628   0.788   4.129   6.981
 7910SOL    HW124629   0.717   4.135   0.026
 7910SOL    HW224630   0.749   4.152   6.892
 7911SOL     OW24631   0.162   4.471   6.617
 7911SOL    HW124632   0.077   4.508   6.580
 7911SOL    HW224633   0.142   4.391   6.674
 7912SOL     OW24634   6.430   5.053   1.232
 7912SOL    HW124635   6.380   5.053   1.319
 7912SOL    HW224636   6.505   4.987   1.236
 7913SOL     OW24637   1.360   4.691   1.200
 7913SOL    HW124638   1.397   4.777   1.165
 7913SOL    HW224639   1.260   4.695   1.202
 7914SOL     OW24640   6.741   6.665   5.188
 7914SOL    HW124641   6.735   6.717   5.103
 7914SOL    HW224642   6.685   6.710   5.258
 7915SOL     OW24643   3.889   5.350   2.881
 7915SOL    HW124644   3.948   5.417   2.926
 7915SOL    HW224645   3.940   5.306   2.806
 7916SOL     OW24646   0.903   6.952   4.388
 7916SOL    HW124647   0.863   6.952   4.296
 7916SOL    HW224648   0.840   6.997   4.451
 7917SOL     OW24649   4.123   2.911   1.304
 7917SOL    HW124650   4.162   2.953   1.222
 7917SOL    HW224651   4.189   2.919   1.379
 7918SOL     OW24652   2.019   2.114   3.781
 7918SOL    HW124653   2.076   2.090   3.702
 7918SOL    HW224654   2.069   2.091   3.865
 7919SOL     OW24655   1.981   6.408   4.808
 7919SOL    HW124656   2.016   6.460   4.730
 7919SOL    HW224657   1.961   6.315   4.779
 7920SOL     OW24658   4.890   0.450   1.061
 7920SOL    HW124659   4.924   0.538   1.092
 7920SOL    HW224660   4.840   0.462   0.975
 7921SOL     OW24661   5.916   2.496   0.924
 7921SOL    HW124662   5.889   2.583   0.883
 7921SOL    HW224663   5.874   2.487   1.014
 7922SOL     OW24664   1.895   5.972   1.821
 7922SOL    HW124665   1.932   5.883   1.845
 7922SOL    HW224666   1.878   5.976   1.723
 7923SOL     OW24667   5.364   0.788   0.417
 7923SOL    HW124668   5.348   0.689   0.414
 7923SOL    HW224669   5.417   0.816   0.337
 7924SOL     OW24670   6.700   6.231   0.540
 7924SOL    HW124671   6.663   6.139   0.552
 7924SOL    HW224672   6.793   6.225   0.504
 7925SOL     OW24673   1.545   5.619   6.444
 7925SOL    HW124674   1.621   5.682   6.459
 7925SOL    HW224675   1.566   5.530   6.484
 7926SOL     OW24676   4.855   5.411   0.305
 7926SOL    HW124677   4.818   5.317   0.306
 7926SOL    HW224678   4.942   5.412   0.256
 7927SOL     OW24679   4.084   6.948   2.425
 7927SOL    HW124680   4.176   6.918   2.401
 7927SOL    HW224681   4.065   6.922   2.520
 7928SOL     OW24682   5.652   2.150   3.293
 7928SOL    HW124683   5.701   2.200   3.222
 7928SOL    HW224684   5.557   2.182   3.296
 7929SOL     OW24685   4.246   4.265   6.146
 7929SOL    HW124686   4.185   4.187   6.132
 7929SOL    HW224687   4.192   4.345   6.172
 7930SOL     OW24688   4.281   6.304   6.201
 7930SOL    HW124689   4.309   6.217   6.158
 7930SOL    HW224690   4.205   6.343   6.149
 7931SOL     OW24691   4.275   2.236   1.190
 7931SOL    HW124692   4.236   2.306   1.249
 7931SOL    HW224693   4.320   2.166   1.247
 7932SOL     OW24694   1.805   3.893   2.251
 7932SOL    HW124695   1.741   3.816   2.250
 7932SOL    HW224696   1.759   3.976   2.219
 7933SOL     OW24697   1.098   1.567   0.209
 7933SOL    HW124698   1.185   1.554   0.257
 7933SOL    HW224699   1.050   1.646   0.246
 7934SOL     OW24700   0.903   5.715   1.250
 7934SOL    HW124701   0.974   5.782   1.270
 7934SOL    HW224702   0.829   5.759   1.199
 7935SOL     OW24703   4.895   2.788   3.163
 7935SOL    HW124704   4.952   2.707   3.176
 7935SOL    HW224705   4.940   2.867   3.205
 7936SOL     OW24706   3.152   5.522   3.624
 7936SOL    HW124707   3.094   5.440   3.629
 7936SOL    HW224708   3.240   5.503   3.666
 7937SOL     OW24709   3.454   0.863   6.930
 7937SOL    HW124710   3.535   0.820   6.972
 7937SOL    HW224711   3.394   0.899   7.001
 7938SOL     OW24712   2.847   6.392   4.304
 7938SOL    HW124713   2.808   6.461   4.366
 7938SOL    HW224714   2.860   6.432   4.213
 7939SOL     OW24715   0.372   1.480   3.957
 7939SOL    HW124716   0.443   1.472   4.026
 7939SOL    HW224717   0.289   1.436   3.989
 7940SOL     OW24718   5.779   1.277   3.667
 7940SOL    HW124719   5.768   1.353   3.730
 7940SOL    HW224720   5.834   1.306   3.588
 7941SOL     OW24721   3.569   6.898   1.182
 7941SOL    HW124722   3.498   6.828   1.177
 7941SOL    HW224723   3.603   6.905   1.276
 7942SOL     OW24724   1.474   5.204   0.861
 7942SOL    HW124725   1.488   5.234   0.956
 7942SOL    HW224726   1.524   5.119   0.846
 7943SOL     OW24727   1.644   6.161   5.886
 7943SOL    HW124728   1.560   6.122   5.924
 7943SOL    HW224729   1.622   6.241   5.830
 7944SOL     OW24730   1.284   2.580   1.697
 7944SOL    HW124731   1.374   2.618   1.719
 7944SOL    HW224732   1.295   2.486   1.664
 7945SOL     OW24733   6.261   4.463   3.693
 7945SOL    HW124734   6.205   4.414   3.627
 7945SOL    HW224735   6.235   4.560   3.694
 7946SOL     OW24736   3.722   1.221   6.339
 7946SOL    HW124737   3.682   1.281   6.270
 7946SOL    HW224738   3.820   1.210   6.322
 7947SOL     OW24739   0.473   3.887   6.416
 7947SOL    HW124740   0.450   3.790   6.412
 7947SOL    HW224741   0.541   3.908   6.345
 7948SOL     OW24742   1.674   4.743   2.435
 7948SOL    HW124743   1.709   4.774   2.523
 7948SOL    HW224744   1.748   4.742   2.368
 7949SOL     OW24745   3.444   6.346   6.673
 7949SOL    HW124746   3.382   6.268   6.662
 7949SOL    HW224747   3.457   6.363   6.771
 7950SOL     OW24748   5.790   4.428   5.231
 7950SOL    HW124749   5.778   4.468   5.140
 7950SOL    HW224750   5.869   4.469   5.275
 7951SOL     OW24751   4.128   5.887   2.738
 7951SOL    HW124752   4.105   5.952   2.666
 7951SOL    HW224753   4.159   5.936   2.819
 7952SOL     OW24754   6.234   4.576   6.304
 7952SOL    HW124755   6.244   4.477   6.294
 7952SOL    HW224756   6.306   4.610   6.364
 7953SOL     OW24757   2.059   0.374   0.606
 7953SOL    HW124758   2.001   0.300   0.571
 7953SOL    HW224759   2.099   0.346   0.693
 7954SOL     OW24760   4.080   3.750   6.702
 7954SOL    HW124761   4.110   3.837   6.662
 7954SOL    HW224762   3.985   3.758   6.733
 7955SOL     OW24763   1.641   1.980   6.723
 7955SOL    HW124764   1.725   2.032   6.707
 7955SOL    HW224765   1.562   2.040   6.711
 7956SOL     OW24766   6.590   6.529   0.542
 7956SOL    HW124767   6.570   6.542   0.639
 7956SOL    HW224768   6.631   6.438   0.529
 7957SOL     OW24769   4.551   1.055   5.927
 7957SOL    HW124770   4.614   1.050   6.004
 7957SOL    HW224771   4.594   1.013   5.847
 7958SOL     OW24772   6.114   2.812   0.202
 7958SOL    HW124773   6.071   2.792   0.114
 7958SOL    HW224774   6.082   2.747   0.271
 7959SOL     OW24775   6.366   1.382   6.625
 7959SOL    HW124776   6.269   1.369   6.607
 7959SOL    HW224777   6.419   1.335   6.554
 7960SOL     OW24778   0.549   1.063   5.531
 7960SOL    HW124779   0.599   1.068   5.617
 7960SOL    HW224780   0.480   1.135   5.528
 7961SOL     OW24781   6.466   6.277   0.377
 7961SOL    HW124782   6.484   6.347   0.308
 7961SOL    HW224783   6.551   6.256   0.426
 7962SOL     OW24784   5.814   0.061   5.910
 7962SOL    HW124785   5.856   0.094   5.826
 7962SOL    HW224786   5.871   0.086   5.988
 7963SOL     OW24787   6.807   6.917   4.253
 7963SOL    HW124788   6.867   6.868   4.315
 7963SOL    HW224789   6.769   6.853   4.185
 7964SOL     OW24790   6.941   4.343   1.808
 7964SOL    HW124791   7.009   4.357   1.736
 7964SOL    HW224792   6.934   4.426   1.864
 7965SOL     OW24793   4.304   2.791   6.475
 7965SOL    HW124794   4.338   2.881   6.447
 7965SOL    HW224795   4.209   2.781   6.448
 7966SOL     OW24796   4.906   3.745   4.838
 7966SOL    HW124797   4.984   3.697   4.798
 7966SOL    HW224798   4.861   3.686   4.905
 7967SOL     OW24799   1.802   4.089   1.517
 7967SOL    HW124800   1.867   4.130   1.581
 7967SOL    HW224801   1.849   4.065   1.432
 7968SOL     OW24802   0.387   2.621   4.733
 7968SOL    HW124803   0.416   2.572   4.815
 7968SOL    HW224804   0.414   2.717   4.739
 7969SOL     OW24805   4.171   5.464   6.742
 7969SOL    HW124806   4.197   5.418   6.827
 7969SOL    HW224807   4.120   5.547   6.763
 7970SOL     OW24808   6.259   2.957   3.008
 7970SOL    HW124809   6.297   2.901   3.081
 7970SOL    HW224810   6.318   2.951   2.927
 7971SOL     OW24811   2.564   1.413   0.086
 7971SOL    HW124812   2.464   1.419   0.088
 7971SOL    HW224813   2.596   1.408   7.017
 7972SOL     OW24814   4.080   3.816   3.411
 7972SOL    HW124815   4.146   3.778   3.476
 7972SOL    HW224816   4.002   3.854   3.461
 7973SOL     OW24817   6.250   4.344   2.648
 7973SOL    HW124818   6.255   4.279   2.573
 7973SOL    HW224819   6.163   4.394   2.643
 7974SOL     OW24820   6.987   2.776   6.394
 7974SOL    HW124821   6.950   2.847   6.453
 7974SOL    HW224822   6.949   2.687   6.420
 7975SOL     OW24823   5.595   0.671   0.997
 7975SOL    HW124824   5.539   0.604   0.949
 7975SOL    HW224825   5.604   0.754   0.942
 7976SOL     OW24826   0.569   0.256   0.624
 7976SOL    HW124827   0.590   0.354   0.631
 7976SOL    HW224828   0.493   0.234   0.684
 7977SOL     OW24829   5.459   5.839   3.924
 7977SOL    HW124830   5.473   5.744   3.899
 7977SOL    HW224831   5.547   5.886   3.931
 7978SOL     OW24832   0.144   4.566   1.891
 7978SOL    HW124833   0.213   4.626   1.852
 7978SOL    HW224834   0.107   4.507   1.819
 7979SOL     OW24835   1.994   2.248   4.689
 7979SOL    HW124836   1.950   2.296   4.765
 7979SOL    HW224837   2.083   2.214   4.719
 7980SOL     OW24838   4.017   5.523   0.317
 7980SOL    HW124839   4.006   5.472   0.402
 7980SOL    HW224840   4.109   5.561   0.313
 7981SOL     OW24841   1.992   4.390   3.407
 7981SOL    HW124842   1.997   4.440   3.321
 7981SOL    HW224843   1.941   4.305   3.393
 7982SOL     OW24844   6.259   1.511   5.207
 7982SOL    HW124845   6.199   1.435   5.183
 7982SOL    HW224846   6.331   1.520   5.138
 7983SOL     OW24847   4.503   1.023   1.952
 7983SOL    HW124848   4.577   1.020   2.019
 7983SOL    HW224849   4.452   0.937   1.953
 7984SOL     OW24850   0.553   2.545   3.000
 7984SOL    HW124851   0.543   2.465   3.059
 7984SOL    HW224852   0.467   2.560   2.950
 7985SOL     OW24853   2.720   3.009   5.362
 7985SOL    HW124854   2.725   2.917   5.400
 7985SOL    HW224855   2.635   3.020   5.312
 7986SOL     OW24856   3.744   1.021   3.962
 7986SOL    HW124857   3.697   1.108   3.981
 7986SOL    HW224858   3.742   1.003   3.864
 7987SOL     OW24859   0.804   3.850   6.977
 7987SOL    HW124860   0.829   3.820   6.885
 7987SOL    HW224861   0.791   3.950   6.976
 7988SOL     OW24862   6.325   1.008   2.111
 7988SOL    HW124863   6.416   1.030   2.146
 7988SOL    HW224864   6.272   1.093   2.101
 7989SOL     OW24865   0.440   4.599   0.838
 7989SOL    HW124866   0.431   4.667   0.764
 7989SOL    HW224867   0.432   4.645   0.926
 7990SOL     OW24868   4.249   5.685   5.361
 7990SOL    HW124869   4.297   5.709   5.277
 7990SOL    HW224870   4.294   5.729   5.439
 7991SOL     OW24871   5.714   1.262   5.213
 7991SOL    HW124872   5.621   1.251   5.178
 7991SOL    HW224873   5.779   1.218   5.151
 7992SOL     OW24874   2.634   6.785   6.684
 7992SOL    HW124875   2.693   6.841   6.742
 7992SOL    HW224876   2.614   6.835   6.600
 7993SOL     OW24877   6.414   6.144   0.959
 7993SOL    HW124878   6.362   6.230   0.964
 7993SOL    HW224879   6.436   6.114   1.051
 7994SOL     OW24880   6.003   7.013   3.669
 7994SOL    HW124881   5.943   7.007   3.749
 7994SOL    HW224882   6.096   0.009   3.699
 7995SOL     OW24883   0.713   5.135   1.757
 7995SOL    HW124884   0.652   5.102   1.685
 7995SOL    HW224885   0.671   5.213   1.804
 7996SOL     OW24886   3.168   0.414   3.142
 7996SOL    HW124887   3.080   0.394   3.186
 7996SOL    HW224888   3.220   0.477   3.200
 7997SOL     OW24889   1.588   1.819   5.890
 7997SOL    HW124890   1.682   1.820   5.856
 7997SOL    HW224891   1.551   1.726   5.882
 7998SOL     OW24892   2.165   1.055   0.605
 7998SOL    HW124893   2.076   1.027   0.569
 7998SOL    HW224894   2.175   1.154   0.595
 7999SOL     OW24895   0.982   0.261   4.254
 7999SOL    HW124896   1.078   0.236   4.262
 7999SOL    HW224897   0.933   0.189   4.205
 8000SOL     OW24898   4.051   5.347   0.105
 8000SOL    HW124899   4.069   5.422   0.170
 8000SOL    HW224900   4.003   5.273   0.153
 8001SOL     OW24901   4.209   5.758   1.152
 8001SOL    HW124902   4.260   5.741   1.068
 8001SOL    HW224903   4.204   5.857   1.169
 8002SOL     OW24904   0.915   0.247   5.660
 8002SOL    HW124905   0.973   0.285   5.732
 8002SOL    HW224906   0.897   0.317   5.592
 8003SOL     OW24907   2.370   5.460   2.437
 8003SOL    HW124908   2.452   5.440   2.383
 8003SOL    HW224909   2.290   5.421   2.392
 8004SOL     OW24910   1.470   2.665   4.090
 8004SOL    HW124911   1.414   2.713   4.158
 8004SOL    HW224912   1.546   2.619   4.135
 8005SOL     OW24913   2.300   0.283   3.064
 8005SOL    HW124914   2.326   0.287   2.968
 8005SOL    HW224915   2.382   0.272   3.120
 8006SOL     OW24916   3.994   4.692   5.281
 8006SOL    HW124917   3.955   4.609   5.242
 8006SOL    HW224918   3.922   4.745   5.325
 8007SOL     OW24919   6.630   0.269   0.119
 8007SOL    HW124920   6.683   0.337   0.170
 8007SOL    HW224921   6.533   0.281   0.141
 8008SOL     OW24922   5.594   6.559   0.084
 8008SOL    HW124923   5.683   6.515   0.070
 8008SOL    HW224924   5.568   6.551   0.181
 8009SOL     OW24925   5.514   1.626   6.880
 8009SOL    HW124926   5.573   1.673   6.946
 8009SOL    HW224927   5.451   1.692   6.839
 8010SOL     OW24928   3.101   1.251   6.088
 8010SOL    HW124929   3.155   1.197   6.024
 8010SOL    HW224930   3.082   1.341   6.048
 8011SOL     OW24931   3.874   1.891   3.146
 8011SOL    HW124932   3.931   1.906   3.066
 8011SOL    HW224933   3.930   1.854   3.220
 8012SOL     OW24934   6.413   1.693   4.340
 8012SOL    HW124935   6.444   1.599   4.333
 8012SOL    HW224936   6.338   1.699   4.407
 8013SOL     OW24937   3.158   1.451   2.287
 8013SOL    HW124938   3.077   1.495   2.248
 8013SOL    HW224939   3.149   1.443   2.386
 8014SOL     OW24940   2.260   2.107   2.731
 8014SOL    HW124941   2.224   2.199   2.746
 8014SOL    HW224942   2.298   2.073   2.817
 8015SOL     OW24943   3.745   6.927   5.296
 8015SOL    HW124944   3.719   6.891   5.206
 8015SOL    HW224945   3.797   7.012   5.284
 8016SOL     OW24946   3.340   1.819   5.000
 8016SOL    HW124947   3.245   1.842   4.978
 8016SOL    HW224948   3.395   1.903   5.001
 8017SOL     OW24949   6.670   5.948   0.949
 8017SOL    HW124950   6.749   5.918   0.896
 8017SOL    HW224951   6.618   5.869   0.980
 8018SOL     OW24952   4.243   1.997   6.995
 8018SOL    HW124953   4.269   1.957   6.907
 8018SOL    HW224954   4.198   1.929   0.026
 8019SOL     OW24955   2.752   3.468   1.006
 8019SOL    HW124956   2.851   3.471   1.017
 8019SOL    HW224957   2.718   3.381   1.043
 8020SOL     OW24958   0.340   0.948   5.713
 8020SOL    HW124959   0.403   0.946   5.635
 8020SOL    HW224960   0.325   1.042   5.741
 8021SOL     OW24961   1.229   2.071   1.197
 8021SOL    HW124962   1.178   2.157   1.185
 8021SOL    HW224963   1.184   1.998   1.145
 8022SOL     OW24964   5.029   1.571   2.046
 8022SOL    HW124965   4.936   1.575   2.011
 8022SOL    HW224966   5.094   1.585   1.972
 8023SOL     OW24967   4.743   6.285   1.762
 8023SOL    HW124968   4.814   6.356   1.756
 8023SOL    HW224969   4.703   6.270   1.672
 8024SOL     OW24970   2.600   1.111   6.513
 8024SOL    HW124971   2.645   1.068   6.435
 8024SOL    HW224972   2.663   1.175   6.556
 8025SOL     OW24973   1.572   6.077   2.058
 8025SOL    HW124974   1.509   6.026   1.999
 8025SOL    HW224975   1.556   6.175   2.047
 8026SOL     OW24976   0.400   5.807   6.496
 8026SOL    HW124977   0.340   5.849   6.563
 8026SOL    HW224978   0.419   5.872   6.423
 8027SOL     OW24979   3.362   0.726   6.698
 8027SOL    HW124980   3.390   0.785   6.773
 8027SOL    HW224981   3.283   0.767   6.651
 8028SOL     OW24982   3.181   5.549   5.174
 8028SOL    HW124983   3.122   5.529   5.252
 8028SOL    HW224984   3.246   5.474   5.162
 8029SOL     OW24985   0.699   6.795   0.094
 8029SOL    HW124986   0.635   6.858   0.052
 8029SOL    HW224987   0.787   6.840   0.107
 8030SOL     OW24988   0.687   3.903   1.008
 8030SOL    HW124989   0.646   3.947   0.927
 8030SOL    HW224990   0.701   3.806   0.989
 8031SOL     OW24991   0.198   0.114   3.513
 8031SOL    HW124992   0.180   0.131   3.610
 8031SOL    HW224993   0.267   0.179   3.480
 8032SOL     OW24994   6.733   3.027   1.144
 8032SOL    HW124995   6.644   3.001   1.107
 8032SOL    HW224996   6.737   3.127   1.156
 8033SOL     OW24997   4.433   3.644   1.283
 8033SOL    HW124998   4.427   3.575   1.355
 8033SOL    HW224999   4.515   3.627   1.228
 8034SOL     OW25000   6.403   0.596   6.000
 8034SOL    HW125001   6.368   0.565   6.089
 8034SOL    HW225002   6.502   0.585   5.998
 8035SOL     OW25003   6.083   1.697   3.134
 8035SOL    HW125004   6.104   1.780   3.185
 8035SOL    HW225005   6.137   1.621   3.169
 8036SOL     OW25006   5.511   2.725   4.240
 8036SOL    HW125007   5.497   2.676   4.154
 8036SOL    HW225008   5.586   2.791   4.229
 8037SOL     OW25009   1.768   1.656   5.478
 8037SOL    HW125010   1.750   1.685   5.384
 8037SOL    HW225011   1.681   1.645   5.527
 8038SOL     OW25012   0.038   4.972   2.197
 8038SOL    HW125013   6.985   4.910   2.205
 8038SOL    HW225014   0.007   5.061   2.164
 8039SOL     OW25015   1.096   2.312   5.393
 8039SOL    HW125016   1.145   2.347   5.313
 8039SOL    HW225017   1.105   2.377   5.468
 8040SOL     OW25018   1.774   4.937   6.769
 8040SOL    HW125019   1.868   4.944   6.803
 8040SOL    HW225020   1.740   4.844   6.785
 8041SOL     OW25021   3.430   1.252   3.146
 8041SOL    HW125022   3.431   1.351   3.131
 8041SOL    HW225023   3.380   1.231   3.229
 8042SOL     OW25024   4.136   4.199   5.642
 8042SOL    HW125025   4.047   4.241   5.621
 8042SOL    HW225026   4.179   4.248   5.718
 8043SOL     OW25027   4.998   5.658   6.947
 8043SOL    HW125028   5.067   5.593   6.915
 8043SOL    HW225029   4.908   5.632   6.911
 8044SOL     OW25030   2.711   3.315   1.805
 8044SOL    HW125031   2.612   3.332   1.801
 8044SOL    HW225032   2.757   3.396   1.843
 8045SOL     OW25033   6.662   2.820   3.611
 8045SOL    HW125034   6.713   2.823   3.697
 8045SOL    HW225035   6.725   2.800   3.536
 8046SOL     OW25036   6.857   4.799   2.204
 8046SOL    HW125037   6.766   4.768   2.229
 8046SOL    HW225038   6.911   4.721   2.171
 8047SOL     OW25039   3.126   6.467   6.818
 8047SOL    HW125040   3.124   6.367   6.812
 8047SOL    HW225041   3.085   6.506   6.736
 8048SOL     OW25042   4.089   2.360   6.102
 8048SOL    HW125043   4.016   2.415   6.060
 8048SOL    HW225044   4.170   2.416   6.115
 8049SOL     OW25045   1.730   2.034   0.576
 8049SOL    HW125046   1.768   2.120   0.613
 8049SOL    HW225047   1.654   2.055   0.515
 8050SOL     OW25048   0.656   5.000   5.585
 8050SOL    HW125049   0.694   5.069   5.646
 8050SOL    HW225050   0.654   4.912   5.632
 8051SOL     OW25051   4.303   5.918   3.762
 8051SOL    HW125052   4.236   5.881   3.697
 8051SOL    HW225053   4.337   6.006   3.728
 8052SOL     OW25054   2.864   1.941   2.193
 8052SOL    HW125055   2.898   2.034   2.209
 8052SOL    HW225056   2.922   1.877   2.243
 8053SOL     OW25057   2.187   2.566   6.458
 8053SOL    HW125058   2.175   2.500   6.383
 8053SOL    HW225059   2.108   2.561   6.519
 8054SOL     OW25060   4.627   3.367   5.363
 8054SOL    HW125061   4.636   3.440   5.296
 8054SOL    HW225062   4.548   3.310   5.341
 8055SOL     OW25063   5.729   0.688   6.817
 8055SOL    HW125064   5.710   0.603   6.866
 8055SOL    HW225065   5.827   0.706   6.819
 8056SOL     OW25066   2.573   0.632   4.376
 8056SOL    HW125067   2.574   0.552   4.316
 8056SOL    HW225068   2.575   0.602   4.472
 8057SOL     OW25069   2.835   2.133   1.835
 8057SOL    HW125070   2.885   2.182   1.906
 8057SOL    HW225071   2.858   2.171   1.745
 8058SOL     OW25072   3.370   0.065   2.146
 8058SOL    HW125073   3.305   0.130   2.185
 8058SOL    HW225074   3.328   0.018   2.069
 8059SOL     OW25075   3.026   2.722   5.930
 8059SOL    HW125076   3.049   2.629   5.900
 8059SOL    HW225077   2.951   2.718   5.996
 8060SOL     OW25078   6.082   0.473   6.202
 8060SOL    HW125079   6.018   0.462   6.278
 8060SOL    HW225080   6.166   0.517   6.235
 8061SOL     OW25081   0.320   0.197   2.884
 8061SOL    HW125082   0.237   0.171   2.834
 8061SOL    HW225083   0.387   0.235   2.820
 8062SOL     OW25084   4.076   5.625   5.768
 8062SOL    HW125085   4.131   5.548   5.734
 8062SOL    HW225086   4.006   5.590   5.830
 8063SOL     OW25087   3.591   4.967   3.352
 8063SOL    HW125088   3.686   4.943   3.330
 8063SOL    HW225089   3.578   5.065   3.338
 8064SOL     OW25090   6.317   1.704   0.356
 8064SOL    HW125091   6.236   1.695   0.414
 8064SOL    HW225092   6.397   1.668   0.404
 8065SOL     OW25093   3.990   5.903   6.587
 8065SOL    HW125094   3.993   5.832   6.658
 8065SOL    HW225095   4.040   5.983   6.618
 8066SOL     OW25096   0.334   6.846   5.764
 8066SOL    HW125097   0.236   6.851   5.745
 8066SOL    HW225098   0.377   6.932   5.737
 8067SOL     OW25099   4.778   2.436   3.589
 8067SOL    HW125100   4.847   2.498   3.552
 8067SOL    HW225101   4.819   2.380   3.661
 8068SOL     OW25102   5.613   4.101   1.372
 8068SOL    HW125103   5.615   4.157   1.290
 8068SOL    HW225104   5.646   4.009   1.351
 8069SOL     OW25105   2.383   4.973   3.174
 8069SOL    HW125106   2.303   5.023   3.208
 8069SOL    HW225107   2.397   4.993   3.077
 8070SOL     OW25108   4.434   4.727   0.504
 8070SOL    HW125109   4.489   4.754   0.583
 8070SOL    HW225110   4.488   4.670   0.443
 8071SOL     OW25111   2.427   0.213   6.387
 8071SOL    HW125112   2.513   0.185   6.344
 8071SOL    HW225113   2.418   0.313   6.382
 8072SOL     OW25114   1.814   1.506   5.712
 8072SOL    HW125115   1.769   1.524   5.625
 8072SOL    HW225116   1.750   1.525   5.787
 8073SOL     OW25117   4.425   0.609   6.935
 8073SOL    HW125118   4.358   0.588   6.865
 8073SOL    HW225119   4.384   0.669   7.004
 8074SOL     OW25120   1.744   1.400   6.112
 8074SOL    HW125121   1.838   1.406   6.078
 8074SOL    HW225122   1.735   1.320   6.171
 8075SOL     OW25123   0.042   6.614   0.654
 8075SOL    HW125124   6.971   6.629   0.678
 8075SOL    HW225125   0.053   6.521   0.619
 8076SOL     OW25126   6.971   6.212   0.562
 8076SOL    HW125127   0.016   6.230   0.492
 8076SOL    HW225128   7.013   6.164   0.639
 8077SOL     OW25129   4.742   4.387   0.560
 8077SOL    HW125130   4.642   4.383   0.556
 8077SOL    HW225131   4.779   4.294   0.567
 8078SOL     OW25132   0.672   1.279   2.012
 8078SOL    HW125133   0.635   1.331   1.935
 8078SOL    HW225134   0.681   1.339   2.091
 8079SOL     OW25135   1.488   1.458   6.086
 8079SOL    HW125136   1.586   1.452   6.103
 8079SOL    HW225137   1.444   1.507   6.162
 8080SOL     OW25138   1.123   3.260   3.122
 8080SOL    HW125139   1.196   3.295   3.181
 8080SOL    HW225140   1.078   3.337   3.077
 8081SOL     OW25141   5.715   5.996   5.066
 8081SOL    HW125142   5.745   6.013   5.160
 8081SOL    HW225143   5.651   6.067   5.038
 8082SOL     OW25144   3.800   1.631   3.094
 8082SOL    HW125145   3.794   1.731   3.088
 8082SOL    HW225146   3.818   1.594   3.002
 8083SOL     OW25147   5.815   1.966   4.338
 8083SOL    HW125148   5.727   1.973   4.291
 8083SOL    HW225149   5.799   1.940   4.433
 8084SOL     OW25150   3.797   1.712   5.992
 8084SOL    HW125151   3.820   1.646   5.920
 8084SOL    HW225152   3.699   1.709   6.010
 8085SOL     OW25153   1.623   6.129   4.350
 8085SOL    HW125154   1.664   6.110   4.261
 8085SOL    HW225155   1.526   6.104   4.348
 8086SOL     OW25156   6.650   0.683   2.395
 8086SOL    HW125157   6.649   0.697   2.296
 8086SOL    HW225158   6.614   0.592   2.416
 8087SOL     OW25159   0.724   0.452   0.103
 8087SOL    HW125160   0.680   0.363   0.099
 8087SOL    HW225161   0.792   0.452   0.177
 8088SOL     OW25162   6.402   0.203   4.772
 8088SOL    HW125163   6.419   0.217   4.870
 8088SOL    HW225164   6.469   0.254   4.718
 8089SOL     OW25165   6.555   1.994   5.864
 8089SOL    HW125166   6.542   2.051   5.945
 8089SOL    HW225167   6.522   1.901   5.883
 8090SOL     OW25168   4.239   2.012   5.031
 8090SOL    HW125169   4.184   2.036   4.951
 8090SOL    HW225170   4.197   2.051   5.113
 8091SOL     OW25171   1.723   4.992   4.167
 8091SOL    HW125172   1.765   5.082   4.183
 8091SOL    HW225173   1.691   4.954   4.253
 8092SOL     OW25174   4.732   1.852   5.896
 8092SOL    HW125175   4.804   1.874   5.962
 8092SOL    HW225176   4.772   1.847   5.804
 8093SOL     OW25177   3.475   5.925   2.222
 8093SOL    HW125178   3.404   5.877   2.272
 8093SOL    HW225179   3.464   5.908   2.124
 8094SOL     OW25180   1.999   4.497   4.334
 8094SOL    HW125181   1.989   4.447   4.420
 8094SOL    HW225182   1.936   4.575   4.334
 8095SOL     OW25183   1.498   4.983   5.480
 8095SOL    HW125184   1.426   5.040   5.519
 8095SOL    HW225185   1.490   4.890   5.516
 8096SOL     OW25186   1.438   5.914   1.410
 8096SOL    HW125187   1.402   5.826   1.439
 8096SOL    HW225188   1.439   5.978   1.487
 8097SOL     OW25189   4.591   6.114   5.887
 8097SOL    HW125190   4.607   6.169   5.805
 8097SOL    HW225191   4.626   6.163   5.967
 8098SOL     OW25192   1.720   5.832   5.206
 8098SOL    HW125193   1.818   5.851   5.211
 8098SOL    HW225194   1.692   5.830   5.110
 8099SOL     OW25195   2.458   4.828   2.861
 8099SOL    HW125196   2.531   4.839   2.930
 8099SOL    HW225197   2.379   4.785   2.904
 8100SOL     OW25198   0.467   1.015   6.912
 8100SOL    HW125199   0.369   1.029   6.899
 8100SOL    HW225200   0.500   0.947   6.846
 8101SOL     OW25201   2.774   6.260   1.192
 8101SOL    HW125202   2.682   6.298   1.199
 8101SOL    HW225203   2.777   6.193   1.118
 8102SOL     OW25204   1.735   3.329   4.830
 8102SOL    HW125205   1.667   3.402   4.841
 8102SOL    HW225206   1.789   3.346   4.748
 8103SOL     OW25207   3.248   1.043   1.448
 8103SOL    HW125208   3.293   0.986   1.380
 8103SOL    HW225209   3.184   1.105   1.402
 8104SOL     OW25210   2.163   5.802   0.173
 8104SOL    HW125211   2.150   5.722   0.232
 8104SOL    HW225212   2.204   5.773   0.086
 8105SOL     OW25213   0.004   0.306   3.434
 8105SOL    HW125214   0.072   0.359   3.383
 8105SOL    HW225215   0.046   0.224   3.471
 8106SOL     OW25216   2.114   0.074   5.865
 8106SOL    HW125217   2.136   0.004   5.933
 8106SOL    HW225218   2.024   0.113   5.885
 8107SOL     OW25219   1.817   6.167   6.092
 8107SOL    HW125220   1.754   6.158   6.015
 8107SOL    HW225221   1.903   6.206   6.061
 8108SOL     OW25222   0.675   1.402   0.020
 8108SOL    HW125223   0.771   1.394   7.018
 8108SOL    HW225224   0.624   1.323   7.012
 8109SOL     OW25225   6.347   3.118   0.815
 8109SOL    HW125226   6.429   3.175   0.804
 8109SOL    HW225227   6.283   3.137   0.741
 8110SOL     OW25228   3.878   4.933   1.398
 8110SOL    HW125229   3.810   4.883   1.452
 8110SOL    HW225230   3.875   4.900   1.303
 8111SOL     OW25231   6.491   1.236   2.746
 8111SOL    HW125232   6.431   1.161   2.717
 8111SOL    HW225233   6.547   1.205   2.824
 8112SOL     OW25234   1.531   3.745   5.986
 8112SOL    HW125235   1.599   3.761   6.058
 8112SOL    HW225236   1.459   3.814   5.994
 8113SOL     OW25237   5.798   3.320   5.901
 8113SOL    HW125238   5.815   3.312   5.999
 8113SOL    HW225239   5.726   3.387   5.885
 8114SOL     OW25240   2.016   4.217   1.632
 8114SOL    HW125241   2.009   4.299   1.688
 8114SOL    HW225242   2.051   4.240   1.542
 8115SOL     OW25243   2.399   1.839   6.270
 8115SOL    HW125244   2.343   1.824   6.188
 8115SOL    HW225245   2.343   1.879   6.342
 8116SOL     OW25246   3.970   3.654   0.971
 8116SOL    HW125247   3.930   3.563   0.956
 8116SOL    HW225248   3.915   3.704   1.037
 8117SOL     OW25249   2.481   6.948   3.281
 8117SOL    HW125250   2.578   6.951   3.302
 8117SOL    HW225251   2.444   0.015   3.278
 8118SOL     OW25252   6.279   3.248   0.312
 8118SOL    HW125253   6.197   3.192   0.299
 8118SOL    HW225254   6.298   3.299   0.229
 8119SOL     OW25255   6.012   6.289   0.276
 8119SOL    HW125256   6.039   6.193   0.276
 8119SOL    HW225257   6.084   6.344   0.232
 8120SOL     OW25258   3.087   6.649   1.519
 8120SOL    HW125259   3.144   6.731   1.526
 8120SOL    HW225260   3.089   6.615   1.425
 8121SOL     OW25261   0.994   3.555   3.214
 8121SOL    HW125262   1.068   3.527   3.275
 8121SOL    HW225263   0.915   3.494   3.228
 8122SOL     OW25264   0.834   4.898   1.795
 8122SOL    HW125265   0.801   4.990   1.776
 8122SOL    HW225266   0.776   4.855   1.864
 8123SOL     OW25267   0.471   1.810   6.907
 8123SOL    HW125268   0.557   1.767   6.882
 8123SOL    HW225269   0.445   1.782   7.000
 8124SOL     OW25270   5.453   4.473   4.744
 8124SOL    HW125271   5.377   4.504   4.801
 8124SOL    HW225272   5.473   4.542   4.675
 8125SOL     OW25273   1.606   6.108   3.168
 8125SOL    HW125274   1.632   6.016   3.136
 8125SOL    HW225275   1.559   6.156   3.094
 8126SOL     OW25276   3.714   4.903   4.453
 8126SOL    HW125277   3.665   4.990   4.448
 8126SOL    HW225278   3.769   4.900   4.537
 8127SOL     OW25279   3.420   3.006   0.050
 8127SOL    HW125280   3.375   2.917   0.043
 8127SOL    HW225281   3.495   3.010   7.009
 8128SOL     OW25282   3.621   2.958   1.551
 8128SOL    HW125283   3.701   2.925   1.501
 8128SOL    HW225284   3.630   3.057   1.566
 8129SOL     OW25285   1.947   2.970   2.330
 8129SOL    HW125286   1.888   2.913   2.273
 8129SOL    HW225287   1.998   3.034   2.272
 8130SOL     OW25288   1.729   5.183   6.354
 8130SOL    HW125289   1.817   5.141   6.332
 8130SOL    HW225290   1.661   5.156   6.285
 8131SOL     OW25291   1.919   3.635   6.774
 8131SOL    HW125292   1.962   3.624   6.684
 8131SOL    HW225293   1.893   3.546   6.810
 8132SOL     OW25294   0.244   0.113   4.992
 8132SOL    HW125295   0.218   0.164   4.910
 8132SOL    HW225296   0.189   0.029   4.997
 8133SOL     OW25297   4.000   4.995   0.710
 8133SOL    HW125298   3.985   4.943   0.794
 8133SOL    HW225299   3.940   4.961   0.638
 8134SOL     OW25300   5.645   1.242   5.950
 8134SOL    HW125301   5.564   1.238   6.009
 8134SOL    HW225302   5.617   1.264   5.857
 8135SOL     OW25303   2.186   7.015   1.738
 8135SOL    HW125304   2.239   0.063   1.781
 8135SOL    HW225305   2.090   0.017   1.734
 8136SOL     OW25306   4.575   4.403   2.294
 8136SOL    HW125307   4.670   4.405   2.325
 8136SOL    HW225308   4.566   4.341   2.216
 8137SOL     OW25309   4.110   1.349   4.471
 8137SOL    HW125310   4.055   1.270   4.496
 8137SOL    HW225311   4.153   1.333   4.382
 8138SOL     OW25312   4.866   1.484   1.721
 8138SOL    HW125313   4.890   1.533   1.637
 8138SOL    HW225314   4.785   1.428   1.705
 8139SOL     OW25315   0.871   2.267   3.721
 8139SOL    HW125316   0.959   2.293   3.682
 8139SOL    HW225317   0.808   2.242   3.648
 8140SOL     OW25318   4.023   0.878   2.910
 8140SOL    HW125319   3.984   0.817   2.979
 8140SOL    HW225320   3.971   0.963   2.907
 8141SOL     OW25321   4.667   4.829   4.424
 8141SOL    HW125322   4.661   4.914   4.477
 8141SOL    HW225323   4.577   4.784   4.422
 8142SOL     OW25324   6.649   5.968   0.558
 8142SOL    HW125325   6.731   5.942   0.610
 8142SOL    HW225326   6.610   5.886   0.515
 8143SOL     OW25327   6.102   3.628   4.614
 8143SOL    HW125328   6.181   3.689   4.616
 8143SOL    HW225329   6.046   3.648   4.534
 8144SOL     OW25330   6.071   6.346   6.403
 8144SOL    HW125331   5.986   6.296   6.421
 8144SOL    HW225332   6.086   6.413   6.475
 8145SOL     OW25333   5.882   5.742   2.641
 8145SOL    HW125334   5.792   5.785   2.637
 8145SOL    HW225335   5.943   5.798   2.696
 8146SOL     OW25336   3.033   1.347   4.491
 8146SOL    HW125337   3.111   1.352   4.554
 8146SOL    HW225338   2.972   1.273   4.520
 8147SOL     OW25339   5.118   1.007   3.567
 8147SOL    HW125340   5.108   0.921   3.618
 8147SOL    HW225341   5.041   1.017   3.503
 8148SOL     OW25342   5.422   3.858   3.512
 8148SOL    HW125343   5.498   3.854   3.577
 8148SOL    HW225344   5.383   3.950   3.511
 8149SOL     OW25345   4.456   4.723   3.344
 8149SOL    HW125346   4.539   4.765   3.308
 8149SOL    HW225347   4.398   4.793   3.386
 8150SOL     OW25348   0.511   5.554   1.065
 8150SOL    HW125349   0.413   5.535   1.074
 8150SOL    HW225350   0.556   5.542   1.153
 8151SOL     OW25351   1.263   1.705   5.309
 8151SOL    HW125352   1.268   1.718   5.409
 8151SOL    HW225353   1.277   1.793   5.264
 8152SOL     OW25354   1.075   1.251   3.283
 8152SOL    HW125355   1.073   1.346   3.252
 8152SOL    HW225356   1.023   1.195   3.218
 8153SOL     OW25357   2.254   6.725   0.663
 8153SOL    HW125358   2.275   6.819   0.639
 8153SOL    HW225359   2.155   6.712   0.668
 8154SOL     OW25360   1.823   6.962   3.869
 8154SOL    HW125361   1.855   6.920   3.784
 8154SOL    HW225362   1.847   6.903   3.946
 8155SOL     OW25363   3.312   3.032   3.388
 8155SOL    HW125364   3.259   3.008   3.469
 8155SOL    HW225365   3.361   3.118   3.404
 8156SOL     OW25366   6.304   0.567   6.330
 8156SOL    HW125367   6.329   0.655   6.370
 8156SOL    HW225368   6.309   0.496   6.400
 8157SOL     OW25369   6.381   3.773   6.475
 8157SOL    HW125370   6.309   3.818   6.422
 8157SOL    HW225371   6.377   3.675   6.458
 8158SOL     OW25372   1.735   5.053   2.295
 8158SOL    HW125373   1.807   5.049   2.364
 8158SOL    HW225374   1.772   5.025   2.206
 8159SOL     OW25375   1.793   5.692   2.406
 8159SOL    HW125376   1.851   5.773   2.404
 8159SOL    HW225377   1.706   5.714   2.450
 8160SOL     OW25378   4.235   2.146   1.993
 8160SOL    HW125379   4.164   2.128   1.925
 8160SOL    HW225380   4.325   2.139   1.949
 8161SOL     OW25381   4.720   1.299   0.424
 8161SOL    HW125382   4.760   1.223   0.373
 8161SOL    HW225383   4.633   1.325   0.381
 8162SOL     OW25384   5.480   0.679   1.922
 8162SOL    HW125385   5.508   0.736   1.844
 8162SOL    HW225386   5.561   0.641   1.966
 8163SOL     OW25387   2.432   4.100   5.385
 8163SOL    HW125388   2.392   4.059   5.302
 8163SOL    HW225389   2.377   4.075   5.464
 8164SOL     OW25390   4.273   2.101   1.635
 8164SOL    HW125391   4.187   2.065   1.672
 8164SOL    HW225392   4.292   2.190   1.678
 8165SOL     OW25393   2.068   5.015   1.475
 8165SOL    HW125394   2.157   4.970   1.460
 8165SOL    HW225395   2.007   4.952   1.523
 8166SOL     OW25396   2.911   0.166   2.039
 8166SOL    HW125397   2.981   0.208   1.980
 8166SOL    HW225398   2.823   0.167   1.992
 8167SOL     OW25399   5.166   2.729   3.642
 8167SOL    HW125400   5.222   2.754   3.563
 8167SOL    HW225401   5.220   2.673   3.705
 8168SOL     OW25402   3.090   0.813   2.822
 8168SOL    HW125403   3.164   0.879   2.807
 8168SOL    HW225404   3.106   0.732   2.765
 8169SOL     OW25405   4.908   3.935   6.308
 8169SOL    HW125406   4.999   3.903   6.332
 8169SOL    HW225407   4.895   3.928   6.209
 8170SOL     OW25408   0.588   5.710   4.013
 8170SOL    HW125409   0.594   5.794   3.960
 8170SOL    HW225410   0.494   5.674   4.009
 8171SOL     OW25411   0.835   1.806   5.797
 8171SOL    HW125412   0.879   1.844   5.715
 8171SOL    HW225413   0.737   1.798   5.781
 8172SOL     OW25414   6.843   6.317   0.815
 8172SOL    HW125415   6.750   6.301   0.848
 8172SOL    HW225416   6.852   6.281   0.722
 8173SOL     OW25417   5.603   3.052   6.461
 8173SOL    HW125418   5.651   3.102   6.389
 8173SOL    HW225419   5.633   2.957   6.462
 8174SOL     OW25420   5.519   0.425   2.452
 8174SOL    HW125421   5.469   0.491   2.508
 8174SOL    HW225422   5.612   0.416   2.487
 8175SOL     OW25423   1.243   3.838   6.418
 8175SOL    HW125424   1.269   3.932   6.442
 8175SOL    HW225425   1.301   3.774   6.467
 8176SOL     OW25426   2.536   5.654   2.990
 8176SOL    HW125427   2.449   5.617   2.957
 8176SOL    HW225428   2.611   5.591   2.966
 8177SOL     OW25429   0.814   6.923   5.980
 8177SOL    HW125430   0.789   6.866   5.902
 8177SOL    HW225431   0.731   6.957   6.025
 8178SOL     OW25432   2.093   7.013   6.542
 8178SOL    HW125433   2.027   6.994   6.470
 8178SOL    HW225434   2.142   6.929   6.565
 8179SOL     OW25435   3.043   1.374   0.085
 8179SOL    HW125436   2.961   1.323   0.113
 8179SOL    HW225437   3.123   1.314   0.090
 8180SOL     OW25438   5.112   5.465   4.934
 8180SOL    HW125439   5.192   5.526   4.933
 8180SOL    HW225440   5.082   5.450   5.028
 8181SOL     OW25441   2.480   2.186   2.570
 8181SOL    HW125442   2.388   2.175   2.609
 8181SOL    HW225443   2.473   2.197   2.471
 8182SOL     OW25444   3.885   2.472   5.929
 8182SOL    HW125445   3.842   2.427   5.851
 8182SOL    HW225446   3.814   2.511   5.988
 8183SOL     OW25447   1.566   3.567   4.844
 8183SOL    HW125448   1.555   3.565   4.745
 8183SOL    HW225449   1.477   3.576   4.888
 8184SOL     OW25450   5.925   6.214   5.560
 8184SOL    HW125451   6.020   6.244   5.549
 8184SOL    HW225452   5.920   6.142   5.630
 8185SOL     OW25453   1.257   1.539   3.039
 8185SOL    HW125454   1.325   1.611   3.024
 8185SOL    HW225455   1.299   1.449   3.026
 8186SOL     OW25456   3.673   4.673   5.916
 8186SOL    HW125457   3.643   4.619   5.837
 8186SOL    HW225458   3.594   4.719   5.957
 8187SOL     OW25459   1.224   1.646   5.874
 8187SOL    HW125460   1.301   1.631   5.936
 8187SOL    HW225461   1.258   1.650   5.779
 8188SOL     OW25462   5.812   3.936   2.691
 8188SOL    HW125463   5.736   3.959   2.630
 8188SOL    HW225464   5.866   3.863   2.650
 8189SOL     OW25465   6.115   4.474   2.402
 8189SOL    HW125466   6.069   4.499   2.488
 8189SOL    HW225467   6.068   4.398   2.359
 8190SOL     OW25468   5.192   3.358   2.897
 8190SOL    HW125469   5.214   3.303   2.816
 8190SOL    HW225470   5.254   3.334   2.972
 8191SOL     OW25471   0.638   5.213   2.274
 8191SOL    HW125472   0.638   5.149   2.197
 8191SOL    HW225473   0.654   5.306   2.241
 8192SOL     OW25474   1.637   3.752   1.184
 8192SOL    HW125475   1.678   3.763   1.094
 8192SOL    HW225476   1.539   3.734   1.175
 8193SOL     OW25477   3.472   0.626   6.099
 8193SOL    HW125478   3.414   0.703   6.127
 8193SOL    HW225479   3.557   0.661   6.059
 8194SOL     OW25480   1.740   0.447   0.827
 8194SOL    HW125481   1.677   0.512   0.869
 8194SOL    HW225482   1.711   0.426   0.734
 8195SOL     OW25483   5.962   0.008   0.936
 8195SOL    HW125484   6.015   0.093   0.927
 8195SOL    HW225485   5.984   6.972   0.860
 8196SOL     OW25486   2.534   0.434   6.230
 8196SOL    HW125487   2.444   0.470   6.255
 8196SOL    HW225488   2.603   0.470   6.292
 8197SOL     OW25489   0.929   6.956   0.010
 8197SOL    HW125490   0.999   6.895   0.047
 8197SOL    HW225491   0.956   0.026   0.022
 8198SOL     OW25492   4.158   6.396   2.608
 8198SOL    HW125493   4.197   6.376   2.698
 8198SOL    HW225494   4.164   6.494   2.590
 8199SOL     OW25495   6.061   3.832   0.626
 8199SOL    HW125496   6.045   3.884   0.710
 8199SOL    HW225497   5.999   3.865   0.555
 8200SOL     OW25498   4.758   3.601   1.490
 8200SOL    HW125499   4.787   3.696   1.486
 8200SOL    HW225500   4.833   3.544   1.524
 8201SOL     OW25501   6.209   1.333   4.621
 8201SOL    HW125502   6.274   1.409   4.630
 8201SOL    HW225503   6.145   1.354   4.547
 8202SOL     OW25504   1.913   4.469   3.808
 8202SOL    HW125505   1.982   4.513   3.749
 8202SOL    HW225506   1.848   4.538   3.840
 8203SOL     OW25507   6.070   3.596   0.972
 8203SOL    HW125508   6.028   3.505   0.977
 8203SOL    HW225509   6.167   3.590   0.993
 8204SOL     OW25510   3.672   0.004   0.535
 8204SOL    HW125511   3.651   0.042   0.445
 8204SOL    HW225512   3.704   6.935   0.524
 8205SOL     OW25513   5.768   5.520   3.194
 8205SOL    HW125514   5.758   5.555   3.101
 8205SOL    HW225515   5.679   5.525   3.240
 8206SOL     OW25516   4.502   2.011   3.984
 8206SOL    HW125517   4.470   2.105   3.980
 8206SOL    HW225518   4.510   1.982   4.079
 8207SOL     OW25519   2.889   6.559   0.218
 8207SOL    HW125520   2.803   6.518   0.186
 8207SOL    HW225521   2.941   6.593   0.139
 8208SOL     OW25522   1.461   4.803   6.106
 8208SOL    HW125523   1.413   4.809   6.193
 8208SOL    HW225524   1.532   4.732   6.112
 8209SOL     OW25525   0.811   6.505   5.370
 8209SOL    HW125526   0.768   6.477   5.456
 8209SOL    HW225527   0.749   6.487   5.294
 8210SOL     OW25528   3.332   1.662   0.027
 8210SOL    HW125529   3.394   1.714   0.086
 8210SOL    HW225530   3.245   1.648   0.075
 8211SOL     OW25531   2.900   3.485   4.767
 8211SOL    HW125532   2.802   3.467   4.767
 8211SOL    HW225533   2.935   3.483   4.860
 8212SOL     OW25534   3.483   6.362   1.654
 8212SOL    HW125535   3.468   6.269   1.620
 8212SOL    HW225536   3.576   6.391   1.632
 8213SOL     OW25537   4.376   4.204   1.685
 8213SOL    HW125538   4.315   4.125   1.683
 8213SOL    HW225539   4.396   4.228   1.780
 8214SOL     OW25540   3.892   5.226   4.375
 8214SOL    HW125541   3.963   5.194   4.312
 8214SOL    HW225542   3.934   5.281   4.447
 8215SOL     OW25543   3.360   6.028   6.278
 8215SOL    HW125544   3.459   6.017   6.280
 8215SOL    HW225545   3.318   5.945   6.241
 8216SOL     OW25546   5.893   4.636   1.726
 8216SOL    HW125547   5.859   4.571   1.659
 8216SOL    HW225548   5.964   4.593   1.781
 8217SOL     OW25549   2.128   6.099   3.863
 8217SOL    HW125550   2.081   6.148   3.789
 8217SOL    HW225551   2.213   6.059   3.828
 8218SOL     OW25552   2.956   6.352   5.205
 8218SOL    HW125553   2.932   6.349   5.108
 8218SOL    HW225554   3.054   6.341   5.216
 8219SOL     OW25555   3.990   2.987   1.807
 8219SOL    HW125556   4.059   3.040   1.857
 8219SOL    HW225557   4.031   2.901   1.776
 8220SOL     OW25558   2.980   3.919   4.480
 8220SOL    HW125559   3.020   3.940   4.569
 8220SOL    HW225560   2.938   3.828   4.483
 8221SOL     OW25561   5.669   4.024   3.089
 8221SOL    HW125562   5.698   3.932   3.062
 8221SOL    HW225563   5.611   4.017   3.170
 8222SOL     OW25564   6.658   2.915   0.736
 8222SOL    HW125565   6.634   2.843   0.801
 8222SOL    HW225566   6.575   2.949   0.692
 8223SOL     OW25567   2.073   6.375   6.273
 8223SOL    HW125568   2.047   6.376   6.176
 8223SOL    HW225569   2.120   6.289   6.294
 8224SOL     OW25570   5.279   1.045   0.094
 8224SOL    HW125571   5.242   1.045   0.187
 8224SOL    HW225572   5.320   1.133   0.075
 8225SOL     OW25573   5.867   2.450   0.172
 8225SOL    HW125574   5.898   2.482   0.083
 8225SOL    HW225575   5.776   2.485   0.191
 8226SOL     OW25576   3.748   1.120   0.240
 8226SOL    HW125577   3.837   1.076   0.230
 8226SOL    HW225578   3.709   1.139   0.150
 8227SOL     OW25579   3.831   1.992   2.546
 8227SOL    HW125580   3.775   2.072   2.528
 8227SOL    HW225581   3.926   2.020   2.561
 8228SOL     OW25582   2.581   0.303   4.775
 8228SOL    HW125583   2.499   0.276   4.825
 8228SOL    HW225584   2.625   0.222   4.737
 8229SOL     OW25585   4.507   4.269   0.519
 8229SOL    HW125586   4.460   4.200   0.464
 8229SOL    HW225587   4.463   4.275   0.609
 8230SOL     OW25588   5.677   0.643   5.970
 8230SOL    HW125589   5.692   0.727   6.023
 8230SOL    HW225590   5.709   0.657   5.876
 8231SOL     OW25591   2.900   1.247   2.470
 8231SOL    HW125592   2.864   1.272   2.380
 8231SOL    HW225593   2.826   1.243   2.536
 8232SOL     OW25594   3.398   5.494   3.192
 8232SOL    HW125595   3.478   5.517   3.247
 8232SOL    HW225596   3.316   5.534   3.234
 8233SOL     OW25597   1.599   1.195   6.299
 8233SOL    HW125598   1.539   1.125   6.262
 8233SOL    HW225599   1.548   1.255   6.361
 8234SOL     OW25600   1.372   2.352   0.442
 8234SOL    HW125601   1.302   2.342   0.371
 8234SOL    HW225602   1.439   2.419   0.412
 8235SOL     OW25603   0.499   0.587   1.676
 8235SOL    HW125604   0.455   0.658   1.621
 8235SOL    HW225605   0.536   0.516   1.616
 8236SOL     OW25606   0.953   0.136   1.767
 8236SOL    HW125607   1.046   0.101   1.782
 8236SOL    HW225608   0.958   0.229   1.732
 8237SOL     OW25609   3.949   4.651   5.930
 8237SOL    HW125610   3.965   4.702   5.846
 8237SOL    HW225611   3.851   4.652   5.951
 8238SOL     OW25612   0.506   5.151   1.027
 8238SOL    HW125613   0.519   5.249   1.042
 8238SOL    HW225614   0.421   5.122   1.071
 8239SOL     OW25615   2.002   1.769   6.368
 8239SOL    HW125616   2.045   1.685   6.401
 8239SOL    HW225617   1.929   1.796   6.431
 8240SOL     OW25618   3.760   3.727   4.520
 8240SOL    HW125619   3.791   3.811   4.565
 8240SOL    HW225620   3.826   3.702   4.449
 8241SOL     OW25621   1.765   3.469   5.498
 8241SOL    HW125622   1.778   3.555   5.546
 8241SOL    HW225623   1.847   3.448   5.443
 8242SOL     OW25624   0.764   3.486   2.510
 8242SOL    HW125625   0.715   3.399   2.511
 8242SOL    HW225626   0.816   3.495   2.595
 8243SOL     OW25627   1.329   5.353   3.925
 8243SOL    HW125628   1.379   5.384   4.006
 8243SOL    HW225629   1.238   5.322   3.951
 8244SOL     OW25630   6.755   1.385   3.589
 8244SOL    HW125631   6.749   1.286   3.600
 8244SOL    HW225632   6.720   1.411   3.499
 8245SOL     OW25633   5.624   2.436   2.203
 8245SOL    HW125634   5.560   2.363   2.228
 8245SOL    HW225635   5.580   2.498   2.138
 8246SOL     OW25636   1.995   5.209   6.609
 8246SOL    HW125637   2.083   5.242   6.643
 8246SOL    HW225638   1.953   5.150   6.679
 8247SOL     OW25639   3.172   5.474   2.932
 8247SOL    HW125640   3.200   5.560   2.974
 8247SOL    HW225641   3.131   5.414   3.001
 8248SOL     OW25642   6.287   5.369   3.966
 8248SOL    HW125643   6.301   5.405   3.874
 8248SOL    HW225644   6.250   5.276   3.960
 8249SOL     OW25645   3.179   1.260   6.768
 8249SOL    HW125646   3.123   1.339   6.792
 8249SOL    HW225647   3.120   1.179   6.759
 8250SOL     OW25648   0.942   1.863   6.689
 8250SOL    HW125649   1.038   1.890   6.680
 8250SOL    HW225650   0.900   1.858   6.599
 8251SOL     OW25651   1.043   2.481   4.890
 8251SOL    HW125652   0.977   2.509   4.820
 8251SOL    HW225653   1.135   2.500   4.858
 8252SOL     OW25654   0.863   1.806   6.431
 8252SOL    HW125655   0.766   1.829   6.439
 8252SOL    HW225656   0.894   1.825   6.337
 8253SOL     OW25657   4.397   5.941   6.778
 8253SOL    HW125658   4.362   5.941   6.872
 8253SOL    HW225659   4.428   5.849   6.755
 8254SOL     OW25660   5.984   5.288   0.259
 8254SOL    HW125661   5.922   5.289   0.181
 8254SOL    HW225662   6.025   5.197   0.268
 8255SOL     OW25663   2.456   0.554   5.334
 8255SOL    HW125664   2.493   0.623   5.397
 8255SOL    HW225665   2.383   0.595   5.280
 8256SOL     OW25666   1.063   5.324   4.896
 8256SOL    HW125667   1.114   5.390   4.952
 8256SOL    HW225668   1.022   5.255   4.955
 8257SOL     OW25669   5.234   3.938   3.105
 8257SOL    HW125670   5.160   3.915   3.043
 8257SOL    HW225671   5.318   3.892   3.075
 8258SOL     OW25672   0.685   3.251   2.676
 8258SOL    HW125673   0.587   3.265   2.668
 8258SOL    HW225674   0.719   3.296   2.759
 8259SOL     OW25675   5.570   1.948   4.232
 8259SOL    HW125676   5.504   2.016   4.200
 8259SOL    HW225677   5.592   1.885   4.157
 8260SOL     OW25678   5.119   2.784   1.062
 8260SOL    HW125679   5.069   2.862   1.099
 8260SOL    HW225680   5.060   2.702   1.066
 8261SOL     OW25681   5.374   1.475   2.734
 8261SOL    HW125682   5.300   1.485   2.800
 8261SOL    HW225683   5.338   1.436   2.649
 8262SOL     OW25684   5.396   3.350   2.173
 8262SOL    HW125685   5.403   3.449   2.190
 8262SOL    HW225686   5.477   3.319   2.123
 8263SOL     OW25687   6.455   1.518   5.512
 8263SOL    HW125688   6.422   1.443   5.454
 8263SOL    HW225689   6.437   1.605   5.468
 8264SOL     OW25690   3.404   0.430   2.656
 8264SOL    HW125691   3.398   0.514   2.710
 8264SOL    HW225692   3.484   0.378   2.685
 8265SOL     OW25693   4.944   6.122   0.590
 8265SOL    HW125694   4.939   6.023   0.587
 8265SOL    HW225695   5.039   6.151   0.605
 8266SOL     OW25696   3.204   1.109   4.079
 8266SOL    HW125697   3.169   1.034   4.136
 8266SOL    HW225698   3.180   1.196   4.121
 8267SOL     OW25699   2.095   3.433   2.594
 8267SOL    HW125700   2.050   3.458   2.508
 8267SOL    HW225701   2.157   3.356   2.579
 8268SOL     OW25702   3.108   4.328   6.504
 8268SOL    HW125703   3.020   4.309   6.548
 8268SOL    HW225704   3.092   4.369   6.415
 8269SOL     OW25705   6.482   3.080   4.639
 8269SOL    HW125706   6.545   3.080   4.561
 8269SOL    HW225707   6.533   3.062   4.723
 8270SOL     OW25708   4.181   6.078   6.693
 8270SOL    HW125709   4.266   6.035   6.723
 8270SOL    HW225710   4.198   6.130   6.610
 8271SOL     OW25711   3.577   6.803   5.971
 8271SOL    HW125712   3.672   6.833   5.968
 8271SOL    HW225713   3.532   6.846   6.049
 8272SOL     OW25714   1.252   0.912   2.002
 8272SOL    HW125715   1.223   0.986   1.942
 8272SOL    HW225716   1.177   0.845   2.010
 8273SOL     OW25717   3.907   0.824   7.001
 8273SOL    HW125718   3.864   0.809   6.911
 8273SOL    HW225719   3.886   0.746   0.035
 8274SOL     OW25720   5.216   6.338   5.529
 8274SOL    HW125721   5.257   6.429   5.527
 8274SOL    HW225722   5.269   6.277   5.469
 8275SOL     OW25723   5.344   0.803   4.317
 8275SOL    HW125724   5.326   0.901   4.316
 8275SOL    HW225725   5.267   0.754   4.358
 8276SOL     OW25726   6.363   2.109   6.854
 8276SOL    HW125727   6.419   2.059   6.920
 8276SOL    HW225728   6.275   2.133   6.896
 8277SOL     OW25729   1.541   0.289   0.284
 8277SOL    HW125730   1.469   0.225   0.313
 8277SOL    HW225731   1.517   0.382   0.312
 8278SOL     OW25732   2.866   1.250   0.756
 8278SOL    HW125733   2.772   1.240   0.790
 8278SOL    HW225734   2.901   1.160   0.731
 8279SOL     OW25735   3.974   5.866   5.283
 8279SOL    HW125736   3.951   5.963   5.295
 8279SOL    HW225737   3.995   5.825   5.372
 8280SOL     OW25738   5.420   3.798   6.729
 8280SOL    HW125739   5.489   3.741   6.685
 8280SOL    HW225740   5.413   3.772   6.825
 8281SOL     OW25741   2.792   5.666   6.866
 8281SOL    HW125742   2.712   5.677   6.924
 8281SOL    HW225743   2.860   5.610   6.913
 8282SOL     OW25744   2.901   3.201   1.652
 8282SOL    HW125745   2.940   3.112   1.673
 8282SOL    HW225746   2.812   3.210   1.697
 8283SOL     OW25747   0.490   6.967   3.799
 8283SOL    HW125748   0.399   7.004   3.819
 8283SOL    HW225749   0.482   6.894   3.730
 8284SOL     OW25750   3.727   1.428   2.084
 8284SOL    HW125751   3.709   1.411   2.181
 8284SOL    HW225752   3.652   1.480   2.044
 8285SOL     OW25753   1.711   4.299   6.948
 8285SOL    HW125754   1.760   4.313   6.862
 8285SOL    HW225755   1.612   4.298   6.930
 8286SOL     OW25756   6.211   2.491   5.459
 8286SOL    HW125757   6.260   2.404   5.463
 8286SOL    HW225758   6.114   2.476   5.474
 8287SOL     OW25759   2.019   0.591   3.546
 8287SOL    HW125760   1.998   0.548   3.634
 8287SOL    HW225761   2.065   0.525   3.486
 8288SOL     OW25762   1.674   0.126   3.004
 8288SOL    HW125763   1.692   0.076   3.089
 8288SOL    HW225764   1.760   0.144   2.957
 8289SOL     OW25765   5.982   0.795   6.813
 8289SOL    HW125766   6.053   0.829   6.751
 8289SOL    HW225767   5.950   0.869   6.871
 8290SOL     OW25768   4.632   2.789   1.750
 8290SOL    HW125769   4.610   2.875   1.797
 8290SOL    HW225770   4.715   2.750   1.790
 8291SOL     OW25771   5.105   5.911   6.380
 8291SOL    HW125772   5.061   5.911   6.290
 8291SOL    HW225773   5.089   5.823   6.424
 8292SOL     OW25774   0.879   2.724   4.981
 8292SOL    HW125775   0.884   2.724   4.881
 8292SOL    HW225776   0.843   2.812   5.012
 8293SOL     OW25777   2.905   5.407   3.905
 8293SOL    HW125778   2.918   5.376   3.811
 8293SOL    HW225779   2.903   5.328   3.966
 8294SOL     OW25780   5.173   4.086   5.646
 8294SOL    HW125781   5.115   4.040   5.578
 8294SOL    HW225782   5.268   4.080   5.616
 8295SOL     OW25783   4.977   4.653   2.273
 8295SOL    HW125784   5.000   4.721   2.204
 8295SOL    HW225785   4.892   4.679   2.319
 8296SOL     OW25786   3.923   6.648   2.609
 8296SOL    HW125787   3.964   6.631   2.699
 8296SOL    HW225788   3.825   6.665   2.620
 8297SOL     OW25789   5.682   4.290   3.157
 8297SOL    HW125790   5.685   4.199   3.117
 8297SOL    HW225791   5.645   4.284   3.250
 8298SOL     OW25792   0.177   6.732   0.045
 8298SOL    HW125793   0.222   6.784   0.117
 8298SOL    HW225794   0.211   6.638   0.046
 8299SOL     OW25795   0.673   3.312   0.148
 8299SOL    HW125796   0.698   3.302   0.052
 8299SOL    HW225797   0.671   3.222   0.192
 8300SOL     OW25798   6.054   5.070   4.117
 8300SOL    HW125799   6.071   5.061   4.019
 8300SOL    HW225800   6.030   4.981   4.156
 8301SOL     OW25801   5.760   6.366   0.371
 8301SOL    HW125802   5.848   6.358   0.324
 8301SOL    HW225803   5.721   6.456   0.354
 8302SOL     OW25804   3.618   6.647   5.380
 8302SOL    HW125805   3.623   6.567   5.440
 8302SOL    HW225806   3.658   6.624   5.291
 8303SOL     OW25807   0.282   5.323   2.420
 8303SOL    HW125808   0.281   5.227   2.393
 8303SOL    HW225809   0.303   5.380   2.340
 8304SOL     OW25810   5.974   4.315   3.256
 8304SOL    HW125811   5.881   4.353   3.248
 8304SOL    HW225812   6.023   4.328   3.169
 8305SOL     OW25813   5.247   6.894   5.990
 8305SOL    HW125814   5.325   6.891   6.053
 8305SOL    HW225815   5.261   6.965   5.922
 8306SOL     OW25816   6.449   1.496   3.583
 8306SOL    HW125817   6.502   1.522   3.664
 8306SOL    HW225818   6.471   1.402   3.558
 8307SOL     OW25819   1.895   3.494   2.955
 8307SOL    HW125820   1.914   3.530   2.863
 8307SOL    HW225821   1.880   3.569   3.018
 8308SOL     OW25822   1.048   5.850   0.965
 8308SOL    HW125823   1.012   5.893   1.048
 8308SOL    HW225824   0.972   5.810   0.913
 8309SOL     OW25825   5.878   5.248   4.231
 8309SOL    HW125826   5.945   5.192   4.183
 8309SOL    HW225827   5.895   5.241   4.330
 8310SOL     OW25828   1.800   0.563   1.572
 8310SOL    HW125829   1.767   0.568   1.666
 8310SOL    HW225830   1.863   0.487   1.562
 8311SOL     OW25831   4.806   5.821   3.182
 8311SOL    HW125832   4.865   5.891   3.221
 8311SOL    HW225833   4.812   5.738   3.237
 8312SOL     OW25834   6.343   1.466   0.218
 8312SOL    HW125835   6.344   1.407   0.299
 8312SOL    HW225836   6.301   1.554   0.242
 8313SOL     OW25837   5.701   2.159   5.554
 8313SOL    HW125838   5.706   2.235   5.619
 8313SOL    HW225839   5.779   2.098   5.569
 8314SOL     OW25840   4.830   6.179   4.212
 8314SOL    HW125841   4.734   6.197   4.191
 8314SOL    HW225842   4.863   6.249   4.276
 8315SOL     OW25843   3.723   2.893   4.737
 8315SOL    HW125844   3.712   2.961   4.664
 8315SOL    HW225845   3.787   2.822   4.707
 8316SOL     OW25846   2.225   2.068   5.207
 8316SOL    HW125847   2.267   2.127   5.138
 8316SOL    HW225848   2.130   2.049   5.182
 8317SOL     OW25849   1.419   1.733   3.878
 8317SOL    HW125850   1.370   1.671   3.941
 8317SOL    HW225851   1.360   1.752   3.800
 8318SOL     OW25852   4.096   6.407   6.020
 8318SOL    HW125853   4.069   6.312   6.005
 8318SOL    HW225854   4.014   6.461   6.042
 8319SOL     OW25855   2.078   5.508   6.155
 8319SOL    HW125856   1.982   5.522   6.181
 8319SOL    HW225857   2.090   5.533   6.059
 8320SOL     OW25858   3.812   3.381   5.309
 8320SOL    HW125859   3.726   3.386   5.359
 8320SOL    HW225860   3.813   3.450   5.237
 8321SOL     OW25861   0.334   6.802   0.264
 8321SOL    HW125862   0.344   6.863   0.342
 8321SOL    HW225863   0.362   6.710   0.289
 8322SOL     OW25864   0.902   6.944   0.488
 8322SOL    HW125865   0.856   6.862   0.521
 8322SOL    HW225866   0.836   7.020   0.487
 8323SOL     OW25867   5.565   4.572   0.124
 8323SOL    HW125868   5.644   4.607   0.073
 8323SOL    HW225869   5.488   4.635   0.113
 8324SOL     OW25870   5.441   6.814   0.035
 8324SOL    HW125871   5.497   6.734   0.056
 8324SOL    HW225872   5.347   6.786   0.018
 8325SOL     OW25873   1.562   6.529   5.150
 8325SOL    HW125874   1.464   6.534   5.172
 8325SOL    HW225875   1.606   6.464   5.212
 8326SOL     OW25876   1.818   3.412   6.911
 8326SOL    HW125877   1.719   3.406   6.896
 8326SOL    HW225878   1.837   3.401   7.008
 8327SOL     OW25879   1.236   6.148   4.858
 8327SOL    HW125880   1.202   6.054   4.863
 8327SOL    HW225881   1.298   6.157   4.780
 8328SOL     OW25882   0.948   6.545   0.087
 8328SOL    HW125883   0.848   6.542   0.080
 8328SOL    HW225884   0.976   6.632   0.128
 8329SOL     OW25885   1.298   2.593   4.452
 8329SOL    HW125886   1.235   2.655   4.499
 8329SOL    HW225887   1.245   2.519   4.409
 8330SOL     OW25888   3.155   0.930   6.825
 8330SOL    HW125889   3.071   0.981   6.805
 8330SOL    HW225890   3.205   0.977   6.898
 8331SOL     OW25891   1.827   2.317   6.416
 8331SOL    HW125892   1.741   2.266   6.412
 8331SOL    HW225893   1.819   2.400   6.362
 8332SOL     OW25894   6.715   4.075   1.697
 8332SOL    HW125895   6.691   4.136   1.773
 8332SOL    HW225896   6.652   4.091   1.621
 8333SOL     OW25897   2.018   3.811   6.970
 8333SOL    HW125898   1.992   3.751   6.894
 8333SOL    HW225899   1.953   3.886   6.978
 8334SOL     OW25900   3.162   1.817   5.355
 8334SOL    HW125901   3.257   1.845   5.369
 8334SOL    HW225902   3.131   1.847   5.265
 8335SOL     OW25903   5.436   4.717   5.940
 8335SOL    HW125904   5.499   4.647   5.976
 8335SOL    HW225905   5.482   4.806   5.940
 8336SOL     OW25906   1.028   4.221   3.783
 8336SOL    HW125907   1.126   4.233   3.762
 8336SOL    HW225908   1.011   4.127   3.811
 8337SOL     OW25909   6.674   1.266   3.995
 8337SOL    HW125910   6.761   1.267   3.945
 8337SOL    HW225911   6.600   1.290   3.932
 8338SOL     OW25912   3.004   5.335   0.908
 8338SOL    HW125913   2.980   5.301   0.999
 8338SOL    HW225914   3.053   5.423   0.917
 8339SOL     OW25915   5.637   0.613   1.551
 8339SOL    HW125916   5.662   0.622   1.454
 8339SOL    HW225917   5.665   0.695   1.600
 8340SOL     OW25918   6.459   2.185   6.617
 8340SOL    HW125919   6.418   2.177   6.708
 8340SOL    HW225920   6.443   2.100   6.566
 8341SOL     OW25921   3.679   1.386   0.676
 8341SOL    HW125922   3.666   1.471   0.627
 8341SOL    HW225923   3.753   1.333   0.634
 8342SOL     OW25924   4.817   0.632   6.648
 8342SOL    HW125925   4.750   0.568   6.686
 8342SOL    HW225926   4.875   0.667   6.721
 8343SOL     OW25927   5.834   5.122   3.726
 8343SOL    HW125928   5.828   5.062   3.806
 8343SOL    HW225929   5.870   5.211   3.752
 8344SOL     OW25930   1.321   4.806   6.353
 8344SOL    HW125931   1.368   4.747   6.418
 8344SOL    HW225932   1.322   4.901   6.386
 8345SOL     OW25933   5.337   0.026   3.766
 8345SOL    HW125934   5.362   6.967   3.815
 8345SOL    HW225935   5.312   0.097   3.831
 8346SOL     OW25936   5.738   2.643   4.419
 8346SOL    HW125937   5.721   2.621   4.516
 8346SOL    HW225938   5.719   2.562   4.363
 8347SOL     OW25939   2.157   2.158   6.729
 8347SOL    HW125940   2.161   2.208   6.642
 8347SOL    HW225941   2.247   2.157   6.772
 8348SOL     OW25942   2.598   6.087   2.113
 8348SOL    HW125943   2.499   6.102   2.106
 8348SOL    HW225944   2.637   6.155   2.175
 8349SOL     OW25945   5.816   6.236   2.161
 8349SOL    HW125946   5.774   6.205   2.075
 8349SOL    HW225947   5.778   6.183   2.237
 8350SOL     OW25948   1.725   1.730   6.907
 8350SOL    HW125949   1.779   1.776   6.978
 8350SOL    HW225950   1.714   1.791   6.829
 8351SOL     OW25951   0.215   3.033   2.813
 8351SOL    HW125952   0.211   2.989   2.902
 8351SOL    HW225953   0.277   2.981   2.753
 8352SOL     OW25954   3.017   5.725   0.478
 8352SOL    HW125955   3.048   5.633   0.456
 8352SOL    HW225956   2.919   5.732   0.463
 8353SOL     OW25957   1.058   5.548   1.710
 8353SOL    HW125958   1.035   5.462   1.755
 8353SOL    HW225959   1.025   5.625   1.764
 8354SOL     OW25960   3.478   0.907   3.687
 8354SOL    HW125961   3.387   0.925   3.649
 8354SOL    HW225962   3.470   0.853   3.770
 8355SOL     OW25963   3.344   6.010   6.915
 8355SOL    HW125964   3.425   6.063   6.940
 8355SOL    HW225965   3.261   6.062   6.939
 8356SOL     OW25966   2.416   4.801   0.503
 8356SOL    HW125967   2.493   4.747   0.468
 8356SOL    HW225968   2.433   4.898   0.487
 8357SOL     OW25969   5.017   6.515   5.378
 8357SOL    HW125970   4.989   6.610   5.366
 8357SOL    HW225971   5.113   6.511   5.404
 8358SOL     OW25972   1.532   0.939   5.241
 8358SOL    HW125973   1.501   0.853   5.280
 8358SOL    HW225974   1.511   1.014   5.304
 8359SOL     OW25975   4.312   1.990   6.062
 8359SOL    HW125976   4.360   1.933   5.996
 8359SOL    HW225977   4.237   1.937   6.103
 8360SOL     OW25978   4.406   0.138   0.625
 8360SOL    HW125979   4.431   0.233   0.641
 8360SOL    HW225980   4.363   0.129   0.535
 8361SOL     OW25981   4.271   1.528   6.864
 8361SOL    HW125982   4.255   1.429   6.862
 8361SOL    HW225983   4.369   1.546   6.872
 8362SOL     OW25984   0.090   4.063   1.516
 8362SOL    HW125985   0.023   4.011   1.569
 8362SOL    HW225986   0.060   4.069   1.421
 8363SOL     OW25987   1.792   2.925   1.178
 8363SOL    HW125988   1.781   2.945   1.275
 8363SOL    HW225989   1.840   2.837   1.168
 8364SOL     OW25990   0.161   2.591   4.045
 8364SOL    HW125991   0.240   2.650   4.029
 8364SOL    HW225992   0.193   2.503   4.080
 8365SOL     OW25993   1.470   2.145   2.287
 8365SOL    HW125994   1.460   2.046   2.295
 8365SOL    HW225995   1.422   2.177   2.205
 8366SOL     OW25996   5.255   4.887   2.244
 8366SOL    HW125997   5.280   4.957   2.310
 8366SOL    HW225998   5.334   4.830   2.223
 8367SOL     OW25999   2.308   4.577   4.163
 8367SOL    HW126000   2.364   4.585   4.080
 8367SOL    HW226001   2.259   4.490   4.162
 8368SOL     OW26002   6.268   6.627   5.831
 8368SOL    HW126003   6.290   6.620   5.733
 8368SOL    HW226004   6.196   6.562   5.853
 8369SOL     OW26005   2.603   6.449   0.692
 8369SOL    HW126006   2.632   6.474   0.600
 8369SOL    HW226007   2.571   6.531   0.740
 8370SOL     OW26008   2.857   3.812   6.616
 8370SOL    HW126009   2.838   3.804   6.518
 8370SOL    HW226010   2.884   3.905   6.637
 8371SOL     OW26011   2.511   4.447   5.859
 8371SOL    HW126012   2.578   4.500   5.807
 8371SOL    HW226013   2.422   4.492   5.855
 8372SOL     OW26014   2.153   6.883   0.939
 8372SOL    HW126015   2.118   6.944   1.010
 8372SOL    HW226016   2.082   6.816   0.916
 8373SOL     OW26017   6.015   1.590   4.203
 8373SOL    HW126018   6.005   1.676   4.152
 8373SOL    HW226019   5.987   1.513   4.146
 8374SOL     OW26020   6.667   1.123   4.237
 8374SOL    HW126021   6.723   1.171   4.305
 8374SOL    HW226022   6.680   1.164   4.147
 8375SOL     OW26023   2.798   1.439   5.074
 8375SOL    HW126024   2.739   1.444   5.154
 8375SOL    HW226025   2.865   1.514   5.079
 8376SOL     OW26026   0.811   1.697   3.366
 8376SOL    HW126027   0.901   1.709   3.325
 8376SOL    HW226028   0.740   1.711   3.297
 8377SOL     OW26029   4.510   5.031   0.108
 8377SOL    HW126030   4.500   4.933   0.122
 8377SOL    HW226031   4.555   5.072   0.187
 8378SOL     OW26032   4.927   5.924   4.375
 8378SOL    HW126033   4.862   5.991   4.338
 8378SOL    HW226034   4.947   5.855   4.305
 8379SOL     OW26035   6.038   2.011   1.522
 8379SOL    HW126036   6.005   2.036   1.613
 8379SOL    HW226037   6.134   1.983   1.528
 8380SOL     OW26038   0.130   6.240   0.991
 8380SOL    HW126039   0.223   6.213   1.017
 8380SOL    HW226040   0.074   6.246   1.073
 8381SOL     OW26041   0.210   1.507   2.938
 8381SOL    HW126042   0.191   1.594   2.894
 8381SOL    HW226043   0.245   1.442   2.870
 8382SOL     OW26044   1.499   0.585   1.228
 8382SOL    HW126045   1.539   0.652   1.291
 8382SOL    HW226046   1.543   0.496   1.241
 8383SOL     OW26047   2.978   0.247   6.313
 8383SOL    HW126048   2.973   0.327   6.253
 8383SOL    HW226049   3.070   0.208   6.308
 8384SOL     OW26050   0.888   3.864   3.314
 8384SOL    HW126051   0.809   3.841   3.371
 8384SOL    HW226052   0.923   3.780   3.272
 8385SOL     OW26053   4.466   3.094   1.227
 8385SOL    HW126054   4.438   3.040   1.307
 8385SOL    HW226055   4.385   3.124   1.178
 8386SOL     OW26056   2.176   5.955   1.512
 8386SOL    HW126057   2.189   5.974   1.609
 8386SOL    HW226058   2.237   6.013   1.458
 8387SOL     OW26059   0.772   1.483   3.086
 8387SOL    HW126060   0.765   1.513   2.991
 8387SOL    HW226061   0.868   1.480   3.114
 8388SOL     OW26062   4.481   5.679   0.446
 8388SOL    HW126063   4.480   5.588   0.488
 8388SOL    HW226064   4.574   5.703   0.421
 8389SOL     OW26065   0.374   2.933   3.786
 8389SOL    HW126066   0.458   2.961   3.741
 8389SOL    HW226067   0.301   2.998   3.764
 8390SOL     OW26068   2.594   0.124   6.087
 8390SOL    HW126069   2.595   0.202   6.024
 8390SOL    HW226070   2.521   0.061   6.060
 8391SOL     OW26071   5.776   6.168   0.768
 8391SOL    HW126072   5.792   6.141   0.673
 8391SOL    HW226073   5.856   6.145   0.823
 8392SOL     OW26074   5.216   6.753   5.773
 8392SOL    HW126075   5.275   6.796   5.705
 8392SOL    HW226076   5.240   6.787   5.864
 8393SOL     OW26077   0.124   5.435   2.623
 8393SOL    HW126078   0.166   5.393   2.543
 8393SOL    HW226079   0.177   5.410   2.705
 8394SOL     OW26080   0.199   1.880   3.149
 8394SOL    HW126081   0.228   1.961   3.097
 8394SOL    HW226082   0.108   1.853   3.119
 8395SOL     OW26083   1.032   6.223   5.495
 8395SOL    HW126084   1.081   6.154   5.442
 8395SOL    HW226085   0.936   6.195   5.506
 8396SOL     OW26086   4.345   3.500   0.890
 8396SOL    HW126087   4.295   3.451   0.961
 8396SOL    HW226088   4.291   3.578   0.859
 8397SOL     OW26089   1.884   5.218   3.490
 8397SOL    HW126090   1.914   5.129   3.522
 8397SOL    HW226091   1.860   5.213   3.393
 8398SOL     OW26092   5.209   1.549   0.232
 8398SOL    HW126093   5.220   1.452   0.251
 8398SOL    HW226094   5.113   1.575   0.245
 8399SOL     OW26095   5.782   5.654   0.197
 8399SOL    HW126096   5.879   5.676   0.190
 8399SOL    HW226097   5.759   5.632   0.292
 8400SOL     OW26098   5.931   0.247   4.590
 8400SOL    HW126099   6.025   0.277   4.578
 8400SOL    HW226100   5.930   0.150   4.614
 8401SOL     OW26101   2.984   4.472   6.229
 8401SOL    HW126102   3.055   4.432   6.169
 8401SOL    HW226103   2.894   4.444   6.196
 8402SOL     OW26104   4.530   1.377   6.985
 8402SOL    HW126105   4.479   1.307   6.935
 8402SOL    HW226106   4.545   1.457   6.926
 8403SOL     OW26107   1.188   2.098   4.425
 8403SOL    HW126108   1.168   2.094   4.523
 8403SOL    HW226109   1.279   2.062   4.408
 8404SOL     OW26110   4.430   5.239   5.451
 8404SOL    HW126111   4.474   5.149   5.457
 8404SOL    HW226112   4.493   5.303   5.406
 8405SOL     OW26113   1.220   2.418   5.184
 8405SOL    HW126114   1.268   2.418   5.096
 8405SOL    HW226115   1.172   2.505   5.195
 8406SOL     OW26116   5.141   3.553   0.971
 8406SOL    HW126117   5.083   3.475   0.946
 8406SOL    HW226118   5.157   3.553   1.070
 8407SOL     OW26119   4.967   3.426   2.775
 8407SOL    HW126120   5.058   3.410   2.813
 8407SOL    HW226121   4.974   3.442   2.676
 8408SOL     OW26122   4.797   2.700   3.873
 8408SOL    HW126123   4.703   2.666   3.877
 8408SOL    HW226124   4.815   2.737   3.782
 8409SOL     OW26125   1.272   1.986   3.990
 8409SOL    HW126126   1.369   1.971   4.009
 8409SOL    HW226127   1.262   2.023   3.898
 8410SOL     OW26128   2.916   6.703   2.294
 8410SOL    HW126129   2.859   6.624   2.315
 8410SOL    HW226130   2.992   6.674   2.235
 8411SOL     OW26131   1.856   3.252   3.376
 8411SOL    HW126132   1.942   3.285   3.414
 8411SOL    HW226133   1.875   3.194   3.297
 8412SOL     OW26134   6.434   3.155   2.337
 8412SOL    HW126135   6.442   3.181   2.240
 8412SOL    HW226136   6.346   3.186   2.372
 8413SOL     OW26137   2.510   4.491   1.394
 8413SOL    HW126138   2.527   4.412   1.453
 8413SOL    HW226139   2.506   4.574   1.449
 8414SOL     OW26140   4.971   6.957   2.456
 8414SOL    HW126141   4.966   0.028   2.427
 8414SOL    HW226142   4.919   6.901   2.393
 8415SOL     OW26143   6.622   3.406   1.792
 8415SOL    HW126144   6.717   3.390   1.819
 8415SOL    HW226145   6.586   3.484   1.843
 8416SOL     OW26146   5.031   3.867   2.297
 8416SOL    HW126147   4.959   3.875   2.229
 8416SOL    HW226148   4.991   3.856   2.388
 8417SOL     OW26149   2.334   5.836   6.463
 8417SOL    HW126150   2.368   5.770   6.396
 8417SOL    HW226151   2.411   5.879   6.509
 8418SOL     OW26152   5.831   5.354   2.368
 8418SOL    HW126153   5.837   5.279   2.433
 8418SOL    HW226154   5.751   5.410   2.388
 8419SOL     OW26155   4.015   6.999   3.511
 8419SOL    HW126156   4.033   6.906   3.540
 8419SOL    HW226157   3.922   7.005   3.474
 8420SOL     OW26158   3.782   1.927   5.582
 8420SOL    HW126159   3.798   1.950   5.486
 8420SOL    HW226160   3.731   2.000   5.626
 8421SOL     OW26161   1.632   6.710   2.013
 8421SOL    HW126162   1.686   6.690   1.930
 8421SOL    HW226163   1.539   6.735   1.987
 8422SOL     OW26164   3.726   6.355   1.354
 8422SOL    HW126165   3.712   6.432   1.292
 8422SOL    HW226166   3.723   6.388   1.449
 8423SOL     OW26167   1.922   4.038   1.282
 8423SOL    HW126168   1.980   3.961   1.256
 8423SOL    HW226169   1.882   4.079   1.199
 8424SOL     OW26170   2.954   2.195   2.631
 8424SOL    HW126171   2.972   2.261   2.705
 8424SOL    HW226172   2.992   2.230   2.545
 8425SOL     OW26173   6.061   4.671   0.214
 8425SOL    HW126174   5.989   4.680   0.284
 8425SOL    HW226175   6.030   4.715   0.130
 8426SOL     OW26176   4.041   3.459   2.228
 8426SOL    HW126177   4.059   3.416   2.140
 8426SOL    HW226178   3.999   3.548   2.213
 8427SOL     OW26179   2.233   3.216   6.339
 8427SOL    HW126180   2.185   3.169   6.265
 8427SOL    HW226181   2.167   3.246   6.408
 8428SOL     OW26182   6.068   4.484   1.928
 8428SOL    HW126183   6.001   4.413   1.951
 8428SOL    HW226184   6.068   4.554   2.000
 8429SOL     OW26185   2.132   6.916   2.924
 8429SOL    HW126186   2.133   6.833   2.867
 8429SOL    HW226187   2.222   6.929   2.965
 8430SOL     OW26188   4.806   4.016   3.202
 8430SOL    HW126189   4.883   3.998   3.263
 8430SOL    HW226190   4.747   3.935   3.199
 8431SOL     OW26191   3.095   3.951   1.576
 8431SOL    HW126192   3.031   3.888   1.532
 8431SOL    HW226193   3.046   4.012   1.637
 8432SOL     OW26194   4.841   6.450   0.024
 8432SOL    HW126195   4.921   6.392   0.033
 8432SOL    HW226196   4.771   6.422   0.090
 8433SOL     OW26197   1.195   1.132   5.137
 8433SOL    HW126198   1.258   1.195   5.183
 8433SOL    HW226199   1.102   1.169   5.142
 8434SOL     OW26200   5.756   6.294   6.071
 8434SOL    HW126201   5.813   6.215   6.048
 8434SOL    HW226202   5.782   6.372   6.014
 8435SOL     OW26203   5.085   2.345   1.220
 8435SOL    HW126204   5.180   2.357   1.250
 8435SOL    HW226205   5.048   2.433   1.191
 8436SOL     OW26206   3.676   4.306   1.394
 8436SOL    HW126207   3.765   4.338   1.427
 8436SOL    HW226208   3.684   4.275   1.300
 8437SOL     OW26209   6.786   1.926   1.386
 8437SOL    HW126210   6.728   2.007   1.377
 8437SOL    HW226211   6.882   1.952   1.374
 8438SOL     OW26212   2.031   6.660   1.634
 8438SOL    HW126213   2.064   6.635   1.543
 8438SOL    HW226214   1.976   6.743   1.628
 8439SOL     OW26215   6.114   6.621   2.176
 8439SOL    HW126216   6.090   6.717   2.182
 8439SOL    HW226217   6.039   6.565   2.212
 8440SOL     OW26218   0.311   1.795   3.398
 8440SOL    HW126219   0.263   1.821   3.314
 8440SOL    HW226220   0.288   1.861   3.470
 8441SOL     OW26221   4.513   4.811   1.486
 8441SOL    HW126222   4.416   4.800   1.463
 8441SOL    HW226223   4.547   4.898   1.450
 8442SOL     OW26224   1.446   3.631   6.989
 8442SOL    HW126225   1.352   3.641   7.021
 8442SOL    HW226226   1.485   3.721   6.970
 8443SOL     OW26227   1.167   1.690   2.497
 8443SOL    HW126228   1.136   1.692   2.592
 8443SOL    HW226229   1.088   1.701   2.436
 8444SOL     OW26230   4.205   0.117   3.170
 8444SOL    HW126231   4.257   0.163   3.098
 8444SOL    HW226232   4.268   0.079   3.238
 8445SOL     OW26233   3.946   5.592   2.206
 8445SOL    HW126234   3.959   5.581   2.304
 8445SOL    HW226235   3.906   5.508   2.168
 8446SOL     OW26236   6.768   5.093   3.844
 8446SOL    HW126237   6.827   5.143   3.781
 8446SOL    HW226238   6.674   5.095   3.809
 8447SOL     OW26239   4.932   2.901   1.486
 8447SOL    HW126240   4.931   2.998   1.510
 8447SOL    HW226241   5.026   2.866   1.491
 8448SOL     OW26242   0.771   2.970   6.394
 8448SOL    HW126243   0.814   2.887   6.359
 8448SOL    HW226244   0.719   2.948   6.477
 8449SOL     OW26245   1.355   1.950   5.231
 8449SOL    HW126246   1.430   2.000   5.188
 8449SOL    HW226247   1.283   1.934   5.164
 8450SOL     OW26248   2.447   5.144   2.525
 8450SOL    HW126249   2.374   5.112   2.465
 8450SOL    HW226250   2.500   5.215   2.479
 8451SOL     OW26251   4.158   3.174   0.345
 8451SOL    HW126252   4.254   3.146   0.351
 8451SOL    HW226253   4.148   3.247   0.277
 8452SOL     OW26254   6.845   5.912   0.727
 8452SOL    HW126255   6.902   5.832   0.739
 8452SOL    HW226256   6.902   5.993   0.712
 8453SOL     OW26257   0.768   4.873   5.312
 8453SOL    HW126258   0.834   4.802   5.339
 8453SOL    HW226259   0.732   4.917   5.394
 8454SOL     OW26260   2.019   6.672   4.254
 8454SOL    HW126261   2.053   6.724   4.333
 8454SOL    HW226262   2.057   6.580   4.257
 8455SOL     OW26263   6.088   2.235   0.949
 8455SOL    HW126264   6.187   2.219   0.954
 8455SOL    HW226265   6.066   2.322   0.992
 8456SOL     OW26266   5.519   5.659   3.293
 8456SOL    HW126267   5.520   5.759   3.297
 8456SOL    HW226268   5.467   5.624   3.371
 8457SOL     OW26269   6.586   6.215   6.695
 8457SOL    HW126270   6.627   6.181   6.610
 8457SOL    HW226271   6.515   6.282   6.674
 8458SOL     OW26272   1.173   1.534   1.676
 8458SOL    HW126273   1.247   1.501   1.734
 8458SOL    HW226274   1.095   1.473   1.683
 8459SOL     OW26275   2.964   5.566   2.218
 8459SOL    HW126276   2.942   5.492   2.154
 8459SOL    HW226277   2.954   5.533   2.312
 8460SOL     OW26278   3.615   1.208   7.019
 8460SOL    HW126279   3.563   1.287   6.988
 8460SOL    HW226280   3.698   1.200   6.964
 8461SOL     OW26281   5.326   3.967   2.736
 8461SOL    HW126282   5.394   4.025   2.780
 8461SOL    HW226283   5.258   3.938   2.803
 8462SOL     OW26284   2.765   4.208   0.109
 8462SOL    HW126285   2.856   4.234   0.077
 8462SOL    HW226286   2.728   4.279   0.168
 8463SOL     OW26287   6.653   0.881   6.778
 8463SOL    HW126288   6.680   0.788   6.750
 8463SOL    HW226289   6.688   0.947   6.712
 8464SOL     OW26290   0.098   3.683   6.321
 8464SOL    HW126291   0.179   3.665   6.264
 8464SOL    HW226292   0.127   3.699   6.415
 8465SOL     OW26293   5.050   3.253   0.928
 8465SOL    HW126294   4.965   3.257   0.875
 8465SOL    HW226295   5.128   3.257   0.865
 8466SOL     OW26296   6.164   1.260   5.601
 8466SOL    HW126297   6.152   1.184   5.537
 8466SOL    HW226298   6.136   1.231   5.693
 8467SOL     OW26299   3.107   1.376   0.570
 8467SOL    HW126300   3.165   1.370   0.652
 8467SOL    HW226301   3.040   1.449   0.583
 8468SOL     OW26302   6.225   3.202   7.006
 8468SOL    HW126303   6.145   3.262   7.006
 8468SOL    HW226304   6.305   3.253   0.012
 8469SOL     OW26305   4.405   3.255   5.881
 8469SOL    HW126306   4.471   3.330   5.876
 8469SOL    HW226307   4.404   3.219   5.975
 8470SOL     OW26308   1.364   5.144   1.539
 8470SOL    HW126309   1.362   5.131   1.638
 8470SOL    HW226310   1.291   5.089   1.497
 8471SOL     OW26311   3.585   2.065   4.466
 8471SOL    HW126312   3.586   1.967   4.448
 8471SOL    HW226313   3.663   2.108   4.420
 8472SOL     OW26314   6.138   1.714   5.778
 8472SOL    HW126315   6.081   1.774   5.833
 8472SOL    HW226316   6.081   1.647   5.731
 8473SOL     OW26317   4.813   4.284   6.953
 8473SOL    HW126318   4.765   4.210   7.001
 8473SOL    HW226319   4.788   4.282   6.856
 8474SOL     OW26320   3.943   3.876   3.183
 8474SOL    HW126321   3.990   3.845   3.100
 8474SOL    HW226322   4.003   3.864   3.262
 8475SOL     OW26323   0.121   2.934   2.501
 8475SOL    HW126324   0.085   2.899   2.587
 8475SOL    HW226325   0.221   2.926   2.501
 8476SOL     OW26326   6.104   1.096   1.384
 8476SOL    HW126327   6.172   1.052   1.326
 8476SOL    HW226328   6.064   1.028   1.446
 8477SOL     OW26329   5.311   6.773   1.702
 8477SOL    HW126330   5.392   6.736   1.658
 8477SOL    HW226331   5.331   6.796   1.797
 8478SOL     OW26332   6.607   0.937   5.934
 8478SOL    HW126333   6.691   0.896   5.969
 8478SOL    HW226334   6.578   1.012   5.993
 8479SOL     OW26335   1.053   2.421   0.423
 8479SOL    HW126336   1.090   2.360   0.353
 8479SOL    HW226337   1.101   2.509   0.419
 8480SOL     OW26338   4.108   3.877   6.995
 8480SOL    HW126339   4.118   3.788   6.951
 8480SOL    HW226340   4.011   3.898   7.006
 8481SOL     OW26341   4.577   1.930   3.209
 8481SOL    HW126342   4.541   1.867   3.279
 8481SOL    HW226343   4.510   2.002   3.192
 8482SOL     OW26344   4.364   0.717   0.756
 8482SOL    HW126345   4.345   0.628   0.797
 8482SOL    HW226346   4.337   0.789   0.820
 8483SOL     OW26347   3.532   4.924   2.630
 8483SOL    HW126348   3.526   5.024   2.630
 8483SOL    HW226349   3.446   4.886   2.599
 8484SOL     OW26350   5.440   5.511   4.609
 8484SOL    HW126351   5.410   5.582   4.546
 8484SOL    HW226352   5.474   5.552   4.693
 8485SOL     OW26353   3.492   2.341   0.146
 8485SOL    HW126354   3.484   2.437   0.120
 8485SOL    HW226355   3.579   2.326   0.193
 8486SOL     OW26356   6.659   2.715   3.074
 8486SOL    HW126357   6.610   2.646   3.128
 8486SOL    HW226358   6.594   2.763   3.016
 8487SOL     OW26359   6.928   1.689   5.970
 8487SOL    HW126360   6.849   1.696   5.910
 8487SOL    HW226361   6.898   1.690   6.065
 8488SOL     OW26362   4.421   4.981   1.884
 8488SOL    HW126363   4.486   4.905   1.872
 8488SOL    HW226364   4.376   5.000   1.797
 8489SOL     OW26365   5.702   2.246   1.365
 8489SOL    HW126366   5.653   2.329   1.338
 8489SOL    HW226367   5.661   2.166   1.321
 8490SOL     OW26368   3.168   0.438   6.485
 8490SOL    HW126369   3.164   0.340   6.463
 8490SOL    HW226370   3.107   0.488   6.424
 8491SOL     OW26371   2.620   5.764   1.982
 8491SOL    HW126372   2.641   5.849   1.933
 8491SOL    HW226373   2.687   5.750   2.055
 8492SOL     OW26374   6.117   6.533   4.493
 8492SOL    HW126375   6.061   6.451   4.479
 8492SOL    HW226376   6.120   6.586   4.408
 8493SOL     OW26377   4.938   1.525   6.989
 8493SOL    HW126378   4.868   1.477   0.018
 8493SOL    HW226379   4.906   1.617   6.967
 8494SOL     OW26380   6.580   4.806   2.289
 8494SOL    HW126381   6.535   4.737   2.346
 8494SOL    HW226382   6.599   4.887   2.344
 8495SOL     OW26383   6.357   5.383   6.273
 8495SOL    HW126384   6.273   5.348   6.314
 8495SOL    HW226385   6.396   5.454   6.332
 8496SOL     OW26386   5.339   2.882   2.153
 8496SOL    HW126387   5.268   2.855   2.088
 8496SOL    HW226388   5.311   2.856   2.246
 8497SOL     OW26389   6.559   0.591   3.495
 8497SOL    HW126390   6.539   0.494   3.510
 8497SOL    HW226391   6.481   0.634   3.449
 8498SOL     OW26392   4.622   6.807   4.185
 8498SOL    HW126393   4.646   6.898   4.219
 8498SOL    HW226394   4.531   6.782   4.217
 8499SOL     OW26395   5.704   6.460   5.591
 8499SOL    HW126396   5.751   6.500   5.512
 8499SOL    HW226397   5.695   6.361   5.577
 8500SOL     OW26398   0.860   0.529   5.771
 8500SOL    HW126399   0.869   0.503   5.675
 8500SOL    HW226400   0.765   0.517   5.800
 8501SOL     OW26401   1.218   1.989   6.693
 8501SOL    HW126402   1.209   1.938   6.608
 8501SOL    HW226403   1.312   2.024   6.701
 8502SOL     OW26404   0.421   4.385   6.983
 8502SOL    HW126405   0.445   4.452   6.912
 8502SOL    HW226406   0.330   4.405   7.018
 8503SOL     OW26407   5.153   0.774   4.562
 8503SOL    HW126408   5.121   0.680   4.546
 8503SOL    HW226409   5.107   0.836   4.499
 8504SOL     OW26410   1.296   0.353   1.943
 8504SOL    HW126411   1.207   0.330   1.983
 8504SOL    HW226412   1.314   0.450   1.956
 8505SOL     OW26413   5.229   3.204   2.657
 8505SOL    HW126414   5.187   3.121   2.694
 8505SOL    HW226415   5.237   3.196   2.558
 8506SOL     OW26416   1.484   0.753   6.015
 8506SOL    HW126417   1.409   0.807   5.979
 8506SOL    HW226418   1.450   0.689   6.084
 8507SOL     OW26419   3.288   5.901   5.459
 8507SOL    HW126420   3.367   5.895   5.519
 8507SOL    HW226421   3.233   5.981   5.484
 8508SOL     OW26422   2.994   1.682   6.702
 8508SOL    HW126423   2.897   1.708   6.704
 8508SOL    HW226424   3.005   1.591   6.741
 8509SOL     OW26425   5.550   2.018   2.612
 8509SOL    HW126426   5.489   2.092   2.584
 8509SOL    HW226427   5.500   1.952   2.668
 8510SOL     OW26428   6.960   2.159   4.305
 8510SOL    HW126429   0.001   2.086   4.292
 8510SOL    HW226430   7.008   2.247   4.312
 8511SOL     OW26431   5.461   2.253   2.515
 8511SOL    HW126432   5.556   2.267   2.543
 8511SOL    HW226433   5.455   2.250   2.416
 8512SOL     OW26434   1.988   6.387   5.991
 8512SOL    HW126435   1.993   6.345   5.900
 8512SOL    HW226436   1.916   6.456   5.991
 8513SOL     OW26437   4.927   6.791   6.429
 8513SOL    HW126438   4.979   6.754   6.352
 8513SOL    HW226439   4.841   6.828   6.396
 8514SOL     OW26440   2.952   6.013   4.269
 8514SOL    HW126441   2.990   5.921   4.277
 8514SOL    HW226442   2.928   6.031   4.173
 8515SOL     OW26443   5.796   1.650   0.503
 8515SOL    HW126444   5.827   1.744   0.485
 8515SOL    HW226445   5.840   1.588   0.438
 8516SOL     OW26446   0.341   1.989   2.384
 8516SOL    HW126447   0.360   2.038   2.298
 8516SOL    HW226448   0.322   1.893   2.364
 8517SOL     OW26449   0.844   3.750   0.686
 8517SOL    HW126450   0.852   3.850   0.684
 8517SOL    HW226451   0.836   3.719   0.780
 8518SOL     OW26452   3.147   5.451   0.347
 8518SOL    HW126453   3.072   5.386   0.341
 8518SOL    HW226454   3.212   5.421   0.417
 8519SOL     OW26455   1.701   5.107   2.668
 8519SOL    HW126456   1.751   5.020   2.661
 8519SOL    HW226457   1.754   5.179   2.623
 8520SOL     OW26458   3.431   0.033   6.882
 8520SOL    HW126459   3.491   0.101   6.924
 8520SOL    HW226460   3.377   0.076   6.810
 8521SOL     OW26461   1.052   0.237   0.087
 8521SOL    HW126462   1.033   0.329   0.122
 8521SOL    HW226463   1.061   0.239   7.013
 8522SOL     OW26464   1.932   6.154   4.734
 8522SOL    HW126465   1.854   6.140   4.673
 8522SOL    HW226466   2.001   6.084   4.718
 8523SOL     OW26467   1.404   6.884   0.283
 8523SOL    HW126468   1.370   6.793   0.308
 8523SOL    HW226469   1.342   6.925   0.216
 8524SOL     OW26470   1.803   2.550   6.235
 8524SOL    HW126471   1.769   2.607   6.160
 8524SOL    HW226472   1.783   2.593   6.322
 8525SOL     OW26473   5.179   2.992   3.494
 8525SOL    HW126474   5.148   2.905   3.533
 8525SOL    HW226475   5.279   2.994   3.493
 8526SOL     OW26476   1.850   3.320   1.988
 8526SOL    HW126477   1.935   3.364   2.015
 8526SOL    HW226478   1.773   3.378   2.013
 8527SOL     OW26479   4.077   6.722   4.270
 8527SOL    HW126480   4.043   6.793   4.333
 8527SOL    HW226481   4.172   6.742   4.246
 8528SOL     OW26482   4.837   2.960   6.841
 8528SOL    HW126483   4.827   3.020   6.920
 8528SOL    HW226484   4.765   2.891   6.843
 8529SOL     OW26485   0.260   5.131   6.822
 8529SOL    HW126486   0.279   5.079   6.905
 8529SOL    HW226487   0.275   5.229   6.840
 8530SOL     OW26488   1.331   3.225   5.701
 8530SOL    HW126489   1.397   3.265   5.638
 8530SOL    HW226490   1.298   3.295   5.764
 8531SOL     OW26491   3.992   4.900   2.020
 8531SOL    HW126492   3.915   4.872   2.077
 8531SOL    HW226493   4.070   4.840   2.038
 8532SOL     OW26494   1.714   4.383   6.631
 8532SOL    HW126495   1.729   4.477   6.601
 8532SOL    HW226496   1.649   4.382   6.707
 8533SOL     OW26497   3.953   0.663   5.820
 8533SOL    HW126498   4.001   0.746   5.850
 8533SOL    HW226499   3.911   0.680   5.731
 8534SOL     OW26500   1.947   2.826   3.009
 8534SOL    HW126501   1.917   2.741   2.966
 8534SOL    HW226502   1.946   2.900   2.942
 8535SOL     OW26503   6.451   3.235   4.278
 8535SOL    HW126504   6.419   3.311   4.336
 8535SOL    HW226505   6.377   3.206   4.218
 8536SOL     OW26506   0.204   1.054   4.128
 8536SOL    HW126507   0.179   0.978   4.068
 8536SOL    HW226508   0.145   1.054   4.209
 8537SOL     OW26509   5.905   6.959   2.750
 8537SOL    HW126510   5.919   6.898   2.672
 8537SOL    HW226511   5.856   6.909   2.822
 8538SOL     OW26512   5.576   0.756   5.079
 8538SOL    HW126513   5.492   0.807   5.063
 8538SOL    HW226514   5.623   0.741   4.992
 8539SOL     OW26515   0.256   3.337   2.906
 8539SOL    HW126516   0.321   3.357   2.833
 8539SOL    HW226517   0.220   3.244   2.894
 8540SOL     OW26518   4.221   0.470   0.054
 8540SOL    HW126519   4.253   0.559   0.087
 8540SOL    HW226520   4.300   0.414   0.029
 8541SOL     OW26521   3.297   6.602   5.142
 8541SOL    HW126522   3.260   6.530   5.084
 8541SOL    HW226523   3.302   6.569   5.237
 8542SOL     OW26524   1.386   6.080   5.973
 8542SOL    HW126525   1.309   6.017   5.964
 8542SOL    HW226526   1.448   6.048   6.045
 8543SOL     OW26527   2.608   2.896   5.747
 8543SOL    HW126528   2.708   2.892   5.743
 8543SOL    HW226529   2.569   2.857   5.663
 8544SOL     OW26530   5.615   4.750   5.652
 8544SOL    HW126531   5.528   4.790   5.680
 8544SOL    HW226532   5.678   4.750   5.730
 8545SOL     OW26533   2.812   0.001   6.623
 8545SOL    HW126534   2.904   0.024   6.654
 8545SOL    HW226535   2.812   7.016   6.523
 8546SOL     OW26536   4.674   1.131   3.131
 8546SOL    HW126537   4.583   1.170   3.146
 8546SOL    HW226538   4.664   1.038   3.096
 8547SOL     OW26539   6.051   6.485   6.170
 8547SOL    HW126540   6.076   6.441   6.256
 8547SOL    HW226541   6.103   6.570   6.161
 8548SOL     OW26542   0.966   3.614   4.806
 8548SOL    HW126543   0.982   3.699   4.756
 8548SOL    HW226544   1.038   3.548   4.784
 8549SOL     OW26545   1.479   0.288   4.230
 8549SOL    HW126546   1.530   0.211   4.194
 8549SOL    HW226547   1.542   0.360   4.259
 8550SOL     OW26548   6.665   5.394   5.970
 8550SOL    HW126549   6.574   5.432   5.983
 8550SOL    HW226550   6.675   5.312   6.025
 8551SOL     OW26551   2.282   0.459   5.898
 8551SOL    HW126552   2.333   0.375   5.882
 8551SOL    HW226553   2.213   0.470   5.826
 8552SOL     OW26554   2.928   1.586   2.241
 8552SOL    HW126555   2.867   1.645   2.189
 8552SOL    HW226556   2.878   1.505   2.273
 8553SOL     OW26557   5.284   3.730   6.960
 8553SOL    HW126558   5.330   3.775   0.011
 8553SOL    HW226559   5.191   3.764   6.952
 8554SOL     OW26560   1.979   1.002   0.356
 8554SOL    HW126561   1.978   0.991   0.257
 8554SOL    HW226562   1.946   1.093   0.380
 8555SOL     OW26563   3.612   1.824   3.949
 8555SOL    HW126564   3.616   1.919   3.978
 8555SOL    HW226565   3.683   1.772   3.996
 8556SOL     OW26566   0.948   5.814   6.184
 8556SOL    HW126567   1.042   5.781   6.177
 8556SOL    HW226568   0.890   5.740   6.218
 8557SOL     OW26569   6.692   1.070   6.574
 8557SOL    HW126570   6.747   1.052   6.492
 8557SOL    HW226571   6.596   1.059   6.552
 8558SOL     OW26572   2.725   6.114   4.406
 8558SOL    HW126573   2.799   6.078   4.350
 8558SOL    HW226574   2.678   6.186   4.356
 8559SOL     OW26575   2.080   4.501   2.777
 8559SOL    HW126576   2.139   4.423   2.759
 8559SOL    HW226577   2.103   4.576   2.714
 8560SOL     OW26578   2.579   4.438   0.672
 8560SOL    HW126579   2.494   4.469   0.714
 8560SOL    HW226580   2.559   4.387   0.589
 8561SOL     OW26581   3.489   0.472   3.115
 8561SOL    HW126582   3.418   0.536   3.146
 8561SOL    HW226583   3.555   0.522   3.058
 8562SOL     OW26584   5.546   2.393   0.289
 8562SOL    HW126585   5.602   2.476   0.285
 8562SOL    HW226586   5.493   2.386   0.205
 8563SOL     OW26587   2.911   5.219   2.570
 8563SOL    HW126588   2.876   5.125   2.573
 8563SOL    HW226589   2.981   5.231   2.640
 8564SOL     OW26590   4.189   0.033   0.070
 8564SOL    HW126591   4.097   0.000   0.046
 8564SOL    HW226592   4.252   6.981   0.073
 8565SOL     OW26593   1.795   4.576   1.412
 8565SOL    HW126594   1.834   4.668   1.418
 8565SOL    HW226595   1.768   4.545   1.503
 8566SOL     OW26596   2.954   0.938   2.329
 8566SOL    HW126597   3.050   0.922   2.306
 8566SOL    HW226598   2.949   0.998   2.409
 8567SOL     OW26599   1.983   2.971   2.596
 8567SOL    HW126600   2.035   2.890   2.624
 8567SOL    HW226601   1.968   2.968   2.498
 8568SOL     OW26602   6.147   0.241   6.098
 8568SOL    HW126603   6.145   0.338   6.120
 8568SOL    HW226604   6.202   0.193   6.165
 8569SOL     OW26605   4.465   2.260   0.469
 8569SOL    HW126606   4.427   2.178   0.427
 8569SOL    HW226607   4.420   2.341   0.431
 8570SOL     OW26608   2.076   2.197   1.742
 8570SOL    HW126609   2.071   2.296   1.754
 8570SOL    HW226610   1.997   2.154   1.785
 8571SOL     OW26611   1.644   0.516   3.134
 8571SOL    HW126612   1.587   0.575   3.191
 8571SOL    HW226613   1.598   0.429   3.119
 8572SOL     OW26614   2.666   4.127   5.525
 8572SOL    HW126615   2.723   4.185   5.468
 8572SOL    HW226616   2.589   4.093   5.471
 8573SOL     OW26617   3.409   6.486   0.467
 8573SOL    HW126618   3.421   6.578   0.504
 8573SOL    HW226619   3.466   6.422   0.519
 8574SOL     OW26620   4.559   0.667   5.504
 8574SOL    HW126621   4.616   0.735   5.551
 8574SOL    HW226622   4.599   0.577   5.515
 8575SOL     OW26623   3.339   5.903   3.417
 8575SOL    HW126624   3.315   5.994   3.381
 8575SOL    HW226625   3.299   5.892   3.507
 8576SOL     OW26626   1.700   4.768   4.526
 8576SOL    HW126627   1.783   4.724   4.561
 8576SOL    HW226628   1.626   4.755   4.592
 8577SOL     OW26629   1.907   1.415   1.035
 8577SOL    HW126630   1.891   1.326   0.993
 8577SOL    HW226631   1.905   1.486   0.964
 8578SOL     OW26632   0.284   0.154   6.381
 8578SOL    HW126633   0.380   0.161   6.409
 8578SOL    HW226634   0.243   0.245   6.377
 8579SOL     OW26635   2.709   6.546   2.351
 8579SOL    HW126636   2.652   6.589   2.282
 8579SOL    HW226637   2.665   6.553   2.441
 8580SOL     OW26638   1.640   0.329   1.745
 8580SOL    HW126639   1.643   0.244   1.797
 8580SOL    HW226640   1.681   0.402   1.800
 8581SOL     OW26641   3.326   4.910   1.222
 8581SOL    HW126642   3.350   4.998   1.181
 8581SOL    HW226643   3.313   4.922   1.321
 8582SOL     OW26644   3.879   5.343   5.757
 8582SOL    HW126645   3.948   5.280   5.792
 8582SOL    HW226646   3.894   5.361   5.660
 8583SOL     OW26647   3.839   6.903   2.546
 8583SOL    HW126648   3.907   6.833   2.568
 8583SOL    HW226649   3.877   6.966   2.479
 8584SOL     OW26650   6.416   1.549   4.658
 8584SOL    HW126651   6.495   1.553   4.720
 8584SOL    HW226652   6.346   1.613   4.689
 8585SOL     OW26653   5.225   2.715   2.960
 8585SOL    HW126654   5.137   2.747   2.924
 8585SOL    HW226655   5.210   2.638   3.022
 8586SOL     OW26656   6.874   6.533   0.253
 8586SOL    HW126657   6.829   6.513   0.166
 8586SOL    HW226658   6.813   6.588   0.311
 8587SOL     OW26659   0.268   2.193   0.187
 8587SOL    HW126660   0.244   2.170   0.281
 8587SOL    HW226661   0.236   2.286   0.166
 8588SOL     OW26662   2.723   1.174   5.956
 8588SOL    HW126663   2.666   1.142   5.880
 8588SOL    HW226664   2.784   1.101   5.985
 8589SOL     OW26665   6.458   3.515   6.437
 8589SOL    HW126666   6.531   3.499   6.371
 8589SOL    HW226667   6.473   3.458   6.517
 8590SOL     OW26668   0.744   0.634   4.060
 8590SOL    HW126669   0.813   0.704   4.045
 8590SOL    HW226670   0.778   0.568   4.127
 8591SOL     OW26671   6.784   4.589   6.667
 8591SOL    HW126672   6.851   4.601   6.593
 8591SOL    HW226673   6.810   4.510   6.722
 8592SOL     OW26674   0.460   1.874   4.763
 8592SOL    HW126675   0.363   1.867   4.784
 8592SOL    HW226676   0.511   1.893   4.847
 8593SOL     OW26677   5.206   1.515   6.920
 8593SOL    HW126678   5.109   1.518   6.945
 8593SOL    HW226679   5.252   1.595   6.958
 8594SOL     OW26680   6.464   3.512   5.927
 8594SOL    HW126681   6.504   3.565   6.002
 8594SOL    HW226682   6.371   3.485   5.952
 8595SOL     OW26683   6.299   6.389   2.917
 8595SOL    HW126684   6.329   6.484   2.914
 8595SOL    HW226685   6.208   6.383   2.957
 8596SOL     OW26686   0.562   1.451   4.127
 8596SOL    HW126687   0.611   1.382   4.073
 8596SOL    HW226688   0.614   1.536   4.126
 8597SOL     OW26689   6.238   3.276   5.605
 8597SOL    HW126690   6.225   3.375   5.607
 8597SOL    HW226691   6.177   3.233   5.670
 8598SOL     OW26692   6.449   6.895   4.934
 8598SOL    HW126693   6.485   6.878   4.842
 8598SOL    HW226694   6.484   6.982   4.968
 8599SOL     OW26695   0.125   3.938   3.880
 8599SOL    HW126696   0.061   3.974   3.813
 8599SOL    HW226697   0.095   3.962   3.973
 8600SOL     OW26698   4.927   2.060   0.529
 8600SOL    HW126699   4.868   2.025   0.456
 8600SOL    HW226700   5.015   2.086   0.490
 8601SOL     OW26701   6.879   6.058   3.582
 8601SOL    HW126702   6.865   6.050   3.484
 8601SOL    HW226703   6.901   5.968   3.620
 8602SOL     OW26704   1.944   5.964   5.844
 8602SOL    HW126705   1.866   5.912   5.808
 8602SOL    HW226706   1.965   5.933   5.936
 8603SOL     OW26707   0.601   0.139   0.080
 8603SOL    HW126708   0.646   0.117   7.018
 8603SOL    HW226709   0.532   0.069   0.100
 8604SOL     OW26710   0.967   4.591   6.122
 8604SOL    HW126711   1.007   4.535   6.195
 8604SOL    HW226712   1.040   4.635   6.070
 8605SOL     OW26713   6.896   4.418   4.555
 8605SOL    HW126714   6.911   4.511   4.521
 8605SOL    HW226715   6.839   4.368   4.490
 8606SOL     OW26716   1.634   2.528   0.484
 8606SOL    HW126717   1.701   2.528   0.410
 8606SOL    HW226718   1.681   2.527   0.572
 8607SOL     OW26719   2.082   3.929   1.618
 8607SOL    HW126720   2.026   3.872   1.679
 8607SOL    HW226721   2.039   4.018   1.606
 8608SOL     OW26722   1.606   5.300   2.872
 8608SOL    HW126723   1.630   5.211   2.833
 8608SOL    HW226724   1.690   5.352   2.890
 8609SOL     OW26725   4.096   1.733   4.378
 8609SOL    HW126726   4.182   1.684   4.365
 8609SOL    HW226727   4.031   1.674   4.426
 8610SOL     OW26728   6.727   6.315   3.155
 8610SOL    HW126729   6.816   6.270   3.140
 8610SOL    HW226730   6.661   6.280   3.090
 8611SOL     OW26731   2.774   0.832   4.951
 8611SOL    HW126732   2.691   0.775   4.947
 8611SOL    HW226733   2.748   0.929   4.952
 8612SOL     OW26734   3.204   3.130   4.149
 8612SOL    HW126735   3.204   3.105   4.053
 8612SOL    HW226736   3.263   3.210   4.163
 8613SOL     OW26737   4.157   3.392   2.534
 8613SOL    HW126738   4.107   3.314   2.497
 8613SOL    HW226739   4.204   3.440   2.460
 8614SOL     OW26740   1.188   2.621   3.232
 8614SOL    HW126741   1.148   2.709   3.208
 8614SOL    HW226742   1.205   2.568   3.149
 8615SOL     OW26743   3.611   1.080   4.877
 8615SOL    HW126744   3.597   1.179   4.877
 8615SOL    HW226745   3.542   1.037   4.819
 8616SOL     OW26746   5.852   4.611   3.905
 8616SOL    HW126747   5.841   4.696   3.956
 8616SOL    HW226748   5.948   4.584   3.905
 8617SOL     OW26749   2.379   0.257   3.595
 8617SOL    HW126750   2.417   0.314   3.523
 8617SOL    HW226751   2.280   0.246   3.581
 8618SOL     OW26752   5.729   3.856   1.325
 8618SOL    HW126753   5.652   3.801   1.358
 8618SOL    HW226754   5.814   3.804   1.335
 8619SOL     OW26755   4.783   4.939   0.461
 8619SOL    HW126756   4.686   4.957   0.442
 8619SOL    HW226757   4.796   4.929   0.559
 8620SOL     OW26758   2.212   0.241   4.461
 8620SOL    HW126759   2.206   0.268   4.558
 8620SOL    HW226760   2.307   0.230   4.436
 8621SOL     OW26761   5.632   3.063   1.677
 8621SOL    HW126762   5.653   2.966   1.687
 8621SOL    HW226763   5.553   3.086   1.734
 8622SOL     OW26764   6.985   5.123   2.492
 8622SOL    HW126765   6.962   5.157   2.584
 8622SOL    HW226766   0.058   5.108   2.486
 8623SOL     OW26767   1.298   3.253   4.454
 8623SOL    HW126768   1.251   3.329   4.409
 8623SOL    HW226769   1.390   3.281   4.479
 8624SOL     OW26770   3.139   3.934   4.687
 8624SOL    HW126771   3.210   4.004   4.686
 8624SOL    HW226772   3.081   3.947   4.768
 8625SOL     OW26773   4.080   2.592   5.431
 8625SOL    HW126774   4.114   2.512   5.481
 8625SOL    HW226775   4.109   2.587   5.336
 8626SOL     OW26776   4.023   3.112   1.041
 8626SOL    HW126777   3.934   3.070   1.024
 8626SOL    HW226778   4.095   3.055   1.000
 8627SOL     OW26779   1.768   1.214   2.767
 8627SOL    HW126780   1.746   1.309   2.790
 8627SOL    HW226781   1.855   1.210   2.719
 8628SOL     OW26782   0.692   6.099   0.790
 8628SOL    HW126783   0.726   6.038   0.718
 8628SOL    HW226784   0.595   6.118   0.773
 8629SOL     OW26785   7.010   6.713   5.262
 8629SOL    HW126786   6.919   6.707   5.221
 8629SOL    HW226787   0.008   6.626   5.305
 8630SOL     OW26788   4.719   2.795   2.349
 8630SOL    HW126789   4.773   2.831   2.425
 8630SOL    HW226790   4.655   2.865   2.317
 8631SOL     OW26791   2.566   6.340   6.429
 8631SOL    HW126792   2.597   6.245   6.425
 8631SOL    HW226793   2.557   6.376   6.336
 8632SOL     OW26794   5.493   5.128   4.619
 8632SOL    HW126795   5.523   5.143   4.524
 8632SOL    HW226796   5.440   5.207   4.650
 8633SOL     OW26797   5.880   4.148   5.159
 8633SOL    HW126798   5.978   4.161   5.169
 8633SOL    HW226799   5.833   4.235   5.176
 8634SOL     OW26800   4.588   2.951   0.063
 8634SOL    HW126801   4.541   2.921   7.005
 8634SOL    HW226802   4.574   2.883   0.135
 8635SOL     OW26803   5.430   2.710   6.176
 8635SOL    HW126804   5.412   2.754   6.088
 8635SOL    HW226805   5.345   2.674   6.213
 8636SOL     OW26806   4.593   6.730   1.553
 8636SOL    HW126807   4.587   6.829   1.538
 8636SOL    HW226808   4.606   6.684   1.465
 8637SOL     OW26809   2.291   2.206   6.465
 8637SOL    HW126810   2.246   2.120   6.439
 8637SOL    HW226811   2.390   2.196   6.455
 8638SOL     OW26812   4.653   2.736   3.367
 8638SOL    HW126813   4.735   2.776   3.326
 8638SOL    HW226814   4.621   2.660   3.310
 8639SOL     OW26815   3.730   3.682   0.209
 8639SOL    HW126816   3.689   3.705   0.297
 8639SOL    HW226817   3.804   3.745   0.188
 8640SOL     OW26818   3.085   3.208   0.651
 8640SOL    HW126819   3.081   3.251   0.561
 8640SOL    HW226820   3.008   3.240   0.707
 8641SOL     OW26821   4.371   5.105   2.108
 8641SOL    HW126822   4.286   5.157   2.097
 8641SOL    HW226823   4.388   5.051   2.025
 8642SOL     OW26824   1.091   5.394   3.158
 8642SOL    HW126825   1.028   5.391   3.081
 8642SOL    HW226826   1.170   5.336   3.139
 8643SOL     OW26827   3.987   6.312   1.207
 8643SOL    HW126828   3.924   6.335   1.281
 8643SOL    HW226829   3.983   6.214   1.189
 8644SOL     OW26830   6.126   2.102   6.035
 8644SOL    HW126831   6.037   2.082   6.076
 8644SOL    HW226832   6.198   2.063   6.092
 8645SOL     OW26833   5.976   4.913   2.632
 8645SOL    HW126834   6.076   4.915   2.642
 8645SOL    HW226835   5.935   4.866   2.710
 8646SOL     OW26836   6.772   2.133   4.923
 8646SOL    HW126837   6.742   2.039   4.942
 8646SOL    HW226838   6.825   2.134   4.839
 8647SOL     OW26839   2.170   5.420   1.775
 8647SOL    HW126840   2.146   5.360   1.699
 8647SOL    HW226841   2.269   5.436   1.774
 8648SOL     OW26842   4.953   4.581   0.751
 8648SOL    HW126843   4.978   4.570   0.655
 8648SOL    HW226844   4.874   4.523   0.772
 8649SOL     OW26845   5.093   0.677   0.768
 8649SOL    HW126846   5.161   0.726   0.714
 8649SOL    HW226847   5.020   0.739   0.796
 8650SOL     OW26848   2.293   6.735   5.710
 8650SOL    HW126849   2.222   6.693   5.654
 8650SOL    HW226850   2.328   6.668   5.775
 8651SOL     OW26851   4.329   2.371   1.711
 8651SOL    HW126852   4.380   2.431   1.773
 8651SOL    HW226853   4.345   2.400   1.617
 8652SOL     OW26854   1.336   2.958   3.884
 8652SOL    HW126855   1.292   2.878   3.843
 8652SOL    HW226856   1.281   2.991   3.960
 8653SOL     OW26857   6.449   1.735   6.972
 8653SOL    HW126858   6.468   1.825   7.012
 8653SOL    HW226859   6.460   1.740   6.873
 8654SOL     OW26860   0.349   4.794   2.122
 8654SOL    HW126861   0.400   4.710   2.139
 8654SOL    HW226862   0.280   4.806   2.193
 8655SOL     OW26863   0.058   0.856   4.506
 8655SOL    HW126864   0.064   0.758   4.526
 8655SOL    HW226865   0.148   0.891   4.479
 8656SOL     OW26866   4.772   6.913   1.183
 8656SOL    HW126867   4.708   6.895   1.108
 8656SOL    HW226868   4.829   6.992   1.160
 8657SOL     OW26869   3.679   1.291   2.996
 8657SOL    HW126870   3.646   1.334   2.912
 8657SOL    HW226871   3.609   1.297   3.067
 8658SOL     OW26872   5.791   4.174   0.866
 8658SOL    HW126873   5.729   4.164   0.944
 8658SOL    HW226874   5.745   4.223   0.792
 8659SOL     OW26875   2.936   0.927   2.639
 8659SOL    HW126876   2.956   0.894   2.731
 8659SOL    HW226877   2.838   0.944   2.631
 8660SOL     OW26878   0.926   4.481   1.709
 8660SOL    HW126879   0.832   4.506   1.730
 8660SOL    HW226880   0.944   4.496   1.611
 8661SOL     OW26881   6.594   3.997   2.231
 8661SOL    HW126882   6.688   3.988   2.198
 8661SOL    HW226883   6.549   3.908   2.230
 8662SOL     OW26884   1.788   3.976   3.691
 8662SOL    HW126885   1.835   3.965   3.604
 8662SOL    HW226886   1.761   4.071   3.703
 8663SOL     OW26887   4.418   5.597   2.609
 8663SOL    HW126888   4.353   5.592   2.684
 8663SOL    HW226889   4.433   5.693   2.584
 8664SOL     OW26890   3.908   6.165   3.375
 8664SOL    HW126891   3.858   6.231   3.431
 8664SOL    HW226892   4.006   6.175   3.393
 8665SOL     OW26893   5.631   3.397   6.745
 8665SOL    HW126894   5.723   3.358   6.736
 8665SOL    HW226895   5.564   3.323   6.750
 8666SOL     OW26896   4.601   0.140   2.161
 8666SOL    HW126897   4.550   0.120   2.244
 8666SOL    HW226898   4.540   0.183   2.094
 8667SOL     OW26899   4.977   2.282   2.708
 8667SOL    HW126900   5.043   2.329   2.650
 8667SOL    HW226901   4.913   2.231   2.651
 8668SOL     OW26902   4.935   2.485   5.040
 8668SOL    HW126903   4.904   2.395   5.071
 8668SOL    HW226904   4.858   2.534   4.999
 8669SOL     OW26905   6.489   6.524   6.338
 8669SOL    HW126906   6.578   6.565   6.318
 8669SOL    HW226907   6.453   6.562   6.423
 8670SOL     OW26908   6.525   4.697   5.726
 8670SOL    HW126909   6.503   4.758   5.801
 8670SOL    HW226910   6.583   4.745   5.660
 8671SOL     OW26911   0.796   3.399   3.277
 8671SOL    HW126912   0.770   3.313   3.232
 8671SOL    HW226913   0.819   3.381   3.373
 8672SOL     OW26914   0.286   0.867   2.538
 8672SOL    HW126915   0.327   0.941   2.592
 8672SOL    HW226916   0.256   0.903   2.450
 8673SOL     OW26917   0.548   2.276   1.483
 8673SOL    HW126918   0.527   2.366   1.444
 8673SOL    HW226919   0.465   2.237   1.523
 8674SOL     OW26920   0.082   4.053   3.383
 8674SOL    HW126921   0.046   3.978   3.438
 8674SOL    HW226922   0.075   4.138   3.434
 8675SOL     OW26923   4.102   2.060   4.796
 8675SOL    HW126924   4.117   2.024   4.704
 8675SOL    HW226925   4.007   2.093   4.804
 8676SOL     OW26926   5.704   1.269   0.922
 8676SOL    HW126927   5.639   1.244   0.851
 8676SOL    HW226928   5.670   1.348   0.973
 8677SOL     OW26929   2.154   6.882   6.052
 8677SOL    HW126930   2.095   6.902   6.130
 8677SOL    HW226931   2.156   6.784   6.035
 8678SOL     OW26932   1.194   2.251   0.251
 8678SOL    HW126933   1.172   2.168   0.200
 8678SOL    HW226934   1.201   2.328   0.188
 8679SOL     OW26935   1.666   2.175   6.129
 8679SOL    HW126936   1.622   2.165   6.040
 8679SOL    HW226937   1.757   2.215   6.117
 8680SOL     OW26938   6.736   0.741   0.129
 8680SOL    HW126939   6.805   0.748   0.201
 8680SOL    HW226940   6.659   0.802   0.150
 8681SOL     OW26941   5.514   6.410   1.393
 8681SOL    HW126942   5.415   6.423   1.396
 8681SOL    HW226943   5.542   6.379   1.302
 8682SOL     OW26944   1.986   0.619   2.074
 8682SOL    HW126945   1.991   0.702   2.019
 8682SOL    HW226946   1.980   0.643   2.171
 8683SOL     OW26947   2.263   4.713   4.835
 8683SOL    HW126948   2.319   4.630   4.834
 8683SOL    HW226949   2.243   4.741   4.741
 8684SOL     OW26950   2.348   4.337   4.493
 8684SOL    HW126951   2.349   4.298   4.585
 8684SOL    HW226952   2.314   4.269   4.428
 8685SOL     OW26953   4.649   2.616   4.448
 8685SOL    HW126954   4.664   2.672   4.530
 8685SOL    HW226955   4.599   2.533   4.473
 8686SOL     OW26956   1.073   5.120   3.535
 8686SOL    HW126957   1.090   5.032   3.581
 8686SOL    HW226958   0.996   5.110   3.472
 8687SOL     OW26959   5.320   4.495   5.781
 8687SOL    HW126960   5.301   4.470   5.686
 8687SOL    HW226961   5.295   4.591   5.795
 8688SOL     OW26962   1.352   3.864   4.911
 8688SOL    HW126963   1.349   3.845   5.009
 8688SOL    HW226964   1.284   3.933   4.888
 8689SOL     OW26965   3.935   3.326   6.616
 8689SOL    HW126966   3.995   3.390   6.567
 8689SOL    HW226967   3.916   3.247   6.557
 8690SOL     OW26968   1.459   2.731   2.819
 8690SOL    HW126969   1.497   2.816   2.785
 8690SOL    HW226970   1.529   2.659   2.816
 8691SOL     OW26971   3.556   2.629   5.586
 8691SOL    HW126972   3.503   2.559   5.633
 8691SOL    HW226973   3.608   2.587   5.512
 8692SOL     OW26974   4.433   1.855   5.108
 8692SOL    HW126975   4.359   1.915   5.075
 8692SOL    HW226976   4.485   1.821   5.030
 8693SOL     OW26977   6.742   6.948   6.181
 8693SOL    HW126978   6.821   6.991   6.224
 8693SOL    HW226979   6.674   7.017   6.158
 8694SOL     OW26980   5.107   3.057   5.286
 8694SOL    HW126981   5.050   3.079   5.208
 8694SOL    HW226982   5.145   2.965   5.275
 8695SOL     OW26983   3.655   4.418   6.772
 8695SOL    HW126984   3.628   4.325   6.746
 8695SOL    HW226985   3.576   4.467   6.809
 8696SOL     OW26986   2.905   5.506   5.764
 8696SOL    HW126987   2.981   5.536   5.822
 8696SOL    HW226988   2.876   5.414   5.793
 8697SOL     OW26989   2.040   3.606   5.755
 8697SOL    HW126990   2.042   3.660   5.839
 8697SOL    HW226991   2.091   3.522   5.768
 8698SOL     OW26992   4.606   5.520   6.227
 8698SOL    HW126993   4.570   5.459   6.156
 8698SOL    HW226994   4.645   5.601   6.185
 8699SOL     OW26995   1.725   2.834   0.042
 8699SOL    HW126996   1.735   2.885   6.982
 8699SOL    HW226997   1.743   2.737   0.026
 8700SOL     OW26998   1.322   0.780   3.742
 8700SOL    HW126999   1.286   0.860   3.694
 8700SOL    HW227000   1.375   0.810   3.822
 8701SOL     OW27001   1.450   2.671   6.858
 8701SOL    HW127002   1.462   2.744   6.790
 8701SOL    HW227003   1.478   2.704   6.948
 8702SOL     OW27004   5.292   4.641   1.020
 8702SOL    HW127005   5.200   4.654   1.056
 8702SOL    HW227006   5.347   4.722   1.039
 8703SOL     OW27007   2.458   5.721   0.670
 8703SOL    HW127008   2.551   5.740   0.639
 8703SOL    HW227009   2.460   5.666   0.753
 8704SOL     OW27010   0.966   1.254   5.096
 8704SOL    HW127011   0.923   1.306   5.022
 8704SOL    HW227012   0.914   1.171   5.114
 8705SOL     OW27013   3.988   2.153   6.631
 8705SOL    HW127014   4.014   2.136   6.535
 8705SOL    HW227015   4.054   2.217   6.672
 8706SOL     OW27016   5.046   3.253   6.159
 8706SOL    HW127017   5.013   3.320   6.226
 8706SOL    HW227018   5.074   3.169   6.207
 8707SOL     OW27019   2.174   1.770   4.679
 8707SOL    HW127020   2.263   1.805   4.708
 8707SOL    HW227021   2.109   1.776   4.755
 8708SOL     OW27022   5.470   3.086   0.124
 8708SOL    HW127023   5.499   3.151   0.194
 8708SOL    HW227024   5.375   3.104   0.099
 8709SOL     OW27025   5.817   0.005   5.571
 8709SOL    HW127026   5.823   0.089   5.626
 8709SOL    HW227027   5.721   7.010   5.552
 8710SOL     OW27028   1.844   1.345   3.573
 8710SOL    HW127029   1.810   1.258   3.609
 8710SOL    HW227030   1.926   1.329   3.518
 8711SOL     OW27031   1.403   1.446   1.779
 8711SOL    HW127032   1.496   1.483   1.767
 8711SOL    HW227033   1.378   1.392   1.699
 8712SOL     OW27034   1.299   3.889   5.588
 8712SOL    HW127035   1.217   3.832   5.594
 8712SOL    HW227036   1.354   3.860   5.509
 8713SOL     OW27037   6.992   3.664   1.114
 8713SOL    HW127038   6.982   3.649   1.213
 8713SOL    HW227039   6.971   3.580   1.065
 8714SOL     OW27040   6.691   5.432   6.963
 8714SOL    HW127041   6.711   5.426   0.036
 8714SOL    HW227042   6.700   5.527   6.933
 8715SOL     OW27043   1.867   3.645   2.026
 8715SOL    HW127044   1.962   3.661   2.055
 8715SOL    HW227045   1.858   3.669   1.929
 8716SOL     OW27046   6.640   0.264   1.821
 8716SOL    HW127047   6.544   0.259   1.793
 8716SOL    HW227048   6.687   0.333   1.767
 8717SOL     OW27049   2.793   2.957   0.195
 8717SOL    HW127050   2.728   2.920   0.262
 8717SOL    HW227051   2.871   2.997   0.243
 8718SOL     OW27052   2.846   5.073   6.287
 8718SOL    HW127053   2.754   5.063   6.325
 8718SOL    HW227054   2.861   5.003   6.217
 8719SOL     OW27055   3.340   1.021   4.791
 8719SOL    HW127056   3.373   0.943   4.739
 8719SOL    HW227057   3.259   0.995   4.844
 8720SOL     OW27058   0.007   4.881   4.725
 8720SOL    HW127059   0.026   4.849   4.817
 8720SOL    HW227060   0.088   4.870   4.667
 8721SOL     OW27061   0.421   0.031   6.668
 8721SOL    HW127062   0.511   0.006   6.632
 8721SOL    HW227063   0.406   7.009   6.755
 8722SOL     OW27064   3.100   1.119   0.392
 8722SOL    HW127065   3.048   1.201   0.415
 8722SOL    HW227066   3.197   1.136   0.405
 8723SOL     OW27067   3.790   0.220   2.523
 8723SOL    HW127068   3.848   0.245   2.446
 8723SOL    HW227069   3.845   0.218   2.607
 8724SOL     OW27070   3.799   1.445   4.230
 8724SOL    HW127071   3.731   1.417   4.298
 8724SOL    HW227072   3.872   1.377   4.226
 8725SOL     OW27073   6.952   6.698   3.738
 8725SOL    HW127074   6.931   6.759   3.815
 8725SOL    HW227075   6.914   6.607   3.756
 8726SOL     OW27076   0.164   1.201   1.101
 8726SOL    HW127077   0.228   1.152   1.042
 8726SOL    HW227078   0.116   1.270   1.047
 8727SOL     OW27079   5.060   6.560   6.121
 8727SOL    HW127080   5.122   6.636   6.142
 8727SOL    HW227081   5.028   6.518   6.206
 8728SOL     OW27082   6.605   0.314   4.591
 8728SOL    HW127083   6.555   0.317   4.505
 8728SOL    HW227084   6.622   0.407   4.623
 8729SOL     OW27085   5.303   6.078   6.431
 8729SOL    HW127086   5.293   6.135   6.349
 8729SOL    HW227087   5.230   6.010   6.434
 8730SOL     OW27088   4.696   5.087   1.445
 8730SOL    HW127089   4.718   5.072   1.542
 8730SOL    HW227090   4.773   5.060   1.389
 8731SOL     OW27091   6.522   1.603   3.828
 8731SOL    HW127092   6.427   1.595   3.860
 8731SOL    HW227093   6.582   1.616   3.906
 8732SOL     OW27094   5.906   6.813   7.002
 8732SOL    HW127095   5.847   6.892   7.019
 8732SOL    HW227096   5.913   6.758   0.059
 8733SOL     OW27097   6.581   4.432   3.004
 8733SOL    HW127098   6.601   4.384   3.089
 8733SOL    HW227099   6.504   4.387   2.958
 8734SOL     OW27100   0.547   4.037   1.996
 8734SOL    HW127101   0.612   4.112   1.985
 8734SOL    HW227102   0.577   3.977   2.070
 8735SOL     OW27103   6.922   3.002   5.019
 8735SOL    HW127104   6.879   2.959   4.940
 8735SOL    HW227105   6.982   2.936   5.064
 8736SOL     OW27106   1.194   6.139   3.567
 8736SOL    HW127107   1.286   6.129   3.529
 8736SOL    HW227108   1.148   6.051   3.566
 8737SOL     OW27109   1.216   5.576   0.520
 8737SOL    HW127110   1.308   5.553   0.489
 8737SOL    HW227111   1.172   5.636   0.454
 8738SOL     OW27112   1.532   3.033   3.311
 8738SOL    HW127113   1.569   2.988   3.230
 8738SOL    HW227114   1.483   3.116   3.284
 8739SOL     OW27115   5.689   4.564   5.007
 8739SOL    HW127116   5.713   4.656   4.976
 8739SOL    HW227117   5.630   4.570   5.088
 8740SOL     OW27118   2.982   0.590   4.754
 8740SOL    HW127119   3.016   0.648   4.679
 8740SOL    HW227120   2.974   0.644   4.837
 8741SOL     OW27121   0.925   1.118   3.065
 8741SOL    HW127122   0.827   1.122   3.048
 8741SOL    HW227123   0.971   1.079   2.985
 8742SOL     OW27124   2.666   1.886   1.834
 8742SOL    HW127125   2.697   1.978   1.858
 8742SOL    HW227126   2.677   1.871   1.736
 8743SOL     OW27127   0.757   2.712   1.544
 8743SOL    HW127128   0.790   2.637   1.487
 8743SOL    HW227129   0.764   2.686   1.641
 8744SOL     OW27130   3.430   4.251   5.568
 8744SOL    HW127131   3.392   4.175   5.621
 8744SOL    HW227132   3.527   4.262   5.591
 8745SOL     OW27133   6.148   1.527   6.083
 8745SOL    HW127134   6.232   1.512   6.135
 8745SOL    HW227135   6.172   1.563   5.992
 8746SOL     OW27136   4.305   4.963   5.589
 8746SOL    HW127137   4.314   4.881   5.645
 8746SOL    HW227138   4.395   5.007   5.581
 8747SOL     OW27139   0.729   0.317   2.908
 8747SOL    HW127140   0.746   0.415   2.903
 8747SOL    HW227141   0.805   0.268   2.865
 8748SOL     OW27142   5.997   1.856   4.153
 8748SOL    HW127143   5.937   1.920   4.202
 8748SOL    HW227144   6.083   1.902   4.129
 8749SOL     OW27145   2.677   0.952   3.940
 8749SOL    HW127146   2.634   1.034   3.902
 8749SOL    HW227147   2.776   0.965   3.944
 8750SOL     OW27148   3.649   3.782   0.448
 8750SOL    HW127149   3.709   3.803   0.525
 8750SOL    HW227150   3.584   3.710   0.474
 8751SOL     OW27151   2.496   6.628   0.875
 8751SOL    HW127152   2.418   6.657   0.820
 8751SOL    HW227153   2.465   6.575   0.953
 8752SOL     OW27154   6.631   2.702   5.131
 8752SOL    HW127155   6.590   2.695   5.222
 8752SOL    HW227156   6.585   2.774   5.080
 8753SOL     OW27157   2.626   2.465   0.869
 8753SOL    HW127158   2.640   2.561   0.846
 8753SOL    HW227159   2.705   2.431   0.920
 8754SOL     OW27160   1.677   5.122   6.940
 8754SOL    HW127161   1.579   5.113   6.958
 8754SOL    HW227162   1.703   5.060   6.866
 8755SOL     OW27163   0.695   2.931   1.896
 8755SOL    HW127164   0.749   3.007   1.860
 8755SOL    HW227165   0.617   2.966   1.948
 8756SOL     OW27166   1.465   1.541   2.165
 8756SOL    HW127167   1.558   1.535   2.202
 8756SOL    HW227168   1.458   1.621   2.106
 8757SOL     OW27169   4.786   5.962   5.544
 8757SOL    HW127170   4.743   5.933   5.630
 8757SOL    HW227171   4.844   6.041   5.561
 8758SOL     OW27172   3.822   5.643   5.150
 8758SOL    HW127173   3.869   5.565   5.191
 8758SOL    HW227174   3.830   5.722   5.210
 8759SOL     OW27175   6.138   0.963   0.778
 8759SOL    HW127176   6.232   0.934   0.793
 8759SOL    HW227177   6.138   1.050   0.729
 8760SOL     OW27178   2.558   2.509   4.307
 8760SOL    HW127179   2.612   2.433   4.271
 8760SOL    HW227180   2.550   2.580   4.237
 8761SOL     OW27181   5.127   1.814   2.831
 8761SOL    HW127182   5.096   1.791   2.739
 8761SOL    HW227183   5.079   1.756   2.898
 8762SOL     OW27184   3.205   4.860   3.398
 8762SOL    HW127185   3.251   4.893   3.481
 8762SOL    HW227186   3.268   4.869   3.320
 8763SOL     OW27187   0.589   0.843   6.738
 8763SOL    HW127188   0.529   0.767   6.714
 8763SOL    HW227189   0.685   0.815   6.726
 8764SOL     OW27190   2.741   5.149   5.543
 8764SOL    HW127191   2.797   5.225   5.510
 8764SOL    HW227192   2.645   5.178   5.546
 8765SOL     OW27193   3.973   6.535   4.433
 8765SOL    HW127194   3.885   6.564   4.470
 8765SOL    HW227195   4.006   6.603   4.368
 8766SOL     OW27196   4.772   6.696   6.125
 8766SOL    HW127197   4.763   6.615   6.067
 8766SOL    HW227198   4.700   6.696   6.194
 8767SOL     OW27199   1.802   0.941   4.061
 8767SOL    HW127200   1.809   1.000   3.980
 8767SOL    HW227201   1.760   0.992   4.136
 8768SOL     OW27202   6.921   2.065   6.571
 8768SOL    HW127203   6.851   2.135   6.559
 8768SOL    HW227204   6.951   2.065   6.667
 8769SOL     OW27205   6.180   0.068   0.313
 8769SOL    HW127206   6.268   0.029   0.341
 8769SOL    HW227207   6.116   7.020   0.291
 8770SOL     OW27208   5.019   2.584   0.485
 8770SOL    HW127209   5.086   2.561   0.413
 8770SOL    HW227210   4.999   2.501   0.538
 8771SOL     OW27211   0.378   2.498   7.018
 8771SOL    HW127212   0.464   2.447   7.023
 8771SOL    HW227213   0.352   2.510   6.923
 8772SOL     OW27214   0.079   0.052   4.530
 8772SOL    HW127215   0.154   0.015   4.477
 8772SOL    HW227216   0.016   0.102   4.470
 8773SOL     OW27217   0.420   0.896   4.772
 8773SOL    HW127218   0.422   0.808   4.725
 8773SOL    HW227219   0.510   0.939   4.767
 8774SOL     OW27220   0.957   1.439   7.001
 8774SOL    HW127221   0.981   1.534   6.979
 8774SOL    HW227222   0.995   1.415   0.065
 8775SOL     OW27223   5.829   2.716   3.519
 8775SOL    HW127224   5.921   2.712   3.558
 8775SOL    HW227225   5.790   2.624   3.517
 8776SOL     OW27226   4.598   2.587   0.454
 8776SOL    HW127227   4.638   2.496   0.466
 8776SOL    HW227228   4.657   2.654   0.500
 8777SOL     OW27229   6.729   2.110   2.708
 8777SOL    HW127230   6.736   2.209   2.722
 8777SOL    HW227231   6.755   2.063   2.792
 8778SOL     OW27232   3.205   4.585   6.931
 8778SOL    HW127233   3.185   4.580   6.833
 8778SOL    HW227234   3.172   4.672   6.968
 8779SOL     OW27235   4.248   4.785   2.956
 8779SOL    HW127236   4.149   4.800   2.964
 8779SOL    HW227237   4.272   4.776   2.859
 8780SOL     OW27238   0.246   4.503   3.770
 8780SOL    HW127239   0.272   4.422   3.716
 8780SOL    HW227240   0.282   4.494   3.863
 8781SOL     OW27241   2.895   0.921   1.544
 8781SOL    HW127242   2.868   1.015   1.525
 8781SOL    HW227243   2.841   0.859   1.488
 8782SOL     OW27244   5.356   2.049   0.657
 8782SOL    HW127245   5.417   1.970   0.663
 8782SOL    HW227246   5.406   2.128   0.621
 8783SOL     OW27247   5.143   3.607   4.825
 8783SOL    HW127248   5.218   3.612   4.890
 8783SOL    HW227249   5.156   3.529   4.764
 8784SOL     OW27250   4.846   0.699   0.557
 8784SOL    HW127251   4.908   0.768   0.520
 8784SOL    HW227252   4.752   0.719   0.529
 8785SOL     OW27253   0.198   5.529   5.146
 8785SOL    HW127254   0.228   5.490   5.233
 8785SOL    HW227255   0.103   5.559   5.154
 8786SOL     OW27256   5.081   1.441   2.277
 8786SOL    HW127257   5.045   1.349   2.266
 8786SOL    HW227258   5.063   1.495   2.194
 8787SOL     OW27259   3.915   5.776   1.150
 8787SOL    HW127260   3.890   5.680   1.144
 8787SOL    HW227261   4.015   5.785   1.153
 8788SOL     OW27262   0.197   0.022   3.896
 8788SOL    HW127263   0.122   0.080   3.865
 8788SOL    HW227264   0.167   6.953   3.903
 8789SOL     OW27265   0.731   2.661   6.036
 8789SOL    HW127266   0.814   2.717   6.040
 8789SOL    HW227267   0.712   2.638   5.941
 8790SOL     OW27268   4.442   2.835   5.433
 8790SOL    HW127269   4.350   2.871   5.450
 8790SOL    HW227270   4.452   2.812   5.336
 8791SOL     OW27271   3.275   6.183   4.624
 8791SOL    HW127272   3.233   6.181   4.715
 8791SOL    HW227273   3.219   6.132   4.560
 8792SOL     OW27274   5.229   4.384   1.703
 8792SOL    HW127275   5.221   4.459   1.637
 8792SOL    HW227276   5.255   4.420   1.792
 8793SOL     OW27277   6.797   6.042   4.830
 8793SOL    HW127278   6.733   6.106   4.786
 8793SOL    HW227279   6.891   6.072   4.813
 8794SOL     OW27280   6.495   1.065   2.465
 8794SOL    HW127281   6.542   1.027   2.386
 8794SOL    HW227282   6.428   1.132   2.434
 8795SOL     OW27283   1.644   6.230   6.784
 8795SOL    HW127284   1.720   6.164   6.787
 8795SOL    HW227285   1.667   6.310   6.839
 8796SOL     OW27286   6.302   3.481   4.419
 8796SOL    HW127287   6.215   3.531   4.414
 8796SOL    HW227288   6.369   3.536   4.470
 8797SOL     OW27289   4.629   6.304   3.836
 8797SOL    HW127290   4.700   6.368   3.809
 8797SOL    HW227291   4.629   6.293   3.936
 8798SOL     OW27292   3.047   6.680   5.569
 8798SOL    HW127293   3.061   6.762   5.624
 8798SOL    HW227294   2.986   6.618   5.618
 8799SOL     OW27295   1.595   5.752   2.096
 8799SOL    HW127296   1.566   5.671   2.046
 8799SOL    HW227297   1.535   5.765   2.175
 8800SOL     OW27298   6.704   6.205   5.476
 8800SOL    HW127299   6.738   6.221   5.384
 8800SOL    HW227300   6.684   6.292   5.520
 8801SOL     OW27301   6.227   3.589   5.635
 8801SOL    HW127302   6.142   3.634   5.608
 8801SOL    HW227303   6.272   3.642   5.707
 8802SOL     OW27304   1.364   6.050   6.349
 8802SOL    HW127305   1.286   6.040   6.411
 8802SOL    HW227306   1.406   6.140   6.362
 8803SOL     OW27307   6.507   6.352   5.815
 8803SOL    HW127308   6.476   6.364   5.720
 8803SOL    HW227309   6.434   6.310   5.869
 8804SOL     OW27310   1.938   6.217   2.475
 8804SOL    HW127311   2.028   6.181   2.451
 8804SOL    HW227312   1.916   6.293   2.414
 8805SOL     OW27313   5.611   4.770   3.391
 8805SOL    HW127314   5.652   4.770   3.299
 8805SOL    HW227315   5.527   4.823   3.390
 8806SOL     OW27316   1.373   0.288   1.345
 8806SOL    HW127317   1.306   0.340   1.399
 8806SOL    HW227318   1.461   0.335   1.347
 8807SOL     OW27319   5.570   2.853   0.912
 8807SOL    HW127320   5.482   2.896   0.892
 8807SOL    HW227321   5.623   2.844   0.828
 8808SOL     OW27322   1.449   2.154   6.709
 8808SOL    HW127323   1.442   2.220   6.634
 8808SOL    HW227324   1.458   2.203   6.796
 8809SOL     OW27325   0.709   3.801   3.067
 8809SOL    HW127326   0.655   3.722   3.096
 8809SOL    HW227327   0.693   3.876   3.131
 8810SOL     OW27328   0.668   1.128   5.770
 8810SOL    HW127329   0.757   1.109   5.811
 8810SOL    HW227330   0.608   1.170   5.839
 8811SOL     OW27331   4.354   4.826   2.684
 8811SOL    HW127332   4.420   4.898   2.663
 8811SOL    HW227333   4.363   4.753   2.617
 8812SOL     OW27334   4.784   1.257   6.419
 8812SOL    HW127335   4.793   1.353   6.447
 8812SOL    HW227336   4.870   1.226   6.379
 8813SOL     OW27337   2.064   3.878   3.515
 8813SOL    HW127338   2.069   3.784   3.549
 8813SOL    HW227339   2.136   3.893   3.448
 8814SOL     OW27340   4.639   6.836   5.212
 8814SOL    HW127341   4.649   6.783   5.297
 8814SOL    HW227342   4.698   6.916   5.216
 8815SOL     OW27343   5.381   1.030   0.820
 8815SOL    HW127344   5.298   1.082   0.837
 8815SOL    HW227345   5.360   0.952   0.760
 8816SOL     OW27346   0.830   6.019   4.830
 8816SOL    HW127347   0.913   6.056   4.789
 8816SOL    HW227348   0.848   5.996   4.926
 8817SOL     OW27349   1.511   3.257   3.783
 8817SOL    HW127350   1.527   3.164   3.752
 8817SOL    HW227351   1.572   3.320   3.734
 8818SOL     OW27352   0.676   0.172   5.768
 8818SOL    HW127353   0.623   0.250   5.799
 8818SOL    HW227354   0.770   0.201   5.749
 8819SOL     OW27355   4.994   4.923   6.747
 8819SOL    HW127356   5.012   4.868   6.665
 8819SOL    HW227357   4.896   4.940   6.754
 8820SOL     OW27358   3.819   6.696   5.808
 8820SOL    HW127359   3.765   6.621   5.847
 8820SOL    HW227360   3.916   6.681   5.828
 8821SOL     OW27361   0.109   4.527   6.264
 8821SOL    HW127362   0.059   4.451   6.221
 8821SOL    HW227363   0.195   4.542   6.215
 8822SOL     OW27364   6.376   0.535   4.746
 8822SOL    HW127365   6.394   0.544   4.844
 8822SOL    HW227366   6.413   0.615   4.698
 8823SOL     OW27367   3.520   0.779   3.162
 8823SOL    HW127368   3.511   0.868   3.118
 8823SOL    HW227369   3.590   0.725   3.114
 8824SOL     OW27370   1.543   0.465   2.497
 8824SOL    HW127371   1.492   0.545   2.529
 8824SOL    HW227372   1.548   0.397   2.571
 8825SOL     OW27373   0.301   6.591   0.456
 8825SOL    HW127374   0.225   6.654   0.469
 8825SOL    HW227375   0.347   6.576   0.543
 8826SOL     OW27376   1.109   4.291   0.865
 8826SOL    HW127377   1.140   4.221   0.929
 8826SOL    HW227378   1.181   4.308   0.797
 8827SOL     OW27379   4.660   0.136   3.305
 8827SOL    HW127380   4.722   0.060   3.320
 8827SOL    HW227381   4.566   0.106   3.319
 8828SOL     OW27382   5.115   2.679   6.236
 8828SOL    HW127383   5.085   2.583   6.238
 8828SOL    HW227384   5.073   2.729   6.312
 8829SOL     OW27385   6.729   1.112   1.829
 8829SOL    HW127386   6.825   1.137   1.841
 8829SOL    HW227387   6.722   1.038   1.762
 8830SOL     OW27388   3.215   0.833   3.652
 8830SOL    HW127389   3.127   0.878   3.670
 8830SOL    HW227390   3.252   0.866   3.565
 8831SOL     OW27391   0.511   3.012   2.048
 8831SOL    HW127392   0.522   3.065   2.132
 8831SOL    HW227393   0.453   2.932   2.067
 8832SOL     OW27394   5.443   0.495   5.244
 8832SOL    HW127395   5.349   0.478   5.215
 8832SOL    HW227396   5.467   0.590   5.224
 8833SOL     OW27397   5.293   2.345   1.720
 8833SOL    HW127398   5.250   2.371   1.807
 8833SOL    HW227399   5.230   2.288   1.668
 8834SOL     OW27400   6.233   3.819   5.417
 8834SOL    HW127401   6.173   3.739   5.418
 8834SOL    HW227402   6.205   3.883   5.488
 8835SOL     OW27403   6.651   0.704   5.553
 8835SOL    HW127404   6.615   0.787   5.596
 8835SOL    HW227405   6.579   0.635   5.549
 8836SOL     OW27406   4.571   1.398   1.510
 8836SOL    HW127407   4.603   1.395   1.416
 8836SOL    HW227408   4.618   1.329   1.564
 8837SOL     OW27409   3.588   6.325   0.621
 8837SOL    HW127410   3.682   6.321   0.588
 8837SOL    HW227411   3.570   6.249   0.683
 8838SOL     OW27412   1.879   3.904   3.963
 8838SOL    HW127413   1.970   3.905   4.005
 8838SOL    HW227414   1.877   3.969   3.887
 8839SOL     OW27415   5.372   5.748   2.448
 8839SOL    HW127416   5.403   5.775   2.357
 8839SOL    HW227417   5.289   5.693   2.439
 8840SOL     OW27418   6.538   0.442   1.038
 8840SOL    HW127419   6.601   0.428   0.962
 8840SOL    HW227420   6.576   0.509   1.101
 8841SOL     OW27421   3.614   0.573   0.963
 8841SOL    HW127422   3.518   0.549   0.981
 8841SOL    HW227423   3.674   0.509   1.012
 8842SOL     OW27424   3.795   3.934   4.250
 8842SOL    HW127425   3.858   3.919   4.174
 8842SOL    HW227426   3.796   3.854   4.310
 8843SOL     OW27427   2.886   6.125   6.727
 8843SOL    HW127428   2.850   6.209   6.687
 8843SOL    HW227429   2.812   6.077   6.775
 8844SOL     OW27430   3.577   2.383   6.343
 8844SOL    HW127431   3.627   2.325   6.408
 8844SOL    HW227432   3.508   2.436   6.392
 8845SOL     OW27433   6.854   3.955   2.147
 8845SOL    HW127434   6.920   3.890   2.110
 8845SOL    HW227435   6.885   4.048   2.130
 8846SOL     OW27436   5.375   3.833   4.722
 8846SOL    HW127437   5.466   3.793   4.732
 8846SOL    HW227438   5.337   3.852   4.812
 8847SOL     OW27439   1.667   1.873   3.628
 8847SOL    HW127440   1.658   1.777   3.654
 8847SOL    HW227441   1.703   1.925   3.706
 8848SOL     OW27442   5.462   1.338   0.266
 8848SOL    HW127443   5.382   1.343   0.206
 8848SOL    HW227444   5.544   1.362   0.214
 8849SOL     OW27445   2.888   4.798   4.421
 8849SOL    HW127446   2.916   4.770   4.512
 8849SOL    HW227447   2.815   4.866   4.427
 8850SOL     OW27448   3.373   1.292   1.286
 8850SOL    HW127449   3.354   1.196   1.268
 8850SOL    HW227450   3.288   1.345   1.276
 8851SOL     OW27451   6.499   4.524   2.027
 8851SOL    HW127452   6.599   4.525   2.025
 8851SOL    HW227453   6.464   4.532   1.933
 8852SOL     OW27454   4.641   2.543   4.799
 8852SOL    HW127455   4.628   2.508   4.892
 8852SOL    HW227456   4.560   2.521   4.744
 8853SOL     OW27457   4.213   1.499   5.524
 8853SOL    HW127458   4.190   1.402   5.515
 8853SOL    HW227459   4.153   1.553   5.465
 8854SOL     OW27460   1.513   1.583   7.020
 8854SOL    HW127461   1.413   1.583   7.014
 8854SOL    HW227462   1.551   1.655   6.962
 8855SOL     OW27463   6.349   4.621   0.155
 8855SOL    HW127464   6.372   4.595   0.061
 8855SOL    HW227465   6.249   4.617   0.166
 8856SOL     OW27466   5.587   1.151   4.547
 8856SOL    HW127467   5.657   1.220   4.531
 8856SOL    HW227468   5.630   1.061   4.555
 8857SOL     OW27469   6.900   2.433   4.711
 8857SOL    HW127470   6.854   2.485   4.638
 8857SOL    HW227471   6.870   2.338   4.708
 8858SOL     OW27472   6.987   4.143   6.284
 8858SOL    HW127473   6.929   4.206   6.336
 8858SOL    HW227474   0.005   4.193   6.209
 8859SOL     OW27475   2.773   4.947   5.085
 8859SOL    HW127476   2.793   5.033   5.131
 8859SOL    HW227477   2.728   4.965   4.998
 8860SOL     OW27478   1.512   2.664   1.783
 8860SOL    HW127479   1.560   2.752   1.786
 8860SOL    HW227480   1.561   2.598   1.839
 8861SOL     OW27481   2.834   2.736   0.588
 8861SOL    HW127482   2.912   2.690   0.547
 8861SOL    HW227483   2.831   2.715   0.686
 8862SOL     OW27484   6.734   2.155   4.435
 8862SOL    HW127485   6.819   2.145   4.384
 8862SOL    HW227486   6.657   2.150   4.372
 8863SOL     OW27487   1.339   5.430   4.906
 8863SOL    HW127488   1.374   5.363   4.971
 8863SOL    HW227489   1.404   5.441   4.831
 8864SOL     OW27490   1.064   3.254   6.137
 8864SOL    HW127491   0.978   3.202   6.139
 8864SOL    HW227492   1.136   3.201   6.181
 8865SOL     OW27493   2.385   2.120   5.977
 8865SOL    HW127494   2.368   2.119   5.879
 8865SOL    HW227495   2.469   2.171   5.996
 8866SOL     OW27496   3.774   6.372   5.599
 8866SOL    HW127497   3.854   6.371   5.659
 8866SOL    HW227498   3.795   6.424   5.516
 8867SOL     OW27499   6.764   2.240   3.755
 8867SOL    HW127500   6.846   2.227   3.700
 8867SOL    HW227501   6.692   2.280   3.699
 8868SOL     OW27502   4.562   3.906   1.291
 8868SOL    HW127503   4.560   3.969   1.369
 8868SOL    HW227504   4.536   3.814   1.323
 8869SOL     OW27505   5.008   2.957   3.771
 8869SOL    HW127506   5.069   2.886   3.804
 8869SOL    HW227507   4.944   2.919   3.704
 8870SOL     OW27508   4.005   1.384   0.917
 8870SOL    HW127509   3.910   1.392   0.947
 8870SOL    HW227510   4.013   1.421   0.825
 8871SOL     OW27511   1.464   2.189   4.192
 8871SOL    HW127512   1.504   2.099   4.171
 8871SOL    HW227513   1.493   2.217   4.284
 8872SOL     OW27514   1.924   3.464   3.690
 8872SOL    HW127515   1.989   3.388   3.690
 8872SOL    HW227516   1.932   3.514   3.776
 8873SOL     OW27517   6.489   6.392   4.829
 8873SOL    HW127518   6.472   6.295   4.809
 8873SOL    HW227519   6.568   6.399   4.890
 8874SOL     OW27520   1.576   1.405   0.309
 8874SOL    HW127521   1.589   1.371   0.216
 8874SOL    HW227522   1.624   1.345   0.373
 8875SOL     OW27523   1.748   1.377   3.917
 8875SOL    HW127524   1.795   1.451   3.868
 8875SOL    HW227525   1.673   1.342   3.862
 8876SOL     OW27526   2.061   0.401   4.309
 8876SOL    HW127527   2.113   0.347   4.376
 8876SOL    HW227528   2.125   0.445   4.246
 8877SOL     OW27529   3.263   6.431   4.921
 8877SOL    HW127530   3.313   6.448   4.835
 8877SOL    HW227531   3.241   6.334   4.928
 8878SOL     OW27532   5.889   4.866   6.373
 8878SOL    HW127533   5.939   4.899   6.293
 8878SOL    HW227534   5.871   4.768   6.362
 8879SOL     OW27535   4.700   5.448   4.846
 8879SOL    HW127536   4.683   5.381   4.918
 8879SOL    HW227537   4.758   5.522   4.882
 8880SOL     OW27538   0.112   5.230   5.248
 8880SOL    HW127539   0.142   5.135   5.250
 8880SOL    HW227540   0.163   5.282   5.316
 8881SOL     OW27541   6.715   0.736   2.133
 8881SOL    HW127542   6.813   0.717   2.121
 8881SOL    HW227543   6.668   0.728   2.045
 8882SOL     OW27544   5.924   1.953   6.370
 8882SOL    HW127545   6.013   1.921   6.404
 8882SOL    HW227546   5.864   1.973   6.448
 8883SOL     OW27547   6.510   1.312   5.323
 8883SOL    HW127548   6.512   1.281   5.228
 8883SOL    HW227549   6.530   1.235   5.383
 8884SOL     OW27550   6.465   0.493   5.415
 8884SOL    HW127551   6.525   0.413   5.408
 8884SOL    HW227552   6.393   0.474   5.481
 8885SOL     OW27553   5.033   3.524   1.457
 8885SOL    HW127554   5.110   3.477   1.413
 8885SOL    HW227555   5.063   3.612   1.494
 8886SOL     OW27556   3.396   6.870   6.545
 8886SOL    HW127557   3.301   6.838   6.542
 8886SOL    HW227558   3.444   6.840   6.463
 8887SOL     OW27559   2.057   0.523   1.081
 8887SOL    HW127560   2.045   0.616   1.045
 8887SOL    HW227561   2.008   0.458   1.024
 8888SOL     OW27562   3.290   0.980   3.426
 8888SOL    HW127563   3.382   1.020   3.418
 8888SOL    HW227564   3.279   0.911   3.354
 8889SOL     OW27565   3.796   6.611   5.145
 8889SOL    HW127566   3.806   6.704   5.111
 8889SOL    HW227567   3.719   6.566   5.099
 8890SOL     OW27568   1.419   4.928   4.552
 8890SOL    HW127569   1.456   4.852   4.606
 8890SOL    HW227570   1.320   4.931   4.561
 8891SOL     OW27571   2.605   2.015   7.004
 8891SOL    HW127572   2.702   2.018   0.004
 8891SOL    HW227573   2.567   1.925   0.001
 8892SOL     OW27574   1.240   6.918   2.487
 8892SOL    HW127575   1.336   6.890   2.484
 8892SOL    HW227576   1.204   6.925   2.394
 8893SOL     OW27577   0.811   1.574   1.591
 8893SOL    HW127578   0.860   1.502   1.641
 8893SOL    HW227579   0.875   1.647   1.567
 8894SOL     OW27580   4.071   3.548   6.471
 8894SOL    HW127581   4.170   3.557   6.465
 8894SOL    HW227582   4.032   3.629   6.516
 8895SOL     OW27583   0.626   0.055   2.104
 8895SOL    HW127584   0.625   6.996   2.159
 8895SOL    HW227585   0.637   0.134   2.165
 8896SOL     OW27586   2.151   4.043   5.332
 8896SOL    HW127587   2.217   4.037   5.257
 8896SOL    HW227588   2.165   3.966   5.394
 8897SOL     OW27589   1.430   2.329   1.651
 8897SOL    HW127590   1.359   2.259   1.640
 8897SOL    HW227591   1.497   2.298   1.719
 8898SOL     OW27592   6.556   2.993   4.878
 8898SOL    HW127593   6.603   2.906   4.893
 8898SOL    HW227594   6.502   3.017   4.959
 8899SOL     OW27595   2.536   4.113   0.013
 8899SOL    HW127596   2.532   4.015   7.020
 8899SOL    HW227597   2.624   4.137   0.055
 8900SOL     OW27598   5.783   2.036   2.989
 8900SOL    HW127599   5.724   2.109   3.023
 8900SOL    HW227600   5.780   1.959   3.053
 8901SOL     OW27601   2.249   6.357   2.600
 8901SOL    HW127602   2.323   6.311   2.552
 8901SOL    HW227603   2.165   6.350   2.546
 8902SOL     OW27604   1.986   5.239   6.106
 8902SOL    HW127605   1.960   5.335   6.108
 8902SOL    HW227606   1.913   5.185   6.064
 8903SOL     OW27607   1.040   1.815   3.571
 8903SOL    HW127608   1.015   1.869   3.652
 8903SOL    HW227609   1.009   1.862   3.489
 8904SOL     OW27610   0.715   5.275   3.525
 8904SOL    HW127611   0.759   5.241   3.442
 8904SOL    HW227612   0.690   5.198   3.584
 8905SOL     OW27613   2.950   4.129   5.221
 8905SOL    HW127614   2.927   4.033   5.237
 8905SOL    HW227615   2.867   4.183   5.215
 8906SOL     OW27616   1.425   5.234   5.083
 8906SOL    HW127617   1.395   5.147   5.043
 8906SOL    HW227618   1.520   5.251   5.060
 8907SOL     OW27619   3.717   2.876   5.329
 8907SOL    HW127620   3.758   2.960   5.294
 8907SOL    HW227621   3.648   2.899   5.398
 8908SOL     OW27622   0.383   2.864   1.418
 8908SOL    HW127623   0.333   2.945   1.449
 8908SOL    HW227624   0.394   2.867   1.318
 8909SOL     OW27625   3.018   6.905   5.780
 8909SOL    HW127626   2.949   6.952   5.835
 8909SOL    HW227627   3.109   6.936   5.806
 8910SOL     OW27628   3.903   3.859   6.466
 8910SOL    HW127629   3.819   3.814   6.433
 8910SOL    HW227630   3.891   3.958   6.464
 8911SOL     OW27631   3.551   2.088   4.024
 8911SOL    HW127632   3.452   2.087   4.015
 8911SOL    HW227633   3.575   2.122   4.115
 8912SOL     OW27634   5.143   2.425   6.119
 8912SOL    HW127635   5.186   2.341   6.084
 8912SOL    HW227636   5.162   2.501   6.057
 8913SOL     OW27637   5.013   3.795   0.874
 8913SOL    HW127638   5.074   3.738   0.930
 8913SOL    HW227639   4.918   3.769   0.892
 8914SOL     OW27640   4.214   2.021   3.291
 8914SOL    HW127641   4.178   2.110   3.320
 8914SOL    HW227642   4.230   2.023   3.192
 8915SOL     OW27643   1.234   4.888   1.811
 8915SOL    HW127644   1.207   4.828   1.735
 8915SOL    HW227645   1.233   4.836   1.896
 8916SOL     OW27646   6.954   3.918   1.703
 8916SOL    HW127647   6.919   3.825   1.717
 8916SOL    HW227648   6.879   3.983   1.710
 8917SOL     OW27649   6.028   5.598   5.923
 8917SOL    HW127650   6.005   5.514   5.972
 8917SOL    HW227651   5.992   5.593   5.829
 8918SOL     OW27652   4.446   4.415   6.395
 8918SOL    HW127653   4.402   4.328   6.374
 8918SOL    HW227654   4.459   4.466   6.310
 8919SOL     OW27655   2.317   3.933   1.451
 8919SOL    HW127656   2.296   3.909   1.356
 8919SOL    HW227657   2.237   3.974   1.494
 8920SOL     OW27658   6.158   6.057   5.851
 8920SOL    HW127659   6.173   5.975   5.796
 8920SOL    HW227660   6.062   6.064   5.876
 8921SOL     OW27661   1.435   6.420   3.533
 8921SOL    HW127662   1.377   6.501   3.520
 8921SOL    HW227663   1.522   6.434   3.486
 8922SOL     OW27664   6.195   4.240   0.341
 8922SOL    HW127665   6.268   4.308   0.341
 8922SOL    HW227666   6.226   4.157   0.295
 8923SOL     OW27667   1.763   4.244   5.468
 8923SOL    HW127668   1.861   4.242   5.447
 8923SOL    HW227669   1.717   4.308   5.406
 8924SOL     OW27670   2.498   5.892   5.275
 8924SOL    HW127671   2.419   5.865   5.219
 8924SOL    HW227672   2.563   5.943   5.220
 8925SOL     OW27673   5.997   6.518   1.910
 8925SOL    HW127674   6.051   6.599   1.927
 8925SOL    HW227675   5.909   6.526   1.958
 8926SOL     OW27676   5.979   1.519   0.341
 8926SOL    HW127677   5.975   1.422   0.316
 8926SOL    HW227678   6.016   1.571   0.263
 8927SOL     OW27679   2.778   1.785   5.236
 8927SOL    HW127680   2.864   1.744   5.204
 8927SOL    HW227681   2.738   1.840   5.163
 8928SOL     OW27682   0.374   6.997   5.194
 8928SOL    HW127683   0.307   7.018   5.122
 8928SOL    HW227684   0.328   6.948   5.269
 8929SOL     OW27685   6.028   3.320   4.489
 8929SOL    HW127686   5.968   3.385   4.536
 8929SOL    HW227687   6.109   3.304   4.544
 8930SOL     OW27688   1.020   4.809   5.042
 8930SOL    HW127689   1.061   4.718   5.040
 8930SOL    HW227690   0.981   4.830   4.952
 8931SOL     OW27691   5.435   1.025   1.094
 8931SOL    HW127692   5.429   1.042   0.996
 8931SOL    HW227693   5.424   0.927   1.112
 8932SOL     OW27694   6.731   0.600   6.724
 8932SOL    HW127695   6.746   0.550   6.810
 8932SOL    HW227696   6.797   0.568   6.656
 8933SOL     OW27697   1.922   6.747   5.713
 8933SOL    HW127698   1.985   6.823   5.696
 8933SOL    HW227699   1.828   6.776   5.694
 8934SOL     OW27700   4.721   6.731   2.884
 8934SOL    HW127701   4.793   6.713   2.817
 8934SOL    HW227702   4.655   6.797   2.846
 8935SOL     OW27703   5.353   2.738   3.433
 8935SOL    HW127704   5.357   2.776   3.341
 8935SOL    HW227705   5.338   2.639   3.428
 8936SOL     OW27706   1.952   4.704   3.004
 8936SOL    HW127707   1.961   4.622   2.947
 8936SOL    HW227708   1.866   4.700   3.055
 8937SOL     OW27709   4.955   6.829   5.757
 8937SOL    HW127710   4.977   6.926   5.753
 8937SOL    HW227711   5.039   6.777   5.770
 8938SOL     OW27712   5.567   6.714   2.221
 8938SOL    HW127713   5.615   6.714   2.309
 8938SOL    HW227714   5.536   6.807   2.200
 8939SOL     OW27715   0.197   2.797   3.536
 8939SOL    HW127716   0.285   2.778   3.578
 8939SOL    HW227717   0.125   2.787   3.605
 8940SOL     OW27718   6.454   3.053   1.052
 8940SOL    HW127719   6.420   2.968   1.092
 8940SOL    HW227720   6.402   3.074   0.970
 8941SOL     OW27721   4.498   2.545   1.830
 8941SOL    HW127722   4.526   2.629   1.785
 8941SOL    HW227723   4.578   2.489   1.850
 8942SOL     OW27724   5.677   3.854   4.356
 8942SOL    HW127725   5.654   3.939   4.404
 8942SOL    HW227726   5.706   3.876   4.263
 8943SOL     OW27727   4.746   3.774   0.985
 8943SOL    HW127728   4.746   3.709   1.062
 8943SOL    HW227729   4.652   3.800   0.965
 8944SOL     OW27730   5.471   4.936   5.197
 8944SOL    HW127731   5.428   4.914   5.110
 8944SOL    HW227732   5.571   4.941   5.185
 8945SOL     OW27733   5.033   3.961   3.328
 8945SOL    HW127734   5.102   3.937   3.260
 8945SOL    HW227735   5.068   3.940   3.420
 8946SOL     OW27736   4.963   1.183   5.393
 8946SOL    HW127737   4.958   1.145   5.301
 8946SOL    HW227738   4.967   1.283   5.388
 8947SOL     OW27739   2.241   4.880   6.525
 8947SOL    HW127740   2.281   4.835   6.605
 8947SOL    HW227741   2.165   4.824   6.491
 8948SOL     OW27742   5.004   1.241   2.735
 8948SOL    HW127743   5.071   1.192   2.791
 8948SOL    HW227744   5.016   1.215   2.639
 8949SOL     OW27745   4.265   6.018   1.177
 8949SOL    HW127746   4.358   6.045   1.201
 8949SOL    HW227747   4.201   6.054   1.245
 8950SOL     OW27748   4.190   3.563   1.184
 8950SOL    HW127749   4.151   3.639   1.133
 8950SOL    HW227750   4.257   3.597   1.249
 8951SOL     OW27751   1.510   0.549   4.633
 8951SOL    HW127752   1.544   0.456   4.641
 8951SOL    HW227753   1.410   0.550   4.635
 8952SOL     OW27754   1.992   4.676   4.041
 8952SOL    HW127755   2.043   4.595   4.069
 8952SOL    HW227756   1.912   4.686   4.100
 8953SOL     OW27757   0.980   5.212   1.285
 8953SOL    HW127758   0.881   5.221   1.299
 8953SOL    HW227759   1.023   5.301   1.301
 8954SOL     OW27760   2.543   4.160   5.808
 8954SOL    HW127761   2.507   4.242   5.851
 8954SOL    HW227762   2.563   4.179   5.712
 8955SOL     OW27763   5.196   2.588   5.045
 8955SOL    HW127764   5.167   2.546   4.959
 8955SOL    HW227765   5.133   2.563   5.118
 8956SOL     OW27766   0.826   6.154   6.989
 8956SOL    HW127767   0.790   6.157   0.057
 8956SOL    HW227768   0.907   6.096   6.986
 8957SOL     OW27769   7.004   6.221   2.725
 8957SOL    HW127770   7.003   6.284   2.648
 8957SOL    HW227771   0.073   6.200   2.751
 8958SOL     OW27772   1.823   3.074   4.781
 8958SOL    HW127773   1.766   3.154   4.764
 8958SOL    HW227774   1.858   3.076   4.874
 8959SOL     OW27775   6.223   2.411   3.338
 8959SOL    HW127776   6.247   2.507   3.322
 8959SOL    HW227777   6.301   2.353   3.317
 8960SOL     OW27778   5.386   4.575   2.896
 8960SOL    HW127779   5.317   4.648   2.887
 8960SOL    HW227780   5.414   4.567   2.991
 8961SOL     OW27781   2.450   1.214   4.820
 8961SOL    HW127782   2.360   1.175   4.799
 8961SOL    HW227783   2.438   1.301   4.868
 8962SOL     OW27784   6.633   6.003   1.950
 8962SOL    HW127785   6.635   5.959   2.039
 8962SOL    HW227786   6.709   6.068   1.943
 8963SOL     OW27787   4.763   6.233   6.082
 8963SOL    HW127788   4.818   6.292   6.022
 8963SOL    HW227789   4.688   6.286   6.120
 8964SOL     OW27790   2.024   2.608   4.601
 8964SOL    HW127791   2.090   2.559   4.658
 8964SOL    HW227792   2.028   2.706   4.621
 8965SOL     OW27793   3.732   5.893   6.871
 8965SOL    HW127794   3.649   5.858   6.914
 8965SOL    HW227795   3.708   5.947   6.790
 8966SOL     OW27796   4.254   5.943   4.535
 8966SOL    HW127797   4.188   5.932   4.610
 8966SOL    HW227798   4.255   6.038   4.505
 8967SOL     OW27799   3.227   0.046   3.583
 8967SOL    HW127800   3.135   0.084   3.594
 8967SOL    HW227801   3.294   0.120   3.588
 8968SOL     OW27802   3.189   4.947   2.323
 8968SOL    HW127803   3.227   4.918   2.235
 8968SOL    HW227804   3.154   5.041   2.315
 8969SOL     OW27805   0.901   0.924   2.271
 8969SOL    HW127806   0.999   0.913   2.256
 8969SOL    HW227807   0.880   0.905   2.367
 8970SOL     OW27808   1.905   0.425   3.764
 8970SOL    HW127809   1.875   0.496   3.828
 8970SOL    HW227810   1.865   0.337   3.791
 8971SOL     OW27811   3.094   4.488   0.206
 8971SOL    HW127812   3.162   4.560   0.213
 8971SOL    HW227813   3.006   4.522   0.241
 8972SOL     OW27814   5.829   4.046   6.861
 8972SOL    HW127815   5.860   4.110   6.931
 8972SOL    HW227816   5.909   4.004   6.817
 8973SOL     OW27817   1.623   2.681   3.531
 8973SOL    HW127818   1.588   2.588   3.515
 8973SOL    HW227819   1.697   2.701   3.468
 8974SOL     OW27820   2.382   4.466   4.815
 8974SOL    HW127821   2.425   4.452   4.904
 8974SOL    HW227822   2.359   4.378   4.774
 8975SOL     OW27823   0.366   4.948   5.639
 8975SOL    HW127824   0.370   4.882   5.714
 8975SOL    HW227825   0.413   4.910   5.559
 8976SOL     OW27826   5.781   0.279   2.499
 8976SOL    HW127827   5.801   0.377   2.498
 8976SOL    HW227828   5.826   0.236   2.577
 8977SOL     OW27829   6.564   4.249   6.561
 8977SOL    HW127830   6.616   4.177   6.514
 8977SOL    HW227831   6.467   4.238   6.542
 8978SOL     OW27832   6.277   6.156   0.086
 8978SOL    HW127833   6.287   6.244   0.133
 8978SOL    HW227834   6.189   6.153   0.040
 8979SOL     OW27835   1.490   5.187   4.514
 8979SOL    HW127836   1.460   5.094   4.532
 8979SOL    HW227837   1.499   5.237   4.600
 8980SOL     OW27838   3.657   0.611   7.005
 8980SOL    HW127839   3.726   0.587   0.048
 8980SOL    HW227840   3.582   0.546   7.008
 8981SOL     OW27841   4.610   3.636   6.346
 8981SOL    HW127842   4.625   3.566   6.276
 8981SOL    HW227843   4.601   3.726   6.303
 8982SOL     OW27844   0.387   2.099   2.151
 8982SOL    HW127845   0.443   2.092   2.069
 8982SOL    HW227846   0.317   2.170   2.138
 8983SOL     OW27847   1.974   6.466   1.842
 8983SOL    HW127848   1.932   6.505   1.923
 8983SOL    HW227849   2.029   6.536   1.795
 8984SOL     OW27850   0.029   1.106   4.390
 8984SOL    HW127851   6.969   1.159   4.390
 8984SOL    HW227852   0.011   1.015   4.427
 8985SOL     OW27853   4.617   1.941   1.799
 8985SOL    HW127854   4.540   1.878   1.797
 8985SOL    HW227855   4.666   1.932   1.886
 8986SOL     OW27856   0.071   4.917   0.107
 8986SOL    HW127857   0.162   4.958   0.096
 8986SOL    HW227858   0.028   4.952   0.190
 8987SOL     OW27859   2.278   6.211   1.627
 8987SOL    HW127860   2.356   6.224   1.689
 8987SOL    HW227861   2.197   6.189   1.680
 8988SOL     OW27862   2.459   6.898   0.846
 8988SOL    HW127863   2.480   6.803   0.872
 8988SOL    HW227864   2.369   6.922   0.880
 8989SOL     OW27865   5.247   1.519   2.998
 8989SOL    HW127866   5.282   1.502   3.090
 8989SOL    HW227867   5.150   1.540   3.003
 8990SOL     OW27868   2.741   0.522   2.631
 8990SOL    HW127869   2.777   0.573   2.709
 8990SOL    HW227870   2.708   0.587   2.562
 8991SOL     OW27871   1.069   1.797   0.628
 8991SOL    HW127872   1.069   1.882   0.681
 8991SOL    HW227873   1.037   1.722   0.686
 8992SOL     OW27874   0.443   4.187   6.390
 8992SOL    HW127875   0.499   4.178   6.473
 8992SOL    HW227876   0.416   4.096   6.357
 8993SOL     OW27877   5.335   3.667   5.030
 8993SOL    HW127878   5.316   3.627   5.120
 8993SOL    HW227879   5.372   3.759   5.042
 8994SOL     OW27880   1.177   5.628   2.844
 8994SOL    HW127881   1.113   5.627   2.920
 8994SOL    HW227882   1.258   5.573   2.867
 8995SOL     OW27883   2.008   3.677   4.940
 8995SOL    HW127884   1.988   3.775   4.941
 8995SOL    HW227885   1.968   3.635   4.858
 8996SOL     OW27886   1.521   3.991   2.111
 8996SOL    HW127887   1.509   3.939   2.195
 8996SOL    HW227888   1.568   3.934   2.043
 8997SOL     OW27889   4.507   2.013   5.329
 8997SOL    HW127890   4.529   1.958   5.410
 8997SOL    HW227891   4.494   1.953   5.251
 8998SOL     OW27892   1.084   1.416   6.212
 8998SOL    HW127893   1.157   1.480   6.237
 8998SOL    HW227894   1.121   1.344   6.155
 8999SOL     OW27895   4.855   1.293   4.955
 8999SOL    HW127896   4.777   1.354   4.940
 8999SOL    HW227897   4.902   1.278   4.868
 9000SOL     OW27898   2.337   4.321   0.123
 9000SOL    HW127899   2.405   4.252   0.096
 9000SOL    HW227900   2.369   4.367   0.206
 9001SOL     OW27901   2.013   4.632   3.578
 9001SOL    HW127902   2.093   4.674   3.534
 9001SOL    HW227903   1.993   4.545   3.533
 9002SOL     OW27904   5.211   4.362   5.568
 9002SOL    HW127905   5.200   4.273   5.614
 9002SOL    HW227906   5.257   4.348   5.480
 9003SOL     OW27907   6.514   3.309   6.205
 9003SOL    HW127908   6.468   3.250   6.139
 9003SOL    HW227909   6.485   3.404   6.192
 9004SOL     OW27910   4.647   5.520   0.801
 9004SOL    HW127911   4.702   5.457   0.856
 9004SOL    HW227912   4.696   5.606   0.790
 9005SOL     OW27913   4.424   2.173   2.888
 9005SOL    HW127914   4.339   2.223   2.901
 9005SOL    HW227915   4.501   2.235   2.905
 9006SOL     OW27916   1.938   6.714   0.977
 9006SOL    HW127917   1.863   6.757   1.028
 9006SOL    HW227918   1.900   6.655   0.906
 9007SOL     OW27919   2.318   6.375   4.119
 9007SOL    HW127920   2.352   6.292   4.163
 9007SOL    HW227921   2.223   6.391   4.147
 9008SOL     OW27922   6.832   4.635   2.643
 9008SOL    HW127923   6.850   4.731   2.619
 9008SOL    HW227924   6.918   4.584   2.642
 9009SOL     OW27925   4.284   5.934   0.766
 9009SOL    HW127926   4.308   5.861   0.830
 9009SOL    HW227927   4.285   6.022   0.814
 9010SOL     OW27928   0.883   5.626   5.011
 9010SOL    HW127929   0.978   5.607   4.985
 9010SOL    HW227930   0.830   5.542   5.007
 9011SOL     OW27931   4.066   2.042   1.805
 9011SOL    HW127932   3.982   2.097   1.802
 9011SOL    HW227933   4.043   1.945   1.807
 9012SOL     OW27934   5.718   5.303   1.743
 9012SOL    HW127935   5.659   5.382   1.763
 9012SOL    HW227936   5.767   5.318   1.657
 9013SOL     OW27937   4.760   6.041   2.768
 9013SOL    HW127938   4.684   5.986   2.804
 9013SOL    HW227939   4.809   5.989   2.698
 9014SOL     OW27940   2.804   0.813   0.585
 9014SOL    HW127941   2.724   0.859   0.624
 9014SOL    HW227942   2.804   0.827   0.486
 9015SOL     OW27943   6.852   1.337   4.744
 9015SOL    HW127944   6.771   1.346   4.686
 9015SOL    HW227945   6.826   1.295   4.831
 9016SOL     OW27946   6.815   5.871   6.365
 9016SOL    HW127947   6.866   5.831   6.441
 9016SOL    HW227948   6.774   5.957   6.395
 9017SOL     OW27949   0.320   4.258   3.644
 9017SOL    HW127950   0.405   4.233   3.598
 9017SOL    HW227951   0.254   4.289   3.576
 9018SOL     OW27952   3.555   1.591   5.991
 9018SOL    HW127953   3.487   1.580   5.918
 9018SOL    HW227954   3.524   1.662   6.054
 9019SOL     OW27955   1.530   5.743   0.306
 9019SOL    HW127956   1.518   5.661   0.362
 9019SOL    HW227957   1.602   5.800   0.346
 9020SOL     OW27958   0.387   4.754   2.755
 9020SOL    HW127959   0.359   4.777   2.848
 9020SOL    HW227960   0.362   4.660   2.735
 9021SOL     OW27961   6.515   6.016   5.423
 9021SOL    HW127962   6.461   6.040   5.343
 9021SOL    HW227963   6.583   6.086   5.440
 9022SOL     OW27964   3.372   1.687   6.379
 9022SOL    HW127965   3.284   1.705   6.423
 9022SOL    HW227966   3.371   1.595   6.340
 9023SOL     OW27967   3.348   2.906   2.961
 9023SOL    HW127968   3.271   2.919   3.024
 9023SOL    HW227969   3.386   2.995   2.935
 9024SOL     OW27970   1.443   0.955   6.420
 9024SOL    HW127971   1.400   1.043   6.398
 9024SOL    HW227972   1.469   0.954   6.516
 9025SOL     OW27973   0.129   4.217   0.839
 9025SOL    HW127974   0.042   4.203   0.887
 9025SOL    HW227975   0.201   4.233   0.906
 9026SOL     OW27976   2.893   3.184   5.475
 9026SOL    HW127977   2.875   3.185   5.573
 9026SOL    HW227978   2.846   3.106   5.433
 9027SOL     OW27979   2.306   2.526   2.776
 9027SOL    HW127980   2.239   2.600   2.779
 9027SOL    HW227981   2.304   2.476   2.862
 9028SOL     OW27982   2.458   5.171   5.100
 9028SOL    HW127983   2.455   5.143   5.196
 9028SOL    HW227984   2.464   5.090   5.042
 9029SOL     OW27985   4.769   5.412   3.046
 9029SOL    HW127986   4.844   5.416   3.112
 9029SOL    HW227987   4.743   5.505   3.019
 9030SOL     OW27988   3.028   1.885   1.592
 9030SOL    HW127989   3.100   1.838   1.643
 9030SOL    HW227990   2.950   1.900   1.653
 9031SOL     OW27991   1.738   1.212   1.213
 9031SOL    HW127992   1.687   1.252   1.137
 9031SOL    HW227993   1.746   1.280   1.287
 9032SOL     OW27994   0.940   2.220   2.709
 9032SOL    HW127995   0.924   2.281   2.631
 9032SOL    HW227996   0.968   2.130   2.677
 9033SOL     OW27997   1.566   3.764   2.765
 9033SOL    HW127998   1.558   3.716   2.852
 9033SOL    HW227999   1.662   3.787   2.748
 9034SOL     OW28000   1.344   0.070   5.751
 9034SOL    HW128001   1.413   0.028   5.810
 9034SOL    HW228002   1.257   0.020   5.761
 9035SOL     OW28003   6.940   0.520   4.376
 9035SOL    HW128004   6.917   0.503   4.280
 9035SOL    HW228005   6.859   0.553   4.425
 9036SOL     OW28006   1.183   1.506   5.137
 9036SOL    HW128007   1.209   1.587   5.189
 9036SOL    HW228008   1.216   1.424   5.184
 9037SOL     OW28009   2.951   3.651   5.883
 9037SOL    HW128010   2.910   3.741   5.899
 9037SOL    HW228011   2.991   3.649   5.791
 9038SOL     OW28012   5.565   6.707   5.639
 9038SOL    HW128013   5.600   6.616   5.615
 9038SOL    HW228014   5.619   6.745   5.714
 9039SOL     OW28015   2.467   4.986   6.382
 9039SOL    HW128016   2.383   4.969   6.434
 9039SOL    HW228017   2.526   5.048   6.433
 9040SOL     OW28018   2.429   1.726   1.820
 9040SOL    HW128019   2.509   1.781   1.842
 9040SOL    HW228020   2.352   1.786   1.800
 9041SOL     OW28021   1.796   3.152   0.152
 9041SOL    HW128022   1.860   3.229   0.145
 9041SOL    HW228023   1.809   3.106   0.240
 9042SOL     OW28024   2.407   5.296   3.197
 9042SOL    HW128025   2.437   5.214   3.148
 9042SOL    HW228026   2.308   5.295   3.205
 9043SOL     OW28027   6.940   2.492   0.908
 9043SOL    HW128028   6.900   2.498   0.817
 9043SOL    HW228029   6.908   2.408   0.953
 9044SOL     OW28030   6.463   4.843   0.629
 9044SOL    HW128031   6.429   4.752   0.605
 9044SOL    HW228032   6.430   4.910   0.562
 9045SOL     OW28033   3.210   5.771   3.966
 9045SOL    HW128034   3.178   5.856   4.008
 9045SOL    HW228035   3.142   5.699   3.979
 9046SOL     OW28036   3.436   4.451   5.972
 9046SOL    HW128037   3.452   4.497   5.884
 9046SOL    HW228038   3.524   4.422   6.010
 9047SOL     OW28039   1.146   4.574   5.053
 9047SOL    HW128040   1.179   4.591   4.960
 9047SOL    HW228041   1.169   4.480   5.080
 9048SOL     OW28042   1.584   2.091   5.161
 9048SOL    HW128043   1.667   2.071   5.109
 9048SOL    HW228044   1.568   2.190   5.161
 9049SOL     OW28045   5.148   6.223   6.235
 9049SOL    HW128046   5.096   6.163   6.175
 9049SOL    HW228047   5.091   6.300   6.264
 9050SOL     OW28048   0.068   5.924   5.276
 9050SOL    HW128049   0.083   5.875   5.190
 9050SOL    HW228050   0.112   6.014   5.271
 9051SOL     OW28051   5.389   6.505   6.425
 9051SOL    HW128052   5.396   6.431   6.358
 9051SOL    HW228053   5.481   6.535   6.452
 9052SOL     OW28054   1.910   5.280   4.815
 9052SOL    HW128055   1.943   5.193   4.778
 9052SOL    HW228056   1.861   5.263   4.901
 9053SOL     OW28057   2.732   1.619   3.824
 9053SOL    HW128058   2.710   1.644   3.918
 9053SOL    HW228059   2.830   1.600   3.816
 9054SOL     OW28060   3.825   0.128   0.950
 9054SOL    HW128061   3.872   0.059   1.005
 9054SOL    HW228062   3.893   0.183   0.900
 9055SOL     OW28063   0.597   1.358   4.671
 9055SOL    HW128064   0.636   1.331   4.583
 9055SOL    HW228065   0.651   1.318   4.745
 9056SOL     OW28066   5.376   1.712   2.496
 9056SOL    HW128067   5.385   1.778   2.422
 9056SOL    HW228068   5.438   1.737   2.570
 9057SOL     OW28069   4.454   6.636   6.942
 9057SOL    HW128070   4.484   6.542   6.961
 9057SOL    HW228071   4.357   6.634   6.917
 9058SOL     OW28072   2.331   2.392   4.279
 9058SOL    HW128073   2.290   2.380   4.369
 9058SOL    HW228074   2.405   2.459   4.284
 9059SOL     OW28075   6.563   0.676   2.937
 9059SOL    HW128076   6.500   0.645   2.865
 9059SOL    HW228077   6.580   0.601   3.001
 9060SOL     OW28078   0.941   5.706   1.936
 9060SOL    HW128079   1.005   5.742   2.004
 9060SOL    HW228080   0.921   5.777   1.868
 9061SOL     OW28081   5.981   3.989   2.915
 9061SOL    HW128082   5.982   3.896   2.950
 9061SOL    HW228083   5.919   3.994   2.836
 9062SOL     OW28084   0.321   6.045   2.745
 9062SOL    HW128085   0.396   5.980   2.741
 9062SOL    HW228086   0.248   6.016   2.682
 9063SOL     OW28087   4.567   2.194   1.804
 9063SOL    HW128088   4.612   2.109   1.777
 9063SOL    HW228089   4.530   2.240   1.723
 9064SOL     OW28090   0.495   5.864   3.097
 9064SOL    HW128091   0.427   5.906   3.157
 9064SOL    HW228092   0.578   5.920   3.097
 9065SOL     OW28093   2.840   4.154   5.794
 9065SOL    HW128094   2.857   4.175   5.698
 9065SOL    HW228095   2.741   4.152   5.810
 9066SOL     OW28096   4.832   4.606   4.528
 9066SOL    HW128097   4.795   4.698   4.538
 9066SOL    HW228098   4.756   4.541   4.518
 9067SOL     OW28099   1.027   6.125   4.626
 9067SOL    HW128100   0.964   6.113   4.549
 9067SOL    HW228101   1.085   6.204   4.609
 9068SOL     OW28102   4.630   0.025   6.163
 9068SOL    HW128103   4.537   0.031   6.200
 9068SOL    HW228104   4.667   0.117   6.149
 9069SOL     OW28105   5.408   2.351   0.979
 9069SOL    HW128106   5.324   2.376   0.931
 9069SOL    HW228107   5.394   2.266   1.030
 9070SOL     OW28108   2.084   1.480   5.819
 9070SOL    HW128109   2.151   1.443   5.755
 9070SOL    HW228110   1.993   1.480   5.776
 9071SOL     OW28111   5.524   2.692   6.431
 9071SOL    HW128112   5.459   2.638   6.484
 9071SOL    HW228113   5.484   2.717   6.343
 9072SOL     OW28114   4.897   0.689   3.102
 9072SOL    HW128115   4.908   0.678   3.003
 9072SOL    HW228116   4.826   0.756   3.120
 9073SOL     OW28117   4.693   2.212   5.101
 9073SOL    HW128118   4.690   2.115   5.126
 9073SOL    HW228119   4.691   2.268   5.183
 9074SOL     OW28120   1.729   1.027   2.303
 9074SOL    HW128121   1.713   1.041   2.400
 9074SOL    HW228122   1.686   0.942   2.273
 9075SOL     OW28123   6.155   6.061   0.708
 9075SOL    HW128124   6.247   6.023   0.721
 9075SOL    HW228125   6.155   6.120   0.628
 9076SOL     OW28126   6.492   0.201   2.517
 9076SOL    HW128127   6.554   0.246   2.581
 9076SOL    HW228128   6.402   0.189   2.560
 9077SOL     OW28129   6.606   1.477   6.281
 9077SOL    HW128130   6.697   1.489   6.321
 9077SOL    HW228131   6.615   1.452   6.185
 9078SOL     OW28132   5.337   6.519   0.021
 9078SOL    HW128133   5.437   6.532   0.025
 9078SOL    HW228134   5.307   6.473   0.105
 9079SOL     OW28135   1.239   1.605   6.996
 9079SOL    HW128136   1.245   1.705   6.987
 9079SOL    HW228137   1.193   1.582   0.057
 9080SOL     OW28138   6.291   3.479   2.211
 9080SOL    HW128139   6.388   3.466   2.191
 9080SOL    HW228140   6.238   3.467   2.127
 9081SOL     OW28141   5.208   1.023   0.376
 9081SOL    HW128142   5.200   1.090   0.450
 9081SOL    HW228143   5.292   0.970   0.388
 9082SOL     OW28144   3.316   5.831   5.912
 9082SOL    HW128145   3.412   5.843   5.885
 9082SOL    HW228146   3.313   5.776   5.996
 9083SOL     OW28147   4.268   5.341   6.975
 9083SOL    HW128148   4.340   5.391   7.022
 9083SOL    HW228149   4.180   5.362   7.017
 9084SOL     OW28150   0.104   2.632   6.048
 9084SOL    HW128151   0.160   2.635   5.965
 9084SOL    HW228152   0.087   2.725   6.080
 9085SOL     OW28153   2.290   4.864   0.086
 9085SOL    HW128154   2.336   4.952   0.100
 9085SOL    HW228155   2.242   4.839   0.170
 9086SOL     OW28156   0.415   4.793   1.066
 9086SOL    HW128157   0.355   4.756   1.136
 9086SOL    HW228158   0.361   4.851   1.004
 9087SOL     OW28159   5.659   0.997   1.249
 9087SOL    HW128160   5.570   1.012   1.205
 9087SOL    HW228161   5.731   0.995   1.179
 9088SOL     OW28162   6.539   6.598   0.803
 9088SOL    HW128163   6.464   6.653   0.767
 9088SOL    HW228164   6.533   6.596   0.903
 9089SOL     OW28165   5.247   5.310   3.778
 9089SOL    HW128166   5.297   5.253   3.843
 9089SOL    HW228167   5.211   5.253   3.705
 9090SOL     OW28168   4.959   6.191   5.574
 9090SOL    HW128169   5.044   6.235   5.544
 9090SOL    HW228170   4.884   6.257   5.571
 9091SOL     OW28171   2.119   1.495   1.802
 9091SOL    HW128172   2.053   1.549   1.855
 9091SOL    HW228173   2.201   1.480   1.857
 9092SOL     OW28174   2.020   1.190   5.501
 9092SOL    HW128175   1.975   1.264   5.451
 9092SOL    HW228176   1.954   1.117   5.518
 9093SOL     OW28177   1.978   3.972   0.678
 9093SOL    HW128178   1.937   3.969   0.587
 9093SOL    HW228179   1.947   4.054   0.726
 9094SOL     OW28180   6.706   4.397   1.455
 9094SOL    HW128181   6.682   4.300   1.447
 9094SOL    HW228182   6.802   4.410   1.430
 9095SOL     OW28183   3.120   2.616   6.788
 9095SOL    HW128184   3.145   2.707   6.755
 9095SOL    HW228185   3.032   2.589   6.747
 9096SOL     OW28186   5.188   3.048   3.023
 9096SOL    HW128187   5.262   3.094   2.975
 9096SOL    HW228188   5.145   3.112   3.087
 9097SOL     OW28189   1.035   5.333   6.590
 9097SOL    HW128190   0.959   5.376   6.542
 9097SOL    HW228191   1.001   5.253   6.640
 9098SOL     OW28192   4.091   3.733   2.992
 9098SOL    HW128193   4.077   3.702   2.898
 9098SOL    HW228194   4.187   3.718   3.018
 9099SOL     OW28195   2.277   3.512   0.929
 9099SOL    HW128196   2.331   3.477   0.852
 9099SOL    HW228197   2.241   3.435   0.981
 9100SOL     OW28198   0.432   3.298   1.347
 9100SOL    HW128199   0.456   3.390   1.317
 9100SOL    HW228200   0.465   3.284   1.440
 9101SOL     OW28201   1.923   2.623   1.248
 9101SOL    HW128202   2.005   2.569   1.234
 9101SOL    HW228203   1.941   2.696   1.314
 9102SOL     OW28204   3.729   5.460   2.615
 9102SOL    HW128205   3.661   5.528   2.588
 9102SOL    HW228206   3.709   5.427   2.708
 9103SOL     OW28207   0.352   4.146   6.858
 9103SOL    HW128208   0.425   4.088   6.823
 9103SOL    HW228209   0.383   4.193   6.941
 9104SOL     OW28210   4.432   6.573   1.208
 9104SOL    HW128211   4.423   6.550   1.305
 9104SOL    HW228212   4.368   6.646   1.185
 9105SOL     OW28213   1.980   2.052   5.717
 9105SOL    HW128214   1.964   2.124   5.784
 9105SOL    HW228215   2.078   2.031   5.712
 9106SOL     OW28216   6.787   5.340   1.107
 9106SOL    HW128217   6.730   5.415   1.139
 9106SOL    HW228218   6.766   5.257   1.159
 9107SOL     OW28219   4.383   0.542   1.627
 9107SOL    HW128220   4.454   0.485   1.585
 9107SOL    HW228221   4.334   0.489   1.696
 9108SOL     OW28222   4.572   5.339   6.019
 9108SOL    HW128223   4.606   5.312   5.930
 9108SOL    HW228224   4.581   5.264   6.084
 9109SOL     OW28225   2.909   1.891   3.819
 9109SOL    HW128226   2.897   1.978   3.771
 9109SOL    HW228227   2.835   1.879   3.886
 9110SOL     OW28228   1.725   4.258   3.844
 9110SOL    HW128229   1.773   4.345   3.857
 9110SOL    HW228230   1.762   4.189   3.907
 9111SOL     OW28231   3.887   4.210   1.697
 9111SOL    HW128232   3.943   4.153   1.757
 9111SOL    HW228233   3.838   4.152   1.632
 9112SOL     OW28234   0.042   4.621   2.134
 9112SOL    HW128235   0.078   4.594   2.044
 9112SOL    HW228236   0.118   4.629   2.198
 9113SOL     OW28237   4.341   6.891   0.333
 9113SOL    HW128238   4.266   6.849   0.385
 9113SOL    HW228239   4.427   6.880   0.382
 9114SOL     OW28240   2.691   4.475   1.679
 9114SOL    HW128241   2.786   4.487   1.709
 9114SOL    HW228242   2.647   4.564   1.672
 9115SOL     OW28243   1.523   4.902   5.228
 9115SOL    HW128244   1.429   4.901   5.195
 9115SOL    HW228245   1.527   4.946   5.317
 9116SOL     OW28246   0.453   1.154   6.121
 9116SOL    HW128247   0.546   1.169   6.155
 9116SOL    HW228248   0.391   1.147   6.199
 9117SOL     OW28249   6.516   2.254   0.268
 9117SOL    HW128250   6.460   2.171   0.267
 9117SOL    HW228251   6.612   2.229   0.282
 9118SOL     OW28252   6.187   6.742   1.859
 9118SOL    HW128253   6.252   6.772   1.928
 9118SOL    HW228254   6.220   6.657   1.817
 9119SOL     OW28255   6.760   0.483   1.674
 9119SOL    HW128256   6.821   0.562   1.676
 9119SOL    HW228257   6.772   0.432   1.589
 9120SOL     OW28258   5.508   1.249   6.224
 9120SOL    HW128259   5.454   1.326   6.189
 9120SOL    HW228260   5.496   1.242   6.323
 9121SOL     OW28261   0.859   1.271   6.388
 9121SOL    HW128262   0.848   1.338   6.461
 9121SOL    HW228263   0.932   1.206   6.413
 9122SOL     OW28264   1.615   2.870   2.490
 9122SOL    HW128265   1.696   2.813   2.484
 9122SOL    HW228266   1.601   2.899   2.585
 9123SOL     OW28267   2.333   5.406   6.878
 9123SOL    HW128268   2.425   5.367   6.876
 9123SOL    HW228269   2.282   5.374   6.798
 9124SOL     OW28270   6.319   5.638   5.307
 9124SOL    HW128271   6.349   5.552   5.265
 9124SOL    HW228272   6.228   5.662   5.272
 9125SOL     OW28273   5.150   4.205   3.705
 9125SOL    HW128274   5.055   4.190   3.679
 9125SOL    HW228275   5.169   4.303   3.709
 9126SOL     OW28276   5.963   0.754   1.371
 9126SOL    HW128277   5.989   0.810   1.292
 9126SOL    HW228278   5.873   0.714   1.355
 9127SOL     OW28279   5.190   0.739   0.090
 9127SOL    HW128280   5.241   0.709   0.009
 9127SOL    HW228281   5.201   0.838   0.102
 9128SOL     OW28282   3.832   2.123   4.855
 9128SOL    HW128283   3.786   2.206   4.888
 9128SOL    HW228284   3.798   2.101   4.763
 9129SOL     OW28285   2.156   1.910   6.837
 9129SOL    HW128286   2.124   2.003   6.818
 9129SOL    HW228287   2.100   1.870   6.910
 9130SOL     OW28288   5.849   4.509   0.816
 9130SOL    HW128289   5.819   4.439   0.751
 9130SOL    HW228290   5.949   4.506   0.823
 9131SOL     OW28291   1.117   4.239   4.675
 9131SOL    HW128292   1.182   4.298   4.628
 9131SOL    HW228293   1.103   4.156   4.621
 9132SOL     OW28294   0.153   3.467   4.468
 9132SOL    HW128295   0.079   3.400   4.455
 9132SOL    HW228296   0.240   3.426   4.439
 9133SOL     OW28297   2.536   4.089   1.368
 9133SOL    HW128298   2.611   4.045   1.319
 9133SOL    HW228299   2.482   4.019   1.415
 9134SOL     OW28300   2.945   5.956   6.533
 9134SOL    HW128301   2.971   5.999   6.447
 9134SOL    HW228302   2.944   6.025   6.606
 9135SOL     OW28303   6.424   5.956   4.351
 9135SOL    HW128304   6.518   5.984   4.334
 9135SOL    HW228305   6.377   5.939   4.265
 9136SOL     OW28306   4.650   5.069   5.799
 9136SOL    HW128307   4.722   5.059   5.868
 9136SOL    HW228308   4.669   5.008   5.722
 9137SOL     OW28309   4.348   1.411   1.646
 9137SOL    HW128310   4.365   1.360   1.730
 9137SOL    HW228311   4.429   1.406   1.587
 9138SOL     OW28312   4.847   5.437   6.304
 9138SOL    HW128313   4.758   5.470   6.274
 9138SOL    HW228314   4.846   5.337   6.309
 9139SOL     OW28315   3.282   1.347   5.443
 9139SOL    HW128316   3.370   1.348   5.489
 9139SOL    HW228317   3.209   1.334   5.510
 9140SOL     OW28318   6.771   2.369   2.785
 9140SOL    HW128319   6.777   2.463   2.752
 9140SOL    HW228320   6.849   2.349   2.844
 9141SOL     OW28321   5.217   0.210   5.572
 9141SOL    HW128322   5.310   0.195   5.537
 9141SOL    HW228323   5.153   0.154   5.520
 9142SOL     OW28324   0.333   3.000   6.134
 9142SOL    HW128325   0.301   2.999   6.039
 9142SOL    HW228326   0.267   2.951   6.192
 9143SOL     OW28327   4.593   3.014   0.515
 9143SOL    HW128328   4.692   3.001   0.521
 9143SOL    HW228329   4.547   2.954   0.580
 9144SOL     OW28330   2.428   5.569   5.644
 9144SOL    HW128331   2.344   5.518   5.658
 9144SOL    HW228332   2.432   5.602   5.549
 9145SOL     OW28333   0.072   4.793   6.882
 9145SOL    HW128334   0.095   4.819   6.976
 9145SOL    HW228335   0.003   4.721   6.883
 9146SOL     OW28336   6.112   2.783   1.152
 9146SOL    HW128337   6.013   2.797   1.151
 9146SOL    HW228338   6.138   2.730   1.071
 9147SOL     OW28339   4.550   5.530   4.649
 9147SOL    HW128340   4.600   5.503   4.731
 9147SOL    HW228341   4.559   5.629   4.635
 9148SOL     OW28342   5.009   5.413   3.240
 9148SOL    HW128343   5.104   5.409   3.210
 9148SOL    HW228344   4.998   5.361   3.324
 9149SOL     OW28345   5.151   2.904   4.620
 9149SOL    HW128346   5.075   2.883   4.558
 9149SOL    HW228347   5.130   2.869   4.711
 9150SOL     OW28348   4.780   0.336   3.507
 9150SOL    HW128349   4.841   0.408   3.538
 9150SOL    HW228350   4.759   0.349   3.410
 9151SOL     OW28351   1.828   4.191   2.183
 9151SOL    HW128352   1.875   4.234   2.260
 9151SOL    HW228353   1.767   4.258   2.140
 9152SOL     OW28354   2.357   6.040   3.695
 9152SOL    HW128355   2.369   6.041   3.595
 9152SOL    HW228356   2.425   5.978   3.736
 9153SOL     OW28357   2.062   2.774   6.239
 9153SOL    HW128358   2.100   2.684   6.259
 9153SOL    HW228359   1.967   2.778   6.269
 9154SOL     OW28360   2.700   6.025   6.883
 9154SOL    HW128361   2.667   6.065   6.968
 9154SOL    HW228362   2.627   5.973   6.839
 9155SOL     OW28363   1.874   4.139   6.714
 9155SOL    HW128364   1.809   4.068   6.686
 9155SOL    HW228365   1.833   4.229   6.703
 9156SOL     OW28366   4.472   2.440   1.477
 9156SOL    HW128367   4.520   2.352   1.470
 9156SOL    HW228368   4.499   2.498   1.400
 9157SOL     OW28369   5.747   3.794   5.483
 9157SOL    HW128370   5.731   3.711   5.428
 9157SOL    HW228371   5.711   3.780   5.575
 9158SOL     OW28372   0.803   3.411   4.269
 9158SOL    HW128373   0.870   3.484   4.253
 9158SOL    HW228374   0.712   3.451   4.277
 9159SOL     OW28375   6.445   5.686   2.294
 9159SOL    HW128376   6.513   5.630   2.341
 9159SOL    HW228377   6.410   5.756   2.356
 9160SOL     OW28378   0.588   6.873   6.399
 9160SOL    HW128379   0.499   6.840   6.368
 9160SOL    HW228380   0.659   6.807   6.375
 9161SOL     OW28381   4.870   3.430   4.567
 9161SOL    HW128382   4.777   3.448   4.602
 9161SOL    HW228383   4.870   3.345   4.515
 9162SOL     OW28384   4.664   2.521   2.448
 9162SOL    HW128385   4.658   2.475   2.360
 9162SOL    HW228386   4.684   2.618   2.433
 9163SOL     OW28387   2.965   2.089   3.633
 9163SOL    HW128388   2.929   2.176   3.667
 9163SOL    HW228389   3.049   2.106   3.581
 9164SOL     OW28390   2.755   0.571   6.386
 9164SOL    HW128391   2.837   0.568   6.329
 9164SOL    HW228392   2.775   0.534   6.476
 9165SOL     OW28393   5.409   0.788   6.710
 9165SOL    HW128394   5.399   0.776   6.611
 9165SOL    HW228395   5.451   0.876   6.729
 9166SOL     OW28396   3.468   5.073   1.036
 9166SOL    HW128397   3.413   5.155   1.021
 9166SOL    HW228398   3.565   5.097   1.038
 9167SOL     OW28399   1.554   3.766   5.725
 9167SOL    HW128400   1.457   3.770   5.702
 9167SOL    HW228401   1.565   3.762   5.824
 9168SOL     OW28402   2.326   0.136   5.666
 9168SOL    HW128403   2.297   0.140   5.570
 9168SOL    HW228404   2.245   0.140   5.725
 9169SOL     OW28405   0.870   0.848   3.836
 9169SOL    HW128406   0.771   0.837   3.827
 9169SOL    HW228407   0.892   0.944   3.849
 9170SOL     OW28408   6.893   5.363   0.458
 9170SOL    HW128409   6.852   5.358   0.367
 9170SOL    HW228410   6.822   5.384   0.525
 9171SOL     OW28411   2.969   5.812   0.051
 9171SOL    HW128412   3.005   5.881   0.114
 9171SOL    HW228413   2.896   5.852   7.021
 9172SOL     OW28414   3.435   1.419   4.185
 9172SOL    HW128415   3.430   1.500   4.126
 9172SOL    HW228416   3.491   1.349   4.141
 9173SOL     OW28417   6.955   5.121   4.882
 9173SOL    HW128418   6.897   5.111   4.963
 9173SOL    HW228419   6.940   5.044   4.820
 9174SOL     OW28420   0.052   4.973   6.657
 9174SOL    HW128421   0.070   5.063   6.698
 9174SOL    HW228422   0.074   4.901   6.723
 9175SOL     OW28423   2.347   5.851   6.122
 9175SOL    HW128424   2.248   5.853   6.104
 9175SOL    HW228425   2.395   5.819   6.041
 9176SOL     OW28426   2.121   0.699   5.543
 9176SOL    HW128427   2.078   0.686   5.454
 9176SOL    HW228428   2.181   0.778   5.539
 9177SOL     OW28429   1.386   4.431   3.941
 9177SOL    HW128430   1.445   4.511   3.943
 9177SOL    HW228431   1.314   4.440   4.010
 9178SOL     OW28432   2.219   5.292   0.849
 9178SOL    HW128433   2.172   5.379   0.834
 9178SOL    HW228434   2.293   5.282   0.782
 9179SOL     OW28435   3.185   4.847   3.932
 9179SOL    HW128436   3.129   4.861   4.013
 9179SOL    HW228437   3.280   4.832   3.959
 9180SOL     OW28438   5.782   2.293   3.684
 9180SOL    HW128439   5.842   2.374   3.685
 9180SOL    HW228440   5.820   2.224   3.745
 9181SOL     OW28441   4.414   2.313   2.327
 9181SOL    HW128442   4.404   2.356   2.237
 9181SOL    HW228443   4.343   2.243   2.338
 9182SOL     OW28444   1.363   6.501   2.190
 9182SOL    HW128445   1.428   6.504   2.266
 9182SOL    HW228446   1.403   6.450   2.114
 9183SOL     OW28447   4.976   6.205   0.916
 9183SOL    HW128448   5.063   6.208   0.965
 9183SOL    HW228449   4.902   6.190   0.981
 9184SOL     OW28450   4.994   6.938   0.931
 9184SOL    HW128451   4.990   6.851   0.979
 9184SOL    HW228452   4.912   6.950   0.875
 9185SOL     OW28453   3.561   0.674   5.181
 9185SOL    HW128454   3.539   0.651   5.086
 9185SOL    HW228455   3.618   0.603   5.221
 9186SOL     OW28456   6.060   0.971   5.478
 9186SOL    HW128457   6.137   0.970   5.414
 9186SOL    HW228458   5.977   0.998   5.430
 9187SOL     OW28459   2.279   6.106   2.088
 9187SOL    HW128460   2.244   6.196   2.115
 9187SOL    HW228461   2.213   6.035   2.113
 9188SOL     OW28462   3.185   6.916   0.876
 9188SOL    HW128463   3.247   6.852   0.921
 9188SOL    HW228464   3.091   6.890   0.896
 9189SOL     OW28465   5.430   5.616   3.037
 9189SOL    HW128466   5.386   5.698   3.000
 9189SOL    HW228467   5.461   5.634   3.131
 9190SOL     OW28468   1.716   5.689   0.613
 9190SOL    HW128469   1.757   5.605   0.576
 9190SOL    HW228470   1.688   5.673   0.707
 9191SOL     OW28471   6.623   0.265   5.375
 9191SOL    HW128472   6.689   0.333   5.344
 9191SOL    HW228473   6.664   0.212   5.450
 9192SOL     OW28474   0.570   4.066   4.507
 9192SOL    HW128475   0.487   4.041   4.557
 9192SOL    HW228476   0.631   3.987   4.501
 9193SOL     OW28477   3.199   3.089   6.574
 9193SOL    HW128478   3.289   3.074   6.532
 9193SOL    HW228479   3.158   3.173   6.538
 9194SOL     OW28480   2.842   0.684   3.675
 9194SOL    HW128481   2.887   0.769   3.701
 9194SOL    HW228482   2.750   0.680   3.715
 9195SOL     OW28483   2.157   2.091   4.011
 9195SOL    HW128484   2.105   2.122   4.091
 9195SOL    HW228485   2.254   2.085   4.035
 9196SOL     OW28486   4.641   1.548   4.976
 9196SOL    HW128487   4.696   1.629   4.954
 9196SOL    HW228488   4.602   1.510   4.892
 9197SOL     OW28489   2.415   3.846   1.769
 9197SOL    HW128490   2.337   3.889   1.816
 9197SOL    HW228491   2.481   3.917   1.744
 9198SOL     OW28492   6.409   5.810   5.512
 9198SOL    HW128493   6.400   5.737   5.444
 9198SOL    HW228494   6.451   5.890   5.469
 9199SOL     OW28495   0.101   4.266   5.102
 9199SOL    HW128496   0.163   4.197   5.066
 9199SOL    HW228497   0.116   4.277   5.201
 9200SOL     OW28498   3.593   0.754   0.752
 9200SOL    HW128499   3.521   0.801   0.803
 9200SOL    HW228500   3.620   0.671   0.800
 9201SOL     OW28501   1.063   3.800   0.021
 9201SOL    HW128502   1.067   3.701   0.013
 9201SOL    HW228503   0.973   3.833   7.019
 9202SOL     OW28504   1.653   6.602   3.412
 9202SOL    HW128505   1.717   6.659   3.360
 9202SOL    HW228506   1.688   6.588   3.504
 9203SOL     OW28507   6.880   5.399   0.853
 9203SOL    HW128508   6.821   5.430   0.779
 9203SOL    HW228509   6.824   5.382   0.935
 9204SOL     OW28510   5.018   1.153   6.202
 9204SOL    HW128511   5.003   1.055   6.188
 9204SOL    HW228512   4.964   1.204   6.136
 9205SOL     OW28513   6.737   3.948   2.850
 9205SOL    HW128514   6.833   3.924   2.865
 9205SOL    HW228515   6.683   3.922   2.930
 9206SOL     OW28516   4.052   5.840   0.431
 9206SOL    HW128517   4.024   5.846   0.335
 9206SOL    HW228518   4.148   5.868   0.440
 9207SOL     OW28519   4.765   5.641   0.447
 9207SOL    HW128520   4.805   5.555   0.416
 9207SOL    HW228521   4.764   5.643   0.547
 9208SOL     OW28522   0.371   4.059   4.755
 9208SOL    HW128523   0.343   4.154   4.764
 9208SOL    HW228524   0.290   4.003   4.734
 9209SOL     OW28525   2.330   1.384   6.440
 9209SOL    HW128526   2.314   1.287   6.422
 9209SOL    HW228527   2.346   1.432   6.353
 9210SOL     OW28528   6.698   1.394   3.302
 9210SOL    HW128529   6.682   1.295   3.304
 9210SOL    HW228530   6.795   1.412   3.316
 9211SOL     OW28531   0.301   1.847   3.839
 9211SOL    HW128532   0.281   1.813   3.931
 9211SOL    HW228533   0.365   1.786   3.794
 9212SOL     OW28534   2.797   4.958   4.758
 9212SOL    HW128535   2.734   4.970   4.681
 9212SOL    HW228536   2.855   5.039   4.766
 9213SOL     OW28537   5.953   3.684   5.985
 9213SOL    HW128538   5.987   3.764   5.936
 9213SOL    HW228539   5.960   3.603   5.927
 9214SOL     OW28540   0.492   5.880   1.237
 9214SOL    HW128541   0.451   5.792   1.261
 9214SOL    HW228542   0.583   5.864   1.196
 9215SOL     OW28543   1.190   0.811   0.377
 9215SOL    HW128544   1.249   0.784   0.453
 9215SOL    HW228545   1.242   0.867   0.313
 9216SOL     OW28546   2.358   6.589   2.695
 9216SOL    HW128547   2.289   6.623   2.759
 9216SOL    HW228548   2.332   6.496   2.666
 9217SOL     OW28549   0.229   1.991   6.446
 9217SOL    HW128550   0.258   1.913   6.391
 9217SOL    HW228551   0.211   1.962   6.540
 9218SOL     OW28552   3.455   0.158   0.589
 9218SOL    HW128553   3.533   0.100   0.566
 9218SOL    HW228554   3.408   0.121   0.669
 9219SOL     OW28555   1.173   2.472   0.948
 9219SOL    HW128556   1.240   2.433   0.885
 9219SOL    HW228557   1.086   2.484   0.899
 9220SOL     OW28558   3.505   6.814   1.581
 9220SOL    HW128559   3.452   6.775   1.506
 9220SOL    HW228560   3.446   6.870   1.638
 9221SOL     OW28561   2.892   6.157   3.796
 9221SOL    HW128562   2.856   6.248   3.774
 9221SOL    HW228563   2.977   6.142   3.745
 9222SOL     OW28564   2.283   1.728   6.650
 9222SOL    HW128565   2.247   1.786   6.724
 9222SOL    HW228566   2.383   1.734   6.651
 9223SOL     OW28567   2.228   2.724   5.384
 9223SOL    HW128568   2.163   2.706   5.457
 9223SOL    HW228569   2.220   2.819   5.354
 9224SOL     OW28570   1.867   5.563   4.359
 9224SOL    HW128571   1.839   5.589   4.451
 9224SOL    HW228572   1.871   5.464   4.351
 9225SOL     OW28573   3.099   6.135   6.922
 9225SOL    HW128574   3.078   6.208   6.987
 9225SOL    HW228575   3.032   6.137   6.848
 9226SOL     OW28576   5.175   6.208   1.130
 9226SOL    HW128577   5.102   6.226   1.197
 9226SOL    HW228578   5.242   6.146   1.170
 9227SOL     OW28579   1.201   5.412   2.509
 9227SOL    HW128580   1.274   5.356   2.470
 9227SOL    HW228581   1.179   5.378   2.600
 9228SOL     OW28582   1.289   0.946   6.839
 9228SOL    HW128583   1.256   1.038   6.861
 9228SOL    HW228584   1.216   0.880   6.856
 9229SOL     OW28585   1.222   6.017   3.942
 9229SOL    HW128586   1.156   6.054   4.008
 9229SOL    HW228587   1.219   5.917   3.945
 9230SOL     OW28588   5.646   0.351   3.993
 9230SOL    HW128589   5.695   0.431   3.957
 9230SOL    HW228590   5.597   0.306   3.919
 9231SOL     OW28591   1.255   2.371   4.101
 9231SOL    HW128592   1.297   2.417   4.023
 9231SOL    HW228593   1.324   2.319   4.151
 9232SOL     OW28594   3.412   5.604   0.773
 9232SOL    HW128595   3.381   5.668   0.844
 9232SOL    HW228596   3.378   5.634   0.684
 9233SOL     OW28597   5.674   4.808   1.039
 9233SOL    HW128598   5.762   4.857   1.040
 9233SOL    HW228599   5.635   4.809   1.131
 9234SOL     OW28600   2.956   5.315   3.660
 9234SOL    HW128601   3.011   5.232   3.653
 9234SOL    HW228602   2.877   5.307   3.598
 9235SOL     OW28603   0.736   1.962   3.029
 9235SOL    HW128604   0.699   1.880   3.074
 9235SOL    HW228605   0.674   2.039   3.043
 9236SOL     OW28606   2.981   3.491   5.041
 9236SOL    HW128607   3.078   3.492   5.065
 9236SOL    HW228608   2.935   3.421   5.095
 9237SOL     OW28609   1.906   4.200   4.080
 9237SOL    HW128610   1.962   4.140   4.136
 9237SOL    HW228611   1.852   4.260   4.138
 9238SOL     OW28612   4.492   3.093   6.413
 9238SOL    HW128613   4.527   3.174   6.459
 9238SOL    HW228614   4.457   3.117   6.322
 9239SOL     OW28615   1.133   3.775   0.944
 9239SOL    HW128616   1.115   3.695   0.886
 9239SOL    HW228617   1.228   3.773   0.975
 9240SOL     OW28618   4.723   1.754   1.341
 9240SOL    HW128619   4.753   1.844   1.311
 9240SOL    HW228620   4.625   1.757   1.363
 9241SOL     OW28621   6.965   5.462   6.762
 9241SOL    HW128622   6.974   5.362   6.764
 9241SOL    HW228623   6.876   5.487   6.724
 9242SOL     OW28624   6.474   6.304   1.930
 9242SOL    HW128625   6.520   6.255   2.004
 9242SOL    HW228626   6.377   6.283   1.932
 9243SOL     OW28627   6.377   6.087   4.837
 9243SOL    HW128628   6.362   5.998   4.795
 9243SOL    HW228629   6.445   6.078   4.910
 9244SOL     OW28630   3.878   5.148   6.961
 9244SOL    HW128631   3.899   5.053   6.939
 9244SOL    HW228632   3.952   5.207   6.929
 9245SOL     OW28633   0.548   5.859   1.743
 9245SOL    HW128634   0.583   5.950   1.764
 9245SOL    HW228635   0.595   5.791   1.799
 9246SOL     OW28636   6.126   5.245   3.667
 9246SOL    HW128637   6.045   5.291   3.703
 9246SOL    HW228638   6.203   5.308   3.667
 9247SOL     OW28639   1.075   6.586   2.815
 9247SOL    HW128640   1.112   6.626   2.731
 9247SOL    HW228641   1.051   6.490   2.800
 9248SOL     OW28642   2.791   2.537   5.819
 9248SOL    HW128643   2.889   2.545   5.800
 9248SOL    HW228644   2.776   2.544   5.918
 9249SOL     OW28645   4.903   1.101   4.167
 9249SOL    HW128646   4.925   1.195   4.142
 9249SOL    HW228647   4.965   1.039   4.120
 9250SOL     OW28648   4.852   3.704   3.804
 9250SOL    HW128649   4.775   3.752   3.847
 9250SOL    HW228650   4.934   3.762   3.809
 9251SOL     OW28651   3.493   1.522   3.089
 9251SOL    HW128652   3.560   1.579   3.042
 9251SOL    HW228653   3.454   1.573   3.165
 9252SOL     OW28654   0.208   6.824   4.842
 9252SOL    HW128655   0.125   6.788   4.799
 9252SOL    HW228656   0.186   6.855   4.934
 9253SOL     OW28657   2.008   6.991   5.627
 9253SOL    HW128658   2.092   7.010   5.678
 9253SOL    HW228659   1.942   0.039   5.640
 9254SOL     OW28660   5.714   3.645   1.698
 9254SOL    HW128661   5.710   3.744   1.709
 9254SOL    HW228662   5.622   3.609   1.681
 9255SOL     OW28663   5.329   3.709   0.828
 9255SOL    HW128664   5.264   3.661   0.887
 9255SOL    HW228665   5.406   3.649   0.807
 9256SOL     OW28666   4.275   4.743   2.035
 9256SOL    HW128667   4.339   4.667   2.051
 9256SOL    HW228668   4.306   4.796   1.956
 9257SOL     OW28669   1.091   3.945   2.011
 9257SOL    HW128670   1.037   3.878   2.062
 9257SOL    HW228671   1.034   3.987   1.940
 9258SOL     OW28672   3.451   3.003   3.751
 9258SOL    HW128673   3.479   2.975   3.659
 9258SOL    HW228674   3.481   3.097   3.767
 9259SOL     OW28675   0.992   2.055   2.022
 9259SOL    HW128676   0.898   2.022   2.017
 9259SOL    HW228677   1.004   2.132   1.959
 9260SOL     OW28678   5.286   3.493   6.375
 9260SOL    HW128679   5.323   3.421   6.433
 9260SOL    HW228680   5.360   3.552   6.342
 9261SOL     OW28681   4.092   0.424   6.704
 9261SOL    HW128682   4.154   0.399   6.629
 9261SOL    HW228683   4.093   0.523   6.716
 9262SOL     OW28684   5.329   0.966   5.166
 9262SOL    HW128685   5.251   0.942   5.224
 9262SOL    HW228686   5.303   1.038   5.103
 9263SOL     OW28687   5.437   3.899   1.139
 9263SOL    HW128688   5.350   3.860   1.108
 9263SOL    HW228689   5.473   3.845   1.215
 9264SOL     OW28690   6.162   3.892   6.322
 9264SOL    HW128691   6.199   3.876   6.230
 9264SOL    HW228692   6.073   3.936   6.315
 9265SOL     OW28693   2.864   1.664   0.352
 9265SOL    HW128694   2.861   1.703   0.444
 9265SOL    HW228695   2.954   1.679   0.312
 9266SOL     OW28696   2.185   6.398   2.900
 9266SOL    HW128697   2.156   6.317   2.951
 9266SOL    HW228698   2.189   6.377   2.802
 9267SOL     OW28699   0.880   4.379   4.761
 9267SOL    HW128700   0.962   4.323   4.757
 9267SOL    HW228701   0.823   4.361   4.680
 9268SOL     OW28702   0.404   6.665   2.815
 9268SOL    HW128703   0.309   6.644   2.795
 9268SOL    HW228704   0.453   6.580   2.838
 9269SOL     OW28705   3.425   1.913   6.915
 9269SOL    HW128706   3.348   1.921   6.979
 9269SOL    HW228707   3.394   1.873   6.829
 9270SOL     OW28708   6.691   6.668   6.196
 9270SOL    HW128709   6.696   6.765   6.219
 9270SOL    HW228710   6.754   6.649   6.120
 9271SOL     OW28711   1.704   6.247   0.912
 9271SOL    HW128712   1.728   6.345   0.911
 9271SOL    HW228713   1.742   6.203   0.830
 9272SOL     OW28714   2.367   4.411   6.386
 9272SOL    HW128715   2.393   4.317   6.403
 9272SOL    HW228716   2.444   4.460   6.344
 9273SOL     OW28717   4.306   5.014   4.248
 9273SOL    HW128718   4.261   4.926   4.237
 9273SOL    HW228719   4.321   5.031   4.345
 9274SOL     OW28720   5.457   2.290   6.059
 9274SOL    HW128721   5.516   2.367   6.035
 9274SOL    HW228722   5.509   2.223   6.111
 9275SOL     OW28723   1.327   0.492   5.911
 9275SOL    HW128724   1.324   0.410   5.968
 9275SOL    HW228725   1.248   0.550   5.932
 9276SOL     OW28726   3.590   5.664   4.676
 9276SOL    HW128727   3.627   5.611   4.600
 9276SOL    HW228728   3.576   5.759   4.647
 9277SOL     OW28729   3.566   3.203   6.592
 9277SOL    HW128730   3.521   3.143   6.526
 9277SOL    HW228731   3.605   3.149   6.666
 9278SOL     OW28732   1.241   2.102   3.747
 9278SOL    HW128733   1.194   2.176   3.700
 9278SOL    HW228734   1.327   2.082   3.699
 9279SOL     OW28735   2.829   0.665   2.274
 9279SOL    HW128736   2.840   0.755   2.231
 9279SOL    HW228737   2.909   0.608   2.252
 9280SOL     OW28738   1.596   0.091   3.843
 9280SOL    HW128739   1.684   0.045   3.854
 9280SOL    HW228740   1.560   0.116   3.932
 9281SOL     OW28741   1.903   2.800   0.961
 9281SOL    HW128742   1.972   2.743   1.006
 9281SOL    HW228743   1.858   2.746   0.889
 9282SOL     OW28744   4.300   1.411   4.697
 9282SOL    HW128745   4.291   1.396   4.599
 9282SOL    HW228746   4.221   1.372   4.744
 9283SOL     OW28747   5.891   2.377   2.253
 9283SOL    HW128748   5.794   2.375   2.228
 9283SOL    HW228749   5.924   2.471   2.253
 9284SOL     OW28750   3.636   3.674   1.013
 9284SOL    HW128751   3.593   3.717   0.935
 9284SOL    HW228752   3.621   3.729   1.095
 9285SOL     OW28753   6.832   2.621   6.733
 9285SOL    HW128754   6.927   2.650   6.731
 9285SOL    HW228755   6.779   2.683   6.791
 9286SOL     OW28756   5.654   6.978   5.216
 9286SOL    HW128757   5.690   0.040   5.181
 9286SOL    HW228758   5.556   6.987   5.234
 9287SOL     OW28759   3.004   5.903   1.048
 9287SOL    HW128760   3.088   5.907   0.995
 9287SOL    HW228761   2.975   5.808   1.058
 9288SOL     OW28762   4.143   1.891   5.715
 9288SOL    HW128763   4.123   1.951   5.638
 9288SOL    HW228764   4.077   1.907   5.788
 9289SOL     OW28765   4.775   2.150   2.565
 9289SOL    HW128766   4.696   2.203   2.596
 9289SOL    HW228767   4.808   2.188   2.479
 9290SOL     OW28768   4.582   1.631   4.511
 9290SOL    HW128769   4.647   1.578   4.565
 9290SOL    HW228770   4.610   1.727   4.509
 9291SOL     OW28771   1.285   0.568   4.873
 9291SOL    HW128772   1.242   0.483   4.846
 9291SOL    HW228773   1.283   0.577   4.973
 9292SOL     OW28774   0.226   3.299   6.137
 9292SOL    HW128775   0.145   3.301   6.079
 9292SOL    HW228776   0.274   3.212   6.124
 9293SOL     OW28777   5.038   4.404   0.346
 9293SOL    HW128778   5.036   4.481   0.410
 9293SOL    HW228779   5.059   4.320   0.396
 9294SOL     OW28780   5.598   6.045   0.145
 9294SOL    HW128781   5.514   6.087   0.109
 9294SOL    HW228782   5.583   6.018   0.240
 9295SOL     OW28783   4.617   1.629   3.189
 9295SOL    HW128784   4.681   1.695   3.150
 9295SOL    HW228785   4.582   1.570   3.115
 9296SOL     OW28786   6.181   6.299   5.682
 9296SOL    HW128787   6.161   6.374   5.744
 9296SOL    HW228788   6.162   6.212   5.728
 9297SOL     OW28789   0.577   0.613   1.008
 9297SOL    HW128790   0.660   0.581   1.053
 9297SOL    HW228791   0.522   0.534   0.981
 9298SOL     OW28792   1.903   6.201   5.407
 9298SOL    HW128793   1.857   6.244   5.485
 9298SOL    HW228794   1.978   6.261   5.376
 9299SOL     OW28795   1.174   3.806   4.363
 9299SOL    HW128796   1.227   3.805   4.448
 9299SOL    HW228797   1.222   3.752   4.294
 9300SOL     OW28798   5.615   4.300   4.636
 9300SOL    HW128799   5.672   4.285   4.717
 9300SOL    HW228800   5.546   4.368   4.656
 9301SOL     OW28801   5.056   4.370   2.607
 9301SOL    HW128802   5.027   4.355   2.702
 9301SOL    HW228803   5.013   4.303   2.548
 9302SOL     OW28804   2.392   2.212   3.077
 9302SOL    HW128805   2.472   2.221   3.137
 9302SOL    HW228806   2.333   2.291   3.089
 9303SOL     OW28807   3.855   6.165   0.092
 9303SOL    HW128808   3.782   6.160   0.023
 9303SOL    HW228809   3.822   6.217   0.171
 9304SOL     OW28810   3.195   3.545   0.708
 9304SOL    HW128811   3.285   3.501   0.713
 9304SOL    HW228812   3.207   3.643   0.690
 9305SOL     OW28813   6.195   2.569   2.060
 9305SOL    HW128814   6.219   2.475   2.083
 9305SOL    HW228815   6.266   2.610   2.003
 9306SOL     OW28816   6.793   4.574   4.052
 9306SOL    HW128817   6.827   4.542   3.963
 9306SOL    HW228818   6.812   4.672   4.061
 9307SOL     OW28819   1.666   1.973   0.834
 9307SOL    HW128820   1.576   1.988   0.876
 9307SOL    HW228821   1.663   2.003   0.739
 9308SOL     OW28822   0.579   3.085   0.917
 9308SOL    HW128823   0.488   3.070   0.956
 9308SOL    HW228824   0.571   3.140   0.834
 9309SOL     OW28825   4.289   3.972   5.694
 9309SOL    HW128826   4.249   3.928   5.775
 9309SOL    HW228827   4.236   4.054   5.671
 9310SOL     OW28828   4.130   6.191   6.439
 9310SOL    HW128829   4.032   6.174   6.436
 9310SOL    HW228830   4.159   6.231   6.352
 9311SOL     OW28831   5.699   4.032   0.551
 9311SOL    HW128832   5.772   4.098   0.537
 9311SOL    HW228833   5.674   4.029   0.648
 9312SOL     OW28834   1.483   4.363   6.789
 9312SOL    HW128835   1.447   4.454   6.811
 9312SOL    HW228836   1.409   4.296   6.795
 9313SOL     OW28837   0.268   6.927   2.644
 9313SOL    HW128838   0.205   7.005   2.648
 9313SOL    HW228839   0.242   6.859   2.712
 9314SOL     OW28840   4.493   5.704   6.681
 9314SOL    HW128841   4.514   5.632   6.615
 9314SOL    HW228842   4.578   5.750   6.708
 9315SOL     OW28843   6.932   0.396   5.546
 9315SOL    HW128844   0.000   0.410   5.578
 9315SOL    HW228845   6.869   0.399   5.623
 9316SOL     OW28846   3.765   5.995   3.492
 9316SOL    HW128847   3.808   5.964   3.576
 9316SOL    HW228848   3.824   6.062   3.446
 9317SOL     OW28849   6.387   5.120   3.654
 9317SOL    HW128850   6.413   5.061   3.731
 9317SOL    HW228851   6.292   5.148   3.664
 9318SOL     OW28852   6.996   0.831   6.760
 9318SOL    HW128853   0.054   0.802   6.806
 9318SOL    HW228854   6.979   0.928   6.778
 9319SOL     OW28855   0.961   3.417   6.467
 9319SOL    HW128856   1.049   3.453   6.435
 9319SOL    HW228857   0.895   3.418   6.392
 9320SOL     OW28858   4.532   2.496   5.737
 9320SOL    HW128859   4.493   2.411   5.702
 9320SOL    HW228860   4.469   2.537   5.803
 9321SOL     OW28861   6.526   6.073   2.701
 9321SOL    HW128862   6.484   5.982   2.698
 9321SOL    HW228863   6.487   6.131   2.630
 9322SOL     OW28864   0.657   6.361   5.579
 9322SOL    HW128865   0.564   6.336   5.604
 9322SOL    HW228866   0.706   6.391   5.661
 9323SOL     OW28867   0.702   1.681   6.879
 9323SOL    HW128868   0.698   1.596   6.932
 9323SOL    HW228869   0.772   1.741   6.918
 9324SOL     OW28870   1.552   5.356   0.662
 9324SOL    HW128871   1.518   5.326   0.751
 9324SOL    HW228872   1.646   5.324   0.650
 9325SOL     OW28873   5.599   1.906   0.952
 9325SOL    HW128874   5.599   1.997   0.910
 9325SOL    HW228875   5.595   1.837   0.880
 9326SOL     OW28876   1.666   6.949   1.337
 9326SOL    HW128877   1.684   7.014   1.411
 9326SOL    HW228878   1.571   6.958   1.307
 9327SOL     OW28879   4.493   0.140   2.867
 9327SOL    HW128880   4.445   0.212   2.815
 9327SOL    HW228881   4.590   0.163   2.874
 9328SOL     OW28882   3.413   1.688   0.488
 9328SOL    HW128883   3.469   1.706   0.569
 9328SOL    HW228884   3.458   1.727   0.408
 9329SOL     OW28885   0.701   3.760   2.437
 9329SOL    HW128886   0.747   3.685   2.486
 9329SOL    HW228887   0.762   3.838   2.431
 9330SOL     OW28888   6.133   0.272   0.937
 9330SOL    HW128889   6.139   0.297   1.033
 9330SOL    HW228890   6.219   0.295   0.891
 9331SOL     OW28891   0.378   0.606   7.008
 9331SOL    HW128892   0.381   0.509   6.981
 9331SOL    HW228893   0.471   0.640   7.020
 9332SOL     OW28894   3.013   3.508   4.289
 9332SOL    HW128895   3.111   3.494   4.304
 9332SOL    HW228896   2.974   3.428   4.245
 9333SOL     OW28897   6.260   4.685   1.188
 9333SOL    HW128898   6.267   4.699   1.089
 9333SOL    HW228899   6.168   4.709   1.219
 9334SOL     OW28900   2.562   0.394   4.221
 9334SOL    HW128901   2.583   0.388   4.124
 9334SOL    HW228902   2.506   0.316   4.248
 9335SOL     OW28903   1.712   0.981   6.810
 9335SOL    HW128904   1.783   1.044   6.779
 9335SOL    HW228905   1.625   1.007   6.769
 9336SOL     OW28906   2.973   6.572   6.050
 9336SOL    HW128907   2.895   6.602   5.995
 9336SOL    HW228908   3.058   6.608   6.010
 9337SOL     OW28909   4.883   0.535   2.185
 9337SOL    HW128910   4.892   0.630   2.215
 9337SOL    HW228911   4.974   0.498   2.164
 9338SOL     OW28912   3.414   0.220   2.968
 9338SOL    HW128913   3.411   0.296   3.033
 9338SOL    HW228914   3.492   0.231   2.907
 9339SOL     OW28915   4.964   6.240   1.326
 9339SOL    HW128916   4.874   6.215   1.360
 9339SOL    HW228917   5.019   6.277   1.401
 9340SOL     OW28918   6.255   3.799   6.081
 9340SOL    HW128919   6.192   3.859   6.032
 9340SOL    HW228920   6.220   3.705   6.077
 9341SOL     OW28921   0.820   5.474   6.454
 9341SOL    HW128922   0.746   5.512   6.509
 9341SOL    HW228923   0.810   5.505   6.359
 9342SOL     OW28924   1.106   0.012   5.914
 9342SOL    HW128925   1.014   6.999   5.910
 9342SOL    HW228926   1.108   0.089   5.977
 9343SOL     OW28927   6.166   5.489   5.034
 9343SOL    HW128928   6.107   5.454   5.107
 9343SOL    HW228929   6.176   5.420   4.963
 9344SOL     OW28930   5.235   6.443   1.307
 9344SOL    HW128931   5.262   6.450   1.211
 9344SOL    HW228932   5.204   6.532   1.339
 9345SOL     OW28933   0.046   2.812   0.800
 9345SOL    HW128934   0.109   2.736   0.815
 9345SOL    HW228935   6.996   2.806   0.865
 9346SOL     OW28936   5.900   0.376   1.191
 9346SOL    HW128937   5.997   0.372   1.215
 9346SOL    HW228938   5.875   0.470   1.169
 9347SOL     OW28939   1.704   6.671   1.758
 9347SOL    HW128940   1.643   6.634   1.688
 9347SOL    HW228941   1.754   6.750   1.720
 9348SOL     OW28942   3.155   4.866   0.021
 9348SOL    HW128943   3.071   4.902   0.061
 9348SOL    HW228944   3.229   4.931   0.034
 9349SOL     OW28945   1.399   6.587   2.751
 9349SOL    HW128946   1.324   6.623   2.695
 9349SOL    HW228947   1.362   6.551   2.836
 9350SOL     OW28948   0.633   2.663   5.539
 9350SOL    HW128949   0.576   2.731   5.493
 9350SOL    HW228950   0.596   2.645   5.630
 9351SOL     OW28951   3.851   2.055   6.851
 9351SOL    HW128952   3.912   2.088   6.778
 9351SOL    HW228953   3.865   2.111   6.933
 9352SOL     OW28954   2.483   4.675   6.515
 9352SOL    HW128955   2.429   4.593   6.496
 9352SOL    HW228956   2.519   4.712   6.430
 9353SOL     OW28957   6.574   6.748   1.347
 9353SOL    HW128958   6.529   6.798   1.273
 9353SOL    HW228959   6.673   6.749   1.333
 9354SOL     OW28960   6.672   2.559   6.463
 9354SOL    HW128961   6.584   2.592   6.426
 9354SOL    HW228962   6.673   2.571   6.562
 9355SOL     OW28963   0.327   1.831   5.083
 9355SOL    HW128964   0.426   1.844   5.079
 9355SOL    HW228965   0.293   1.859   5.172
 9356SOL     OW28966   4.331   6.875   2.309
 9356SOL    HW128967   4.397   6.949   2.320
 9356SOL    HW228968   4.357   6.820   2.229
 9357SOL     OW28969   0.803   2.049   6.803
 9357SOL    HW128970   0.728   2.074   6.741
 9357SOL    HW228971   0.852   1.970   6.766
 9358SOL     OW28972   1.363   3.351   2.447
 9358SOL    HW128973   1.352   3.272   2.507
 9358SOL    HW228974   1.345   3.435   2.498
 9359SOL     OW28975   1.449   0.321   6.188
 9359SOL    HW128976   1.411   0.289   6.276
 9359SOL    HW228977   1.392   0.394   6.152
 9360SOL     OW28978   0.847   0.792   6.587
 9360SOL    HW128979   0.924   0.745   6.631
 9360SOL    HW228980   0.847   0.771   6.489
 9361SOL     OW28981   2.087   5.948   4.647
 9361SOL    HW128982   2.173   5.966   4.599
 9361SOL    HW228983   2.024   5.899   4.586
 9362SOL     OW28984   1.720   0.324   2.141
 9362SOL    HW128985   1.652   0.294   2.075
 9362SOL    HW228986   1.798   0.262   2.140
 9363SOL     OW28987   3.134   5.250   2.727
 9363SOL    HW128988   3.145   5.334   2.780
 9363SOL    HW228989   3.175   5.174   2.776
 9364SOL     OW28990   1.060   2.295   1.189
 9364SOL    HW128991   1.091   2.342   1.272
 9364SOL    HW228992   1.090   2.346   1.109
 9365SOL     OW28993   3.193   2.172   4.741
 9365SOL    HW128994   3.199   2.257   4.794
 9365SOL    HW228995   3.142   2.190   4.657
 9366SOL     OW28996   3.648   5.790   0.655
 9366SOL    HW128997   3.730   5.743   0.622
 9366SOL    HW228998   3.567   5.750   0.612
 9367SOL     OW28999   6.420   0.800   1.322
 9367SOL    HW129000   6.499   0.830   1.269
 9367SOL    HW229001   6.449   0.731   1.388
 9368SOL     OW29002   3.413   0.764   2.546
 9368SOL    HW129003   3.319   0.776   2.513
 9368SOL    HW229004   3.466   0.714   2.478
 9369SOL     OW29005   2.272   5.284   6.634
 9369SOL    HW129006   2.350   5.225   6.652
 9369SOL    HW229007   2.256   5.288   6.535
 9370SOL     OW29008   4.242   1.676   3.977
 9370SOL    HW129009   4.313   1.605   3.976
 9370SOL    HW229010   4.271   1.752   3.918
 9371SOL     OW29011   4.624   5.451   1.479
 9371SOL    HW129012   4.530   5.461   1.511
 9371SOL    HW229013   4.627   5.382   1.406
 9372SOL     OW29014   4.859   6.513   1.162
 9372SOL    HW129015   4.760   6.497   1.156
 9372SOL    HW229016   4.903   6.435   1.205
 9373SOL     OW29017   6.593   1.675   0.508
 9373SOL    HW129018   6.550   1.643   0.593
 9373SOL    HW229019   6.608   1.774   0.514
 9374SOL     OW29020   0.244   5.447   5.673
 9374SOL    HW129021   0.294   5.369   5.711
 9374SOL    HW229022   0.160   5.461   5.725
 9375SOL     OW29023   0.173   0.745   6.934
 9375SOL    HW129024   0.262   0.708   6.960
 9375SOL    HW229025   0.180   0.844   6.922
 9376SOL     OW29026   2.251   3.999   1.914
 9376SOL    HW129027   2.166   4.023   1.868
 9376SOL    HW229028   2.251   4.037   2.006
 9377SOL     OW29029   2.088   0.197   3.492
 9377SOL    HW129030   2.085   0.120   3.429
 9377SOL    HW229031   1.995   0.229   3.510
 9378SOL     OW29032   3.176   0.428   4.120
 9378SOL    HW129033   3.085   0.431   4.077
 9378SOL    HW229034   3.245   0.457   4.054
 9379SOL     OW29035   4.188   5.910   5.115
 9379SOL    HW129036   4.099   5.897   5.158
 9379SOL    HW229037   4.243   5.828   5.128
 9380SOL     OW29038   5.301   5.896   0.339
 9380SOL    HW129039   5.370   5.915   0.408
 9380SOL    HW229040   5.336   5.828   0.274
 9381SOL     OW29041   5.375   1.644   4.658
 9381SOL    HW129042   5.301   1.580   4.680
 9381SOL    HW229043   5.406   1.689   4.742
 9382SOL     OW29044   3.133   6.876   4.678
 9382SOL    HW129045   3.200   6.947   4.654
 9382SOL    HW229046   3.068   6.866   4.604
 9383SOL     OW29047   5.367   4.174   3.094
 9383SOL    HW129048   5.325   4.088   3.122
 9383SOL    HW229049   5.458   4.181   3.133
 9384SOL     OW29050   2.655   0.396   2.229
 9384SOL    HW129051   2.604   0.426   2.310
 9384SOL    HW229052   2.724   0.463   2.207
 9385SOL     OW29053   4.027   1.550   3.285
 9385SOL    HW129054   4.045   1.644   3.315
 9385SOL    HW229055   3.931   1.528   3.299
 9386SOL     OW29056   4.917   6.190   6.510
 9386SOL    HW129057   5.015   6.192   6.528
 9386SOL    HW229058   4.895   6.112   6.451
 9387SOL     OW29059   2.345   2.277   0.457
 9387SOL    HW129060   2.352   2.371   0.490
 9387SOL    HW229061   2.433   2.247   0.422
 9388SOL     OW29062   2.273   6.525   4.721
 9388SOL    HW129063   2.285   6.459   4.795
 9388SOL    HW229064   2.331   6.500   4.644
 9389SOL     OW29065   2.535   4.702   1.597
 9389SOL    HW129066   2.517   4.759   1.677
 9389SOL    HW229067   2.610   4.741   1.544
 9390SOL     OW29068   4.931   5.000   4.652
 9390SOL    HW129069   4.949   5.063   4.727
 9390SOL    HW229070   4.860   5.038   4.593
 9391SOL     OW29071   1.506   5.458   4.464
 9391SOL    HW129072   1.487   5.362   4.444
 9391SOL    HW229073   1.566   5.464   4.543
 9392SOL     OW29074   5.498   3.546   2.757
 9392SOL    HW129075   5.542   3.596   2.832
 9392SOL    HW229076   5.427   3.604   2.716
 9393SOL     OW29077   2.919   6.860   6.395
 9393SOL    HW129078   2.932   6.775   6.345
 9393SOL    HW229079   2.835   6.854   6.449
 9394SOL     OW29080   3.968   0.412   7.014
 9394SOL    HW129081   3.969   0.411   6.914
 9394SOL    HW229082   4.061   0.427   0.023
 9395SOL     OW29083   1.976   1.626   0.784
 9395SOL    HW129084   1.908   1.689   0.821
 9395SOL    HW229085   2.067   1.666   0.795
 9396SOL     OW29086   0.901   6.417   6.669
 9396SOL    HW129087   0.917   6.413   6.570
 9396SOL    HW229088   0.808   6.388   6.689
 9397SOL     OW29089   3.391   0.605   5.784
 9397SOL    HW129090   3.302   0.578   5.747
 9397SOL    HW229091   3.388   0.602   5.884
 9398SOL     OW29092   0.761   1.590   0.479
 9398SOL    HW129093   0.705   1.508   0.470
 9398SOL    HW229094   0.856   1.565   0.494
 9399SOL     OW29095   1.744   2.799   4.209
 9399SOL    HW129096   1.673   2.825   4.143
 9399SOL    HW229097   1.802   2.728   4.168
 9400SOL     OW29098   5.414   1.374   0.539
 9400SOL    HW129099   5.486   1.330   0.593
 9400SOL    HW229100   5.424   1.349   0.443
 9401SOL     OW29101   6.935   2.534   3.491
 9401SOL    HW129102   6.961   2.594   3.416
 9401SOL    HW229103   6.987   2.448   3.485
 9402SOL     OW29104   1.848   6.777   4.056
 9402SOL    HW129105   1.904   6.740   4.130
 9402SOL    HW229106   1.803   6.702   4.008
 9403SOL     OW29107   6.029   2.620   2.282
 9403SOL    HW129108   6.103   2.623   2.214
 9403SOL    HW229109   5.975   2.704   2.277
 9404SOL     OW29110   2.130   3.003   0.999
 9404SOL    HW129111   2.138   3.074   0.928
 9404SOL    HW229112   2.072   2.929   0.965
 9405SOL     OW29113   0.302   5.451   5.398
 9405SOL    HW129114   0.235   5.462   5.471
 9405SOL    HW229115   0.345   5.539   5.378
 9406SOL     OW29116   0.353   2.966   0.113
 9406SOL    HW129117   0.319   3.028   0.183
 9406SOL    HW229118   0.282   2.901   0.088
 9407SOL     OW29119   1.035   5.383   5.587
 9407SOL    HW129120   0.999   5.475   5.570
 9407SOL    HW229121   1.076   5.380   5.679
 9408SOL     OW29122   0.720   3.843   4.533
 9408SOL    HW129123   0.805   3.837   4.586
 9408SOL    HW229124   0.657   3.773   4.563
 9409SOL     OW29125   6.560   5.282   2.823
 9409SOL    HW129126   6.634   5.233   2.777
 9409SOL    HW229127   6.577   5.380   2.820
 9410SOL     OW29128   3.558   0.986   0.951
 9410SOL    HW129129   3.474   0.936   0.928
 9410SOL    HW229130   3.577   1.053   0.880
 9411SOL     OW29131   3.021   3.210   3.200
 9411SOL    HW129132   2.990   3.248   3.288
 9411SOL    HW229133   2.960   3.241   3.127
 9412SOL     OW29134   6.078   6.424   0.738
 9412SOL    HW129135   5.981   6.416   0.716
 9412SOL    HW229136   6.121   6.333   0.732
 9413SOL     OW29137   5.062   3.917   2.829
 9413SOL    HW129138   5.033   3.822   2.818
 9413SOL    HW229139   4.987   3.978   2.803
 9414SOL     OW29140   1.414   1.729   3.132
 9414SOL    HW129141   1.511   1.709   3.143
 9414SOL    HW229142   1.374   1.752   3.221
 9415SOL     OW29143   3.884   1.196   2.101
 9415SOL    HW129144   3.915   1.171   2.193
 9415SOL    HW229145   3.797   1.245   2.108
 9416SOL     OW29146   5.636   5.093   5.670
 9416SOL    HW129147   5.602   5.107   5.577
 9416SOL    HW229148   5.669   5.179   5.708
 9417SOL     OW29149   3.510   5.259   2.098
 9417SOL    HW129150   3.443   5.334   2.098
 9417SOL    HW229151   3.510   5.214   2.009
 9418SOL     OW29152   3.801   1.943   5.082
 9418SOL    HW129153   3.817   1.969   4.987
 9418SOL    HW229154   3.791   1.844   5.089
 9419SOL     OW29155   1.950   3.081   6.391
 9419SOL    HW129156   1.938   3.178   6.370
 9419SOL    HW229157   1.956   3.029   6.306
 9420SOL     OW29158   6.599   4.361   6.155
 9420SOL    HW129159   6.648   4.386   6.072
 9420SOL    HW229160   6.644   4.283   6.198
 9421SOL     OW29161   3.882   6.329   6.276
 9421SOL    HW129162   3.858   6.423   6.300
 9421SOL    HW229163   3.847   6.267   6.346
 9422SOL     OW29164   2.089   5.942   5.416
 9422SOL    HW129165   2.038   5.869   5.371
 9422SOL    HW229166   2.030   6.022   5.428
 9423SOL     OW29167   5.146   4.676   3.131
 9423SOL    HW129168   5.169   4.587   3.091
 9423SOL    HW229169   5.051   4.674   3.163
 9424SOL     OW29170   6.098   6.984   4.201
 9424SOL    HW129171   6.171   7.022   4.257
 9424SOL    HW229172   6.138   6.935   4.123
 9425SOL     OW29173   6.606   4.870   1.299
 9425SOL    HW129174   6.632   4.884   1.395
 9425SOL    HW229175   6.575   4.776   1.287
 9426SOL     OW29176   0.011   2.207   6.073
 9426SOL    HW129177   0.029   2.110   6.089
 9426SOL    HW229178   0.088   2.261   6.108
 9427SOL     OW29179   4.580   4.568   2.576
 9427SOL    HW129180   4.661   4.518   2.544
 9427SOL    HW229181   4.523   4.508   2.631
 9428SOL     OW29182   0.268   6.166   5.527
 9428SOL    HW129183   0.317   6.231   5.585
 9428SOL    HW229184   0.323   6.083   5.515
 9429SOL     OW29185   2.780   2.337   4.275
 9429SOL    HW129186   2.754   2.360   4.181
 9429SOL    HW229187   2.821   2.246   4.276
 9430SOL     OW29188   1.325   1.734   4.758
 9430SOL    HW129189   1.247   1.790   4.730
 9430SOL    HW229190   1.409   1.774   4.722
 9431SOL     OW29191   0.896   4.793   5.650
 9431SOL    HW129192   0.954   4.741   5.712
 9431SOL    HW229193   0.923   4.775   5.555
 9432SOL     OW29194   6.940   1.281   3.211
 9432SOL    HW129195   7.014   1.273   3.278
 9432SOL    HW229196   6.867   1.217   3.235
 9433SOL     OW29197   4.733   5.756   2.644
 9433SOL    HW129198   4.802   5.817   2.606
 9433SOL    HW229199   4.642   5.787   2.616
 9434SOL     OW29200   4.490   5.614   3.807
 9434SOL    HW129201   4.470   5.516   3.802
 9434SOL    HW229202   4.421   5.659   3.863
 9435SOL     OW29203   0.434   3.664   1.649
 9435SOL    HW129204   0.432   3.742   1.712
 9435SOL    HW229205   0.490   3.687   1.570
 9436SOL     OW29206   1.773   0.642   2.595
 9436SOL    HW129207   1.678   0.670   2.583
 9436SOL    HW229208   1.783   0.597   2.684
 9437SOL     OW29209   5.240   6.708   4.877
 9437SOL    HW129210   5.313   6.768   4.843
 9437SOL    HW229211   5.205   6.652   4.802
 9438SOL     OW29212   4.804   6.986   2.005
 9438SOL    HW129213   4.850   0.034   1.955
 9438SOL    HW229214   4.717   7.020   2.041
 9439SOL     OW29215   1.787   3.462   0.933
 9439SOL    HW129216   1.736   3.444   0.849
 9439SOL    HW229217   1.731   3.438   1.012
 9440SOL     OW29218   2.108   5.474   3.370
 9440SOL    HW129219   2.024   5.450   3.419
 9440SOL    HW229220   2.094   5.462   3.271
 9441SOL     OW29221   0.203   6.936   4.316
 9441SOL    HW129222   0.272   6.886   4.263
 9441SOL    HW229223   0.196   6.897   4.408
 9442SOL     OW29224   5.239   3.071   0.387
 9442SOL    HW129225   5.217   3.026   0.473
 9442SOL    HW229226   5.239   3.003   0.313
 9443SOL     OW29227   2.505   4.441   2.762
 9443SOL    HW129228   2.479   4.476   2.852
 9443SOL    HW229229   2.578   4.498   2.724
 9444SOL     OW29230   0.914   4.210   5.684
 9444SOL    HW129231   0.921   4.209   5.783
 9444SOL    HW229232   0.878   4.299   5.654
 9445SOL     OW29233   0.947   1.095   3.850
 9445SOL    HW129234   1.040   1.106   3.882
 9445SOL    HW229235   0.922   1.173   3.791
 9446SOL     OW29236   6.580   4.432   3.646
 9446SOL    HW129237   6.489   4.455   3.681
 9446SOL    HW229238   6.641   4.511   3.655
 9447SOL     OW29239   4.721   4.156   1.850
 9447SOL    HW129240   4.681   4.205   1.927
 9447SOL    HW229241   4.811   4.193   1.830
 9448SOL     OW29242   6.546   0.985   5.305
 9448SOL    HW129243   6.583   1.002   5.396
 9448SOL    HW229244   6.459   0.936   5.313
 9449SOL     OW29245   5.241   0.438   1.867
 9449SOL    HW129246   5.281   0.486   1.945
 9449SOL    HW229247   5.310   0.430   1.794
 9450SOL     OW29248   0.824   6.004   2.764
 9450SOL    HW129249   0.877   6.059   2.828
 9450SOL    HW229250   0.790   5.922   2.810
 9451SOL     OW29251   3.628   4.787   6.482
 9451SOL    HW129252   3.603   4.728   6.406
 9451SOL    HW229253   3.552   4.793   6.546
 9452SOL     OW29254   6.055   4.195   6.526
 9452SOL    HW129255   5.980   4.249   6.490
 9452SOL    HW229256   6.021   4.107   6.559
 9453SOL     OW29257   5.046   5.387   1.808
 9453SOL    HW129258   5.025   5.290   1.793
 9453SOL    HW229259   5.079   5.400   1.901
 9454SOL     OW29260   5.744   4.324   0.363
 9454SOL    HW129261   5.648   4.313   0.388
 9454SOL    HW229262   5.752   4.335   0.264
 9455SOL     OW29263   3.523   1.187   2.029
 9455SOL    HW129264   3.504   1.267   2.087
 9455SOL    HW229265   3.563   1.217   1.943
 9456SOL     OW29266   0.419   3.316   2.511
 9456SOL    HW129267   0.320   3.306   2.499
 9456SOL    HW229268   0.448   3.405   2.475
 9457SOL     OW29269   6.459   6.602   5.059
 9457SOL    HW129270   6.403   6.643   4.987
 9457SOL    HW229271   6.551   6.585   5.023
 9458SOL     OW29272   6.739   3.988   6.884
 9458SOL    HW129273   6.802   4.022   6.814
 9458SOL    HW229274   6.720   3.891   6.868
 9459SOL     OW29275   4.825   4.682   5.527
 9459SOL    HW129276   4.912   4.653   5.486
 9459SOL    HW229277   4.810   4.632   5.612
 9460SOL     OW29278   1.186   2.800   2.865
 9460SOL    HW129279   1.126   2.725   2.892
 9460SOL    HW229280   1.280   2.767   2.859
 9461SOL     OW29281   1.520   1.856   2.289
 9461SOL    HW129282   1.526   1.835   2.191
 9461SOL    HW229283   1.612   1.867   2.326
 9462SOL     OW29284   0.315   0.948   4.370
 9462SOL    HW129285   0.318   0.943   4.271
 9462SOL    HW229286   0.339   1.041   4.400
 9463SOL     OW29287   5.823   4.524   1.495
 9463SOL    HW129288   5.840   4.540   1.398
 9463SOL    HW229289   5.755   4.451   1.505
 9464SOL     OW29290   1.031   1.296   1.947
 9464SOL    HW129291   0.965   1.290   2.023
 9464SOL    HW229292   1.117   1.334   1.981
 9465SOL     OW29293   6.705   4.831   1.056
 9465SOL    HW129294   6.657   4.861   1.139
 9465SOL    HW229295   6.803   4.825   1.074
 9466SOL     OW29296   3.948   4.401   5.601
 9466SOL    HW129297   4.001   4.465   5.544
 9466SOL    HW229298   3.978   4.409   5.696
 9467SOL     OW29299   2.011   3.645   1.025
 9467SOL    HW129300   1.938   3.577   1.035
 9467SOL    HW229301   2.097   3.599   1.004
 9468SOL     OW29302   6.234   1.467   0.624
 9468SOL    HW129303   6.262   1.385   0.574
 9468SOL    HW229304   6.281   1.469   0.712
 9469SOL     OW29305   0.262   6.612   1.163
 9469SOL    HW129306   0.355   6.644   1.177
 9469SOL    HW229307   0.201   6.655   1.230
 9470SOL     OW29308   3.483   3.566   0.529
 9470SOL    HW129309   3.521   3.507   0.601
 9470SOL    HW229310   3.469   3.512   0.447
 9471SOL     OW29311   6.560   2.612   4.533
 9471SOL    HW129312   6.546   2.692   4.475
 9471SOL    HW229313   6.568   2.640   4.628
 9472SOL     OW29314   1.685   3.461   6.180
 9472SOL    HW129315   1.722   3.478   6.088
 9472SOL    HW229316   1.586   3.449   6.175
 9473SOL     OW29317   2.751   3.925   1.221
 9473SOL    HW129318   2.816   3.891   1.290
 9473SOL    HW229319   2.710   3.847   1.173
 9474SOL     OW29320   6.282   3.691   0.609
 9474SOL    HW129321   6.333   3.731   0.685
 9474SOL    HW229322   6.190   3.730   0.606
 9475SOL     OW29323   5.171   4.321   6.306
 9475SOL    HW129324   5.254   4.370   6.333
 9475SOL    HW229325   5.105   4.324   6.381
 9476SOL     OW29326   3.949   3.863   0.217
 9476SOL    HW129327   4.027   3.835   0.272
 9476SOL    HW229328   3.928   3.960   0.235
 9477SOL     OW29329   1.703   4.464   0.339
 9477SOL    HW129330   1.749   4.452   0.251
 9477SOL    HW229331   1.765   4.440   0.413
 9478SOL     OW29332   5.349   3.322   6.827
 9478SOL    HW129333   5.258   3.290   6.800
 9478SOL    HW229334   5.417   3.252   6.805
 9479SOL     OW29335   3.804   0.575   2.467
 9479SOL    HW129336   3.729   0.519   2.432
 9479SOL    HW229337   3.816   0.655   2.408
 9480SOL     OW29338   6.767   0.942   0.767
 9480SOL    HW129339   6.852   0.966   0.721
 9480SOL    HW229340   6.788   0.890   0.850
 9481SOL     OW29341   3.989   6.722   3.537
 9481SOL    HW129342   4.072   6.679   3.574
 9481SOL    HW229343   3.910   6.665   3.559
 9482SOL     OW29344   6.592   6.244   6.964
 9482SOL    HW129345   6.572   6.158   7.012
 9482SOL    HW229346   6.595   6.227   6.866
 9483SOL     OW29347   6.443   6.956   0.337
 9483SOL    HW129348   6.530   6.974   0.384
 9483SOL    HW229349   6.459   6.949   0.239
 9484SOL     OW29350   3.903   5.596   4.739
 9484SOL    HW129351   3.926   5.676   4.794
 9484SOL    HW229352   3.834   5.542   4.788
 9485SOL     OW29353   0.182   1.078   6.893
 9485SOL    HW129354   0.160   1.088   6.796
 9485SOL    HW229355   0.099   1.084   6.947
 9486SOL     OW29356   5.360   5.736   0.123
 9486SOL    HW129357   5.459   5.721   0.119
 9486SOL    HW229358   5.323   5.738   0.030
 9487SOL     OW29359   3.463   3.182   2.990
 9487SOL    HW129360   3.529   3.118   3.028
 9487SOL    HW229361   3.510   3.264   2.957
 9488SOL     OW29362   1.633   0.355   1.255
 9488SOL    HW129363   1.601   0.305   1.174
 9488SOL    HW229364   1.732   0.352   1.258
 9489SOL     OW29365   5.630   2.953   6.918
 9489SOL    HW129366   5.587   2.867   6.890
 9489SOL    HW229367   5.615   2.968   7.016
 9490SOL     OW29368   5.514   3.380   4.682
 9490SOL    HW129369   5.605   3.408   4.650
 9490SOL    HW229370   5.524   3.321   4.762
 9491SOL     OW29371   5.267   6.108   2.790
 9491SOL    HW129372   5.248   6.039   2.721
 9491SOL    HW229373   5.344   6.165   2.760
 9492SOL     OW29374   4.790   2.832   3.635
 9492SOL    HW129375   4.701   2.877   3.635
 9492SOL    HW229376   4.801   2.780   3.551
 9493SOL     OW29377   4.181   6.302   1.427
 9493SOL    HW129378   4.218   6.226   1.480
 9493SOL    HW229379   4.120   6.267   1.356
 9494SOL     OW29380   5.893   2.179   1.730
 9494SOL    HW129381   5.976   2.186   1.785
 9494SOL    HW229382   5.872   2.268   1.690
 9495SOL     OW29383   0.210   2.206   1.199
 9495SOL    HW129384   0.232   2.271   1.272
 9495SOL    HW229385   0.286   2.203   1.134
 9496SOL     OW29386   5.599   2.191   1.742
 9496SOL    HW129387   5.554   2.281   1.748
 9496SOL    HW229388   5.692   2.203   1.709
 9497SOL     OW29389   4.591   4.381   4.761
 9497SOL    HW129390   4.538   4.341   4.686
 9497SOL    HW229391   4.535   4.446   4.811
 9498SOL     OW29392   0.425   5.587   4.443
 9498SOL    HW129393   0.454   5.493   4.423
 9498SOL    HW229394   0.386   5.628   4.360
 9499SOL     OW29395   6.331   6.092   5.217
 9499SOL    HW129396   6.413   6.103   5.160
 9499SOL    HW229397   6.267   6.167   5.198
 9500SOL     OW29398   3.779   1.874   0.763
 9500SOL    HW129399   3.756   1.971   0.767
 9500SOL    HW229400   3.695   1.820   0.775
 9501SOL     OW29401   2.052   3.255   5.159
 9501SOL    HW129402   1.972   3.206   5.124
 9501SOL    HW229403   2.102   3.296   5.083
 9502SOL     OW29404   5.130   4.519   3.979
 9502SOL    HW129405   5.163   4.569   4.059
 9502SOL    HW229406   5.113   4.423   4.004
 9503SOL     OW29407   7.005   1.821   0.338
 9503SOL    HW129408   7.009   1.847   0.434
 9503SOL    HW229409   6.936   1.749   0.326
 9504SOL     OW29410   5.722   5.304   2.125
 9504SOL    HW129411   5.702   5.206   2.118
 9504SOL    HW229412   5.784   5.320   2.202
 9505SOL     OW29413   4.209   5.400   6.048
 9505SOL    HW129414   4.183   5.456   6.126
 9505SOL    HW229415   4.278   5.333   6.075
 9506SOL     OW29416   2.963   0.901   0.985
 9506SOL    HW129417   2.939   0.804   0.990
 9506SOL    HW229418   2.950   0.934   0.892
 9507SOL     OW29419   5.299   0.235   2.085
 9507SOL    HW129420   5.280   0.150   2.134
 9507SOL    HW229421   5.301   0.218   1.987
 9508SOL     OW29422   4.728   1.921   2.721
 9508SOL    HW129423   4.732   1.991   2.650
 9508SOL    HW229424   4.781   1.951   2.800
 9509SOL     OW29425   5.605   0.388   3.468
 9509SOL    HW129426   5.592   0.487   3.474
 9509SOL    HW229427   5.628   0.351   3.558
 9510SOL     OW29428   1.033   2.915   3.802
 9510SOL    HW129429   1.048   3.008   3.835
 9510SOL    HW229430   0.988   2.861   3.873
 9511SOL     OW29431   0.574   1.678   0.900
 9511SOL    HW129432   0.581   1.598   0.841
 9511SOL    HW229433   0.566   1.648   0.995
 9512SOL     OW29434   6.294   2.225   1.475
 9512SOL    HW129435   6.214   2.242   1.417
 9512SOL    HW229436   6.294   2.129   1.504
 9513SOL     OW29437   4.427   4.469   5.641
 9513SOL    HW129438   4.386   4.410   5.572
 9513SOL    HW229439   4.526   4.474   5.626
 9514SOL     OW29440   3.734   2.877   6.495
 9514SOL    HW129441   3.737   2.974   6.472
 9514SOL    HW229442   3.805   2.855   6.562
 9515SOL     OW29443   0.803   5.791   3.098
 9515SOL    HW129444   0.890   5.749   3.125
 9515SOL    HW229445   0.777   5.759   3.007
 9516SOL     OW29446   0.384   4.608   6.817
 9516SOL    HW129447   0.309   4.675   6.820
 9516SOL    HW229448   0.381   4.559   6.730
 9517SOL     OW29449   0.589   5.539   1.342
 9517SOL    HW129450   0.517   5.592   1.386
 9517SOL    HW229451   0.677   5.559   1.386
 9518SOL     OW29452   1.053   1.358   0.731
 9518SOL    HW129453   1.108   1.340   0.813
 9518SOL    HW229454   0.958   1.375   0.758
 9519SOL     OW29455   1.308   3.043   5.481
 9519SOL    HW129456   1.306   2.989   5.566
 9519SOL    HW229457   1.275   3.135   5.500
 9520SOL     OW29458   4.321   6.946   1.712
 9520SOL    HW129459   4.281   6.875   1.770
 9520SOL    HW229460   4.418   6.956   1.734
 9521SOL     OW29461   5.407   5.144   3.969
 9521SOL    HW129462   5.458   5.084   3.907
 9521SOL    HW229463   5.326   5.097   4.002
 9522SOL     OW29464   3.340   6.130   1.219
 9522SOL    HW129465   3.253   6.081   1.223
 9522SOL    HW229466   3.331   6.218   1.265
 9523SOL     OW29467   2.984   5.782   5.188
 9523SOL    HW129468   3.021   5.695   5.155
 9523SOL    HW229469   2.936   5.828   5.113
 9524SOL     OW29470   4.673   2.545   1.076
 9524SOL    HW129471   4.647   2.449   1.077
 9524SOL    HW229472   4.638   2.590   1.158
 9525SOL     OW29473   3.735   0.344   5.648
 9525SOL    HW129474   3.715   0.283   5.725
 9525SOL    HW229475   3.812   0.307   5.595
 9526SOL     OW29476   4.988   5.407   2.201
 9526SOL    HW129477   4.980   5.307   2.199
 9526SOL    HW229478   4.903   5.448   2.166
 9527SOL     OW29479   6.029   1.990   1.076
 9527SOL    HW129480   5.959   1.960   1.141
 9527SOL    HW229481   6.024   2.089   1.063
 9528SOL     OW29482   6.017   0.472   1.823
 9528SOL    HW129483   5.988   0.384   1.788
 9528SOL    HW229484   5.941   0.537   1.819
 9529SOL     OW29485   0.777   3.409   4.738
 9529SOL    HW129486   0.802   3.386   4.644
 9529SOL    HW229487   0.828   3.490   4.767
 9530SOL     OW29488   1.778   2.105   4.231
 9530SOL    HW129489   1.871   2.139   4.218
 9530SOL    HW229490   1.733   2.160   4.302
 9531SOL     OW29491   2.657   6.192   3.522
 9531SOL    HW129492   2.652   6.155   3.429
 9531SOL    HW229493   2.652   6.117   3.587
 9532SOL     OW29494   3.013   1.122   1.137
 9532SOL    HW129495   2.996   1.040   1.083
 9532SOL    HW229496   2.931   1.145   1.189
 9533SOL     OW29497   1.857   0.454   5.043
 9533SOL    HW129498   1.830   0.360   5.063
 9533SOL    HW229499   1.820   0.515   5.114
 9534SOL     OW29500   4.796   1.841   4.183
 9534SOL    HW129501   4.864   1.891   4.129
 9534SOL    HW229502   4.746   1.778   4.123
 9535SOL     OW29503   2.294   2.051   5.452
 9535SOL    HW129504   2.275   2.038   5.355
 9535SOL    HW229505   2.376   2.107   5.463
 9536SOL     OW29506   3.313   0.096   6.643
 9536SOL    HW129507   3.320   0.149   6.559
 9536SOL    HW229508   3.351   0.005   6.628
 9537SOL     OW29509   2.953   6.796   1.005
 9537SOL    HW129510   2.919   6.762   0.917
 9537SOL    HW229511   2.884   6.777   1.076
 9538SOL     OW29512   5.905   3.200   4.033
 9538SOL    HW129513   5.910   3.159   4.124
 9538SOL    HW229514   5.984   3.171   3.979
 9539SOL     OW29515   0.043   5.326   1.128
 9539SOL    HW129516   6.971   5.334   1.106
 9539SOL    HW229517   0.063   5.232   1.156
 9540SOL     OW29518   5.326   3.599   5.305
 9540SOL    HW129519   5.393   3.551   5.363
 9540SOL    HW229520   5.241   3.613   5.356
 9541SOL     OW29521   0.532   2.013   3.431
 9541SOL    HW129522   0.476   1.930   3.437
 9541SOL    HW229523   0.478   2.088   3.393
 9542SOL     OW29524   5.085   4.010   4.196
 9542SOL    HW129525   5.025   3.966   4.263
 9542SOL    HW229526   5.180   3.984   4.215
 9543SOL     OW29527   5.480   2.108   1.997
 9543SOL    HW129528   5.473   2.173   1.922
 9543SOL    HW229529   5.407   2.041   1.991
 9544SOL     OW29530   3.237   1.724   2.079
 9544SOL    HW129531   3.320   1.762   2.038
 9544SOL    HW229532   3.252   1.712   2.178
 9545SOL     OW29533   0.386   0.102   4.507
 9545SOL    HW129534   0.423   0.014   4.537
 9545SOL    HW229535   0.427   0.176   4.560
 9546SOL     OW29536   2.488   4.295   1.775
 9546SOL    HW129537   2.554   4.363   1.743
 9546SOL    HW229538   2.403   4.303   1.723
 9547SOL     OW29539   6.372   5.852   2.479
 9547SOL    HW129540   6.314   5.931   2.458
 9547SOL    HW229541   6.338   5.807   2.562
 9548SOL     OW29542   4.917   6.387   3.031
 9548SOL    HW129543   4.829   6.402   2.987
 9548SOL    HW229544   4.958   6.302   2.996
 9549SOL     OW29545   2.793   5.492   0.202
 9549SOL    HW129546   2.840   5.541   0.128
 9549SOL    HW229547   2.790   5.394   0.181
 9550SOL     OW29548   1.406   1.842   0.507
 9550SOL    HW129549   1.472   1.895   0.455
 9550SOL    HW229550   1.317   1.889   0.507
 9551SOL     OW29551   2.130   5.824   5.726
 9551SOL    HW129552   2.220   5.863   5.740
 9551SOL    HW229553   2.060   5.891   5.751
 9552SOL     OW29554   0.615   5.644   3.730
 9552SOL    HW129555   0.597   5.659   3.827
 9552SOL    HW229556   0.705   5.602   3.719
 9553SOL     OW29557   5.256   4.669   5.348
 9553SOL    HW129558   5.341   4.650   5.398
 9553SOL    HW229559   5.278   4.696   5.254
 9554SOL     OW29560   2.138   0.992   2.055
 9554SOL    HW129561   2.067   1.038   2.109
 9554SOL    HW229562   2.096   0.943   1.979
 9555SOL     OW29563   6.411   2.335   6.325
 9555SOL    HW129564   6.336   2.392   6.360
 9555SOL    HW229565   6.420   2.254   6.383
 9556SOL     OW29566   6.828   2.263   1.008
 9556SOL    HW129567   6.828   2.230   0.913
 9556SOL    HW229568   6.776   2.200   1.065
 9557SOL     OW29569   5.496   2.513   1.628
 9557SOL    HW129570   5.481   2.593   1.686
 9557SOL    HW229571   5.411   2.460   1.623
 9558SOL     OW29572   6.274   4.443   1.739
 9558SOL    HW129573   6.235   4.442   1.647
 9558SOL    HW229574   6.201   4.454   1.807
 9559SOL     OW29575   6.763   3.095   2.770
 9559SOL    HW129576   6.701   3.058   2.839
 9559SOL    HW229577   6.710   3.138   2.697
 9560SOL     OW29578   3.706   1.597   4.557
 9560SOL    HW129579   3.801   1.580   4.582
 9560SOL    HW229580   3.667   1.516   4.514
 9561SOL     OW29581   4.166   6.746   0.501
 9561SOL    HW129582   4.207   6.751   0.593
 9561SOL    HW229583   4.147   6.650   0.479
 9562SOL     OW29584   5.494   5.391   3.612
 9562SOL    HW129585   5.397   5.376   3.630
 9562SOL    HW229586   5.530   5.459   3.675
 9563SOL     OW29587   7.014   5.848   6.921
 9563SOL    HW129588   6.942   5.780   6.922
 9563SOL    HW229589   6.984   5.930   6.971
 9564SOL     OW29590   2.121   0.253   6.361
 9564SOL    HW129591   2.106   0.261   6.263
 9564SOL    HW229592   2.182   0.176   6.380
 9565SOL     OW29593   3.688   5.904   4.019
 9565SOL    HW129594   3.710   5.831   3.954
 9565SOL    HW229595   3.669   5.864   4.109
 9566SOL     OW29596   2.962   4.982   5.459
 9566SOL    HW129597   2.870   5.019   5.472
 9566SOL    HW229598   2.971   4.948   5.365
 9567SOL     OW29599   6.202   5.831   5.677
 9567SOL    HW129600   6.136   5.756   5.678
 9567SOL    HW229601   6.274   5.811   5.611
 9568SOL     OW29602   5.567   3.811   6.044
 9568SOL    HW129603   5.494   3.833   6.108
 9568SOL    HW229604   5.532   3.815   5.950
 9569SOL     OW29605   5.372   6.558   1.999
 9569SOL    HW129606   5.340   6.528   1.909
 9569SOL    HW229607   5.400   6.477   2.052
 9570SOL     OW29608   0.797   0.378   6.697
 9570SOL    HW129609   0.800   0.475   6.672
 9570SOL    HW229610   0.753   0.326   6.624
 9571SOL     OW29611   2.230   2.866   6.951
 9571SOL    HW129612   2.163   2.939   6.962
 9571SOL    HW229613   2.285   2.883   6.870
 9572SOL     OW29614   0.635   4.303   1.017
 9572SOL    HW129615   0.666   4.274   1.107
 9572SOL    HW229616   0.707   4.356   0.972
 9573SOL     OW29617   6.314   1.906   1.809
 9573SOL    HW129618   6.234   1.855   1.842
 9573SOL    HW229619   6.367   1.939   1.886
 9574SOL     OW29620   2.371   2.125   4.210
 9574SOL    HW129621   2.342   2.220   4.222
 9574SOL    HW229622   2.458   2.111   4.257
 9575SOL     OW29623   4.889   0.828   2.538
 9575SOL    HW129624   4.811   0.890   2.546
 9575SOL    HW229625   4.972   0.874   2.569
 9576SOL     OW29626   4.259   2.120   5.309
 9576SOL    HW129627   4.351   2.080   5.318
 9576SOL    HW229628   4.192   2.058   5.350
 9577SOL     OW29629   0.625   6.143   3.147
 9577SOL    HW129630   0.559   6.156   3.073
 9577SOL    HW229631   0.653   6.232   3.184
 9578SOL     OW29632   6.356   3.876   1.966
 9578SOL    HW129633   6.329   3.849   2.058
 9578SOL    HW229634   6.339   3.974   1.954
 9579SOL     OW29635   1.510   6.236   2.964
 9579SOL    HW129636   1.520   6.187   2.877
 9579SOL    HW229637   1.432   6.297   2.959
 9580SOL     OW29638   4.346   3.492   5.705
 9580SOL    HW129639   4.327   3.394   5.695
 9580SOL    HW229640   4.434   3.513   5.662
 9581SOL     OW29641   1.416   4.889   5.860
 9581SOL    HW129642   1.458   4.836   5.933
 9581SOL    HW229643   1.331   4.930   5.893
 9582SOL     OW29644   4.572   4.720   3.760
 9582SOL    HW129645   4.509   4.797   3.759
 9582SOL    HW229646   4.556   4.665   3.842
 9583SOL     OW29647   2.383   4.627   1.858
 9583SOL    HW129648   2.477   4.627   1.893
 9583SOL    HW229649   2.351   4.533   1.851
 9584SOL     OW29650   5.575   5.278   6.913
 9584SOL    HW129651   5.637   5.334   6.968
 9584SOL    HW229652   5.534   5.207   6.969
 9585SOL     OW29653   0.353   7.020   3.144
 9585SOL    HW129654   0.260   0.032   3.146
 9585SOL    HW229655   0.418   0.069   3.129
 9586SOL     OW29656   5.253   2.844   2.481
 9586SOL    HW129657   5.238   2.745   2.492
 9586SOL    HW229658   5.328   2.873   2.540
 9587SOL     OW29659   4.671   6.754   2.490
 9587SOL    HW129660   4.632   6.663   2.476
 9587SOL    HW229661   4.752   6.747   2.548
 9588SOL     OW29662   7.021   6.973   3.418
 9588SOL    HW129663   0.045   6.887   3.410
 9588SOL    HW229664   0.056   0.018   3.456
 9589SOL     OW29665   2.556   1.531   5.507
 9589SOL    HW129666   2.516   1.620   5.484
 9589SOL    HW229667   2.557   1.518   5.606
 9590SOL     OW29668   0.412   4.812   4.446
 9590SOL    HW129669   0.406   4.726   4.496
 9590SOL    HW229670   0.472   4.800   4.367
 9591SOL     OW29671   1.322   4.680   2.724
 9591SOL    HW129672   1.246   4.689   2.788
 9591SOL    HW229673   1.369   4.768   2.715
 9592SOL     OW29674   4.523   6.218   1.939
 9592SOL    HW129675   4.579   6.197   2.019
 9592SOL    HW229676   4.581   6.251   1.865
 9593SOL     OW29677   1.825   3.283   3.914
 9593SOL    HW129678   1.767   3.362   3.934
 9593SOL    HW229679   1.767   3.207   3.885
 9594SOL     OW29680   6.036   6.976   1.856
 9594SOL    HW129681   5.952   6.941   1.814
 9594SOL    HW229682   6.107   6.905   1.852
 9595SOL     OW29683   1.261   4.448   4.480
 9595SOL    HW129684   1.196   4.410   4.414
 9595SOL    HW229685   1.266   4.547   4.468
 9596SOL     OW29686   5.040   5.421   2.660
 9596SOL    HW129687   5.065   5.425   2.757
 9596SOL    HW229688   5.089   5.347   2.616
 9597SOL     OW29689   1.522   4.401   0.855
 9597SOL    HW129690   1.551   4.464   0.927
 9597SOL    HW229691   1.495   4.314   0.897
 9598SOL     OW29692   1.334   6.178   5.648
 9598SOL    HW129693   1.301   6.197   5.556
 9598SOL    HW229694   1.264   6.126   5.698
 9599SOL     OW29695   4.485   1.506   3.991
 9599SOL    HW129696   4.543   1.507   4.073
 9599SOL    HW229697   4.451   1.413   3.976
 9600SOL     OW29698   1.628   5.929   6.948
 9600SOL    HW129699   1.701   5.993   6.921
 9600SOL    HW229700   1.668   5.841   6.973
 9601SOL     OW29701   0.779   6.682   6.316
 9601SOL    HW129702   0.820   6.752   6.258
 9601SOL    HW229703   0.776   6.595   6.267
 9602SOL     OW29704   1.065   5.739   0.374
 9602SOL    HW129705   1.055   5.838   0.379
 9602SOL    HW229706   1.010   5.704   0.298
 9603SOL     OW29707   1.116   4.865   3.621
 9603SOL    HW129708   1.092   4.787   3.563
 9603SOL    HW229709   1.084   4.848   3.714
 9604SOL     OW29710   6.722   0.051   0.424
 9604SOL    HW129711   6.743   7.020   0.504
 9604SOL    HW229712   6.723   0.147   0.450
 9605SOL     OW29713   2.549   5.687   6.991
 9605SOL    HW129714   2.508   5.736   0.043
 9605SOL    HW229715   2.492   5.697   6.910
 9606SOL     OW29716   6.187   0.403   5.151
 9606SOL    HW129717   6.171   0.308   5.123
 9606SOL    HW229718   6.178   0.463   5.072
 9607SOL     OW29719   0.492   2.658   2.756
 9607SOL    HW129720   0.404   2.621   2.726
 9607SOL    HW229721   0.566   2.609   2.709
 9608SOL     OW29722   6.116   0.379   2.690
 9608SOL    HW129723   6.055   0.300   2.680
 9608SOL    HW229724   6.112   0.434   2.607
 9609SOL     OW29725   1.771   2.584   3.769
 9609SOL    HW129726   1.821   2.498   3.764
 9609SOL    HW229727   1.780   2.634   3.682
 9610SOL     OW29728   3.642   1.333   6.087
 9610SOL    HW129729   3.571   1.269   6.060
 9610SOL    HW229730   3.623   1.423   6.046
 9611SOL     OW29731   6.155   5.698   0.748
 9611SOL    HW129732   6.089   5.729   0.817
 9611SOL    HW229733   6.248   5.709   0.783
 9612SOL     OW29734   4.908   3.366   3.046
 9612SOL    HW129735   4.931   3.334   2.954
 9612SOL    HW229736   4.819   3.412   3.044
 9613SOL     OW29737   5.863   6.807   5.190
 9613SOL    HW129738   5.834   6.752   5.111
 9613SOL    HW229739   5.793   6.876   5.210
 9614SOL     OW29740   3.625   2.810   2.069
 9614SOL    HW129741   3.683   2.730   2.065
 9614SOL    HW229742   3.542   2.795   2.016
 9615SOL     OW29743   0.668   6.203   3.942
 9615SOL    HW129744   0.764   6.205   3.971
 9615SOL    HW229745   0.638   6.108   3.935
 9616SOL     OW29746   1.962   3.189   1.473
 9616SOL    HW129747   1.866   3.184   1.500
 9616SOL    HW229748   2.019   3.145   1.543
 9617SOL     OW29749   0.700   3.036   2.339
 9617SOL    HW129750   0.787   3.029   2.291
 9617SOL    HW229751   0.713   3.019   2.436
 9618SOL     OW29752   4.130   4.386   0.406
 9618SOL    HW129753   4.160   4.433   0.488
 9618SOL    HW229754   4.047   4.333   0.426
 9619SOL     OW29755   1.433   0.033   1.239
 9619SOL    HW129756   1.403   0.123   1.272
 9619SOL    HW229757   1.401   0.020   1.146
 9620SOL     OW29758   3.686   1.826   6.940
 9620SOL    HW129759   3.744   1.884   6.883
 9620SOL    HW229760   3.591   1.857   6.933
 9621SOL     OW29761   0.561   1.648   2.401
 9621SOL    HW129762   0.578   1.599   2.487
 9621SOL    HW229763   0.620   1.729   2.396
 9622SOL     OW29764   0.432   5.767   5.963
 9622SOL    HW129765   0.448   5.864   5.977
 9622SOL    HW229766   0.487   5.734   5.887
 9623SOL     OW29767   4.355   6.517   5.932
 9623SOL    HW129768   4.375   6.591   5.996
 9623SOL    HW229769   4.271   6.471   5.959
 9624SOL     OW29770   4.744   5.151   4.495
 9624SOL    HW129771   4.647   5.172   4.508
 9624SOL    HW229772   4.798   5.233   4.512
 9625SOL     OW29773   5.098   3.846   6.060
 9625SOL    HW129774   5.115   3.916   5.991
 9625SOL    HW229775   5.170   3.849   6.129
 9626SOL     OW29776   2.545   2.615   6.914
 9626SOL    HW129777   2.547   2.523   6.876
 9626SOL    HW229778   2.505   2.677   6.846
 9627SOL     OW29779   0.623   5.263   0.157
 9627SOL    HW129780   0.646   5.192   0.090
 9627SOL    HW229781   0.625   5.353   0.113
 9628SOL     OW29782   6.601   1.443   6.779
 9628SOL    HW129783   6.624   1.539   6.761
 9628SOL    HW229784   6.506   1.426   6.751
 9629SOL     OW29785   6.991   5.824   3.665
 9629SOL    HW129786   6.972   5.786   3.756
 9629SOL    HW229787   0.051   5.786   3.630
 9630SOL     OW29788   6.299   0.873   5.300
 9630SOL    HW129789   6.359   0.800   5.333
 9630SOL    HW229790   6.274   0.856   5.205
 9631SOL     OW29791   3.823   6.510   0.725
 9631SOL    HW129792   3.795   6.452   0.802
 9631SOL    HW229793   3.906   6.559   0.750
 9632SOL     OW29794   2.918   5.608   2.918
 9632SOL    HW129795   2.917   5.634   3.015
 9632SOL    HW229796   3.000   5.556   2.898
 9633SOL     OW29797   3.592   3.413   3.267
 9633SOL    HW129798   3.550   3.503   3.259
 9633SOL    HW229799   3.670   3.407   3.205
 9634SOL     OW29800   5.571   4.997   3.055
 9634SOL    HW129801   5.597   5.054   3.133
 9634SOL    HW229802   5.476   5.016   3.030
 9635SOL     OW29803   0.715   5.173   3.993
 9635SOL    HW129804   0.713   5.254   4.051
 9635SOL    HW229805   0.793   5.178   3.930
 9636SOL     OW29806   5.138   3.656   4.045
 9636SOL    HW129807   5.157   3.578   3.985
 9636SOL    HW229808   5.129   3.739   3.990
 9637SOL     OW29809   1.039   3.570   6.924
 9637SOL    HW129810   1.107   3.538   6.991
 9637SOL    HW229811   0.947   3.548   6.957
 9638SOL     OW29812   5.822   5.804   5.959
 9638SOL    HW129813   5.726   5.777   5.973
 9638SOL    HW229814   5.878   5.722   5.944
 9639SOL     OW29815   4.468   1.769   1.381
 9639SOL    HW129816   4.435   1.758   1.287
 9639SOL    HW229817   4.408   1.719   1.443
 9640SOL     OW29818   3.974   0.527   3.518
 9640SOL    HW129819   3.989   0.443   3.466
 9640SOL    HW229820   4.040   0.596   3.490
 9641SOL     OW29821   6.684   3.343   3.410
 9641SOL    HW129822   6.604   3.288   3.434
 9641SOL    HW229823   6.759   3.324   3.473
 9642SOL     OW29824   0.703   0.636   4.834
 9642SOL    HW129825   0.640   0.591   4.897
 9642SOL    HW229826   0.665   0.726   4.808
 9643SOL     OW29827   4.637   5.055   3.876
 9643SOL    HW129828   4.635   5.101   3.965
 9643SOL    HW229829   4.553   5.002   3.864
 9644SOL     OW29830   0.740   5.458   4.304
 9644SOL    HW129831   0.746   5.470   4.205
 9644SOL    HW229832   0.808   5.516   4.349
 9645SOL     OW29833   1.038   4.892   6.401
 9645SOL    HW129834   1.066   4.842   6.319
 9645SOL    HW229835   1.103   4.965   6.420
 9646SOL     OW29836   4.478   5.287   6.783
 9646SOL    HW129837   4.420   5.237   6.718
 9646SOL    HW229838   4.422   5.319   6.859
 9647SOL     OW29839   6.092   6.777   2.852
 9647SOL    HW129840   6.116   6.798   2.947
 9647SOL    HW229841   6.058   6.860   2.807
 9648SOL     OW29842   3.805   1.970   1.142
 9648SOL    HW129843   3.857   1.886   1.128
 9648SOL    HW229844   3.716   1.962   1.096
 9649SOL     OW29845   0.530   5.723   0.257
 9649SOL    HW129846   0.600   5.662   0.219
 9649SOL    HW229847   0.536   5.722   0.357
 9650SOL     OW29848   6.799   4.852   4.096
 9650SOL    HW129849   6.880   4.896   4.056
 9650SOL    HW229850   6.733   4.922   4.123
 9651SOL     OW29851   4.423   1.828   0.144
 9651SOL    HW129852   4.338   1.789   0.110
 9651SOL    HW229853   4.475   1.866   0.068
 9652SOL     OW29854   0.590   4.108   0.809
 9652SOL    HW129855   0.564   4.181   0.746
 9652SOL    HW229856   0.574   4.138   0.903
 9653SOL     OW29857   4.859   4.034   6.058
 9653SOL    HW129858   4.802   4.082   5.992
 9653SOL    HW229859   4.955   4.050   6.038
 9654SOL     OW29860   3.215   3.635   3.112
 9654SOL    HW129861   3.200   3.540   3.140
 9654SOL    HW229862   3.128   3.684   3.114
 9655SOL     OW29863   4.577   1.509   0.801
 9655SOL    HW129864   4.636   1.529   0.722
 9655SOL    HW229865   4.487   1.481   0.769
 9656SOL     OW29866   5.698   4.122   6.430
 9656SOL    HW129867   5.757   4.201   6.446
 9656SOL    HW229868   5.688   4.070   6.514
 9657SOL     OW29869   5.791   3.936   4.128
 9657SOL    HW129870   5.764   3.870   4.058
 9657SOL    HW229871   5.890   3.929   4.145
 9658SOL     OW29872   4.584   1.431   2.034
 9658SOL    HW129873   4.501   1.473   1.997
 9658SOL    HW229874   4.613   1.356   1.975
 9659SOL     OW29875   2.451   3.109   6.817
 9659SOL    HW129876   2.493   3.039   6.874
 9659SOL    HW229877   2.383   3.159   6.871
 9660SOL     OW29878   1.763   6.274   1.868
 9660SOL    HW129879   1.732   6.182   1.843
 9660SOL    HW229880   1.823   6.310   1.796
 9661SOL     OW29881   4.796   4.077   1.282
 9661SOL    HW129882   4.734   4.150   1.310
 9661SOL    HW229883   4.752   4.021   1.212
 9662SOL     OW29884   5.530   6.209   6.508
 9662SOL    HW129885   5.436   6.177   6.498
 9662SOL    HW229886   5.561   6.248   6.421
 9663SOL     OW29887   0.740   5.451   2.219
 9663SOL    HW129888   0.738   5.457   2.119
 9663SOL    HW229889   0.835   5.440   2.249
 9664SOL     OW29890   4.546   4.975   2.280
 9664SOL    HW129891   4.575   4.997   2.374
 9664SOL    HW229892   4.457   5.017   2.263
 9665SOL     OW29893   0.030   5.527   6.196
 9665SOL    HW129894   6.965   5.526   6.153
 9665SOL    HW229895   0.097   5.564   6.131
 9666SOL     OW29896   5.568   4.106   0.015
 9666SOL    HW129897   5.574   4.205   0.024
 9666SOL    HW229898   5.659   4.066   0.027
 9667SOL     OW29899   5.815   6.193   6.807
 9667SOL    HW129900   5.738   6.147   6.764
 9667SOL    HW229901   5.803   6.193   6.907
 9668SOL     OW29902   1.140   0.934   5.963
 9668SOL    HW129903   1.122   0.853   5.906
 9668SOL    HW229904   1.236   0.961   5.951
 9669SOL     OW29905   3.354   0.436   0.603
 9669SOL    HW129906   3.397   0.346   0.609
 9669SOL    HW229907   3.423   0.506   0.585
 9670SOL     OW29908   0.463   6.918   0.056
 9670SOL    HW129909   0.414   6.877   0.133
 9670SOL    HW229910   0.422   6.887   6.995
 9671SOL     OW29911   0.932   5.212   6.288
 9671SOL    HW129912   0.920   5.143   6.360
 9671SOL    HW229913   0.855   5.276   6.292
 9672SOL     OW29914   0.744   3.889   4.262
 9672SOL    HW129915   0.718   3.869   4.357
 9672SOL    HW229916   0.680   3.846   4.200
 9673SOL     OW29917   1.686   3.660   0.154
 9673SOL    HW129918   1.616   3.628   0.091
 9673SOL    HW229919   1.711   3.586   0.217
 9674SOL     OW29920   2.075   6.415   4.225
 9674SOL    HW129921   2.032   6.386   4.139
 9674SOL    HW229922   2.060   6.345   4.294
 9675SOL     OW29923   6.590   3.622   6.140
 9675SOL    HW129924   6.687   3.598   6.134
 9675SOL    HW229925   6.579   3.703   6.197
 9676SOL     OW29926   0.761   2.581   6.736
 9676SOL    HW129927   0.762   2.574   6.636
 9676SOL    HW229928   0.693   2.649   6.764
 9677SOL     OW29929   6.757   5.378   2.007
 9677SOL    HW129930   6.837   5.434   1.986
 9677SOL    HW229931   6.676   5.417   1.963
 9678SOL     OW29932   3.410   3.530   5.288
 9678SOL    HW129933   3.353   3.610   5.308
 9678SOL    HW229934   3.461   3.505   5.370
 9679SOL     OW29935   1.843   1.507   4.303
 9679SOL    HW129936   1.899   1.434   4.264
 9679SOL    HW229937   1.788   1.549   4.231
 9680SOL     OW29938   4.420   6.711   2.110
 9680SOL    HW129939   4.337   6.722   2.055
 9680SOL    HW229940   4.472   6.632   2.077
 9681SOL     OW29941   1.189   1.885   2.066
 9681SOL    HW129942   1.110   1.942   2.042
 9681SOL    HW229943   1.157   1.800   2.107
 9682SOL     OW29944   5.063   6.127   5.815
 9682SOL    HW129945   5.149   6.175   5.831
 9682SOL    HW229946   5.028   6.151   5.724
 9683SOL     OW29947   3.386   6.198   3.124
 9683SOL    HW129948   3.323   6.273   3.145
 9683SOL    HW229949   3.342   6.133   3.061
 9684SOL     OW29950   0.031   3.484   5.576
 9684SOL    HW129951   0.118   3.458   5.534
 9684SOL    HW229952   6.988   3.499   5.505
 9685SOL     OW29953   3.366   4.223   1.251
 9685SOL    HW129954   3.466   4.220   1.253
 9685SOL    HW229955   3.332   4.160   1.181
 9686SOL     OW29956   6.094   1.280   5.195
 9686SOL    HW129957   6.011   1.236   5.161
 9686SOL    HW229958   6.158   1.211   5.228
 9687SOL     OW29959   5.935   0.861   3.151
 9687SOL    HW129960   5.982   0.886   3.236
 9687SOL    HW229961   5.905   0.945   3.104
 9688SOL     OW29962   0.727   5.303   1.357
 9688SOL    HW129963   0.771   5.357   1.429
 9688SOL    HW229964   0.638   5.343   1.335
 9689SOL     OW29965   2.351   6.063   0.843
 9689SOL    HW129966   2.445   6.040   0.866
 9689SOL    HW229967   2.330   6.029   0.751
 9690SOL     OW29968   6.601   4.647   4.776
 9690SOL    HW129969   6.660   4.632   4.855
 9690SOL    HW229970   6.657   4.665   4.695
 9691SOL     OW29971   2.844   3.551   1.900
 9691SOL    HW129972   2.829   3.582   1.806
 9691SOL    HW229973   2.927   3.592   1.937
 9692SOL     OW29974   5.077   4.335   0.971
 9692SOL    HW129975   5.160   4.357   0.920
 9692SOL    HW229976   5.039   4.418   1.012
 9693SOL     OW29977   4.856   3.175   5.053
 9693SOL    HW129978   4.877   3.271   5.067
 9693SOL    HW229979   4.803   3.141   5.131
 9694SOL     OW29980   2.680   0.252   1.833
 9694SOL    HW129981   2.742   0.286   1.762
 9694SOL    HW229982   2.642   0.164   1.805
 9695SOL     OW29983   1.157   2.938   3.560
 9695SOL    HW129984   1.136   2.913   3.654
 9695SOL    HW229985   1.243   2.895   3.532
 9696SOL     OW29986   5.469   2.894   3.622
 9696SOL    HW129987   5.464   2.821   3.555
 9696SOL    HW229988   5.446   2.859   3.713
 9697SOL     OW29989   0.217   6.534   0.891
 9697SOL    HW129990   0.230   6.588   0.974
 9697SOL    HW229991   0.135   6.564   0.843
 9698SOL     OW29992   6.319   3.510   1.770
 9698SOL    HW129993   6.379   3.586   1.793
 9698SOL    HW229994   6.374   3.429   1.748
 9699SOL     OW29995   1.689   6.102   1.142
 9699SOL    HW129996   1.684   6.169   1.068
 9699SOL    HW229997   1.605   6.049   1.145
 9700SOL     OW29998   5.461   0.160   5.474
 9700SOL    HW129999   5.537   0.225   5.480
 9700SOL    HW230000   5.497   0.072   5.443
 9701SOL     OW30001   4.601   4.016   6.999
 9701SOL    HW130002   4.549   3.982   6.921
 9701SOL    HW230003   4.684   3.961   7.010
 9702SOL     OW30004   3.824   3.936   2.213
 9702SOL    HW130005   3.901   3.999   2.222
 9702SOL    HW230006   3.739   3.988   2.206
 9703SOL     OW30007   5.887   4.343   4.094
 9703SOL    HW130008   5.815   4.291   4.139
 9703SOL    HW230009   5.860   4.439   4.087
 9704SOL     OW30010   1.577   4.472   2.774
 9704SOL    HW130011   1.542   4.552   2.727
 9704SOL    HW230012   1.501   4.411   2.798
 9705SOL     OW30013   0.077   2.842   5.147
 9705SOL    HW130014   0.135   2.771   5.107
 9705SOL    HW230015   0.040   2.809   5.234
 9706SOL     OW30016   0.594   1.483   2.610
 9706SOL    HW130017   0.627   1.401   2.656
 9706SOL    HW230018   0.550   1.543   2.676
 9707SOL     OW30019   1.181   4.706   2.022
 9707SOL    HW130020   1.216   4.685   2.113
 9707SOL    HW230021   1.181   4.624   1.965
 9708SOL     OW30022   2.582   0.784   2.014
 9708SOL    HW130023   2.672   0.822   2.036
 9708SOL    HW230024   2.594   0.694   1.971
 9709SOL     OW30025   5.748   2.395   1.612
 9709SOL    HW130026   5.727   2.350   1.525
 9709SOL    HW230027   5.675   2.460   1.634
 9710SOL     OW30028   5.939   5.519   4.139
 9710SOL    HW130029   6.035   5.547   4.147
 9710SOL    HW230030   5.929   5.426   4.174
 9711SOL     OW30031   3.572   0.715   0.478
 9711SOL    HW130032   3.579   0.727   0.577
 9711SOL    HW230033   3.506   0.781   0.441
 9712SOL     OW30034   5.769   1.503   6.751
 9712SOL    HW130035   5.686   1.503   6.807
 9712SOL    HW230036   5.848   1.481   6.808
 9713SOL     OW30037   1.649   6.502   2.662
 9713SOL    HW130038   1.707   6.581   2.683
 9713SOL    HW230039   1.557   6.517   2.699
 9714SOL     OW30040   2.290   4.217   4.741
 9714SOL    HW130041   2.304   4.150   4.814
 9714SOL    HW230042   2.194   4.218   4.714
 9715SOL     OW30043   6.597   3.996   6.452
 9715SOL    HW130044   6.538   3.922   6.422
 9715SOL    HW230045   6.690   3.963   6.464
 9716SOL     OW30046   2.580   5.641   0.294
 9716SOL    HW130047   2.497   5.589   0.279
 9716SOL    HW230048   2.658   5.594   0.252
 9717SOL     OW30049   4.047   2.067   5.504
 9717SOL    HW130050   4.040   2.157   5.546
 9717SOL    HW230051   3.957   2.038   5.471
 9718SOL     OW30052   4.309   2.490   6.181
 9718SOL    HW130053   4.322   2.586   6.154
 9718SOL    HW230054   4.392   2.458   6.227
 9719SOL     OW30055   4.916   6.441   5.946
 9719SOL    HW130056   4.978   6.386   5.890
 9719SOL    HW230057   4.963   6.471   6.029
 9720SOL     OW30058   2.131   3.274   3.464
 9720SOL    HW130059   2.149   3.291   3.561
 9720SOL    HW230060   2.131   3.361   3.414
 9721SOL     OW30061   1.029   1.186   0.515
 9721SOL    HW130062   0.994   1.216   0.426
 9721SOL    HW230063   1.011   1.256   0.583
 9722SOL     OW30064   3.828   2.399   5.440
 9722SOL    HW130065   3.780   2.472   5.392
 9722SOL    HW230066   3.904   2.366   5.384
 9723SOL     OW30067   6.517   0.252   5.018
 9723SOL    HW130068   6.464   0.247   5.102
 9723SOL    HW230069   6.595   0.191   5.023
 9724SOL     OW30070   1.678   5.035   0.587
 9724SOL    HW130071   1.669   5.110   0.520
 9724SOL    HW230072   1.683   4.948   0.539
 9725SOL     OW30073   4.112   4.990   4.830
 9725SOL    HW130074   4.114   5.090   4.821
 9725SOL    HW230075   4.069   4.965   4.916
 9726SOL     OW30076   0.203   0.806   3.254
 9726SOL    HW130077   0.302   0.817   3.262
 9726SOL    HW230078   0.161   0.896   3.237
 9727SOL     OW30079   6.631   1.724   1.548
 9727SOL    HW130080   6.545   1.727   1.496
 9727SOL    HW230081   6.704   1.764   1.494
 9728SOL     OW30082   4.536   1.899   4.235
 9728SOL    HW130083   4.519   1.994   4.263
 9728SOL    HW230084   4.635   1.882   4.234
 9729SOL     OW30085   0.170   5.162   2.859
 9729SOL    HW130086   0.154   5.082   2.803
 9729SOL    HW230087   0.252   5.210   2.827
 9730SOL     OW30088   1.116   4.685   2.908
 9730SOL    HW130089   1.119   4.756   2.978
 9730SOL    HW230090   1.030   4.692   2.857
 9731SOL     OW30091   5.623   3.227   2.101
 9731SOL    HW130092   5.670   3.211   2.015
 9731SOL    HW230093   5.682   3.284   2.160
 9732SOL     OW30094   1.581   3.643   3.020
 9732SOL    HW130095   1.523   3.616   3.096
 9732SOL    HW230096   1.677   3.635   3.047
 9733SOL     OW30097   5.805   4.613   2.155
 9733SOL    HW130098   5.789   4.515   2.146
 9733SOL    HW230099   5.768   4.644   2.243
 9734SOL     OW30100   5.266   5.792   6.620
 9734SOL    HW130101   5.268   5.692   6.611
 9734SOL    HW230102   5.334   5.832   6.558
 9735SOL     OW30103   0.777   2.070   1.035
 9735SOL    HW130104   0.791   2.169   1.035
 9735SOL    HW230105   0.703   2.047   1.099
 9736SOL     OW30106   4.674   1.882   4.553
 9736SOL    HW130107   4.673   1.959   4.489
 9736SOL    HW230108   4.688   1.917   4.646
 9737SOL     OW30109   6.503   3.434   3.102
 9737SOL    HW130110   6.529   3.495   3.177
 9737SOL    HW230111   6.408   3.452   3.077
 9738SOL     OW30112   2.548   0.026   1.776
 9738SOL    HW130113   2.511   7.017   1.689
 9738SOL    HW230114   2.479   0.082   1.821
 9739SOL     OW30115   5.947   0.012   0.596
 9739SOL    HW130116   5.957   7.003   0.503
 9739SOL    HW230117   5.850   0.016   0.620
 9740SOL     OW30118   6.152   1.090   2.879
 9740SOL    HW130119   6.087   1.035   2.825
 9740SOL    HW230120   6.240   1.043   2.883
 9741SOL     OW30121   2.602   1.918   4.335
 9741SOL    HW130122   2.661   1.896   4.412
 9741SOL    HW230123   2.508   1.927   4.367
 9742SOL     OW30124   3.400   2.186   6.228
 9742SOL    HW130125   3.455   2.269   6.233
 9742SOL    HW230126   3.397   2.152   6.134
 9743SOL     OW30127   5.348   3.922   4.296
 9743SOL    HW130128   5.396   3.883   4.375
 9743SOL    HW230129   5.387   3.886   4.212
 9744SOL     OW30130   1.833   1.812   2.980
 9744SOL    HW130131   1.920   1.861   2.976
 9744SOL    HW230132   1.759   1.874   2.953
 9745SOL     OW30133   7.014   0.679   6.253
 9745SOL    HW130134   7.016   0.778   6.242
 9745SOL    HW230135   6.976   0.657   6.343
 9746SOL     OW30136   4.343   5.113   6.041
 9746SOL    HW130137   4.291   5.042   5.994
 9746SOL    HW230138   4.425   5.135   5.988
 9747SOL     OW30139   2.528   1.318   2.772
 9747SOL    HW130140   2.498   1.291   2.863
 9747SOL    HW230141   2.627   1.333   2.772
 9748SOL     OW30142   1.240   0.929   3.335
 9748SOL    HW130143   1.295   0.860   3.288
 9748SOL    HW230144   1.258   1.019   3.294
 9749SOL     OW30145   6.912   0.676   2.476
 9749SOL    HW130146   6.957   0.698   2.390
 9749SOL    HW230147   6.813   0.671   2.462
 9750SOL     OW30148   5.977   3.123   4.274
 9750SOL    HW130149   6.005   3.197   4.336
 9750SOL    HW230150   5.939   3.048   4.328
 9751SOL     OW30151   3.867   6.930   1.775
 9751SOL    HW130152   3.837   7.008   1.831
 9751SOL    HW230153   3.906   6.860   1.834
 9752SOL     OW30154   3.278   3.425   0.070
 9752SOL    HW130155   3.286   3.325   0.071
 9752SOL    HW230156   3.185   3.450   0.042
 9753SOL     OW30157   6.764   6.372   5.239
 9753SOL    HW130158   6.852   6.328   5.220
 9753SOL    HW230159   6.754   6.453   5.181
 9754SOL     OW30160   3.063   0.800   1.701
 9754SOL    HW130161   3.040   0.704   1.684
 9754SOL    HW230162   2.997   0.859   1.653
 9755SOL     OW30163   2.676   3.526   0.551
 9755SOL    HW130164   2.645   3.519   0.456
 9755SOL    HW230165   2.735   3.607   0.560
 9756SOL     OW30166   5.585   0.373   5.695
 9756SOL    HW130167   5.565   0.306   5.766
 9756SOL    HW230168   5.674   0.354   5.655
 9757SOL     OW30169   5.456   4.113   3.961
 9757SOL    HW130170   5.506   4.117   3.874
 9757SOL    HW230171   5.360   4.090   3.943
 9758SOL     OW30172   1.962   0.717   2.327
 9758SOL    HW130173   1.884   0.663   2.356
 9758SOL    HW230174   1.964   0.803   2.378
 9759SOL     OW30175   6.987   1.278   1.557
 9759SOL    HW130176   6.916   1.347   1.568
 9759SOL    HW230177   0.045   1.320   1.522
 9760SOL     OW30178   4.893   0.998   6.772
 9760SOL    HW130179   4.831   1.045   6.710
 9760SOL    HW230180   4.937   0.922   6.724
 9761SOL     OW30181   1.466   2.371   1.132
 9761SOL    HW130182   1.405   2.363   1.211
 9761SOL    HW230183   1.558   2.395   1.164
 9762SOL     OW30184   2.949   1.465   5.460
 9762SOL    HW130185   2.911   1.446   5.369
 9762SOL    HW230186   2.970   1.563   5.467
 9763SOL     OW30187   6.292   1.402   1.220
 9763SOL    HW130188   6.202   1.358   1.213
 9763SOL    HW230189   6.280   1.501   1.231
 9764SOL     OW30190   0.057   1.995   2.870
 9764SOL    HW130191   0.086   2.039   2.785
 9764SOL    HW230192   6.987   2.019   2.890
 9765SOL     OW30193   6.813   0.096   2.261
 9765SOL    HW130194   6.804   0.065   2.356
 9765SOL    HW230195   6.735   0.154   2.238
 9766SOL     OW30196   1.750   2.034   3.843
 9766SOL    HW130197   1.843   2.056   3.817
 9766SOL    HW230198   1.693   2.116   3.841
 9767SOL     OW30199   2.288   1.670   5.265
 9767SOL    HW130200   2.367   1.719   5.303
 9767SOL    HW230201   2.273   1.585   5.315
 9768SOL     OW30202   5.700   3.128   0.582
 9768SOL    HW130203   5.733   3.167   0.668
 9768SOL    HW230204   5.648   3.198   0.532
 9769SOL     OW30205   3.815   1.687   5.195
 9769SOL    HW130206   3.752   1.611   5.206
 9769SOL    HW230207   3.898   1.670   5.248
 9770SOL     OW30208   2.380   2.684   6.325
 9770SOL    HW130209   2.383   2.783   6.336
 9770SOL    HW230210   2.307   2.646   6.382
 9771SOL     OW30211   3.009   0.162   2.274
 9771SOL    HW130212   2.990   0.085   2.335
 9771SOL    HW230213   2.970   0.144   2.184
 9772SOL     OW30214   0.858   0.740   1.196
 9772SOL    HW130215   0.826   0.645   1.204
 9772SOL    HW230216   0.857   0.768   1.100
 9773SOL     OW30217   5.639   5.017   2.107
 9773SOL    HW130218   5.584   5.023   2.190
 9773SOL    HW230219   5.629   4.926   2.066
 9774SOL     OW30220   1.425   4.307   5.411
 9774SOL    HW130221   1.496   4.345   5.352
 9774SOL    HW230222   1.452   4.319   5.507
 9775SOL     OW30223   2.568   1.454   3.664
 9775SOL    HW130224   2.656   1.479   3.702
 9775SOL    HW230225   2.579   1.427   3.568
 9776SOL     OW30226   2.378   5.068   0.447
 9776SOL    HW130227   2.278   5.066   0.440
 9776SOL    HW230228   2.416   5.110   0.364
 9777SOL     OW30229   4.211   0.795   5.553
 9777SOL    HW130230   4.307   0.801   5.580
 9777SOL    HW230231   4.154   0.799   5.635
 9778SOL     OW30232   0.554   4.175   3.527
 9778SOL    HW130233   0.600   4.113   3.590
 9778SOL    HW230234   0.589   4.162   3.434
 9779SOL     OW30235   2.381   1.022   3.595
 9779SOL    HW130236   2.293   1.045   3.636
 9779SOL    HW230237   2.372   0.939   3.541
 9780SOL     OW30238   1.292   2.517   2.047
 9780SOL    HW130239   1.342   2.491   2.130
 9780SOL    HW230240   1.356   2.525   1.971
 9781SOL     OW30241   1.708   2.050   2.931
 9781SOL    HW130242   1.637   2.079   2.996
 9781SOL    HW230243   1.672   2.054   2.838
 9782SOL     OW30244   0.357   2.456   0.961
 9782SOL    HW130245   0.280   2.469   1.023
 9782SOL    HW230246   0.442   2.463   1.012
 9783SOL     OW30247   3.862   1.110   2.959
 9783SOL    HW130248   3.788   1.176   2.949
 9783SOL    HW230249   3.911   1.127   3.044
 9784SOL     OW30250   1.306   1.544   6.327
 9784SOL    HW130251   1.324   1.642   6.330
 9784SOL    HW230252   1.307   1.507   6.420
 9785SOL     OW30253   0.028   3.680   4.337
 9785SOL    HW130254   0.085   3.605   4.369
 9785SOL    HW230255   6.991   3.708   4.410
 9786SOL     OW30256   2.342   3.867   0.199
 9786SOL    HW130257   2.299   3.854   0.110
 9786SOL    HW230258   2.345   3.779   0.247
 9787SOL     OW30259   2.957   3.782   3.058
 9787SOL    HW130260   2.989   3.877   3.064
 9787SOL    HW230261   2.943   3.758   2.962
 9788SOL     OW30262   4.108   0.301   2.125
 9788SOL    HW130263   4.097   0.230   2.056
 9788SOL    HW230264   4.124   0.389   2.080
 9789SOL     OW30265   3.516   1.449   7.023
 9789SOL    HW130266   3.440   1.513   0.010
 9789SOL    HW230267   3.602   1.495   0.020
 9790SOL     OW30268   6.543   5.359   4.346
 9790SOL    HW130269   6.563   5.272   4.391
 9790SOL    HW230270   6.467   5.403   4.394
 9791SOL     OW30271   1.059   6.603   1.588
 9791SOL    HW130272   1.114   6.533   1.632
 9791SOL    HW230273   1.050   6.682   1.648
 9792SOL     OW30274   3.845   5.519   1.071
 9792SOL    HW130275   3.885   5.474   1.151
 9792SOL    HW230276   3.890   5.484   0.988
 9793SOL     OW30277   5.747   0.848   3.499
 9793SOL    HW130278   5.811   0.889   3.563
 9793SOL    HW230279   5.687   0.919   3.461
 9794SOL     OW30280   4.641   4.401   4.446
 9794SOL    HW130281   4.623   4.304   4.430
 9794SOL    HW230282   4.665   4.445   4.359
 9795SOL     OW30283   1.785   3.558   3.195
 9795SOL    HW130284   1.852   3.494   3.233
 9795SOL    HW230285   1.702   3.555   3.251
 9796SOL     OW30286   3.916   3.831   3.779
 9796SOL    HW130287   4.003   3.782   3.769
 9796SOL    HW230288   3.904   3.893   3.701
 9797SOL     OW30289   2.479   5.067   6.997
 9797SOL    HW130290   2.522   5.154   6.974
 9797SOL    HW230291   2.431   5.031   6.916
 9798SOL     OW30292   0.169   3.883   6.817
 9798SOL    HW130293   0.148   3.838   6.904
 9798SOL    HW230294   0.177   3.982   6.832
 9799SOL     OW30295   2.755   0.334   6.580
 9799SOL    HW130296   2.769   0.254   6.521
 9799SOL    HW230297   2.838   0.351   6.632
 9800SOL     OW30298   6.611   3.405   4.544
 9800SOL    HW130299   6.691   3.356   4.579
 9800SOL    HW230300   6.639   3.495   4.511
 9801SOL     OW30301   6.385   6.455   6.881
 9801SOL    HW130302   6.411   6.548   6.906
 9801SOL    HW230303   6.430   6.390   6.943
 9802SOL     OW30304   3.926   4.611   0.281
 9802SOL    HW130305   4.010   4.558   0.293
 9802SOL    HW230306   3.847   4.550   0.282
 9803SOL     OW30307   0.897   3.760   6.725
 9803SOL    HW130308   0.970   3.694   6.710
 9803SOL    HW230309   0.898   3.829   6.653
 9804SOL     OW30310   0.185   5.711   2.593
 9804SOL    HW130311   0.127   5.633   2.570
 9804SOL    HW230312   0.138   5.796   2.569
 9805SOL     OW30313   0.834   5.904   4.175
 9805SOL    HW130314   0.747   5.886   4.220
 9805SOL    HW230315   0.844   5.842   4.097
 9806SOL     OW30316   4.003   1.625   0.203
 9806SOL    HW130317   3.927   1.597   0.144
 9806SOL    HW230318   3.968   1.679   0.280
 9807SOL     OW30319   3.684   3.243   2.060
 9807SOL    HW130320   3.607   3.231   2.123
 9807SOL    HW230321   3.729   3.155   2.045
 9808SOL     OW30322   4.187   5.626   2.745
 9808SOL    HW130323   4.162   5.723   2.739
 9808SOL    HW230324   4.139   5.584   2.822
 9809SOL     OW30325   0.012   3.285   0.790
 9809SOL    HW130326   0.098   3.254   0.830
 9809SOL    HW230327   6.985   3.206   0.756
 9810SOL     OW30328   2.944   2.192   0.343
 9810SOL    HW130329   2.944   2.244   0.257
 9810SOL    HW230330   3.034   2.199   0.385
 9811SOL     OW30331   5.809   3.426   4.642
 9811SOL    HW130332   5.811   3.397   4.738
 9811SOL    HW230333   5.806   3.525   4.637
 9812SOL     OW30334   3.841   6.117   5.693
 9812SOL    HW130335   3.915   6.168   5.737
 9812SOL    HW230336   3.761   6.176   5.682
 9813SOL     OW30337   5.299   1.303   1.550
 9813SOL    HW130338   5.311   1.402   1.552
 9813SOL    HW230339   5.204   1.280   1.571
 9814SOL     OW30340   5.701   1.424   0.113
 9814SOL    HW130341   5.686   1.520   0.087
 9814SOL    HW230342   5.787   1.392   0.073
 9815SOL     OW30343   4.363   2.451   4.374
 9815SOL    HW130344   4.351   2.353   4.389
 9815SOL    HW230345   4.368   2.470   4.276
 9816SOL     OW30346   2.337   0.037   0.281
 9816SOL    HW130347   2.331   6.964   0.303
 9816SOL    HW230348   2.327   0.050   0.183
 9817SOL     OW30349   6.574   6.823   2.586
 9817SOL    HW130350   6.565   6.829   2.486
 9817SOL    HW230351   6.533   6.738   2.618
 9818SOL     OW30352   6.080   2.788   4.442
 9818SOL    HW130353   6.135   2.863   4.478
 9818SOL    HW230354   5.985   2.817   4.434
 9819SOL     OW30355   3.994   0.773   2.647
 9819SOL    HW130356   3.933   0.700   2.679
 9819SOL    HW230357   4.019   0.832   2.723
 9820SOL     OW30358   4.609   3.103   5.609
 9820SOL    HW130359   4.538   3.093   5.538
 9820SOL    HW230360   4.589   3.042   5.685
 9821SOL     OW30361   6.400   5.264   0.541
 9821SOL    HW130362   6.419   5.242   0.637
 9821SOL    HW230363   6.354   5.353   0.536
 9822SOL     OW30364   0.714   6.807   2.587
 9822SOL    HW130365   0.705   6.715   2.625
 9822SOL    HW230366   0.660   6.871   2.640
 9823SOL     OW30367   3.146   1.160   1.680
 9823SOL    HW130368   3.174   1.090   1.615
 9823SOL    HW230369   3.090   1.229   1.633
 9824SOL     OW30370   1.252   3.743   6.159
 9824SOL    HW130371   1.241   3.819   6.095
 9824SOL    HW230372   1.242   3.776   6.253
 9825SOL     OW30373   4.041   4.902   5.085
 9825SOL    HW130374   3.997   4.977   5.133
 9825SOL    HW230375   4.049   4.823   5.146
 9826SOL     OW30376   4.403   0.645   5.834
 9826SOL    HW130377   4.390   0.742   5.852
 9826SOL    HW230378   4.499   0.627   5.812
 9827SOL     OW30379   1.498   4.027   4.605
 9827SOL    HW130380   1.583   3.977   4.588
 9827SOL    HW230381   1.495   4.055   4.701
 9828SOL     OW30382   3.555   2.685   6.448
 9828SOL    HW130383   3.537   2.620   6.522
 9828SOL    HW230384   3.632   2.744   6.472
 9829SOL     OW30385   3.108   4.884   0.365
 9829SOL    HW130386   3.078   4.886   0.461
 9829SOL    HW230387   3.165   4.804   0.349
 9830SOL     OW30388   5.825   1.019   1.022
 9830SOL    HW130389   5.797   0.963   0.943
 9830SOL    HW230390   5.783   1.110   1.014
 9831SOL     OW30391   6.015   6.290   1.385
 9831SOL    HW130392   6.080   6.299   1.461
 9831SOL    HW230393   5.942   6.358   1.395
 9832SOL     OW30394   4.641   4.905   1.211
 9832SOL    HW130395   4.571   4.880   1.144
 9832SOL    HW230396   4.611   4.984   1.263
 9833SOL     OW30397   3.725   3.787   5.070
 9833SOL    HW130398   3.671   3.870   5.078
 9833SOL    HW230399   3.803   3.803   5.010
 9834SOL     OW30400   0.585   3.551   4.267
 9834SOL    HW130401   0.603   3.590   4.357
 9834SOL    HW230402   0.515   3.605   4.221
 9835SOL     OW30403   4.781   2.215   4.156
 9835SOL    HW130404   4.812   2.309   4.141
 9835SOL    HW230405   4.682   2.210   4.145
 9836SOL     OW30406   5.063   5.374   2.922
 9836SOL    HW130407   5.132   5.392   2.992
 9836SOL    HW230408   4.973   5.400   2.956
 9837SOL     OW30409   2.394   6.128   4.257
 9837SOL    HW130410   2.485   6.165   4.241
 9837SOL    HW230411   2.356   6.169   4.340
 9838SOL     OW30412   1.206   5.665   6.128
 9838SOL    HW130413   1.182   5.699   6.037
 9838SOL    HW230414   1.214   5.565   6.124
 9839SOL     OW30415   7.022   2.081   1.680
 9839SOL    HW130416   6.940   2.030   1.708
 9839SOL    HW230417   0.078   2.035   1.715
 9840SOL     OW30418   6.683   0.625   1.221
 9840SOL    HW130419   6.782   0.622   1.206
 9840SOL    HW230420   6.649   0.718   1.204
 9841SOL     OW30421   1.539   3.567   4.528
 9841SOL    HW130422   1.463   3.630   4.544
 9841SOL    HW230423   1.568   3.574   4.433
 9842SOL     OW30424   3.334   2.963   2.115
 9842SOL    HW130425   3.259   2.951   2.180
 9842SOL    HW230426   3.419   2.976   2.165
 9843SOL     OW30427   6.840   2.614   2.212
 9843SOL    HW130428   6.851   2.540   2.145
 9843SOL    HW230429   6.859   2.702   2.168
 9844SOL     OW30430   5.109   0.242   2.413
 9844SOL    HW130431   5.113   0.333   2.373
 9844SOL    HW230432   5.029   0.234   2.472
 9845SOL     OW30433   1.405   1.985   3.397
 9845SOL    HW130434   1.435   2.050   3.466
 9845SOL    HW230435   1.407   1.892   3.435
 9846SOL     OW30436   2.965   3.303   2.767
 9846SOL    HW130437   2.915   3.329   2.850
 9846SOL    HW230438   2.911   3.330   2.687
 9847SOL     OW30439   2.102   3.734   5.980
 9847SOL    HW130440   2.080   3.826   5.948
 9847SOL    HW230441   2.198   3.732   6.010
 9848SOL     OW30442   4.911   3.199   6.448
 9848SOL    HW130443   4.879   3.288   6.414
 9848SOL    HW230444   4.833   3.137   6.455
 9849SOL     OW30445   6.965   6.663   6.341
 9849SOL    HW130446   6.928   6.575   6.370
 9849SOL    HW230447   6.987   6.660   6.244
 9850SOL     OW30448   3.796   5.960   2.737
 9850SOL    HW130449   3.794   5.912   2.649
 9850SOL    HW230450   3.801   6.059   2.721
 9851SOL     OW30451   5.414   1.471   5.260
 9851SOL    HW130452   5.457   1.456   5.171
 9851SOL    HW230453   5.328   1.520   5.247
 9852SOL     OW30454   4.964   1.812   3.810
 9852SOL    HW130455   4.956   1.713   3.797
 9852SOL    HW230456   4.873   1.854   3.809
 9853SOL     OW30457   6.186   3.979   2.673
 9853SOL    HW130458   6.122   3.999   2.747
 9853SOL    HW230459   6.140   3.990   2.585
 9854SOL     OW30460   5.334   5.459   4.135
 9854SOL    HW130461   5.320   5.381   4.195
 9854SOL    HW230462   5.273   5.451   4.056
 9855SOL     OW30463   1.485   3.451   1.577
 9855SOL    HW130464   1.402   3.484   1.623
 9855SOL    HW230465   1.469   3.445   1.479
 9856SOL     OW30466   4.058   2.948   0.777
 9856SOL    HW130467   4.144   2.927   0.823
 9856SOL    HW230468   4.066   2.925   0.679
 9857SOL     OW30469   5.709   3.373   3.127
 9857SOL    HW130470   5.612   3.393   3.117
 9857SOL    HW230471   5.748   3.348   3.038
 9858SOL     OW30472   5.516   0.874   1.766
 9858SOL    HW130473   5.595   0.922   1.730
 9858SOL    HW230474   5.438   0.888   1.705
 9859SOL     OW30475   6.113   0.496   2.379
 9859SOL    HW130476   6.183   0.565   2.394
 9859SOL    HW230477   6.119   0.462   2.285
 9860SOL     OW30478   0.436   1.131   2.431
 9860SOL    HW130479   0.502   1.159   2.500
 9860SOL    HW230480   0.483   1.090   2.353
 9861SOL     OW30481   3.901   5.852   4.584
 9861SOL    HW130482   3.900   5.761   4.626
 9861SOL    HW230483   3.830   5.909   4.625
 9862SOL     OW30484   1.355   2.349   0.746
 9862SOL    HW130485   1.358   2.387   0.654
 9862SOL    HW230486   1.435   2.381   0.797
 9863SOL     OW30487   3.610   0.232   2.750
 9863SOL    HW130488   3.651   0.240   2.659
 9863SOL    HW230489   3.638   0.145   2.792
 9864SOL     OW30490   5.300   6.223   2.428
 9864SOL    HW130491   5.204   6.199   2.442
 9864SOL    HW230492   5.320   6.225   2.330
 9865SOL     OW30493   0.404   0.316   3.852
 9865SOL    HW130494   0.497   0.346   3.876
 9865SOL    HW230495   0.404   0.280   3.759
 9866SOL     OW30496   4.822   3.925   4.035
 9866SOL    HW130497   4.790   3.980   3.958
 9866SOL    HW230498   4.917   3.948   4.056
 9867SOL     OW30499   4.788   1.102   0.230
 9867SOL    HW130500   4.785   1.116   0.131
 9867SOL    HW230501   4.850   1.026   0.252
 9868SOL     OW30502   6.993   4.602   0.333
 9868SOL    HW130503   6.961   4.508   0.333
 9868SOL    HW230504   0.015   4.621   0.246
 9869SOL     OW30505   1.729   4.403   3.054
 9869SOL    HW130506   1.781   4.356   3.124
 9869SOL    HW230507   1.755   4.369   2.964
 9870SOL     OW30508   4.934   4.913   2.802
 9870SOL    HW130509   4.904   5.004   2.773
 9870SOL    HW230510   4.857   4.849   2.794
 9871SOL     OW30511   2.505   0.772   5.514
 9871SOL    HW130512   2.416   0.809   5.487
 9871SOL    HW230513   2.553   0.839   5.570
 9872SOL     OW30514   2.945   4.784   3.457
 9872SOL    HW130515   2.922   4.727   3.536
 9872SOL    HW230516   3.044   4.791   3.449
 9873SOL     OW30517   1.283   2.884   0.312
 9873SOL    HW130518   1.310   2.837   0.397
 9873SOL    HW230519   1.184   2.886   0.305
 9874SOL     OW30520   0.841   3.212   3.516
 9874SOL    HW130521   0.882   3.266   3.589
 9874SOL    HW230522   0.905   3.141   3.487
 9875SOL     OW30523   0.360   0.666   2.722
 9875SOL    HW130524   0.333   0.744   2.664
 9875SOL    HW230525   0.320   0.582   2.685
 9876SOL     OW30526   6.532   6.812   2.329
 9876SOL    HW130527   6.473   6.761   2.265
 9876SOL    HW230528   6.623   6.822   2.289
 9877SOL     OW30529   3.149   6.690   2.934
 9877SOL    HW130530   3.139   6.786   2.911
 9877SOL    HW230531   3.169   6.637   2.852
 9878SOL     OW30532   1.139   5.952   5.663
 9878SOL    HW130533   1.216   5.892   5.688
 9878SOL    HW230534   1.107   5.927   5.572
 9879SOL     OW30535   4.090   5.498   5.512
 9879SOL    HW130536   4.105   5.407   5.475
 9879SOL    HW230537   4.147   5.564   5.463
 9880SOL     OW30538   1.174   1.950   5.812
 9880SOL    HW130539   1.152   1.859   5.846
 9880SOL    HW230540   1.212   2.006   5.886
 9881SOL     OW30541   0.541   2.551   5.794
 9881SOL    HW130542   0.500   2.471   5.837
 9881SOL    HW230543   0.481   2.630   5.806
 9882SOL     OW30544   1.062   2.147   4.101
 9882SOL    HW130545   1.124   2.213   4.143
 9882SOL    HW230546   1.114   2.072   4.061
 9883SOL     OW30547   1.554   0.814   2.236
 9883SOL    HW130548   1.611   0.733   2.222
 9883SOL    HW230549   1.526   0.851   2.147
 9884SOL     OW30550   4.121   0.531   3.904
 9884SOL    HW130551   4.213   0.558   3.875
 9884SOL    HW230552   4.055   0.602   3.877
 9885SOL     OW30553   5.649   4.818   4.570
 9885SOL    HW130554   5.717   4.748   4.592
 9885SOL    HW230555   5.648   4.888   4.641
 9886SOL     OW30556   1.057   5.014   2.917
 9886SOL    HW130557   1.078   5.016   2.819
 9886SOL    HW230558   0.959   5.002   2.930
 9887SOL     OW30559   3.312   1.291   0.200
 9887SOL    HW130560   3.399   1.300   0.151
 9887SOL    HW230561   3.298   1.370   0.259
 9888SOL     OW30562   6.918   4.344   0.292
 9888SOL    HW130563   7.005   4.297   0.283
 9888SOL    HW230564   6.860   4.295   0.357
 9889SOL     OW30565   6.096   4.729   0.562
 9889SOL    HW130566   6.004   4.692   0.547
 9889SOL    HW230567   6.091   4.801   0.631
 9890SOL     OW30568   1.412   2.784   1.510
 9890SOL    HW130569   1.355   2.807   1.431
 9890SOL    HW230570   1.448   2.691   1.500
 9891SOL     OW30571   5.657   2.648   0.263
 9891SOL    HW130572   5.569   2.695   0.262
 9891SOL    HW230573   5.726   2.705   0.308
 9892SOL     OW30574   6.681   4.681   0.116
 9892SOL    HW130575   6.715   4.750   0.180
 9892SOL    HW230576   6.581   4.677   0.123
 9893SOL     OW30577   2.158   1.260   1.026
 9893SOL    HW130578   2.126   1.265   1.121
 9893SOL    HW230579   2.079   1.262   0.964
 9894SOL     OW30580   1.010   1.938   0.416
 9894SOL    HW130581   1.037   1.876   0.489
 9894SOL    HW230582   0.967   2.019   0.456
 9895SOL     OW30583   5.647   3.361   5.418
 9895SOL    HW130584   5.647   3.298   5.341
 9895SOL    HW230585   5.640   3.310   5.504
 9896SOL     OW30586   6.936   0.171   0.059
 9896SOL    HW130587   6.917   0.181   6.987
 9896SOL    HW230588   6.850   0.154   0.108
 9897SOL     OW30589   5.743   5.119   2.863
 9897SOL    HW130590   5.686   5.186   2.817
 9897SOL    HW230591   5.686   5.060   2.921
 9898SOL     OW30592   3.096   5.968   5.780
 9898SOL    HW130593   3.147   5.904   5.837
 9898SOL    HW230594   3.144   5.980   5.693
 9899SOL     OW30595   0.320   5.325   0.253
 9899SOL    HW130596   0.257   5.338   0.177
 9899SOL    HW230597   0.411   5.303   0.218
 9900SOL     OW30598   2.038   4.240   3.662
 9900SOL    HW130599   2.050   4.276   3.569
 9900SOL    HW230600   1.977   4.300   3.713
 9901SOL     OW30601   2.761   2.465   5.430
 9901SOL    HW130602   2.795   2.393   5.490
 9901SOL    HW230603   2.661   2.464   5.429
 9902SOL     OW30604   2.093   4.605   6.627
 9902SOL    HW130605   2.033   4.528   6.648
 9902SOL    HW230606   2.077   4.635   6.533
 9903SOL     OW30607   5.501   1.344   3.612
 9903SOL    HW130608   5.594   1.308   3.610
 9903SOL    HW230609   5.493   1.419   3.546
 9904SOL     OW30610   6.874   3.471   6.876
 9904SOL    HW130611   6.852   3.449   6.781
 9904SOL    HW230612   6.969   3.444   6.896
 9905SOL     OW30613   3.970   1.521   0.654
 9905SOL    HW130614   3.884   1.561   0.621
 9905SOL    HW230615   4.027   1.497   0.576
 9906SOL     OW30616   3.826   2.984   2.830
 9906SOL    HW130617   3.901   3.033   2.785
 9906SOL    HW230618   3.776   2.930   2.762
 9907SOL     OW30619   6.999   0.738   2.210
 9907SOL    HW130620   0.025   0.808   2.160
 9907SOL    HW230621   0.011   0.648   2.189
 9908SOL     OW30622   4.569   2.476   2.911
 9908SOL    HW130623   4.601   2.454   2.819
 9908SOL    HW230624   4.614   2.560   2.943
 9909SOL     OW30625   2.602   6.259   4.150
 9909SOL    HW130626   2.589   6.228   4.056
 9909SOL    HW230627   2.665   6.337   4.151
 9910SOL     OW30628   0.766   4.925   2.659
 9910SOL    HW130629   0.711   4.886   2.585
 9910SOL    HW230630   0.814   4.851   2.706
 9911SOL     OW30631   3.727   6.671   2.136
 9911SOL    HW130632   3.804   6.724   2.172
 9911SOL    HW230633   3.644   6.727   2.140
 9912SOL     OW30634   4.840   1.772   0.189
 9912SOL    HW130635   4.837   1.700   0.259
 9912SOL    HW230636   4.934   1.782   0.156
 9913SOL     OW30637   5.806   2.828   0.404
 9913SOL    HW130638   5.801   2.923   0.373
 9913SOL    HW230639   5.896   2.791   0.384
 9914SOL     OW30640   0.895   2.717   4.707
 9914SOL    HW130641   0.916   2.649   4.637
 9914SOL    HW230642   0.812   2.766   4.682
 9915SOL     OW30643   5.073   1.278   3.530
 9915SOL    HW130644   5.000   1.281   3.599
 9915SOL    HW230645   5.128   1.196   3.543
 9916SOL     OW30646   2.057   2.579   2.176
 9916SOL    HW130647   2.040   2.623   2.088
 9916SOL    HW230648   2.083   2.648   2.243
 9917SOL     OW30649   7.014   4.307   6.070
 9917SOL    HW130650   0.004   4.280   5.975
 9917SOL    HW230651   6.921   4.343   6.080
 9918SOL     OW30652   4.045   1.122   3.183
 9918SOL    HW130653   4.077   1.216   3.176
 9918SOL    HW230654   4.098   1.074   3.254
 9919SOL     OW30655   5.984   6.498   1.563
 9919SOL    HW130656   5.990   6.448   1.650
 9919SOL    HW230657   6.022   6.590   1.574
 9920SOL     OW30658   4.643   1.648   2.724
 9920SOL    HW130659   4.676   1.743   2.725
 9920SOL    HW230660   4.706   1.592   2.672
 9921SOL     OW30661   4.163   5.548   6.278
 9921SOL    HW130662   4.065   5.530   6.281
 9921SOL    HW230663   4.209   5.497   6.351
 9922SOL     OW30664   0.854   5.948   0.598
 9922SOL    HW130665   0.850   5.956   0.499
 9922SOL    HW230666   0.928   6.004   0.634
 9923SOL     OW30667   4.647   5.276   0.045
 9923SOL    HW130668   4.596   5.191   0.048
 9923SOL    HW230669   4.733   5.262   7.022
 9924SOL     OW30670   0.275   3.104   4.838
 9924SOL    HW130671   0.204   3.111   4.767
 9924SOL    HW230672   0.233   3.120   4.927
 9925SOL     OW30673   5.136   2.633   4.232
 9925SOL    HW130674   5.069   2.599   4.298
 9925SOL    HW230675   5.164   2.725   4.257
 9926SOL     OW30676   2.245   3.966   6.928
 9926SOL    HW130677   2.231   3.988   6.832
 9926SOL    HW230678   2.191   3.885   6.952
 9927SOL     OW30679   5.889   0.198   2.750
 9927SOL    HW130680   5.871   0.101   2.738
 9927SOL    HW230681   5.888   0.222   2.847
 9928SOL     OW30682   5.115   4.887   1.231
 9928SOL    HW130683   5.206   4.880   1.189
 9928SOL    HW230684   5.125   4.891   1.330
 9929SOL     OW30685   2.073   5.562   5.060
 9929SOL    HW130686   2.099   5.505   5.138
 9929SOL    HW230687   2.110   5.522   4.976
 9930SOL     OW30688   6.874   0.046   4.707
 9930SOL    HW130689   6.805   0.032   4.636
 9930SOL    HW230690   6.965   0.038   4.666
 9931SOL     OW30691   1.292   3.865   5.169
 9931SOL    HW130692   1.324   3.959   5.175
 9931SOL    HW230693   1.331   3.811   5.244
 9932SOL     OW30694   1.279   6.622   6.586
 9932SOL    HW130695   1.251   6.533   6.623
 9932SOL    HW230696   1.207   6.658   6.526
 9933SOL     OW30697   1.465   5.588   2.368
 9933SOL    HW130698   1.465   5.688   2.367
 9933SOL    HW230699   1.497   5.555   2.456
 9934SOL     OW30700   6.097   2.141   5.468
 9934SOL    HW130701   6.026   2.074   5.486
 9934SOL    HW230702   6.082   2.183   5.378
 9935SOL     OW30703   2.440   0.984   6.683
 9935SOL    HW130704   2.399   1.051   6.744
 9935SOL    HW230705   2.509   1.028   6.626
 9936SOL     OW30706   0.731   4.787   4.624
 9936SOL    HW130707   0.786   4.734   4.559
 9936SOL    HW230708   0.692   4.866   4.577
 9937SOL     OW30709   6.792   2.077   5.763
 9937SOL    HW130710   6.705   2.028   5.773
 9937SOL    HW230711   6.782   2.171   5.798
 9938SOL     OW30712   6.792   6.064   2.695
 9938SOL    HW130713   6.695   6.078   2.718
 9938SOL    HW230714   6.847   6.129   2.747
 9939SOL     OW30715   3.520   2.889   1.230
 9939SOL    HW130716   3.505   2.834   1.312
 9939SOL    HW230717   3.471   2.848   1.153
 9940SOL     OW30718   6.861   0.833   1.007
 9940SOL    HW130719   6.894   0.743   0.978
 9940SOL    HW230720   6.932   0.879   1.060
 9941SOL     OW30721   2.845   4.366   5.574
 9941SOL    HW130722   2.808   4.335   5.486
 9941SOL    HW230723   2.867   4.463   5.568
 9942SOL     OW30724   2.193   5.664   2.702
 9942SOL    HW130725   2.225   5.736   2.641
 9942SOL    HW230726   2.262   5.592   2.708
 9943SOL     OW30727   0.735   5.711   5.655
 9943SOL    HW130728   0.649   5.660   5.647
 9943SOL    HW230729   0.717   5.808   5.641
 9944SOL     OW30730   1.339   4.203   6.980
 9944SOL    HW130731   1.241   4.184   6.983
 9944SOL    HW230732   1.382   4.145   6.911
 9945SOL     OW30733   0.177   5.364   0.028
 9945SOL    HW130734   0.110   5.438   0.023
 9945SOL    HW230735   0.132   5.276   0.011
 9946SOL     OW30736   5.014   0.615   4.773
 9946SOL    HW130737   5.018   0.579   4.866
 9946SOL    HW230738   4.985   0.711   4.776
 9947SOL     OW30739   6.376   5.027   5.349
 9947SOL    HW130740   6.450   4.985   5.401
 9947SOL    HW230741   6.289   4.987   5.378
 9948SOL     OW30742   4.840   4.299   4.743
 9948SOL    HW130743   4.741   4.309   4.755
 9948SOL    HW230744   4.861   4.294   4.646
 9949SOL     OW30745   5.716   4.790   3.158
 9949SOL    HW130746   5.816   4.797   3.169
 9949SOL    HW230747   5.682   4.872   3.111
 9950SOL     OW30748   4.566   6.069   5.105
 9950SOL    HW130749   4.557   5.998   5.175
 9950SOL    HW230750   4.610   6.030   5.023
 9951SOL     OW30751   5.511   2.699   3.055
 9951SOL    HW130752   5.411   2.698   3.046
 9951SOL    HW230753   5.537   2.645   3.136
 9952SOL     OW30754   6.785   4.239   0.596
 9952SOL    HW130755   6.859   4.197   0.542
 9952SOL    HW230756   6.720   4.169   0.623
 9953SOL     OW30757   6.187   1.953   3.551
 9953SOL    HW130758   6.194   1.925   3.455
 9953SOL    HW230759   6.182   2.053   3.556
 9954SOL     OW30760   6.038   7.000   5.286
 9954SOL    HW130761   5.986   6.923   5.252
 9954SOL    HW230762   5.986   0.022   5.358
 9955SOL     OW30763   6.759   4.259   4.201
 9955SOL    HW130764   6.719   4.320   4.269
 9955SOL    HW230765   6.821   4.311   4.142
 9956SOL     OW30766   2.244   6.348   2.241
 9956SOL    HW130767   2.284   6.437   2.262
 9956SOL    HW230768   2.144   6.354   2.248
 9957SOL     OW30769   6.608   5.120   3.509
 9957SOL    HW130770   6.521   5.115   3.558
 9957SOL    HW230771   6.602   5.191   3.438
 9958SOL     OW30772   2.819   3.910   0.845
 9958SOL    HW130773   2.878   3.835   0.874
 9958SOL    HW230774   2.841   3.992   0.897
 9959SOL     OW30775   3.937   3.366   6.210
 9959SOL    HW130776   3.971   3.451   6.168
 9959SOL    HW230777   3.901   3.386   6.301
 9960SOL     OW30778   6.773   1.245   2.356
 9960SOL    HW130779   6.766   1.265   2.454
 9960SOL    HW230780   6.695   1.286   2.308
 9961SOL     OW30781   1.721   5.642   4.145
 9961SOL    HW130782   1.787   5.645   4.220
 9961SOL    HW230783   1.769   5.636   4.057
 9962SOL     OW30784   4.675   5.989   4.855
 9962SOL    HW130785   4.746   5.946   4.800
 9962SOL    HW230786   4.672   6.087   4.835
 9963SOL     OW30787   3.341   1.536   0.858
 9963SOL    HW130788   3.278   1.546   0.935
 9963SOL    HW230789   3.381   1.444   0.860
 9964SOL     OW30790   4.192   5.781   4.816
 9964SOL    HW130791   4.096   5.806   4.828
 9964SOL    HW230792   4.210   5.696   4.865
 9965SOL     OW30793   4.405   0.223   0.047
 9965SOL    HW130794   4.476   0.238   0.116
 9965SOL    HW230795   4.334   0.163   0.085
 9966SOL     OW30796   0.565   5.725   2.005
 9966SOL    HW130797   0.534   5.784   2.080
 9966SOL    HW230798   0.661   5.701   2.020
 9967SOL     OW30799   1.555   5.521   1.931
 9967SOL    HW130800   1.629   5.530   1.864
 9967SOL    HW230801   1.473   5.486   1.885
 9968SOL     OW30802   3.886   3.677   2.111
 9968SOL    HW130803   3.859   3.766   2.147
 9968SOL    HW230804   3.805   3.618   2.104
 9969SOL     OW30805   1.626   3.696   2.298
 9969SOL    HW130806   1.573   3.678   2.381
 9969SOL    HW230807   1.607   3.626   2.230
 9970SOL     OW30808   5.811   4.330   1.929
 9970SOL    HW130809   5.833   4.238   1.958
 9970SOL    HW230810   5.718   4.353   1.959
 9971SOL     OW30811   2.314   4.103   0.513
 9971SOL    HW130812   2.238   4.085   0.451
 9971SOL    HW230813   2.295   4.059   0.601
 9972SOL     OW30814   7.023   4.821   2.490
 9972SOL    HW130815   6.983   4.881   2.421
 9972SOL    HW230816   0.030   4.737   2.446
 9973SOL     OW30817   5.914   1.050   4.230
 9973SOL    HW130818   5.865   0.977   4.181
 9973SOL    HW230819   5.929   1.022   4.325
 9974SOL     OW30820   1.611   0.753   3.901
 9974SOL    HW130821   1.703   0.757   3.940
 9974SOL    HW230822   1.565   0.841   3.914
 9975SOL     OW30823   0.018   2.580   6.983
 9975SOL    HW130824   0.016   2.634   6.899
 9975SOL    HW230825   6.960   2.598   0.010
 9976SOL     OW30826   1.509   6.978   5.095
 9976SOL    HW130827   1.479   0.047   5.105
 9976SOL    HW230828   1.485   6.926   5.177
 9977SOL     OW30829   6.102   4.278   4.853
 9977SOL    HW130830   6.071   4.308   4.762
 9977SOL    HW230831   6.183   4.330   4.879
 9978SOL     OW30832   0.134   2.074   3.870
 9978SOL    HW130833   0.224   2.034   3.889
 9978SOL    HW230834   0.146   2.167   3.835
 9979SOL     OW30835   6.263   3.279   4.596
 9979SOL    HW130836   6.327   3.203   4.587
 9979SOL    HW230837   6.285   3.348   4.527
 9980SOL     OW30838   3.570   0.723   6.534
 9980SOL    HW130839   3.570   0.797   6.467
 9980SOL    HW230840   3.493   0.736   6.597
 9981SOL     OW30841   3.052   1.896   4.273
 9981SOL    HW130842   3.099   1.933   4.193
 9981SOL    HW230843   3.011   1.807   4.250
 9982SOL     OW30844   6.796   6.071   3.983
 9982SOL    HW130845   6.889   6.077   4.020
 9982SOL    HW230846   6.772   6.158   3.940
 9983SOL     OW30847   7.009   1.568   2.219
 9983SOL    HW130848   0.013   1.546   2.126
 9983SOL    HW230849   0.005   1.664   2.239
 9984SOL     OW30850   2.696   1.633   6.633
 9984SOL    HW130851   2.667   1.657   6.725
 9984SOL    HW230852   2.668   1.704   6.569
 9985SOL     OW30853   1.387   1.054   2.161
 9985SOL    HW130854   1.331   0.985   2.116
 9985SOL    HW230855   1.441   1.104   2.092
 9986SOL     OW30856   5.606   3.862   5.171
 9986SOL    HW130857   5.663   3.867   5.089
 9986SOL    HW230858   5.654   3.810   5.242
 9987SOL     OW30859   6.782   4.115   5.775
 9987SOL    HW130860   6.783   4.188   5.706
 9987SOL    HW230861   6.815   4.030   5.733
 9988SOL     OW30862   6.834   0.250   5.149
 9988SOL    HW130863   6.913   0.264   5.208
 9988SOL    HW230864   6.858   0.271   5.055
 9989SOL     OW30865   0.650   3.247   5.219
 9989SOL    HW130866   0.721   3.245   5.148
 9989SOL    HW230867   0.618   3.340   5.232
 9990SOL     OW30868   1.159   5.037   3.180
 9990SOL    HW130869   1.075   5.068   3.224
 9990SOL    HW230870   1.155   5.058   3.082
 9991SOL     OW30871   3.165   1.921   3.863
 9991SOL    HW130872   3.168   1.982   3.942
 9991SOL    HW230873   3.070   1.901   3.840
 9992SOL     OW30874   6.300   5.697   5.898
 9992SOL    HW130875   6.227   5.629   5.902
 9992SOL    HW230876   6.285   5.759   5.821
 9993SOL     OW30877   1.077   1.622   2.105
 9993SOL    HW130878   1.152   1.556   2.107
 9993SOL    HW230879   1.037   1.625   2.014
 9994SOL     OW30880   6.107   4.884   3.282
 9994SOL    HW130881   6.041   4.808   3.290
 9994SOL    HW230882   6.072   4.963   3.332
 9995SOL     OW30883   5.786   0.539   4.566
 9995SOL    HW130884   5.700   0.495   4.540
 9995SOL    HW230885   5.845   0.548   4.486
 9996SOL     OW30886   3.259   4.316   6.942
 9996SOL    HW130887   3.176   4.283   6.898
 9996SOL    HW230888   3.243   4.408   6.979
 9997SOL     OW30889   2.554   0.078   5.436
 9997SOL    HW130890   2.629   0.059   5.373
 9997SOL    HW230891   2.528   7.020   5.484
 9998SOL     OW30892   5.783   5.882   5.555
 9998SOL    HW130893   5.685   5.869   5.570
 9998SOL    HW230894   5.826   5.909   5.641
 9999SOL     OW30895   6.691   2.379   5.025
 9999SOL    HW130896   6.783   2.413   5.045
 9999SOL    HW230897   6.697   2.289   4.982
10000SOL     OW30898   0.443   2.654   6.426
10000SOL    HW130899   0.425   2.606   6.340
10000SOL    HW230900   0.540   2.647   6.449
10001SOL     OW30901   4.254   0.607   2.668
10001SOL    HW130902   4.201   0.582   2.587
10001SOL    HW230903   4.242   0.704   2.686
10002SOL     OW30904   0.721   0.869   1.985
10002SOL    HW130905   0.812   0.830   1.973
10002SOL    HW230906   0.685   0.843   2.075
10003SOL     OW30907   3.933   2.168   3.543
10003SOL    HW130908   3.853   2.203   3.592
10003SOL    HW230909   3.908   2.150   3.448
10004SOL     OW30910   6.810   1.948   2.918
10004SOL    HW130911   6.812   1.967   3.017
10004SOL    HW230912   6.742   1.878   2.899
10005SOL     OW30913   5.125   6.794   4.167
10005SOL    HW130914   5.087   6.828   4.081
10005SOL    HW230915   5.085   6.846   4.243
10006SOL     OW30916   3.663   6.463   4.793
10006SOL    HW130917   3.691   6.415   4.876
10006SOL    HW230918   3.572   6.434   4.766
10007SOL     OW30919   0.021   3.548   3.723
10007SOL    HW130920   6.966   3.606   3.732
10007SOL    HW230921   0.101   3.594   3.761
10008SOL     OW30922   2.663   6.978   4.128
10008SOL    HW130923   2.756   7.010   4.113
10008SOL    HW230924   2.644   6.900   4.069
10009SOL     OW30925   1.365   4.323   1.853
10009SOL    HW130926   1.311   4.273   1.921
10009SOL    HW230927   1.460   4.294   1.859
10010SOL     OW30928   0.873   1.331   5.976
10010SOL    HW130929   0.902   1.304   6.068
10010SOL    HW230930   0.774   1.338   5.972
10011SOL     OW30931   0.248   6.585   5.424
10011SOL    HW130932   0.272   6.557   5.331
10011SOL    HW230933   0.175   6.526   5.459
10012SOL     OW30934   6.102   1.196   3.858
10012SOL    HW130935   6.067   1.105   3.882
10012SOL    HW230936   6.034   1.266   3.882
10013SOL     OW30937   0.791   0.864   2.521
10013SOL    HW130938   0.788   0.803   2.600
10013SOL    HW230939   0.722   0.935   2.531
10014SOL     OW30940   0.736   4.710   6.184
10014SOL    HW130941   0.824   4.665   6.165
10014SOL    HW230942   0.702   4.679   6.272
10015SOL     OW30943   2.084   4.111   0.342
10015SOL    HW130944   1.999   4.062   0.363
10015SOL    HW230945   2.092   4.122   0.243
10016SOL     OW30946   2.635   0.967   5.733
10016SOL    HW130947   2.647   0.915   5.817
10016SOL    HW230948   2.712   0.951   5.671
10017SOL     OW30949   1.572   2.248   4.451
10017SOL    HW130950   1.566   2.347   4.469
10017SOL    HW230951   1.643   2.209   4.510
10018SOL     OW30952   5.092   0.141   6.021
10018SOL    HW130953   5.157   0.115   5.948
10018SOL    HW230954   5.026   0.067   6.034
10019SOL     OW30955   0.666   1.291   2.810
10019SOL    HW130956   0.724   1.370   2.830
10019SOL    HW230957   0.646   1.242   2.895
10020SOL     OW30958   0.494   2.878   1.168
10020SOL    HW130959   0.477   2.977   1.164
10020SOL    HW230960   0.419   2.830   1.123
10021SOL     OW30961   0.300   3.727   0.527
10021SOL    HW130962   0.357   3.809   0.519
10021SOL    HW230963   0.291   3.684   0.437
10022SOL     OW30964   1.485   1.803   6.364
10022SOL    HW130965   1.562   1.809   6.300
10022SOL    HW230966   1.520   1.800   6.458
10023SOL     OW30967   0.050   3.859   0.615
10023SOL    HW130968   0.125   3.815   0.564
10023SOL    HW230969   0.068   3.852   0.713
10024SOL     OW30970   1.709   4.652   3.792
10024SOL    HW130971   1.777   4.725   3.788
10024SOL    HW230972   1.638   4.675   3.859
10025SOL     OW30973   1.363   1.116   0.867
10025SOL    HW130974   1.290   1.049   0.886
10025SOL    HW230975   1.403   1.096   0.778
10026SOL     OW30976   6.788   0.289   3.234
10026SOL    HW130977   6.806   0.192   3.215
10026SOL    HW230978   6.822   0.312   3.325
10027SOL     OW30979   4.712   2.446   5.284
10027SOL    HW130980   4.691   2.400   5.370
10027SOL    HW230981   4.771   2.525   5.302
10028SOL     OW30982   1.861   0.868   0.547
10028SOL    HW130983   1.889   0.775   0.523
10028SOL    HW230984   1.895   0.932   0.478
10029SOL     OW30985   5.822   1.837   3.497
10029SOL    HW130986   5.778   1.754   3.464
10029SOL    HW230987   5.811   1.910   3.429
10030SOL     OW30988   1.976   0.257   3.168
10030SOL    HW130989   1.895   0.235   3.222
10030SOL    HW230990   1.975   0.205   3.083
10031SOL     OW30991   6.316   4.454   4.865
10031SOL    HW130992   6.405   4.444   4.909
10031SOL    HW230993   6.324   4.516   4.787
10032SOL     OW30994   2.902   1.538   4.778
10032SOL    HW130995   2.924   1.486   4.860
10032SOL    HW230996   2.850   1.480   4.715
10033SOL     OW30997   5.400   2.602   4.494
10033SOL    HW130998   5.342   2.521   4.488
10033SOL    HW230999   5.435   2.625   4.404
10034SOL     OW31000   5.406   0.570   5.713
10034SOL    HW131001   5.399   0.603   5.807
10034SOL    HW231002   5.477   0.500   5.707
10035SOL     OW31003   0.334   5.956   1.886
10035SOL    HW131004   0.408   5.920   1.831
10035SOL    HW231005   0.316   6.051   1.860
10036SOL     OW31006   6.922   0.763   0.323
10036SOL    HW131007   6.986   0.840   0.317
10036SOL    HW231008   6.972   0.681   0.351
10037SOL     OW31009   1.025   6.788   0.214
10037SOL    HW131010   1.115   6.762   0.249
10037SOL    HW231011   0.980   6.851   0.278
10038SOL     OW31012   6.452   0.639   1.552
10038SOL    HW131013   6.374   0.578   1.570
10038SOL    HW231014   6.532   0.584   1.528
10039SOL     OW31015   2.949   0.444   3.641
10039SOL    HW131016   2.888   0.514   3.676
10039SOL    HW231017   3.042   0.481   3.634
10040SOL     OW31018   0.900   2.669   1.111
10040SOL    HW131019   0.833   2.626   1.051
10040SOL    HW231020   0.888   2.768   1.110
10041SOL     OW31021   2.267   5.902   6.935
10041SOL    HW131022   2.294   5.963   6.861
10041SOL    HW231023   2.279   5.807   6.907
10042SOL     OW31024   5.872   3.106   2.706
10042SOL    HW131025   5.817   3.058   2.775
10042SOL    HW231026   5.892   3.045   2.630
10043SOL     OW31027   0.598   1.911   5.018
10043SOL    HW131028   0.684   1.891   4.972
10043SOL    HW231029   0.603   2.002   5.060
10044SOL     OW31030   2.980   1.662   5.785
10044SOL    HW131031   2.987   1.681   5.687
10044SOL    HW231032   2.901   1.603   5.802
10045SOL     OW31033   3.262   1.257   0.923
10045SOL    HW131034   3.231   1.199   0.847
10045SOL    HW231035   3.271   1.202   1.005
10046SOL     OW31036   1.396   5.565   0.958
10046SOL    HW131037   1.328   5.610   0.901
10046SOL    HW231038   1.390   5.466   0.946
10047SOL     OW31039   0.975   3.045   1.148
10047SOL    HW131040   0.896   3.012   1.096
10047SOL    HW231041   0.947   3.062   1.243
10048SOL     OW31042   6.028   5.082   3.443
10048SOL    HW131043   5.953   5.036   3.491
10048SOL    HW231044   6.065   5.154   3.501
10049SOL     OW31045   6.772   0.505   5.246
10049SOL    HW131046   6.796   0.421   5.198
10049SOL    HW231047   6.836   0.577   5.222
10050SOL     OW31048   6.956   3.117   6.908
10050SOL    HW131049   0.000   3.052   6.876
10050SOL    HW231050   6.947   3.110   7.007
10051SOL     OW31051   2.370   2.728   3.787
10051SOL    HW131052   2.354   2.784   3.706
10051SOL    HW231053   2.288   2.727   3.844
10052SOL     OW31054   1.113   6.597   3.451
10052SOL    HW131055   1.185   6.611   3.384
10052SOL    HW231056   1.154   6.572   3.539
10053SOL     OW31057   5.866   5.124   4.969
10053SOL    HW131058   5.825   5.129   5.059
10053SOL    HW231059   5.938   5.054   4.968
10054SOL     OW31060   6.724   3.639   4.868
10054SOL    HW131061   6.675   3.622   4.954
10054SOL    HW231062   6.797   3.572   4.857
10055SOL     OW31063   1.073   2.046   0.106
10055SOL    HW131064   0.997   2.110   0.101
10055SOL    HW231065   1.046   1.964   0.156
10056SOL     OW31066   6.190   2.220   3.576
10056SOL    HW131067   6.185   2.283   3.654
10056SOL    HW231068   6.217   2.271   3.494
10057SOL     OW31069   5.848   5.138   5.283
10057SOL    HW131070   5.803   5.197   5.349
10057SOL    HW231071   5.838   5.043   5.311
10058SOL     OW31072   0.278   3.409   5.173
10058SOL    HW131073   0.280   3.430   5.270
10058SOL    HW231074   0.239   3.318   5.160
10059SOL     OW31075   6.044   0.845   0.108
10059SOL    HW131076   6.010   0.751   0.115
10059SOL    HW231077   6.134   0.845   0.064
10060SOL     OW31078   2.760   1.180   1.506
10060SOL    HW131079   2.702   1.218   1.434
10060SOL    HW231080   2.705   1.165   1.589
10061SOL     OW31081   4.106   0.118   2.841
10061SOL    HW131082   4.072   0.077   2.926
10061SOL    HW231083   4.157   0.049   2.789
10062SOL     OW31084   0.420   0.272   5.104
10062SOL    HW131085   0.508   0.225   5.111
10062SOL    HW231086   0.351   0.209   5.069
10063SOL     OW31087   2.430   2.187   5.015
10063SOL    HW131088   2.497   2.225   5.078
10063SOL    HW231089   2.441   2.229   4.924
10064SOL     OW31090   2.715   6.831   0.600
10064SOL    HW131091   2.794   6.809   0.658
10064SOL    HW231092   2.681   6.923   0.622
10065SOL     OW31093   0.284   1.959   1.739
10065SOL    HW131094   0.242   1.924   1.823
10065SOL    HW231095   0.282   1.888   1.669
10066SOL     OW31096   6.064   3.882   3.970
10066SOL    HW131097   6.130   3.911   3.901
10066SOL    HW231098   6.070   3.783   3.983
10067SOL     OW31099   6.770   3.217   4.934
10067SOL    HW131100   6.821   3.135   4.959
10067SOL    HW231101   6.698   3.233   5.002
10068SOL     OW31102   1.883   3.091   3.173
10068SOL    HW131103   1.798   3.045   3.147
10068SOL    HW231104   1.961   3.040   3.138
10069SOL     OW31105   2.832   4.578   0.247
10069SOL    HW131106   2.778   4.505   0.290
10069SOL    HW231107   2.792   4.601   0.158
10070SOL     OW31108   4.260   6.574   6.320
10070SOL    HW131109   4.309   6.606   6.401
10070SOL    HW231110   4.283   6.477   6.304
10071SOL     OW31111   5.530   0.214   4.446
10071SOL    HW131112   5.556   0.118   4.462
10071SOL    HW231113   5.521   0.261   4.534
10072SOL     OW31114   6.338   3.230   1.243
10072SOL    HW131115   6.404   3.159   1.218
10072SOL    HW231116   6.321   3.227   1.341
10073SOL     OW31117   5.292   4.331   5.125
10073SOL    HW131118   5.291   4.275   5.208
10073SOL    HW231119   5.371   4.307   5.069
10074SOL     OW31120   1.987   5.558   0.597
10074SOL    HW131121   1.974   5.608   0.682
10074SOL    HW231122   1.977   5.460   0.614
10075SOL     OW31123   1.579   3.301   2.291
10075SOL    HW131124   1.564   3.328   2.387
10075SOL    HW231125   1.624   3.376   2.242
10076SOL     OW31126   5.164   4.868   4.729
10076SOL    HW131127   5.133   4.817   4.809
10076SOL    HW231128   5.094   4.933   4.700
10077SOL     OW31129   5.341   3.850   6.192
10077SOL    HW131130   5.301   3.926   6.243
10077SOL    HW231131   5.379   3.783   6.256
10078SOL     OW31132   6.441   5.374   5.289
10078SOL    HW131133   6.381   5.353   5.212
10078SOL    HW231134   6.462   5.290   5.339
10079SOL     OW31135   5.309   3.580   4.239
10079SOL    HW131136   5.245   3.611   4.169
10079SOL    HW231137   5.320   3.652   4.308
10080SOL     OW31138   5.325   1.405   6.063
10080SOL    HW131139   5.315   1.340   5.989
10080SOL    HW231140   5.239   1.411   6.114
10081SOL     OW31141   1.200   4.647   0.706
10081SOL    HW131142   1.147   4.658   0.622
10081SOL    HW231143   1.289   4.692   0.696
10082SOL     OW31144   0.946   4.813   1.562
10082SOL    HW131145   1.019   4.745   1.570
10082SOL    HW231146   0.922   4.847   1.652
10083SOL     OW31147   3.062   5.874   2.485
10083SOL    HW131148   2.978   5.918   2.455
10083SOL    HW231149   3.132   5.944   2.500
10084SOL     OW31150   0.782   1.532   4.419
10084SOL    HW131151   0.764   1.598   4.347
10084SOL    HW231152   0.726   1.553   4.499
10085SOL     OW31153   5.146   0.141   0.910
10085SOL    HW131154   5.091   0.058   0.922
10085SOL    HW231155   5.141   0.171   0.815
10086SOL     OW31156   5.090   6.812   3.570
10086SOL    HW131157   5.058   6.879   3.637
10086SOL    HW231158   5.089   6.721   3.610
10087SOL     OW31159   1.369   6.248   5.073
10087SOL    HW131160   1.322   6.192   5.005
10087SOL    HW231161   1.342   6.344   5.062
10088SOL     OW31162   0.025   2.949   1.890
10088SOL    HW131163   0.033   2.969   1.793
10088SOL    HW231164   0.080   3.014   1.942
10089SOL     OW31165   3.275   0.793   1.166
10089SOL    HW131166   3.307   0.728   1.097
10089SOL    HW231167   3.221   0.745   1.235
10090SOL     OW31168   2.375   6.283   3.521
10090SOL    HW131169   2.395   6.188   3.495
10090SOL    HW231170   2.412   6.302   3.611
10091SOL     OW31171   6.026   4.929   5.054
10091SOL    HW131172   6.126   4.933   5.063
10091SOL    HW231173   5.984   4.935   5.144
10092SOL     OW31174   0.841   2.656   3.978
10092SOL    HW131175   0.874   2.569   4.017
10092SOL    HW231176   0.794   2.638   3.892
10093SOL     OW31177   4.657   4.348   5.991
10093SOL    HW131178   4.708   4.329   6.074
10093SOL    HW231179   4.689   4.289   5.917
10094SOL     OW31180   4.061   2.392   1.342
10094SOL    HW131181   3.976   2.434   1.310
10094SOL    HW231182   4.066   2.399   1.442
10095SOL     OW31183   4.400   3.186   5.363
10095SOL    HW131184   4.361   3.172   5.455
10095SOL    HW231185   4.325   3.191   5.296
10096SOL     OW31186   6.566   3.626   1.935
10096SOL    HW131187   6.592   3.614   2.031
10096SOL    HW231188   6.599   3.715   1.902
10097SOL     OW31189   0.238   1.811   1.005
10097SOL    HW131190   0.187   1.811   0.919
10097SOL    HW231191   0.252   1.717   1.036
10098SOL     OW31192   2.998   5.279   4.495
10098SOL    HW131193   3.017   5.373   4.469
10098SOL    HW231194   2.987   5.222   4.414
10099SOL     OW31195   0.234   5.047   2.409
10099SOL    HW131196   0.294   4.982   2.454
10099SOL    HW231197   0.188   5.003   2.332
10100SOL     OW31198   5.393   4.624   3.892
10100SOL    HW131199   5.314   4.563   3.893
10100SOL    HW231200   5.408   4.660   3.985
10101SOL     OW31201   6.778   3.106   0.395
10101SOL    HW131202   6.774   3.006   0.388
10101SOL    HW231203   6.813   3.131   0.485
10102SOL     OW31204   6.800   5.571   3.349
10102SOL    HW131205   6.738   5.496   3.370
10102SOL    HW231206   6.799   5.637   3.425
10103SOL     OW31207   0.434   5.947   6.788
10103SOL    HW131208   0.527   5.978   6.765
10103SOL    HW231209   0.438   5.889   6.869
10104SOL     OW31210   2.644   0.549   4.642
10104SOL    HW131211   2.647   0.643   4.674
10104SOL    HW231212   2.596   0.492   4.709
10105SOL     OW31213   2.920   1.221   4.992
10105SOL    HW131214   2.861   1.292   5.031
10105SOL    HW231215   3.009   1.260   4.969
10106SOL     OW31216   5.442   4.497   1.428
10106SOL    HW131217   5.507   4.451   1.489
10106SOL    HW231218   5.358   4.519   1.478
10107SOL     OW31219   5.169   5.319   0.481
10107SOL    HW131220   5.196   5.311   0.577
10107SOL    HW231221   5.104   5.246   0.459
10108SOL     OW31222   2.065   2.325   5.743
10108SOL    HW131223   2.105   2.298   5.656
10108SOL    HW231224   1.970   2.353   5.728
10109SOL     OW31225   1.023   2.615   1.610
10109SOL    HW131226   1.116   2.611   1.645
10109SOL    HW231227   0.958   2.591   1.682
10110SOL     OW31228   5.623   5.485   2.488
10110SOL    HW131229   5.645   5.461   2.583
10110SOL    HW231230   5.624   5.584   2.478
10111SOL     OW31231   0.368   2.807   2.168
10111SOL    HW131232   0.288   2.754   2.196
10111SOL    HW231233   0.435   2.809   2.243
10112SOL     OW31234   6.845   2.926   3.340
10112SOL    HW131235   6.921   2.985   3.314
10112SOL    HW231236   6.760   2.960   3.300
10113SOL     OW31237   6.161   0.392   6.524
10113SOL    HW131238   6.123   0.299   6.527
10113SOL    HW231239   6.133   0.442   6.606
10114SOL     OW31240   6.142   2.885   1.902
10114SOL    HW131241   6.043   2.872   1.897
10114SOL    HW231242   6.189   2.804   1.866
10115SOL     OW31243   3.645   2.490   6.091
10115SOL    HW131244   3.626   2.459   6.185
10115SOL    HW231245   3.616   2.586   6.081
10116SOL     OW31246   6.864   0.082   5.563
10116SOL    HW131247   6.936   0.144   5.532
10116SOL    HW231248   6.871   0.071   5.662
10117SOL     OW31249   6.331   4.239   3.225
10117SOL    HW131250   6.256   4.176   3.240
10117SOL    HW231251   6.296   4.325   3.187
10118SOL     OW31252   3.981   5.198   3.594
10118SOL    HW131253   3.925   5.244   3.663
10118SOL    HW231254   4.075   5.189   3.628
10119SOL     OW31255   6.265   6.140   6.636
10119SOL    HW131256   6.315   6.225   6.616
10119SOL    HW231257   6.282   6.073   6.564
10120SOL     OW31258   2.422   2.425   3.290
10120SOL    HW131259   2.517   2.428   3.259
10120SOL    HW231260   2.415   2.367   3.372
10121SOL     OW31261   0.249   5.471   1.010
10121SOL    HW131262   0.172   5.411   1.036
10121SOL    HW231263   0.275   5.452   0.916
10122SOL     OW31264   1.820   0.164   3.469
10122SOL    HW131265   1.739   0.181   3.413
10122SOL    HW231266   1.831   0.066   3.482
10123SOL     OW31267   6.731   5.562   6.624
10123SOL    HW131268   6.675   5.639   6.653
10123SOL    HW231269   6.746   5.568   6.525
10124SOL     OW31270   2.426   5.492   2.713
10124SOL    HW131271   2.522   5.464   2.723
10124SOL    HW231272   2.401   5.490   2.617
10125SOL     OW31273   1.035   0.829   4.852
10125SOL    HW131274   1.041   0.785   4.763
10125SOL    HW231275   0.991   0.766   4.917
10126SOL     OW31276   6.811   6.317   6.117
10126SOL    HW131277   6.819   6.410   6.082
10126SOL    HW231278   6.719   6.303   6.153
10127SOL     OW31279   2.608   6.893   6.375
10127SOL    HW131280   2.633   6.989   6.388
10127SOL    HW231281   2.546   6.885   6.297
10128SOL     OW31282   2.079   2.878   0.334
10128SOL    HW131283   2.086   2.978   0.343
10128SOL    HW231284   2.147   2.847   0.267
10129SOL     OW31285   6.168   2.317   4.811
10129SOL    HW131286   6.156   2.382   4.886
10129SOL    HW231287   6.183   2.366   4.726
10130SOL     OW31288   0.621   1.785   4.390
10130SOL    HW131289   0.613   1.881   4.419
10130SOL    HW231290   0.630   1.727   4.471
10131SOL     OW31291   2.048   6.718   4.700
10131SOL    HW131292   2.081   6.755   4.613
10131SOL    HW231293   2.095   6.632   4.720
10132SOL     OW31294   5.349   6.832   1.965
10132SOL    HW131295   5.391   6.893   2.032
10132SOL    HW231296   5.333   6.742   2.007
10133SOL     OW31297   5.582   6.352   0.850
10133SOL    HW131298   5.601   6.371   0.946
10133SOL    HW231299   5.652   6.292   0.813
10134SOL     OW31300   6.840   0.026   3.219
10134SOL    HW131301   6.860   6.987   3.145
10134SOL    HW231302   6.904   0.012   3.295
10135SOL     OW31303   6.013   6.995   3.137
10135SOL    HW131304   6.111   6.977   3.143
10135SOL    HW231305   5.963   6.909   3.144
10136SOL     OW31306   4.706   1.158   3.430
10136SOL    HW131307   4.684   1.251   3.402
10136SOL    HW231308   4.622   1.108   3.450
10137SOL     OW31309   6.841   5.473   4.999
10137SOL    HW131310   6.855   5.455   4.901
10137SOL    HW231311   6.809   5.390   5.044
10138SOL     OW31312   6.883   2.850   2.077
10138SOL    HW131313   6.785   2.856   2.057
10138SOL    HW231314   6.935   2.883   1.999
10139SOL     OW31315   3.206   2.832   6.655
10139SOL    HW131316   3.200   2.931   6.643
10139SOL    HW231317   3.279   2.811   6.720
10140SOL     OW31318   1.123   5.981   5.361
10140SOL    HW131319   1.095   6.046   5.290
10140SOL    HW231320   1.212   5.942   5.336
10141SOL     OW31321   2.043   2.692   4.328
10141SOL    HW131322   1.963   2.728   4.279
10141SOL    HW231323   2.013   2.636   4.405
10142SOL     OW31324   4.074   6.307   3.141
10142SOL    HW131325   4.132   6.345   3.212
10142SOL    HW231326   4.068   6.208   3.151
10143SOL     OW31327   5.877   2.777   5.657
10143SOL    HW131328   5.834   2.783   5.567
10143SOL    HW231329   5.897   2.681   5.677
10144SOL     OW31330   3.504   6.892   0.798
10144SOL    HW131331   3.553   6.977   0.782
10144SOL    HW231332   3.481   6.849   0.710
10145SOL     OW31333   6.490   6.892   6.292
10145SOL    HW131334   6.587   6.899   6.268
10145SOL    HW231335   6.452   6.809   6.253
10146SOL     OW31336   1.492   2.916   5.148
10146SOL    HW131337   1.409   2.861   5.162
10146SOL    HW231338   1.558   2.894   5.220
10147SOL     OW31339   4.017   5.794   5.561
10147SOL    HW131340   4.075   5.874   5.578
10147SOL    HW231341   4.032   5.727   5.633
10148SOL     OW31342   0.683   4.469   0.281
10148SOL    HW131343   0.745   4.440   0.353
10148SOL    HW231344   0.665   4.567   0.289
10149SOL     OW31345   4.068   3.357   1.315
10149SOL    HW131346   4.114   3.433   1.267
10149SOL    HW231347   4.003   3.313   1.253
10150SOL     OW31348   4.504   4.220   1.169
10150SOL    HW131349   4.528   4.180   1.081
10150SOL    HW231350   4.416   4.267   1.162
10151SOL     OW31351   6.674   1.161   6.147
10151SOL    HW131352   6.772   1.180   6.159
10151SOL    HW231353   6.644   1.099   6.219
10152SOL     OW31354   3.768   6.738   2.870
10152SOL    HW131355   3.735   6.717   2.778
10152SOL    HW231356   3.856   6.692   2.886
10153SOL     OW31357   5.025   3.963   1.805
10153SOL    HW131358   5.006   4.053   1.767
10153SOL    HW231359   5.031   3.896   1.730
10154SOL     OW31360   3.826   5.031   5.458
10154SOL    HW131361   3.900   5.073   5.510
10154SOL    HW231362   3.843   5.041   5.360
10155SOL     OW31363   4.129   1.446   3.900
10155SOL    HW131364   4.122   1.466   3.998
10155SOL    HW231365   4.163   1.526   3.851
10156SOL     OW31366   4.149   1.750   6.236
10156SOL    HW131367   4.054   1.750   6.266
10156SOL    HW231368   4.157   1.703   6.148
10157SOL     OW31369   0.197   4.431   1.232
10157SOL    HW131370   0.244   4.405   1.317
10157SOL    HW231371   0.231   4.373   1.158
10158SOL     OW31372   5.952   5.197   6.962
10158SOL    HW131373   5.920   5.123   6.903
10158SOL    HW231374   5.878   5.263   6.976
10159SOL     OW31375   3.189   2.929   1.889
10159SOL    HW131376   3.266   2.944   1.827
10159SOL    HW231377   3.220   2.943   1.983
10160SOL     OW31378   6.656   4.399   2.525
10160SOL    HW131379   6.652   4.301   2.503
10160SOL    HW231380   6.733   4.415   2.587
10161SOL     OW31381   5.727   3.094   5.649
10161SOL    HW131382   5.753   3.080   5.745
10161SOL    HW231383   5.662   3.023   5.622
10162SOL     OW31384   1.484   2.765   2.209
10162SOL    HW131385   1.437   2.705   2.273
10162SOL    HW231386   1.490   2.857   2.248
10163SOL     OW31387   2.427   5.074   4.706
10163SOL    HW131388   2.345   5.045   4.657
10163SOL    HW231389   2.434   5.023   4.791
10164SOL     OW31390   0.053   1.159   3.715
10164SOL    HW131391   0.150   1.146   3.735
10164SOL    HW231392   0.016   1.231   3.773
10165SOL     OW31393   0.939   3.679   4.315
10165SOL    HW131394   0.864   3.732   4.276
10165SOL    HW231395   1.020   3.737   4.324
10166SOL     OW31396   2.656   6.343   2.645
10166SOL    HW131397   2.752   6.332   2.620
10166SOL    HW231398   2.628   6.438   2.632
10167SOL     OW31399   2.391   2.155   6.893
10167SOL    HW131400   2.430   2.241   6.860
10167SOL    HW231401   2.460   2.103   6.941
10168SOL     OW31402   6.813   0.220   6.638
10168SOL    HW131403   6.765   0.268   6.711
10168SOL    HW231404   6.889   0.277   6.606
10169SOL     OW31405   5.267   4.772   3.561
10169SOL    HW131406   5.232   4.818   3.643
10169SOL    HW231407   5.221   4.684   3.550
10170SOL     OW31408   5.316   6.101   0.147
10170SOL    HW131409   5.308   6.018   0.202
10170SOL    HW231410   5.323   6.180   0.207
10171SOL     OW31411   2.306   4.737   5.102
10171SOL    HW131412   2.286   4.740   5.004
10171SOL    HW231413   2.338   4.646   5.127
10172SOL     OW31414   6.664   0.852   3.149
10172SOL    HW131415   6.648   0.811   3.059
10172SOL    HW231416   6.596   0.818   3.214
10173SOL     OW31417   3.794   3.517   5.078
10173SOL    HW131418   3.741   3.601   5.084
10173SOL    HW231419   3.745   3.450   5.022
10174SOL     OW31420   4.463   5.243   1.051
10174SOL    HW131421   4.375   5.203   1.079
10174SOL    HW231422   4.500   5.190   0.975
10175SOL     OW31423   6.954   6.785   4.477
10175SOL    HW131424   6.896   6.820   4.550
10175SOL    HW231425   0.025   6.798   4.501
10176SOL     OW31426   0.083   0.456   4.722
10176SOL    HW131427   0.093   0.512   4.640
10176SOL    HW231428   0.071   0.515   4.802
10177SOL     OW31429   2.359   0.796   4.317
10177SOL    HW131430   2.295   0.817   4.390
10177SOL    HW231431   2.446   0.765   4.356
10178SOL     OW31432   0.673   1.964   1.314
10178SOL    HW131433   0.699   2.031   1.384
10178SOL    HW231434   0.630   1.885   1.359
10179SOL     OW31435   0.563   4.965   0.272
10179SOL    HW131436   0.623   4.996   0.198
10179SOL    HW231437   0.606   4.986   0.360
10180SOL     OW31438   3.990   0.166   6.431
10180SOL    HW131439   3.945   0.101   6.369
10180SOL    HW231440   3.928   0.187   6.507
10181SOL     OW31441   6.801   3.658   3.093
10181SOL    HW131442   6.832   3.580   3.147
10181SOL    HW231443   6.703   3.672   3.109
10182SOL     OW31444   4.128   1.032   1.135
10182SOL    HW131445   4.064   0.957   1.119
10182SOL    HW231446   4.122   1.096   1.058
10183SOL     OW31447   4.486   6.614   5.718
10183SOL    HW131448   4.437   6.568   5.792
10183SOL    HW231449   4.583   6.621   5.742
10184SOL     OW31450   5.210   1.549   5.687
10184SOL    HW131451   5.182   1.454   5.676
10184SOL    HW231452   5.289   1.554   5.748
10185SOL     OW31453   3.161   5.284   1.328
10185SOL    HW131454   3.152   5.330   1.415
10185SOL    HW231455   3.252   5.241   1.321
10186SOL     OW31456   3.403   3.295   6.231
10186SOL    HW131457   3.485   3.320   6.282
10186SOL    HW231458   3.406   3.340   6.141
10187SOL     OW31459   1.753   4.373   5.708
10187SOL    HW131460   1.757   4.363   5.609
10187SOL    HW231461   1.746   4.283   5.751
10188SOL     OW31462   2.971   6.924   6.128
10188SOL    HW131463   2.931   6.932   6.220
10188SOL    HW231464   2.948   7.006   6.075
10189SOL     OW31465   1.931   1.229   4.759
10189SOL    HW131466   1.832   1.230   4.775
10189SOL    HW231467   1.950   1.269   4.669
10190SOL     OW31468   4.223   4.208   0.951
10190SOL    HW131469   4.250   4.285   1.009
10190SOL    HW231470   4.140   4.232   0.900
10191SOL     OW31471   5.472   0.400   6.972
10191SOL    HW131472   5.560   0.369   6.936
10191SOL    HW231473   5.457   0.361   0.037
10192SOL     OW31474   2.210   1.074   4.752
10192SOL    HW131475   2.112   1.085   4.734
10192SOL    HW231476   2.226   0.984   4.793
10193SOL     OW31477   3.740   3.518   3.497
10193SOL    HW131478   3.693   3.448   3.443
10193SOL    HW231479   3.821   3.549   3.448
10194SOL     OW31480   3.109   0.119   3.089
10194SOL    HW131481   3.132   0.209   3.054
10194SOL    HW231482   3.175   0.093   3.160
10195SOL     OW31483   5.131   0.437   2.190
10195SOL    HW131484   5.184   0.517   2.163
10195SOL    HW231485   5.172   0.355   2.148
10196SOL     OW31486   5.118   3.369   4.672
10196SOL    HW131487   5.030   3.411   4.650
10196SOL    HW231488   5.186   3.395   4.603
10197SOL     OW31489   5.303   1.435   2.440
10197SOL    HW131490   5.342   1.527   2.434
10197SOL    HW231491   5.225   1.427   2.379
10198SOL     OW31492   2.827   0.284   1.575
10198SOL    HW131493   2.896   0.258   1.508
10198SOL    HW231494   2.736   0.264   1.539
10199SOL     OW31495   0.986   2.020   0.823
10199SOL    HW131496   0.901   2.033   0.876
10199SOL    HW231497   0.989   2.087   0.749
10200SOL     OW31498   5.842   5.256   5.527
10200SOL    HW131499   5.912   5.323   5.505
10200SOL    HW231500   5.868   5.207   5.611
10201SOL     OW31501   1.671   4.840   2.890
10201SOL    HW131502   1.667   4.922   2.948
10201SOL    HW231503   1.692   4.760   2.946
10202SOL     OW31504   0.545   2.883   2.938
10202SOL    HW131505   0.637   2.871   2.901
10202SOL    HW231506   0.493   2.798   2.928
10203SOL     OW31507   1.329   3.133   1.899
10203SOL    HW131508   1.233   3.145   1.926
10203SOL    HW231509   1.334   3.120   1.800
10204SOL     OW31510   3.047   4.843   4.165
10204SOL    HW131511   3.140   4.869   4.192
10204SOL    HW231512   2.987   4.848   4.245
10205SOL     OW31513   4.380   0.774   1.981
10205SOL    HW131514   4.332   0.767   1.894
10205SOL    HW231515   4.405   0.683   2.014
10206SOL     OW31516   4.674   0.590   5.969
10206SOL    HW131517   4.665   0.503   5.920
10206SOL    HW231518   4.602   0.597   6.038
10207SOL     OW31519   3.893   0.621   3.072
10207SOL    HW131520   3.956   0.551   3.038
10207SOL    HW231521   3.818   0.632   3.007
10208SOL     OW31522   6.325   4.161   5.000
10208SOL    HW131523   6.420   4.188   4.985
10208SOL    HW231524   6.276   4.159   4.913
10209SOL     OW31525   5.472   6.825   6.661
10209SOL    HW131526   5.392   6.792   6.710
10209SOL    HW231527   5.529   6.747   6.634
10210SOL     OW31528   5.192   5.821   1.095
10210SOL    HW131529   5.273   5.763   1.087
10210SOL    HW231530   5.191   5.864   1.185
10211SOL     OW31531   3.714   5.541   4.914
10211SOL    HW131532   3.752   5.595   4.990
10211SOL    HW231533   3.647   5.597   4.865
10212SOL     OW31534   5.830   6.400   5.229
10212SOL    HW131535   5.829   6.471   5.299
10212SOL    HW231536   5.917   6.352   5.231
10213SOL     OW31537   4.759   0.627   4.196
10213SOL    HW131538   4.855   0.611   4.173
10213SOL    HW231539   4.722   0.696   4.134
10214SOL     OW31540   0.063   0.947   1.229
10214SOL    HW131541   0.109   1.029   1.196
10214SOL    HW231542   7.000   0.972   1.270
10215SOL     OW31543   3.939   2.835   6.647
10215SOL    HW131544   3.932   2.767   6.720
10215SOL    HW231545   4.025   2.884   6.654
10216SOL     OW31546   4.875   0.268   2.578
10216SOL    HW131547   4.862   0.199   2.648
10216SOL    HW231548   4.789   0.317   2.564
10217SOL     OW31549   3.206   2.093   5.513
10217SOL    HW131550   3.275   2.125   5.447
10217SOL    HW231551   3.195   1.994   5.503
10218SOL     OW31552   2.269   2.601   0.581
10218SOL    HW131553   2.329   2.680   0.595
10218SOL    HW231554   2.263   2.549   0.666
10219SOL     OW31555   0.953   4.283   0.645
10219SOL    HW131556   0.981   4.278   0.741
10219SOL    HW231557   1.025   4.328   0.592
10220SOL     OW31558   4.272   2.780   0.405
10220SOL    HW131559   4.270   2.733   0.317
10220SOL    HW231560   4.276   2.714   0.479
10221SOL     OW31561   3.268   0.784   5.004
10221SOL    HW131562   3.226   0.873   5.016
10221SOL    HW231563   3.201   0.712   5.022
10222SOL     OW31564   2.079   4.984   5.542
10222SOL    HW131565   2.081   4.913   5.471
10222SOL    HW231566   2.065   4.941   5.631
10223SOL     OW31567   6.687   4.484   0.680
10223SOL    HW131568   6.758   4.549   0.655
10223SOL    HW231569   6.711   4.393   0.646
10224SOL     OW31570   2.615   0.114   5.012
10224SOL    HW131571   2.524   0.153   5.026
10224SOL    HW231572   2.616   0.061   4.927
10225SOL     OW31573   5.513   6.025   4.463
10225SOL    HW131574   5.577   6.019   4.386
10225SOL    HW231575   5.420   6.039   4.428
10226SOL     OW31576   6.863   2.865   0.089
10226SOL    HW131577   6.899   2.787   0.141
10226SOL    HW231578   6.900   2.950   0.127
10227SOL     OW31579   5.542   5.791   6.089
10227SOL    HW131580   5.488   5.777   6.006
10227SOL    HW231581   5.481   5.804   6.167
10228SOL     OW31582   1.168   4.158   3.056
10228SOL    HW131583   1.165   4.258   3.051
10228SOL    HW231584   1.130   4.119   2.972
10229SOL     OW31585   1.860   1.279   1.965
10229SOL    HW131586   1.869   1.376   1.989
10229SOL    HW231587   1.906   1.262   1.877
10230SOL     OW31588   6.265   6.709   4.869
10230SOL    HW131589   6.314   6.790   4.902
10230SOL    HW231590   6.193   6.737   4.806
10231SOL     OW31591   4.431   6.651   4.371
10231SOL    HW131592   4.393   6.605   4.451
10231SOL    HW231593   4.409   6.748   4.374
10232SOL     OW31594   3.789   2.158   4.311
10232SOL    HW131595   3.817   2.219   4.386
10232SOL    HW231596   3.854   2.167   4.236
10233SOL     OW31597   4.753   1.501   5.357
10233SOL    HW131598   4.751   1.401   5.354
10233SOL    HW231599   4.672   1.537   5.312
10234SOL     OW31600   4.949   6.499   1.716
10234SOL    HW131601   4.992   6.510   1.626
10234SOL    HW231602   4.987   6.566   1.780
10235SOL     OW31603   4.935   1.629   6.256
10235SOL    HW131604   4.969   1.722   6.266
10235SOL    HW231605   4.863   1.627   6.187
10236SOL     OW31606   2.111   5.916   2.203
10236SOL    HW131607   2.146   5.822   2.203
10236SOL    HW231608   2.021   5.919   2.160
10237SOL     OW31609   5.951   2.424   3.271
10237SOL    HW131610   5.934   2.365   3.192
10237SOL    HW231611   6.035   2.395   3.317
10238SOL     OW31612   4.594   5.361   4.302
10238SOL    HW131613   4.519   5.416   4.340
10238SOL    HW231614   4.662   5.344   4.373
10239SOL     OW31615   6.659   4.103   3.922
10239SOL    HW131616   6.680   4.092   3.824
10239SOL    HW231617   6.627   4.016   3.959
10240SOL     OW31618   6.243   3.943   3.767
10240SOL    HW131619   6.287   4.029   3.739
10240SOL    HW231620   6.275   3.869   3.708
10241SOL     OW31621   2.031   1.185   3.412
10241SOL    HW131622   2.126   1.217   3.404
10241SOL    HW231623   2.025   1.115   3.483
10242SOL     OW31624   0.662   6.119   5.911
10242SOL    HW131625   0.696   6.203   5.868
10242SOL    HW231626   0.721   6.095   5.989
10243SOL     OW31627   1.185   5.957   2.449
10243SOL    HW131628   1.090   5.929   2.435
10243SOL    HW231629   1.191   6.057   2.453
10244SOL     OW31630   1.328   5.804   0.118
10244SOL    HW131631   1.374   5.790   0.206
10244SOL    HW231632   1.338   5.900   0.090
10245SOL     OW31633   1.674   2.373   0.213
10245SOL    HW131634   1.761   2.396   0.256
10245SOL    HW231635   1.687   2.296   0.150
10246SOL     OW31636   3.553   4.151   3.598
10246SOL    HW131637   3.565   4.068   3.652
10246SOL    HW231638   3.565   4.232   3.656
10247SOL     OW31639   1.077   5.837   5.933
10247SOL    HW131640   1.011   5.854   6.006
10247SOL    HW231641   1.057   5.896   5.855
10248SOL     OW31642   4.554   0.676   2.717
10248SOL    HW131643   4.461   0.641   2.724
10248SOL    HW231644   4.589   0.696   2.809
10249SOL     OW31645   4.497   1.371   0.297
10249SOL    HW131646   4.468   1.466   0.314
10249SOL    HW231647   4.436   1.330   0.230
10250SOL     OW31648   5.508   0.408   0.383
10250SOL    HW131649   5.413   0.433   0.400
10250SOL    HW231650   5.518   0.309   0.386
10251SOL     OW31651   3.883   4.309   6.624
10251SOL    HW131652   3.929   4.276   6.706
10251SOL    HW231653   3.811   4.374   6.650
10252SOL     OW31654   6.178   5.064   2.017
10252SOL    HW131655   6.190   5.065   2.116
10252SOL    HW231656   6.090   5.105   1.993
10253SOL     OW31657   3.871   4.860   6.380
10253SOL    HW131658   3.886   4.952   6.418
10253SOL    HW231659   3.785   4.823   6.416
10254SOL     OW31660   2.167   1.390   4.157
10254SOL    HW131661   2.242   1.335   4.194
10254SOL    HW231662   2.081   1.341   4.166
10255SOL     OW31663   3.376   5.210   3.060
10255SOL    HW131664   3.366   5.302   3.098
10255SOL    HW231665   3.347   5.143   3.128
10256SOL     OW31666   6.084   6.489   6.908
10256SOL    HW131667   6.181   6.476   6.888
10256SOL    HW231668   6.051   6.571   6.861
10257SOL     OW31669   1.838   6.759   6.579
10257SOL    HW131670   1.935   6.736   6.584
10257SOL    HW231671   1.794   6.705   6.508
10258SOL     OW31672   4.207   0.201   3.643
10258SOL    HW131673   4.148   0.127   3.677
10258SOL    HW231674   4.164   0.289   3.662
10259SOL     OW31675   0.729   4.044   3.680
10259SOL    HW131676   0.754   4.038   3.776
10259SOL    HW231677   0.811   4.039   3.623
10260SOL     OW31678   6.864   6.720   1.333
10260SOL    HW131679   6.839   6.645   1.273
10260SOL    HW231680   6.948   6.763   1.298
10261SOL     OW31681   2.205   6.923   1.449
10261SOL    HW131682   2.118   6.971   1.432
10261SOL    HW231683   2.238   6.948   1.540
10262SOL     OW31684   1.169   5.608   5.027
10262SOL    HW131685   1.244   5.579   4.968
10262SOL    HW231686   1.200   5.614   5.122
10263SOL     OW31687   6.512   2.003   5.481
10263SOL    HW131688   6.605   2.012   5.443
10263SOL    HW231689   6.487   1.907   5.485
10264SOL     OW31690   0.718   6.401   6.934
10264SOL    HW131691   0.676   6.368   6.850
10264SOL    HW231692   0.802   6.349   6.952
10265SOL     OW31693   4.003   1.947   2.262
10265SOL    HW131694   3.932   2.002   2.218
10265SOL    HW231695   3.961   1.889   2.333
10266SOL     OW31696   4.476   4.128   6.199
10266SOL    HW131697   4.486   4.101   6.103
10266SOL    HW231698   4.423   4.213   6.205
10267SOL     OW31699   0.184   1.724   5.920
10267SOL    HW131700   0.090   1.692   5.926
10267SOL    HW231701   0.195   1.784   5.840
10268SOL     OW31702   6.185   4.166   1.678
10268SOL    HW131703   6.196   4.266   1.683
10268SOL    HW231704   6.165   4.139   1.584
10269SOL     OW31705   3.005   2.726   6.312
10269SOL    HW131706   3.081   2.676   6.354
10269SOL    HW231707   3.031   2.756   6.221
10270SOL     OW31708   3.187   6.534   1.207
10270SOL    HW131709   3.231   6.477   1.137
10270SOL    HW231710   3.089   6.516   1.208
10271SOL     OW31711   3.684   5.221   0.724
10271SOL    HW131712   3.731   5.191   0.641
10271SOL    HW231713   3.715   5.166   0.802
10272SOL     OW31714   0.918   1.064   5.887
10272SOL    HW131715   0.999   1.010   5.912
10272SOL    HW231716   0.928   1.157   5.923
10273SOL     OW31717   4.179   6.354   4.146
10273SOL    HW131718   4.215   6.271   4.105
10273SOL    HW231719   4.104   6.330   4.208
10274SOL     OW31720   2.056   5.957   6.471
10274SOL    HW131721   2.142   5.913   6.495
10274SOL    HW231722   1.988   5.939   6.543
10275SOL     OW31723   1.009   6.782   2.077
10275SOL    HW131724   0.913   6.755   2.078
10275SOL    HW231725   1.032   6.820   1.987
10276SOL     OW31726   0.182   6.534   6.631
10276SOL    HW131727   0.162   6.496   6.721
10276SOL    HW231728   0.132   6.619   6.619
10277SOL     OW31729   1.531   5.485   2.687
10277SOL    HW131730   1.456   5.439   2.640
10277SOL    HW231731   1.567   5.425   2.758
10278SOL     OW31732   6.575   0.336   6.318
10278SOL    HW131733   6.530   0.268   6.375
10278SOL    HW231734   6.571   0.425   6.362
10279SOL     OW31735   3.269   6.171   3.410
10279SOL    HW131736   3.202   6.185   3.482
10279SOL    HW231737   3.259   6.244   3.341
10280SOL     OW31738   3.398   2.836   6.292
10280SOL    HW131739   3.396   2.822   6.193
10280SOL    HW231740   3.463   2.773   6.333
10281SOL     OW31741   3.569   6.456   4.452
10281SOL    HW131742   3.470   6.465   4.464
10281SOL    HW231743   3.589   6.435   4.356
10282SOL     OW31744   1.541   2.431   4.820
10282SOL    HW131745   1.583   2.459   4.906
10282SOL    HW231746   1.565   2.336   4.800
10283SOL     OW31747   1.479   3.252   5.990
10283SOL    HW131748   1.421   3.309   6.048
10283SOL    HW231749   1.529   3.310   5.926
10284SOL     OW31750   5.670   3.387   6.426
10284SOL    HW131751   5.748   3.405   6.486
10284SOL    HW231752   5.592   3.357   6.481
10285SOL     OW31753   5.938   0.407   0.811
10285SOL    HW131754   5.984   0.344   0.873
10285SOL    HW231755   5.970   0.500   0.829
10286SOL     OW31756   4.371   0.485   4.186
10286SOL    HW131757   4.290   0.501   4.128
10286SOL    HW231758   4.452   0.474   4.128
10287SOL     OW31759   2.155   5.434   1.319
10287SOL    HW131760   2.195   5.524   1.334
10287SOL    HW231761   2.063   5.444   1.280
10288SOL     OW31762   5.274   6.251   3.935
10288SOL    HW131763   5.202   6.203   3.986
10288SOL    HW231764   5.337   6.293   4.000
10289SOL     OW31765   3.020   1.212   1.449
10289SOL    HW131766   2.939   1.213   1.508
10289SOL    HW231767   3.062   1.303   1.449
10290SOL     OW31768   2.955   3.706   2.234
10290SOL    HW131769   3.038   3.651   2.246
10290SOL    HW231770   2.888   3.653   2.182
10291SOL     OW31771   4.177   0.480   5.824
10291SOL    HW131772   4.271   0.514   5.832
10291SOL    HW231773   4.114   0.558   5.816
10292SOL     OW31774   0.039   0.655   4.912
10292SOL    HW131775   6.967   0.650   4.887
10292SOL    HW231776   0.075   0.745   4.885
10293SOL     OW31777   2.676   5.902   2.650
10293SOL    HW131778   2.739   5.826   2.634
10293SOL    HW231779   2.612   5.877   2.722
10294SOL     OW31780   5.821   1.789   3.163
10294SOL    HW131781   5.914   1.751   3.155
10294SOL    HW231782   5.765   1.729   3.219
10295SOL     OW31783   1.765   4.364   5.069
10295SOL    HW131784   1.853   4.401   5.098
10295SOL    HW231785   1.771   4.264   5.064
10296SOL     OW31786   6.238   2.387   0.522
10296SOL    HW131787   6.151   2.400   0.570
10296SOL    HW231788   6.266   2.475   0.481
10297SOL     OW31789   2.352   5.463   4.728
10297SOL    HW131790   2.381   5.528   4.799
10297SOL    HW231791   2.253   5.451   4.732
10298SOL     OW31792   5.569   3.772   3.285
10298SOL    HW131793   5.503   3.793   3.213
10298SOL    HW231794   5.533   3.803   3.373
10299SOL     OW31795   4.801   4.155   2.201
10299SOL    HW131796   4.809   4.069   2.151
10299SOL    HW231797   4.730   4.212   2.159
10300SOL     OW31798   2.294   5.033   2.336
10300SOL    HW131799   2.271   4.936   2.325
10300SOL    HW231800   2.255   5.085   2.260
10301SOL     OW31801   5.471   1.738   1.357
10301SOL    HW131802   5.560   1.694   1.365
10301SOL    HW231803   5.431   1.717   1.267
10302SOL     OW31804   1.437   5.104   3.172
10302SOL    HW131805   1.396   5.126   3.261
10302SOL    HW231806   1.368   5.065   3.112
10303SOL     OW31807   3.535   3.145   1.215
10303SOL    HW131808   3.567   3.167   1.123
10303SOL    HW231809   3.529   3.046   1.225
10304SOL     OW31810   6.251   6.649   3.794
10304SOL    HW131811   6.334   6.623   3.745
10304SOL    HW231812   6.191   6.570   3.804
10305SOL     OW31813   1.702   5.654   1.212
10305SOL    HW131814   1.767   5.725   1.186
10305SOL    HW231815   1.677   5.666   1.309
10306SOL     OW31816   4.242   4.979   0.597
10306SOL    HW131817   4.237   4.921   0.516
10306SOL    HW231818   4.149   5.002   0.628
10307SOL     OW31819   3.098   0.709   5.466
10307SOL    HW131820   3.087   0.646   5.543
10307SOL    HW231821   3.134   0.796   5.500
10308SOL     OW31822   3.396   5.445   3.770
10308SOL    HW131823   3.488   5.431   3.732
10308SOL    HW231824   3.400   5.438   3.870
10309SOL     OW31825   0.618   6.235   3.477
10309SOL    HW131826   0.602   6.137   3.467
10309SOL    HW231827   0.643   6.274   3.388
10310SOL     OW31828   3.416   3.148   4.672
10310SOL    HW131829   3.346   3.220   4.669
10310SOL    HW231830   3.372   3.059   4.683
10311SOL     OW31831   0.381   6.232   1.401
10311SOL    HW131832   0.382   6.175   1.483
10311SOL    HW231833   0.315   6.307   1.413
10312SOL     OW31834   2.292   4.570   0.541
10312SOL    HW131835   2.342   4.656   0.550
10312SOL    HW231836   2.208   4.586   0.488
10313SOL     OW31837   6.028   6.463   3.771
10313SOL    HW131838   6.012   6.377   3.724
10313SOL    HW231839   5.974   6.465   3.856
10314SOL     OW31840   6.388   5.091   5.764
10314SOL    HW131841   6.371   4.996   5.787
10314SOL    HW231842   6.340   5.150   5.829
10315SOL     OW31843   5.548   6.238   4.794
10315SOL    HW131844   5.522   6.315   4.735
10315SOL    HW231845   5.637   6.202   4.764
10316SOL     OW31846   0.078   4.021   3.116
10316SOL    HW131847   0.081   4.039   3.214
10316SOL    HW231848   0.166   4.043   3.075
10317SOL     OW31849   4.057   4.758   0.868
10317SOL    HW131850   4.095   4.691   0.932
10317SOL    HW231851   4.121   4.772   0.792
10318SOL     OW31852   6.634   5.880   2.213
10318SOL    HW131853   6.668   5.923   2.297
10318SOL    HW231854   6.555   5.822   2.235
10319SOL     OW31855   4.839   5.783   4.641
10319SOL    HW131856   4.869   5.699   4.597
10319SOL    HW231857   4.857   5.861   4.582
10320SOL     OW31858   4.532   6.133   1.146
10320SOL    HW131859   4.507   6.230   1.146
10320SOL    HW231860   4.618   6.121   1.098
10321SOL     OW31861   3.914   6.860   4.447
10321SOL    HW131862   3.870   6.771   4.460
10321SOL    HW231863   3.859   6.915   4.384
10322SOL     OW31864   6.585   2.800   0.396
10322SOL    HW131865   6.507   2.752   0.357
10322SOL    HW231866   6.663   2.738   0.402
10323SOL     OW31867   6.385   1.940   5.163
10323SOL    HW131868   6.448   1.914   5.090
10323SOL    HW231869   6.371   2.039   5.162
10324SOL     OW31870   3.079   3.236   3.701
10324SOL    HW131871   3.162   3.292   3.697
10324SOL    HW231872   3.022   3.266   3.778
10325SOL     OW31873   0.875   3.695   3.611
10325SOL    HW131874   0.809   3.724   3.541
10325SOL    HW231875   0.830   3.634   3.676
10326SOL     OW31876   4.781   1.576   0.998
10326SOL    HW131877   4.729   1.560   0.914
10326SOL    HW231878   4.838   1.658   0.986
10327SOL     OW31879   6.828   0.619   3.415
10327SOL    HW131880   6.808   0.594   3.321
10327SOL    HW231881   6.742   0.632   3.465
10328SOL     OW31882   5.978   3.085   2.423
10328SOL    HW131883   6.076   3.106   2.415
10328SOL    HW231884   5.952   3.021   2.351
10329SOL     OW31885   3.999   6.602   2.857
10329SOL    HW131886   4.027   6.653   2.939
10329SOL    HW231887   3.959   6.515   2.885
10330SOL     OW31888   3.437   4.376   0.881
10330SOL    HW131889   3.453   4.332   0.793
10330SOL    HW231890   3.494   4.458   0.888
10331SOL     OW31891   5.552   0.513   4.217
10331SOL    HW131892   5.473   0.470   4.262
10331SOL    HW231893   5.587   0.452   4.146
10332SOL     OW31894   0.163   1.950   0.566
10332SOL    HW131895   0.246   1.914   0.524
10332SOL    HW231896   0.150   1.908   0.655
10333SOL     OW31897   4.948   4.367   4.481
10333SOL    HW131898   4.918   4.462   4.493
10333SOL    HW231899   5.046   4.361   4.502
10334SOL     OW31900   1.137   4.984   4.604
10334SOL    HW131901   1.137   5.083   4.593
10334SOL    HW231902   1.055   4.956   4.654
10335SOL     OW31903   2.393   5.536   1.700
10335SOL    HW131904   2.342   5.613   1.738
10335SOL    HW231905   2.393   5.542   1.600
10336SOL     OW31906   4.241   6.362   2.891
10336SOL    HW131907   4.155   6.369   2.941
10336SOL    HW231908   4.299   6.441   2.913
10337SOL     OW31909   1.010   4.773   5.385
10337SOL    HW131910   1.050   4.861   5.362
10337SOL    HW231911   1.082   4.705   5.399
10338SOL     OW31912   3.823   4.955   3.228
10338SOL    HW131913   3.801   4.947   3.131
10338SOL    HW231914   3.881   4.878   3.255
10339SOL     OW31915   3.271   5.652   0.201
10339SOL    HW131916   3.257   5.733   0.257
10339SOL    HW231917   3.213   5.577   0.236
10340SOL     OW31918   2.096   6.811   0.397
10340SOL    HW131919   2.071   6.791   0.492
10340SOL    HW231920   2.195   6.809   0.388
10341SOL     OW31921   1.095   2.635   2.503
10341SOL    HW131922   1.096   2.572   2.581
10341SOL    HW231923   1.141   2.592   2.425
10342SOL     OW31924   2.844   6.444   3.733
10342SOL    HW131925   2.851   6.476   3.638
10342SOL    HW231926   2.748   6.433   3.757
10343SOL     OW31927   2.245   3.046   3.741
10343SOL    HW131928   2.225   2.986   3.819
10343SOL    HW231929   2.266   2.991   3.661
10344SOL     OW31930   4.371   3.969   0.602
10344SOL    HW131931   4.350   4.024   0.521
10344SOL    HW231932   4.436   3.897   0.577
10345SOL     OW31933   1.570   1.545   5.831
10345SOL    HW131934   1.551   1.504   5.920
10345SOL    HW231935   1.504   1.511   5.764
10346SOL     OW31936   5.682   5.088   0.610
10346SOL    HW131937   5.588   5.062   0.588
10346SOL    HW231938   5.725   5.015   0.664
10347SOL     OW31939   5.046   1.242   1.618
10347SOL    HW131940   4.992   1.159   1.600
10347SOL    HW231941   4.985   1.321   1.620
10348SOL     OW31942   6.724   4.934   5.807
10348SOL    HW131943   6.674   4.985   5.737
10348SOL    HW231944   6.814   4.976   5.820
10349SOL     OW31945   6.551   1.822   1.112
10349SOL    HW131946   6.486   1.746   1.105
10349SOL    HW231947   6.633   1.790   1.161
10350SOL     OW31948   2.098   4.420   4.841
10350SOL    HW131949   2.173   4.387   4.898
10350SOL    HW231950   2.135   4.469   4.762
10351SOL     OW31951   4.477   4.609   4.859
10351SOL    HW131952   4.431   4.573   4.940
10351SOL    HW231953   4.426   4.687   4.823
10352SOL     OW31954   6.159   1.114   6.869
10352SOL    HW131955   6.170   1.072   6.778
10352SOL    HW231956   6.248   1.146   6.902
10353SOL     OW31957   5.976   2.471   3.720
10353SOL    HW131958   5.996   2.545   3.657
10353SOL    HW231959   6.047   2.467   3.791
10354SOL     OW31960   6.542   2.912   1.490
10354SOL    HW131961   6.602   2.904   1.570
10354SOL    HW231962   6.447   2.900   1.518
10355SOL     OW31963   0.649   1.921   0.799
10355SOL    HW131964   0.617   1.978   0.875
10355SOL    HW231965   0.607   1.830   0.806
10356SOL     OW31966   6.219   3.494   5.233
10356SOL    HW131967   6.144   3.502   5.298
10356SOL    HW231968   6.268   3.408   5.248
10357SOL     OW31969   1.089   0.704   5.778
10357SOL    HW131970   1.118   0.717   5.683
10357SOL    HW231971   1.018   0.634   5.781
10358SOL     OW31972   0.818   3.147   3.160
10358SOL    HW131973   0.768   3.061   3.146
10358SOL    HW231974   0.912   3.127   3.188
10359SOL     OW31975   6.730   2.205   2.260
10359SOL    HW131976   6.681   2.160   2.335
10359SOL    HW231977   6.664   2.251   2.200
10360SOL     OW31978   5.631   4.305   1.564
10360SOL    HW131979   5.623   4.228   1.502
10360SOL    HW231980   5.610   4.276   1.657
10361SOL     OW31981   6.319   2.181   2.344
10361SOL    HW131982   6.341   2.271   2.383
10361SOL    HW231983   6.343   2.110   2.410
10362SOL     OW31984   1.504   6.317   1.983
10362SOL    HW131985   1.427   6.332   1.922
10362SOL    HW231986   1.589   6.327   1.932
10363SOL     OW31987   5.250   4.054   6.329
10363SOL    HW131988   5.216   4.147   6.316
10363SOL    HW231989   5.264   4.037   6.427
10364SOL     OW31990   6.013   4.791   2.044
10364SOL    HW131991   5.921   4.753   2.051
10364SOL    HW231992   6.019   4.874   2.099
10365SOL     OW31993   6.046   4.932   0.802
10365SOL    HW131994   6.077   4.933   0.896
10365SOL    HW231995   6.088   5.008   0.751
10366SOL     OW31996   2.968   6.174   3.514
10366SOL    HW131997   2.871   6.181   3.536
10366SOL    HW231998   2.982   6.104   3.445
10367SOL     OW31999   5.574   6.338   1.663
10367SOL    HW132000   5.541   6.322   1.570
10367SOL    HW232001   5.498   6.330   1.727
10368SOL     OW32002   2.571   6.431   1.131
10368SOL    HW132003   2.559   6.387   1.043
10368SOL    HW232004   2.482   6.461   1.166
10369SOL     OW32005   2.522   0.313   5.740
10369SOL    HW132006   2.443   0.259   5.711
10369SOL    HW232007   2.603   0.282   5.689
10370SOL     OW32008   1.356   1.305   5.252
10370SOL    HW132009   1.341   1.271   5.345
10370SOL    HW232010   1.450   1.288   5.224
10371SOL     OW32011   4.587   5.288   2.731
10371SOL    HW132012   4.498   5.330   2.751
10371SOL    HW232013   4.650   5.358   2.698
10372SOL     OW32014   2.499   6.711   1.608
10372SOL    HW132015   2.412   6.670   1.581
10372SOL    HW232016   2.498   6.729   1.707
10373SOL     OW32017   6.795   1.403   5.950
10373SOL    HW132018   6.812   1.307   5.970
10373SOL    HW232019   6.880   1.455   5.959
10374SOL     OW32020   3.597   5.251   3.611
10374SOL    HW132021   3.567   5.245   3.515
10374SOL    HW232022   3.577   5.165   3.657
10375SOL     OW32023   2.603   5.036   0.232
10375SOL    HW132024   2.560   5.038   0.141
10375SOL    HW232025   2.617   4.941   0.259
10376SOL     OW32026   1.921   5.187   4.278
10376SOL    HW132027   1.993   5.137   4.230
10376SOL    HW232028   1.919   5.159   4.374
10377SOL     OW32029   1.659   1.062   2.549
10377SOL    HW132030   1.701   1.109   2.627
10377SOL    HW232031   1.576   1.113   2.522
10378SOL     OW32032   0.301   5.721   4.214
10378SOL    HW132033   0.209   5.690   4.240
10378SOL    HW232034   0.315   5.707   4.116
10379SOL     OW32035   2.030   0.025   4.446
10379SOL    HW132036   2.086   0.108   4.450
10379SOL    HW232037   1.953   0.040   4.383
10380SOL     OW32038   3.099   2.166   4.485
10380SOL    HW132039   3.133   2.074   4.468
10380SOL    HW232040   3.000   2.164   4.494
10381SOL     OW32041   4.562   6.418   1.536
10381SOL    HW132042   4.587   6.488   1.602
10381SOL    HW232043   4.471   6.437   1.499
10382SOL     OW32044   4.369   5.578   1.565
10382SOL    HW132045   4.300   5.584   1.493
10382SOL    HW232046   4.440   5.645   1.549
10383SOL     OW32047   1.260   5.244   0.279
10383SOL    HW132048   1.317   5.270   0.358
10383SOL    HW232049   1.173   5.293   0.283
10384SOL     OW32050   5.474   5.910   1.629
10384SOL    HW132051   5.411   5.857   1.685
10384SOL    HW232052   5.559   5.925   1.680
10385SOL     OW32053   4.238   4.586   0.248
10385SOL    HW132054   4.214   4.506   0.303
10385SOL    HW232055   4.248   4.560   0.152
10386SOL     OW32056   0.333   0.985   0.712
10386SOL    HW132057   0.408   1.026   0.660
10386SOL    HW232058   0.339   0.886   0.707
10387SOL     OW32059   5.419   3.026   1.844
10387SOL    HW132060   5.386   3.027   1.939
10387SOL    HW232061   5.344   3.046   1.782
10388SOL     OW32062   2.307   6.684   5.304
10388SOL    HW132063   2.258   6.755   5.355
10388SOL    HW232064   2.286   6.693   5.206
10389SOL     OW32065   0.396   4.383   0.342
10389SOL    HW132066   0.473   4.436   0.306
10389SOL    HW232067   0.335   4.444   0.393
10390SOL     OW32068   2.536   2.540   1.602
10390SOL    HW132069   2.556   2.474   1.675
10390SOL    HW232070   2.585   2.625   1.619
10391SOL     OW32071   5.275   6.685   4.598
10391SOL    HW132072   5.241   6.777   4.579
10391SOL    HW232073   5.301   6.641   4.513
10392SOL     OW32074   6.605   3.853   4.068
10392SOL    HW132075   6.673   3.781   4.086
10392SOL    HW232076   6.513   3.815   4.076
10393SOL     OW32077   1.290   3.683   4.152
10393SOL    HW132078   1.384   3.716   4.143
10393SOL    HW232079   1.281   3.596   4.104
10394SOL     OW32080   3.331   0.195   4.170
10394SOL    HW132081   3.283   0.282   4.162
10394SOL    HW232082   3.282   0.135   4.233
10395SOL     OW32083   0.893   0.537   0.482
10395SOL    HW132084   0.961   0.523   0.554
10395SOL    HW232085   0.803   0.549   0.523
10396SOL     OW32086   2.825   2.173   4.563
10396SOL    HW132087   2.746   2.232   4.579
10396SOL    HW232088   2.798   2.097   4.503
10397SOL     OW32089   3.655   1.849   3.338
10397SOL    HW132090   3.689   1.819   3.427
10397SOL    HW232091   3.730   1.888   3.285
10398SOL     OW32092   6.276   2.886   1.534
10398SOL    HW132093   6.189   2.930   1.509
10398SOL    HW232094   6.266   2.787   1.525
10399SOL     OW32095   0.797   4.039   1.736
10399SOL    HW132096   0.710   3.989   1.735
10399SOL    HW232097   0.826   4.058   1.642
10400SOL     OW32098   3.824   6.050   0.604
10400SOL    HW132099   3.907   6.005   0.638
10400SOL    HW232100   3.744   6.013   0.651
10401SOL     OW32101   0.484   1.630   5.933
10401SOL    HW132102   0.517   1.661   6.022
10401SOL    HW232103   0.387   1.654   5.923
10402SOL     OW32104   0.146   2.719   4.661
10402SOL    HW132105   0.068   2.662   4.632
10402SOL    HW232106   0.222   2.659   4.687
10403SOL     OW32107   2.943   0.559   1.975
10403SOL    HW132108   2.894   0.472   1.974
10403SOL    HW232109   3.015   0.556   2.044
10404SOL     OW32110   0.073   6.641   5.905
10404SOL    HW132111   0.146   6.660   5.971
10404SOL    HW232112   0.076   6.709   5.831
10405SOL     OW32113   0.013   2.055   6.824
10405SOL    HW132114   6.999   2.062   6.915
10405SOL    HW232115   0.110   2.080   6.827
10406SOL     OW32116   2.741   4.826   1.471
10406SOL    HW132117   2.783   4.915   1.489
10406SOL    HW232118   2.693   4.829   1.383
10407SOL     OW32119   2.987   6.843   6.775
10407SOL    HW132120   3.079   6.838   6.812
10407SOL    HW232121   2.978   6.924   6.717
10408SOL     OW32122   3.914   1.453   6.812
10408SOL    HW132123   4.003   1.407   6.811
10408SOL    HW232124   3.876   1.454   6.720
10409SOL     OW32125   5.997   4.790   1.271
10409SOL    HW132126   5.933   4.720   1.241
10409SOL    HW232127   6.010   4.782   1.370
10410SOL     OW32128   6.088   0.683   0.882
10410SOL    HW132129   6.183   0.657   0.866
10410SOL    HW232130   6.079   0.782   0.880
10411SOL     OW32131   2.710   5.217   3.527
10411SOL    HW132132   2.760   5.155   3.468
10411SOL    HW232133   2.617   5.229   3.493
10412SOL     OW32134   6.722   0.370   0.557
10412SOL    HW132135   6.623   0.385   0.564
10412SOL    HW232136   6.757   0.416   0.476
10413SOL     OW32137   6.970   2.781   1.406
10413SOL    HW132138   0.002   2.800   1.326
10413SOL    HW232139   6.873   2.791   1.381
10414SOL     OW32140   4.471   2.491   4.125
10414SOL    HW132141   4.502   2.582   4.152
10414SOL    HW232142   4.444   2.492   4.029
10415SOL     OW32143   0.779   6.342   6.307
10415SOL    HW132144   0.878   6.347   6.321
10415SOL    HW232145   0.742   6.265   6.359
10416SOL     OW32146   5.532   2.536   3.951
10416SOL    HW132147   5.446   2.527   4.002
10416SOL    HW232148   5.543   2.456   3.892
10417SOL     OW32149   2.542   4.866   4.195
10417SOL    HW132150   2.573   4.774   4.172
10417SOL    HW232151   2.564   4.885   4.291
10418SOL     OW32152   0.839   4.463   5.795
10418SOL    HW132153   0.900   4.519   5.851
10418SOL    HW232154   0.785   4.404   5.854
10419SOL     OW32155   1.497   0.846   0.912
10419SOL    HW132156   1.404   0.883   0.910
10419SOL    HW232157   1.556   0.906   0.965
10420SOL     OW32158   0.577   3.269   3.441
10420SOL    HW132159   0.529   3.203   3.382
10420SOL    HW232160   0.675   3.250   3.440
10421SOL     OW32161   0.141   0.885   2.804
10421SOL    HW132162   0.174   0.812   2.744
10421SOL    HW232163   0.090   0.952   2.750
10422SOL     OW32164   6.379   2.909   6.089
10422SOL    HW132165   6.472   2.878   6.106
10422SOL    HW232166   6.343   2.864   6.007
10423SOL     OW32167   5.135   4.330   3.341
10423SOL    HW132168   5.178   4.240   3.332
10423SOL    HW232169   5.199   4.394   3.383
10424SOL     OW32170   5.091   2.084   6.496
10424SOL    HW132171   5.098   2.157   6.428
10424SOL    HW232172   5.042   2.119   6.576
10425SOL     OW32173   1.987   6.413   2.297
10425SOL    HW132174   1.918   6.405   2.226
10425SOL    HW232175   1.955   6.477   2.367
10426SOL     OW32176   6.749   4.413   0.092
10426SOL    HW132177   6.747   4.513   0.082
10426SOL    HW232178   6.823   4.388   0.154
10427SOL     OW32179   5.355   2.029   6.878
10427SOL    HW132180   5.366   2.033   6.778
10427SOL    HW232181   5.331   1.936   6.905
10428SOL     OW32182   4.736   0.367   4.314
10428SOL    HW132183   4.746   0.459   4.276
10428SOL    HW232184   4.700   0.306   4.244
10429SOL     OW32185   6.127   5.765   1.851
10429SOL    HW132186   6.102   5.845   1.907
10429SOL    HW232187   6.158   5.691   1.911
10430SOL     OW32188   4.059   6.349   2.343
10430SOL    HW132189   4.103   6.431   2.306
10430SOL    HW232190   4.094   6.332   2.435
10431SOL     OW32191   2.741   0.059   4.400
10431SOL    HW132192   2.732   0.152   4.435
10431SOL    HW232193   2.722   0.058   4.302
10432SOL     OW32194   5.843   0.636   5.497
10432SOL    HW132195   5.853   0.692   5.414
10432SOL    HW232196   5.781   0.681   5.560
10433SOL     OW32197   2.589   0.035   0.682
10433SOL    HW132198   2.537   6.989   0.729
10433SOL    HW232199   2.531   0.081   0.616
10434SOL     OW32200   2.107   0.806   3.903
10434SOL    HW132201   2.095   0.880   3.837
10434SOL    HW232202   2.185   0.826   3.963
10435SOL     OW32203   5.187   6.505   6.606
10435SOL    HW132204   5.231   6.569   6.669
10435SOL    HW232205   5.239   6.503   6.520
10436SOL     OW32206   1.534   5.394   3.283
10436SOL    HW132207   1.516   5.295   3.278
10436SOL    HW232208   1.537   5.422   3.379
10437SOL     OW32209   6.875   5.210   6.262
10437SOL    HW132210   6.912   5.137   6.205
10437SOL    HW232211   6.800   5.255   6.213
10438SOL     OW32212   4.175   6.286   0.278
10438SOL    HW132213   4.106   6.215   0.270
10438SOL    HW232214   4.259   6.257   0.231
10439SOL     OW32215   3.760   0.137   5.813
10439SOL    HW132216   3.857   0.118   5.800
10439SOL    HW232217   3.746   0.177   5.904
10440SOL     OW32218   1.974   6.135   0.779
10440SOL    HW132219   2.003   6.114   0.872
10440SOL    HW232220   2.052   6.169   0.726
10441SOL     OW32221   5.351   1.874   6.369
10441SOL    HW132222   5.306   1.925   6.443
10441SOL    HW232223   5.362   1.779   6.397
10442SOL     OW32224   4.121   4.940   5.972
10442SOL    HW132225   4.073   4.980   6.051
10442SOL    HW232226   4.066   4.866   5.934
10443SOL     OW32227   6.266   2.781   4.799
10443SOL    HW132228   6.261   2.812   4.704
10443SOL    HW232229   6.174   2.755   4.829
10444SOL     OW32230   4.097   4.827   4.162
10444SOL    HW132231   4.026   4.859   4.099
10444SOL    HW232232   4.059   4.825   4.255
10445SOL     OW32233   6.757   5.569   5.297
10445SOL    HW132234   6.720   5.492   5.245
10445SOL    HW232235   6.836   5.607   5.249
10446SOL     OW32236   1.043   5.243   6.020
10446SOL    HW132237   0.978   5.198   6.080
10446SOL    HW232238   1.099   5.308   6.073
10447SOL     OW32239   5.940   2.640   1.612
10447SOL    HW132240   5.892   2.606   1.693
10447SOL    HW232241   5.997   2.567   1.574
10448SOL     OW32242   3.685   3.975   2.588
10448SOL    HW132243   3.728   3.892   2.552
10448SOL    HW232244   3.632   4.020   2.516
10449SOL     OW32245   2.654   5.375   4.394
10449SOL    HW132246   2.632   5.280   4.370
10449SOL    HW232247   2.703   5.376   4.481
10450SOL     OW32248   6.456   2.369   1.149
10450SOL    HW132249   6.501   2.458   1.158
10450SOL    HW232250   6.518   2.297   1.181
10451SOL     OW32251   2.631   4.692   3.038
10451SOL    HW132252   2.695   4.698   3.115
10451SOL    HW232253   2.555   4.633   3.063
10452SOL     OW32254   1.071   3.117   4.351
10452SOL    HW132255   1.137   3.050   4.318
10452SOL    HW232256   1.112   3.208   4.349
10453SOL     OW32257   4.779   0.106   1.734
10453SOL    HW132258   4.722   0.186   1.751
10453SOL    HW232259   4.872   0.123   1.767
10454SOL     OW32260   5.181   3.199   1.993
10454SOL    HW132261   5.110   3.189   2.063
10454SOL    HW232262   5.251   3.262   2.025
10455SOL     OW32263   0.199   5.195   3.566
10455SOL    HW132264   0.149   5.280   3.549
10455SOL    HW232265   0.297   5.215   3.574
10456SOL     OW32266   4.472   5.768   0.960
10456SOL    HW132267   4.532   5.738   0.886
10456SOL    HW232268   4.524   5.776   1.045
10457SOL     OW32269   4.161   3.384   3.522
10457SOL    HW132270   4.109   3.306   3.556
10457SOL    HW232271   4.256   3.357   3.509
10458SOL     OW32272   1.168   6.716   1.214
10458SOL    HW132273   1.093   6.664   1.256
10458SOL    HW232274   1.136   6.757   1.129
10459SOL     OW32275   6.681   5.024   2.418
10459SOL    HW132276   6.645   5.046   2.509
10459SOL    HW232277   6.775   4.991   2.427
10460SOL     OW32278   2.120   5.197   2.638
10460SOL    HW132279   2.185   5.271   2.617
10460SOL    HW232280   2.031   5.220   2.598
10461SOL     OW32281   2.630   2.068   6.689
10461SOL    HW132282   2.584   2.099   6.772
10461SOL    HW232283   2.617   2.134   6.616
10462SOL     OW32284   0.027   6.933   1.008
10462SOL    HW132285   0.018   6.990   0.926
10462SOL    HW232286   7.001   6.848   0.995
10463SOL     OW32287   3.113   4.294   0.574
10463SOL    HW132288   3.032   4.279   0.516
10463SOL    HW232289   3.195   4.282   0.518
10464SOL     OW32290   4.973   0.889   1.284
10464SOL    HW132291   4.925   0.973   1.256
10464SOL    HW232292   5.034   0.859   1.210
10465SOL     OW32293   6.149   4.941   6.180
10465SOL    HW132294   6.172   4.989   6.264
10465SOL    HW232295   6.232   4.924   6.127
10466SOL     OW32296   4.668   5.871   5.776
10466SOL    HW132297   4.653   5.951   5.833
10466SOL    HW232298   4.589   5.810   5.783
10467SOL     OW32299   3.511   0.570   4.320
10467SOL    HW132300   3.507   0.509   4.399
10467SOL    HW232301   3.606   0.577   4.288
10468SOL     OW32302   3.866   6.391   2.971
10468SOL    HW132303   3.938   6.360   3.033
10468SOL    HW232304   3.781   6.342   2.992
10469SOL     OW32305   1.433   4.778   0.673
10469SOL    HW132306   1.511   4.726   0.638
10469SOL    HW232307   1.466   4.851   0.732
10470SOL     OW32308   2.936   1.596   4.401
10470SOL    HW132309   2.912   1.650   4.482
10470SOL    HW232310   2.966   1.505   4.429
10471SOL     OW32311   4.055   3.298   0.690
10471SOL    HW132312   4.009   3.209   0.695
10471SOL    HW232313   3.990   3.368   0.659
10472SOL     OW32314   4.607   0.854   2.529
10472SOL    HW132315   4.579   0.811   2.615
10472SOL    HW232316   4.562   0.942   2.519
10473SOL     OW32317   4.920   5.847   0.576
10473SOL    HW132318   4.892   5.790   0.499
10473SOL    HW232319   4.866   5.823   0.657
10474SOL     OW32320   3.877   0.157   4.802
10474SOL    HW132321   3.878   0.096   4.881
10474SOL    HW232322   3.938   0.234   4.818
10475SOL     OW32323   3.748   6.456   1.596
10475SOL    HW132324   3.846   6.440   1.609
10475SOL    HW232325   3.723   6.544   1.635
10476SOL     OW32326   0.306   4.782   0.662
10476SOL    HW132327   0.290   4.689   0.629
10476SOL    HW232328   0.245   4.846   0.615
10477SOL     OW32329   5.518   4.285   4.934
10477SOL    HW132330   5.617   4.293   4.948
10477SOL    HW232331   5.488   4.356   4.870
10478SOL     OW32332   0.586   6.824   1.476
10478SOL    HW132333   0.599   6.728   1.453
10478SOL    HW232334   0.667   6.858   1.525
10479SOL     OW32335   1.632   4.715   3.522
10479SOL    HW132336   1.556   4.779   3.527
10479SOL    HW232337   1.668   4.698   3.614
10480SOL     OW32338   5.790   6.948   2.132
10480SOL    HW132339   5.849   0.003   2.131
10480SOL    HW232340   5.727   6.953   2.055
10481SOL     OW32341   2.280   0.700   5.174
10481SOL    HW132342   2.314   0.765   5.106
10481SOL    HW232343   2.188   0.727   5.202
10482SOL     OW32344   1.253   5.389   6.168
10482SOL    HW132345   1.240   5.358   6.262
10482SOL    HW232346   1.334   5.345   6.129
10483SOL     OW32347   0.112   5.223   0.808
10483SOL    HW132348   0.035   5.285   0.820
10483SOL    HW232349   0.194   5.274   0.783
10484SOL     OW32350   6.151   1.580   1.752
10484SOL    HW132351   6.148   1.660   1.812
10484SOL    HW232352   6.101   1.505   1.794
10485SOL     OW32353   3.681   3.774   3.553
10485SOL    HW132354   3.692   3.674   3.548
10485SOL    HW232355   3.655   3.800   3.646
10486SOL     OW32356   5.655   6.172   5.483
10486SOL    HW132357   5.752   6.196   5.482
10486SOL    HW232358   5.636   6.106   5.411
10487SOL     OW32359   4.815   2.153   2.289
10487SOL    HW132360   4.746   2.143   2.217
10487SOL    HW232361   4.854   2.063   2.310
10488SOL     OW32362   6.361   2.562   5.214
10488SOL    HW132363   6.276   2.592   5.258
10488SOL    HW232364   6.424   2.529   5.285
10489SOL     OW32365   5.921   4.085   4.433
10489SOL    HW132366   5.847   4.019   4.423
10489SOL    HW232367   5.987   4.073   4.358
10490SOL     OW32368   5.852   6.472   6.725
10490SOL    HW132369   5.810   6.535   6.790
10490SOL    HW232370   5.823   6.378   6.745
10491SOL     OW32371   2.056   2.638   5.572
10491SOL    HW132372   2.097   2.562   5.623
10491SOL    HW232373   2.017   2.704   5.637
10492SOL     OW32374   3.599   0.230   6.924
10492SOL    HW132375   3.605   0.271   6.833
10492SOL    HW232376   3.671   0.267   6.983
10493SOL     OW32377   3.838   5.208   1.460
10493SOL    HW132378   3.860   5.116   1.427
10493SOL    HW232379   3.827   5.207   1.559
10494SOL     OW32380   1.240   4.316   5.186
10494SOL    HW132381   1.272   4.235   5.136
10494SOL    HW232382   1.283   4.319   5.276
10495SOL     OW32383   6.774   6.532   1.181
10495SOL    HW132384   6.851   6.502   1.124
10495SOL    HW232385   6.732   6.452   1.224
10496SOL     OW32386   0.353   3.173   5.802
10496SOL    HW132387   0.322   3.128   5.718
10496SOL    HW232388   0.310   3.263   5.810
10497SOL     OW32389   1.719   0.179   1.480
10497SOL    HW132390   1.717   0.236   1.562
10497SOL    HW232391   1.692   0.234   1.400
10498SOL     OW32392   4.548   4.228   0.139
10498SOL    HW132393   4.560   4.158   0.069
10498SOL    HW232394   4.603   4.205   0.219
10499SOL     OW32395   5.981   4.379   2.648
10499SOL    HW132396   5.885   4.368   2.622
10499SOL    HW232397   5.988   4.441   2.726
10500SOL     OW32398   1.081   3.203   5.212
10500SOL    HW132399   1.056   3.108   5.227
10500SOL    HW232400   1.140   3.235   5.287
10501SOL     OW32401   3.782   4.885   2.728
10501SOL    HW132402   3.697   4.874   2.676
10501SOL    HW232403   3.859   4.896   2.665
10502SOL     OW32404   3.317   3.775   2.216
10502SOL    HW132405   3.235   3.820   2.182
10502SOL    HW232406   3.396   3.805   2.163
10503SOL     OW32407   6.725   2.416   6.231
10503SOL    HW132408   6.784   2.469   6.292
10503SOL    HW232409   6.646   2.382   6.283
10504SOL     OW32410   0.944   2.846   6.064
10504SOL    HW132411   0.884   2.924   6.046
10504SOL    HW232412   1.019   2.847   5.998
10505SOL     OW32413   5.973   6.806   0.747
10505SOL    HW132414   5.972   6.891   0.695
10505SOL    HW232415   5.886   6.758   0.735
10506SOL     OW32416   1.650   2.839   6.561
10506SOL    HW132417   1.657   2.911   6.492
10506SOL    HW232418   1.646   2.881   6.652
10507SOL     OW32419   0.841   5.412   5.878
10507SOL    HW132420   0.856   5.505   5.911
10507SOL    HW232421   0.912   5.352   5.916
10508SOL     OW32422   1.788   5.015   5.217
10508SOL    HW132423   1.846   4.948   5.263
10508SOL    HW232424   1.700   4.973   5.196
10509SOL     OW32425   4.241   2.313   2.599
10509SOL    HW132426   4.246   2.363   2.686
10509SOL    HW232427   4.269   2.373   2.525
10510SOL     OW32428   5.764   6.216   3.854
10510SOL    HW132429   5.851   6.236   3.809
10510SOL    HW232430   5.690   6.264   3.807
10511SOL     OW32431   4.830   1.973   1.592
10511SOL    HW132432   4.913   1.953   1.644
10511SOL    HW232433   4.753   1.923   1.632
10512SOL     OW32434   4.642   0.664   5.194
10512SOL    HW132435   4.617   0.643   5.289
10512SOL    HW232436   4.632   0.762   5.178
10513SOL     OW32437   4.266   2.925   1.000
10513SOL    HW132438   4.331   2.969   0.938
10513SOL    HW232439   4.298   2.832   1.021
10514SOL     OW32440   1.565   3.328   1.829
10514SOL    HW132441   1.499   3.282   1.890
10514SOL    HW232442   1.517   3.372   1.754
10515SOL     OW32443   2.355   2.767   4.838
10515SOL    HW132444   2.310   2.833   4.778
10515SOL    HW232445   2.409   2.816   4.907
10516SOL     OW32446   3.940   2.095   1.461
10516SOL    HW132447   4.015   2.162   1.461
10516SOL    HW232448   3.978   2.003   1.468
10517SOL     OW32449   1.103   2.480   2.767
10517SOL    HW132450   1.077   2.539   2.843
10517SOL    HW232451   1.048   2.396   2.770
10518SOL     OW32452   0.516   5.340   2.892
10518SOL    HW132453   0.604   5.337   2.845
10518SOL    HW232454   0.495   5.249   2.929
10519SOL     OW32455   4.020   6.977   1.056
10519SOL    HW132456   4.017   6.894   1.113
10519SOL    HW232457   4.003   6.952   0.961
10520SOL     OW32458   0.909   2.735   5.713
10520SOL    HW132459   0.819   2.771   5.685
10520SOL    HW232460   0.965   2.718   5.632
10521SOL     OW32461   6.856   3.095   2.327
10521SOL    HW132462   6.845   2.996   2.340
10521SOL    HW232463   6.891   3.136   2.411
10522SOL     OW32464   5.113   2.419   3.612
10522SOL    HW132465   5.153   2.469   3.688
10522SOL    HW232466   5.045   2.354   3.646
10523SOL     OW32467   0.956   4.416   3.250
10523SOL    HW132468   0.957   4.355   3.170
10523SOL    HW232469   0.913   4.369   3.327
10524SOL     OW32470   6.962   6.192   5.189
10524SOL    HW132471   6.935   6.100   5.160
10524SOL    HW232472   0.033   6.191   5.217
10525SOL     OW32473   5.113   1.547   3.549
10525SOL    HW132474   5.114   1.553   3.649
10525SOL    HW232475   5.087   1.454   3.522
10526SOL     OW32476   0.849   4.483   0.045
10526SOL    HW132477   0.939   4.528   0.047
10526SOL    HW232478   0.807   4.489   0.135
10527SOL     OW32479   0.550   0.108   5.385
10527SOL    HW132480   0.617   0.036   5.406
10527SOL    HW232481   0.467   0.066   5.348
10528SOL     OW32482   1.524   3.358   5.552
10528SOL    HW132483   1.471   3.374   5.470
10528SOL    HW232484   1.610   3.410   5.548
10529SOL     OW32485   0.052   6.101   0.771
10529SOL    HW132486   0.046   6.179   0.835
10529SOL    HW232487   0.136   6.049   0.791
10530SOL     OW32488   6.801   6.073   1.155
10530SOL    HW132489   6.767   6.053   1.063
10530SOL    HW232490   6.899   6.057   1.158
10531SOL     OW32491   2.863   3.316   5.232
10531SOL    HW132492   2.792   3.263   5.185
10531SOL    HW232493   2.868   3.285   5.327
10532SOL     OW32494   5.110   6.364   6.997
10532SOL    HW132495   5.156   6.443   6.956
10532SOL    HW232496   5.135   6.358   0.069
10533SOL     OW32497   4.182   6.836   2.727
10533SOL    HW132498   4.246   6.771   2.687
10533SOL    HW232499   4.131   6.792   2.800
10534SOL     OW32500   1.352   6.058   4.397
10534SOL    HW132501   1.294   5.998   4.453
10534SOL    HW232502   1.296   6.106   4.330
10535SOL     OW32503   3.602   1.888   2.234
10535SOL    HW132504   3.690   1.927   2.208
10535SOL    HW232505   3.529   1.928   2.178
10536SOL     OW32506   4.895   2.881   4.460
10536SOL    HW132507   4.865   2.902   4.367
10536SOL    HW232508   4.814   2.869   4.518
10537SOL     OW32509   3.623   6.734   4.209
10537SOL    HW132510   3.638   6.764   4.115
10537SOL    HW232511   3.696   6.770   4.267
10538SOL     OW32512   0.651   3.876   2.804
10538SOL    HW132513   0.674   3.862   2.900
10538SOL    HW232514   0.580   3.812   2.776
10539SOL     OW32515   6.567   6.973   3.265
10539SOL    HW132516   6.633   0.016   3.236
10539SOL    HW232517   6.555   6.977   3.364
10540SOL     OW32518   1.885   4.058   6.123
10540SOL    HW132519   1.942   4.042   6.043
10540SOL    HW232520   1.842   4.148   6.117
10541SOL     OW32521   3.543   3.309   4.916
10541SOL    HW132522   3.484   3.368   4.862
10541SOL    HW232523   3.593   3.247   4.855
10542SOL     OW32524   4.533   0.031   4.314
10542SOL    HW132525   4.590   0.045   4.233
10542SOL    HW232526   4.567   0.089   4.389
10543SOL     OW32527   1.287   3.581   4.880
10543SOL    HW132528   1.291   3.678   4.903
10543SOL    HW232529   1.225   3.567   4.803
10544SOL     OW32530   2.389   1.550   3.440
10544SOL    HW132531   2.321   1.593   3.500
10544SOL    HW232532   2.360   1.560   3.345
10545SOL     OW32533   2.262   2.885   2.510
10545SOL    HW132534   2.223   2.933   2.431
10545SOL    HW232535   2.304   2.800   2.480
10546SOL     OW32536   3.132   6.777   6.522
10546SOL    HW132537   3.107   6.685   6.551
10546SOL    HW232538   3.051   6.823   6.485
10547SOL     OW32539   4.442   6.480   5.344
10547SOL    HW132540   4.366   6.526   5.299
10547SOL    HW232541   4.482   6.413   5.282
10548SOL     OW32542   6.598   5.883   3.074
10548SOL    HW132543   6.690   5.914   3.051
10548SOL    HW232544   6.600   5.835   3.162
10549SOL     OW32545   0.200   0.601   1.539
10549SOL    HW132546   0.201   0.686   1.592
10549SOL    HW232547   0.273   0.603   1.471
10550SOL     OW32548   4.836   5.601   3.352
10550SOL    HW132549   4.876   5.530   3.294
10550SOL    HW232550   4.854   5.578   3.448
10551SOL     OW32551   3.103   1.055   5.733
10551SOL    HW132552   3.070   1.144   5.701
10551SOL    HW232553   3.181   1.026   5.676
10552SOL     OW32554   3.014   0.207   3.774
10552SOL    HW132555   2.932   0.178   3.824
10552SOL    HW232556   2.994   0.288   3.720
10553SOL     OW32557   6.700   5.729   1.325
10553SOL    HW132558   6.700   5.821   1.365
10553SOL    HW232559   6.781   5.680   1.356
10554SOL     OW32560   5.716   6.006   2.331
10554SOL    HW132561   5.643   5.946   2.297
10554SOL    HW232562   5.676   6.091   2.365
10555SOL     OW32563   3.912   3.708   1.247
10555SOL    HW132564   3.992   3.698   1.305
10555SOL    HW232565   3.845   3.637   1.271
10556SOL     OW32566   1.986   1.629   2.660
10556SOL    HW132567   1.989   1.638   2.760
10556SOL    HW232568   1.971   1.534   2.635
10557SOL     OW32569   2.831   4.734   3.710
10557SOL    HW132570   2.839   4.769   3.803
10557SOL    HW232571   2.743   4.688   3.699
10558SOL     OW32572   3.670   5.323   5.294
10558SOL    HW132573   3.579   5.294   5.325
10558SOL    HW232574   3.721   5.360   5.372
10559SOL     OW32575   4.032   6.623   0.839
10559SOL    HW132576   4.029   6.642   0.937
10559SOL    HW232577   4.119   6.653   0.802
10560SOL     OW32578   5.444   6.947   2.213
10560SOL    HW132579   5.528   6.990   2.247
10560SOL    HW232580   5.371   6.957   2.280
10561SOL     OW32581   6.416   4.424   0.332
10561SOL    HW132582   6.505   4.378   0.324
10561SOL    HW232583   6.402   4.483   0.252
10562SOL     OW32584   4.511   5.863   2.529
10562SOL    HW132585   4.526   5.952   2.573
10562SOL    HW232586   4.436   5.871   2.463
10563SOL     OW32587   0.522   6.567   2.159
10563SOL    HW132588   0.498   6.660   2.130
10563SOL    HW232589   0.535   6.565   2.258
10564SOL     OW32590   5.333   4.475   3.476
10564SOL    HW132591   5.432   4.489   3.482
10564SOL    HW232592   5.293   4.480   3.568
10565SOL     OW32593   0.740   0.336   6.396
10565SOL    HW132594   0.659   0.283   6.372
10565SOL    HW232595   0.750   0.411   6.331
10566SOL     OW32596   3.513   3.173   0.263
10566SOL    HW132597   3.491   3.108   0.191
10566SOL    HW232598   3.601   3.149   0.304
10567SOL     OW32599   1.394   2.344   6.516
10567SOL    HW132600   1.439   2.406   6.580
10567SOL    HW232601   1.414   2.372   6.422
10568SOL     OW32602   4.548   2.169   6.025
10568SOL    HW132603   4.489   2.096   6.059
10568SOL    HW232604   4.535   2.180   5.926
10569SOL     OW32605   5.734   0.045   0.184
10569SOL    HW132606   5.650   0.077   0.228
10569SOL    HW232607   5.744   0.087   0.094
10570SOL     OW32608   1.261   4.341   3.318
10570SOL    HW132609   1.176   4.383   3.285
10570SOL    HW232610   1.333   4.355   3.251
10571SOL     OW32611   6.572   4.407   5.710
10571SOL    HW132612   6.569   4.396   5.610
10571SOL    HW232613   6.570   4.504   5.733
10572SOL     OW32614   6.229   4.305   1.036
10572SOL    HW132615   6.279   4.262   0.961
10572SOL    HW232616   6.156   4.244   1.067
10573SOL     OW32617   6.060   1.868   2.903
10573SOL    HW132618   6.045   1.785   2.958
10573SOL    HW232619   5.991   1.936   2.927
10574SOL     OW32620   6.398   3.195   2.753
10574SOL    HW132621   6.480   3.183   2.697
10574SOL    HW232622   6.343   3.269   2.715
10575SOL     OW32623   6.107   6.799   1.606
10575SOL    HW132624   6.124   6.774   1.701
10575SOL    HW232625   6.072   6.892   1.602
10576SOL     OW32626   1.766   4.339   4.622
10576SOL    HW132627   1.679   4.304   4.587
10576SOL    HW232628   1.750   4.389   4.707
10577SOL     OW32629   3.465   4.294   0.619
10577SOL    HW132630   3.380   4.249   0.591
10577SOL    HW232631   3.496   4.355   0.546
10578SOL     OW32632   0.275   3.622   4.147
10578SOL    HW132633   0.209   3.559   4.187
10578SOL    HW232634   0.272   3.614   4.048
10579SOL     OW32635   0.792   3.530   6.988
10579SOL    HW132636   0.755   3.529   6.895
10579SOL    HW232637   0.737   3.590   0.020
10580SOL     OW32638   6.185   0.086   0.697
10580SOL    HW132639   6.231   0.142   0.628
10580SOL    HW232640   6.091   0.068   0.668
10581SOL     OW32641   4.805   6.923   3.364
10581SOL    HW132642   4.789   6.842   3.308
10581SOL    HW232643   4.890   6.912   3.416
10582SOL     OW32644   5.973   4.230   6.145
10582SOL    HW132645   5.899   4.297   6.146
10582SOL    HW232646   5.953   4.156   6.208
10583SOL     OW32647   3.109   1.933   4.887
10583SOL    HW132648   3.058   1.919   4.802
10583SOL    HW232649   3.181   2.001   4.872
10584SOL     OW32650   1.081   6.736   4.062
10584SOL    HW132651   1.082   6.676   3.982
10584SOL    HW232652   1.126   6.690   4.139
10585SOL     OW32653   0.981   0.376   5.231
10585SOL    HW132654   1.048   0.430   5.180
10585SOL    HW232655   0.892   0.384   5.186
10586SOL     OW32656   4.057   4.209   5.265
10586SOL    HW132657   4.110   4.132   5.301
10586SOL    HW232658   4.118   4.284   5.242
10587SOL     OW32659   2.300   5.095   5.734
10587SOL    HW132660   2.215   5.088   5.683
10587SOL    HW232661   2.353   5.011   5.723
10588SOL     OW32662   1.294   4.226   3.767
10588SOL    HW132663   1.329   4.273   3.849
10588SOL    HW232664   1.366   4.166   3.731
10589SOL     OW32665   5.681   5.980   3.956
10589SOL    HW132666   5.683   6.069   3.911
10589SOL    HW232667   5.774   5.954   3.982
10590SOL     OW32668   0.844   5.413   2.553
10590SOL    HW132669   0.923   5.471   2.531
10590SOL    HW232670   0.764   5.471   2.569
10591SOL     OW32671   7.003   2.700   1.735
10591SOL    HW132672   7.014   2.759   1.815
10591SOL    HW232673   7.008   2.756   1.652
10592SOL     OW32674   6.980   1.880   5.078
10592SOL    HW132675   0.007   1.964   5.065
10592SOL    HW232676   6.946   1.848   4.989
10593SOL     OW32677   3.553   5.250   3.333
10593SOL    HW132678   3.476   5.314   3.333
10593SOL    HW232679   3.607   5.263   3.250
10594SOL     OW32680   3.188   5.911   3.704
10594SOL    HW132681   3.095   5.875   3.711
10594SOL    HW232682   3.253   5.842   3.736
10595SOL     OW32683   5.257   6.938   0.276
10595SOL    HW132684   5.163   6.906   0.279
10595SOL    HW232685   5.305   6.895   0.199
10596SOL     OW32686   4.767   3.310   0.273
10596SOL    HW132687   4.800   3.248   0.344
10596SOL    HW232688   4.761   3.403   0.311
10597SOL     OW32689   2.022   6.992   5.161
10597SOL    HW132690   2.025   0.061   5.130
10597SOL    HW232691   1.985   6.933   5.089
10598SOL     OW32692   2.663   1.320   6.283
10598SOL    HW132693   2.579   1.365   6.253
10598SOL    HW232694   2.665   1.226   6.248
10599SOL     OW32695   0.103   2.400   0.183
10599SOL    HW132696   0.048   2.484   0.177
10599SOL    HW232697   0.127   2.383   0.278
10600SOL     OW32698   3.175   2.460   1.464
10600SOL    HW132699   3.115   2.454   1.544
10600SOL    HW232700   3.187   2.369   1.425
10601SOL     OW32701   1.360   0.902   5.720
10601SOL    HW132702   1.416   0.982   5.742
10601SOL    HW232703   1.418   0.823   5.706
10602SOL     OW32704   6.915   7.016   1.399
10602SOL    HW132705   6.839   0.052   1.419
10602SOL    HW232706   6.902   6.930   1.448
10603SOL     OW32707   5.469   0.974   2.889
10603SOL    HW132708   5.511   0.939   2.972
10603SOL    HW232709   5.484   0.911   2.813
10604SOL     OW32710   4.722   6.842   4.612
10604SOL    HW132711   4.651   6.827   4.681
10604SOL    HW232712   4.717   6.771   4.542
10605SOL     OW32713   2.518   1.569   1.601
10605SOL    HW132714   2.487   1.608   1.688
10605SOL    HW232715   2.614   1.541   1.610
10606SOL     OW32716   6.449   0.591   0.471
10606SOL    HW132717   6.445   0.515   0.535
10606SOL    HW232718   6.529   0.647   0.491
10607SOL     OW32719   2.979   4.523   6.753
10607SOL    HW132720   3.019   4.613   6.737
10607SOL    HW232721   2.920   4.499   6.676
10608SOL     OW32722   5.737   3.809   3.676
10608SOL    HW132723   5.815   3.808   3.613
10608SOL    HW232724   5.714   3.904   3.698
10609SOL     OW32725   5.373   1.467   6.672
10609SOL    HW132726   5.437   1.518   6.729
10609SOL    HW232727   5.325   1.399   6.727
10610SOL     OW32728   0.449   1.645   3.735
10610SOL    HW132729   0.440   1.606   3.644
10610SOL    HW232730   0.436   1.573   3.804
10611SOL     OW32731   4.053   5.445   4.561
10611SOL    HW132732   4.019   5.446   4.467
10611SOL    HW232733   4.015   5.523   4.611
10612SOL     OW32734   5.894   2.087   3.396
10612SOL    HW132735   5.899   2.130   3.486
10612SOL    HW232736   5.804   2.103   3.356
10613SOL     OW32737   4.260   6.214   4.478
10613SOL    HW132738   4.187   6.223   4.410
10613SOL    HW232739   4.229   6.251   4.565
10614SOL     OW32740   4.010   1.869   5.972
10614SOL    HW132741   4.004   1.916   6.059
10614SOL    HW232742   3.941   1.797   5.968
10615SOL     OW32743   2.067   1.683   5.574
10615SOL    HW132744   2.111   1.763   5.614
10615SOL    HW232745   2.118   1.601   5.601
10616SOL     OW32746   2.136   6.564   0.160
10616SOL    HW132747   2.120   6.622   0.081
10616SOL    HW232748   2.199   6.609   0.223
10617SOL     OW32749   2.196   3.328   1.405
10617SOL    HW132750   2.111   3.296   1.448
10617SOL    HW232751   2.208   3.426   1.422
10618SOL     OW32752   1.118   5.358   3.691
10618SOL    HW132753   1.065   5.277   3.668
10618SOL    HW232754   1.074   5.407   3.766
10619SOL     OW32755   1.838   2.625   2.865
10619SOL    HW132756   1.781   2.585   2.793
10619SOL    HW232757   1.807   2.592   2.954
10620SOL     OW32758   3.131   1.726   6.480
10620SOL    HW132759   3.110   1.642   6.429
10620SOL    HW232760   3.079   1.727   6.566
10621SOL     OW32761   0.910   4.116   3.188
10621SOL    HW132762   0.898   4.024   3.225
10621SOL    HW232763   1.007   4.138   3.184
10622SOL     OW32764   4.652   1.835   7.013
10622SOL    HW132765   4.702   1.907   6.964
10622SOL    HW232766   4.703   1.808   0.069
10623SOL     OW32767   4.932   6.942   6.066
10623SOL    HW132768   5.014   6.895   6.033
10623SOL    HW232769   4.859   6.874   6.080
10624SOL     OW32770   0.635   2.323   0.329
10624SOL    HW132771   0.585   2.403   0.295
10624SOL    HW232772   0.679   2.276   0.253
10625SOL     OW32773   5.510   5.107   0.079
10625SOL    HW132774   5.548   5.139   0.166
10625SOL    HW232775   5.414   5.134   0.072
10626SOL     OW32776   5.428   3.143   0.929
10626SOL    HW132777   5.395   3.108   0.842
10626SOL    HW232778   5.408   3.077   1.002
10627SOL     OW32779   5.490   5.454   5.705
10627SOL    HW132780   5.519   5.479   5.613
10627SOL    HW232781   5.545   5.377   5.738
10628SOL     OW32782   3.769   6.743   0.479
10628SOL    HW132783   3.808   6.669   0.535
10628SOL    HW232784   3.776   6.719   0.382
10629SOL     OW32785   3.378   5.394   4.554
10629SOL    HW132786   3.361   5.342   4.638
10629SOL    HW232787   3.472   5.429   4.555
10630SOL     OW32788   4.109   1.283   1.938
10630SOL    HW132789   4.020   1.244   1.960
10630SOL    HW232790   4.159   1.302   2.023
10631SOL     OW32791   3.647   5.883   0.907
10631SOL    HW132792   3.654   5.841   0.817
10631SOL    HW232793   3.737   5.914   0.937
10632SOL     OW32794   5.256   6.225   3.327
10632SOL    HW132795   5.263   6.222   3.227
10632SOL    HW232796   5.237   6.319   3.356
10633SOL     OW32797   1.726   3.411   1.202
10633SOL    HW132798   1.819   3.374   1.215
10633SOL    HW232799   1.689   3.440   1.290
10634SOL     OW32800   0.429   3.860   0.248
10634SOL    HW132801   0.467   3.802   0.176
10634SOL    HW232802   0.502   3.915   0.288
10635SOL     OW32803   2.630   4.753   6.269
10635SOL    HW132804   2.651   4.835   6.321
10635SOL    HW232805   2.627   4.775   6.171
10636SOL     OW32806   6.928   2.229   0.050
10636SOL    HW132807   6.989   2.288   0.102
10636SOL    HW232808   6.911   2.269   6.985
10637SOL     OW32809   2.766   0.765   6.924
10637SOL    HW132810   2.696   0.700   6.954
10637SOL    HW232811   2.758   0.781   6.826
10638SOL     OW32812   5.866   5.747   1.787
10638SOL    HW132813   5.817   5.780   1.868
10638SOL    HW232814   5.965   5.756   1.803
10639SOL     OW32815   0.969   5.310   1.825
10639SOL    HW132816   0.893   5.341   1.882
10639SOL    HW232817   0.935   5.253   1.750
10640SOL     OW32818   4.319   6.309   3.313
10640SOL    HW132819   4.336   6.211   3.306
10640SOL    HW232820   4.406   6.358   3.312
10641SOL     OW32821   1.343   1.183   3.696
10641SOL    HW132822   1.302   1.122   3.628
10641SOL    HW232823   1.317   1.153   3.787
10642SOL     OW32824   6.253   2.562   6.073
10642SOL    HW132825   6.340   2.519   6.048
10642SOL    HW232826   6.192   2.494   6.114
10643SOL     OW32827   2.289   5.130   6.222
10643SOL    HW132828   2.372   5.076   6.237
10643SOL    HW232829   2.242   5.096   6.140
10644SOL     OW32830   6.739   3.484   2.515
10644SOL    HW132831   6.656   3.509   2.565
10644SOL    HW232832   6.788   3.567   2.489
10645SOL     OW32833   2.688   2.418   3.551
10645SOL    HW132834   2.705   2.448   3.458
10645SOL    HW232835   2.598   2.449   3.581
10646SOL     OW32836   5.394   0.589   3.838
10646SOL    HW132837   5.491   0.567   3.824
10646SOL    HW232838   5.337   0.522   3.790
10647SOL     OW32839   3.078   5.342   4.952
10647SOL    HW132840   3.071   5.442   4.946
10647SOL    HW232841   3.165   5.318   4.995
10648SOL     OW32842   4.693   4.759   6.290
10648SOL    HW132843   4.704   4.660   6.278
10648SOL    HW232844   4.632   4.794   6.219
10649SOL     OW32845   6.607   3.859   2.637
10649SOL    HW132846   6.530   3.921   2.622
10649SOL    HW232847   6.652   3.883   2.723
10650SOL     OW32848   0.559   0.178   3.659
10650SOL    HW132849   0.549   0.100   3.720
10650SOL    HW232850   0.639   0.164   3.600
10651SOL     OW32851   3.625   5.947   6.255
10651SOL    HW132852   3.688   5.879   6.293
10651SOL    HW232853   3.678   6.020   6.213
10652SOL     OW32854   2.413   0.558   0.276
10652SOL    HW132855   2.474   0.480   0.262
10652SOL    HW232856   2.451   0.618   0.346
10653SOL     OW32857   4.265   5.796   4.307
10653SOL    HW132858   4.345   5.793   4.247
10653SOL    HW232859   4.287   5.847   4.390
10654SOL     OW32860   6.032   1.422   4.439
10654SOL    HW132861   6.048   1.370   4.354
10654SOL    HW232862   6.023   1.519   4.418
10655SOL     OW32863   7.009   4.912   1.565
10655SOL    HW132864   6.952   4.936   1.487
10655SOL    HW232865   7.003   4.813   1.581
10656SOL     OW32866   5.745   2.967   3.546
10656SOL    HW132867   5.656   2.927   3.567
10656SOL    HW232868   5.811   2.894   3.530
10657SOL     OW32869   4.996   6.366   4.398
10657SOL    HW132870   4.981   6.457   4.438
10657SOL    HW232871   5.054   6.376   4.317
10658SOL     OW32872   0.859   3.059   4.681
10658SOL    HW132873   0.873   3.137   4.620
10658SOL    HW232874   0.948   3.025   4.713
10659SOL     OW32875   0.954   5.560   0.585
10659SOL    HW132876   0.881   5.628   0.591
10659SOL    HW232877   1.036   5.602   0.547
10660SOL     OW32878   5.744   2.785   5.135
10660SOL    HW132879   5.834   2.828   5.148
10660SOL    HW232880   5.679   2.853   5.102
10661SOL     OW32881   2.359   4.853   5.616
10661SOL    HW132882   2.428   4.805   5.669
10661SOL    HW232883   2.368   4.827   5.519
10662SOL     OW32884   2.637   1.441   1.975
10662SOL    HW132885   2.703   1.516   1.967
10662SOL    HW232886   2.676   1.358   1.934
10663SOL     OW32887   1.118   1.569   3.484
10663SOL    HW132888   1.134   1.503   3.558
10663SOL    HW232889   1.085   1.655   3.522
10664SOL     OW32890   0.828   5.240   4.551
10664SOL    HW132891   0.798   5.326   4.593
10664SOL    HW232892   0.924   5.224   4.573
10665SOL     OW32893   2.518   2.836   6.745
10665SOL    HW132894   2.424   2.841   6.710
10665SOL    HW232895   2.582   2.854   6.671
10666SOL     OW32896   3.423   3.887   1.981
10666SOL    HW132897   3.517   3.911   1.959
10666SOL    HW232898   3.369   3.971   1.995
10667SOL     OW32899   5.276   2.512   3.808
10667SOL    HW132900   5.272   2.513   3.908
10667SOL    HW232901   5.351   2.453   3.778
10668SOL     OW32902   3.486   2.886   5.499
10668SOL    HW132903   3.515   2.793   5.524
10668SOL    HW232904   3.450   2.886   5.406
10669SOL     OW32905   5.965   1.542   1.406
10669SOL    HW132906   6.054   1.549   1.451
10669SOL    HW232907   5.974   1.489   1.322
10670SOL     OW32908   4.869   3.357   4.168
10670SOL    HW132909   4.854   3.448   4.207
10670SOL    HW232910   4.868   3.363   4.068
10671SOL     OW32911   1.545   2.955   4.436
10671SOL    HW132912   1.565   3.053   4.430
10671SOL    HW232913   1.620   2.909   4.485
10672SOL     OW32914   5.906   3.090   1.546
10672SOL    HW132915   5.852   3.005   1.553
10672SOL    HW232916   5.844   3.168   1.546
10673SOL     OW32917   1.887   1.531   1.272
10673SOL    HW132918   1.898   1.505   1.176
10673SOL    HW232919   1.801   1.493   1.307
10674SOL     OW32920   3.355   4.144   3.351
10674SOL    HW132921   3.410   4.127   3.433
10674SOL    HW232922   3.271   4.090   3.355
10675SOL     OW32923   4.102   6.596   5.613
10675SOL    HW132924   4.013   6.631   5.583
10675SOL    HW232925   4.174   6.658   5.582
10676SOL     OW32926   1.697   6.665   5.411
10676SOL    HW132927   1.767   6.594   5.418
10676SOL    HW232928   1.645   6.654   5.327
10677SOL     OW32929   0.042   1.572   0.981
10677SOL    HW132930   6.984   1.612   0.943
10677SOL    HW232931   0.090   1.522   0.909
10678SOL     OW32932   3.987   5.783   3.657
10678SOL    HW132933   3.941   5.868   3.681
10678SOL    HW232934   4.058   5.802   3.589
10679SOL     OW32935   3.983   3.152   6.803
10679SOL    HW132936   4.057   3.097   6.764
10679SOL    HW232937   3.964   3.230   6.743
10680SOL     OW32938   4.013   0.799   4.220
10680SOL    HW132939   4.104   0.767   4.247
10680SOL    HW232940   4.023   0.881   4.163
10681SOL     OW32941   1.257   2.856   5.301
10681SOL    HW132942   1.288   2.926   5.365
10681SOL    HW232943   1.175   2.888   5.254
10682SOL     OW32944   5.162   3.318   5.868
10682SOL    HW132945   5.198   3.323   5.962
10682SOL    HW232946   5.065   3.294   5.871
10683SOL     OW32947   3.066   0.657   3.457
10683SOL    HW132948   3.058   0.736   3.396
10683SOL    HW232949   3.002   0.668   3.534
10684SOL     OW32950   4.456   4.561   2.090
10684SOL    HW132951   4.434   4.496   2.017
10684SOL    HW232952   4.472   4.512   2.176
10685SOL     OW32953   1.039   5.983   1.490
10685SOL    HW132954   1.092   5.943   1.414
10685SOL    HW232955   0.967   6.041   1.453
10686SOL     OW32956   2.505   2.501   6.586
10686SOL    HW132957   2.548   2.566   6.523
10686SOL    HW232958   2.406   2.515   6.587
10687SOL     OW32959   0.835   4.325   3.527
10687SOL    HW132960   0.750   4.371   3.551
10687SOL    HW232961   0.865   4.268   3.603
10688SOL     OW32962   5.544   1.917   2.314
10688SOL    HW132963   5.534   1.961   2.403
10688SOL    HW232964   5.636   1.936   2.278
10689SOL     OW32965   6.911   0.174   2.646
10689SOL    HW132966   6.864   0.216   2.724
10689SOL    HW232967   6.845   0.126   2.589
10690SOL     OW32968   0.042   0.187   3.750
10690SOL    HW132969   0.102   0.237   3.812
10690SOL    HW232970   6.972   0.201   3.776
10691SOL     OW32971   3.395   0.666   2.805
10691SOL    HW132972   3.383   0.712   2.716
10691SOL    HW232973   3.310   0.619   2.829
10692SOL     OW32974   2.209   0.101   3.997
10692SOL    HW132975   2.179   0.195   3.981
10692SOL    HW232976   2.255   0.067   3.916
10693SOL     OW32977   1.392   6.200   0.504
10693SOL    HW132978   1.455   6.276   0.490
10693SOL    HW232979   1.443   6.122   0.542
10694SOL     OW32980   4.579   6.335   5.180
10694SOL    HW132981   4.602   6.238   5.165
10694SOL    HW232982   4.505   6.362   5.118
10695SOL     OW32983   0.136   4.427   1.637
10695SOL    HW132984   0.186   4.346   1.605
10695SOL    HW232985   0.174   4.509   1.594
10696SOL     OW32986   6.864   5.442   4.723
10696SOL    HW132987   6.925   5.398   4.657
10696SOL    HW232988   6.772   5.447   4.684
10697SOL     OW32989   1.646   4.570   6.039
10697SOL    HW132990   1.737   4.585   6.002
10697SOL    HW232991   1.607   4.487   5.999
10698SOL     OW32992   4.365   3.216   6.941
10698SOL    HW132993   4.395   3.143   7.002
10698SOL    HW232994   4.425   3.295   6.951
10699SOL     OW32995   3.515   3.942   0.031
10699SOL    HW132996   3.477   3.881   6.986
10699SOL    HW232997   3.522   4.035   7.019
10700SOL     OW32998   4.716   0.693   0.972
10700SOL    HW132999   4.654   0.762   0.936
10700SOL    HW233000   4.723   0.703   1.072
10701SOL     OW33001   2.597   0.767   6.251
10701SOL    HW133002   2.542   0.775   6.334
10701SOL    HW233003   2.678   0.711   6.270
10702SOL     OW33004   5.417   2.244   2.248
10702SOL    HW133005   5.420   2.154   2.204
10702SOL    HW233006   5.333   2.291   2.221
10703SOL     OW33007   1.475   2.676   6.396
10703SOL    HW133008   1.383   2.694   6.431
10703SOL    HW233009   1.541   2.731   6.447
10704SOL     OW33010   6.373   0.198   1.825
10704SOL    HW133011   6.290   0.203   1.881
10704SOL    HW233012   6.402   0.103   1.816
10705SOL     OW33013   5.980   4.329   1.232
10705SOL    HW133014   5.952   4.243   1.190
10705SOL    HW233015   6.079   4.328   1.247
10706SOL     OW33016   4.800   0.529   1.905
10706SOL    HW133017   4.814   0.525   2.004
10706SOL    HW233018   4.883   0.496   1.859
10707SOL     OW33019   5.940   0.326   4.130
10707SOL    HW133020   5.881   0.262   4.080
10707SOL    HW233021   5.916   0.323   4.227
10708SOL     OW33022   4.203   2.146   2.259
10708SOL    HW133023   4.219   2.139   2.161
10708SOL    HW233024   4.129   2.084   2.285
10709SOL     OW33025   5.922   5.356   3.776
10709SOL    HW133026   5.872   5.355   3.863
10709SOL    HW233027   5.903   5.442   3.729
10710SOL     OW33028   5.760   1.430   3.086
10710SOL    HW133029   5.848   1.404   3.049
10710SOL    HW233030   5.699   1.351   3.088
10711SOL     OW33031   3.696   6.689   1.740
10711SOL    HW133032   3.620   6.716   1.681
10711SOL    HW233033   3.746   6.771   1.768
10712SOL     OW33034   4.473   6.887   2.851
10712SOL    HW133035   4.436   6.896   2.759
10712SOL    HW233036   4.472   6.976   2.897
10713SOL     OW33037   1.450   4.131   0.903
10713SOL    HW133038   1.364   4.078   0.900
10713SOL    HW233039   1.493   4.119   0.993
10714SOL     OW33040   4.022   3.098   4.033
10714SOL    HW133041   3.954   3.075   3.964
10714SOL    HW233042   4.085   3.022   4.044
10715SOL     OW33043   5.993   0.796   2.079
10715SOL    HW133044   6.083   0.758   2.100
10715SOL    HW233045   5.923   0.732   2.108
10716SOL     OW33046   6.519   2.527   3.213
10716SOL    HW133047   6.570   2.480   3.286
10716SOL    HW233048   6.471   2.460   3.158
10717SOL     OW33049   0.609   2.380   6.892
10717SOL    HW133050   0.596   2.285   6.863
10717SOL    HW233051   0.659   2.430   6.821
10718SOL     OW33052   1.253   4.616   5.623
10718SOL    HW133053   1.345   4.655   5.631
10718SOL    HW233054   1.238   4.585   5.530
10719SOL     OW33055   6.567   5.606   4.130
10719SOL    HW133056   6.518   5.619   4.216
10719SOL    HW233057   6.651   5.554   4.147
10720SOL     OW33058   5.779   5.589   4.353
10720SOL    HW133059   5.785   5.688   4.337
10720SOL    HW233060   5.837   5.542   4.285
10721SOL     OW33061   5.080   3.825   5.103
10721SOL    HW133062   5.113   3.733   5.081
10721SOL    HW233063   5.148   3.893   5.076
10722SOL     OW33064   6.968   3.893   6.146
10722SOL    HW133065   7.005   3.807   6.180
10722SOL    HW233066   6.943   3.951   6.223
10723SOL     OW33067   0.196   0.350   0.093
10723SOL    HW133068   0.183   0.267   0.040
10723SOL    HW233069   0.158   0.339   0.185
10724SOL     OW33070   0.085   6.456   0.271
10724SOL    HW133071   0.147   6.535   0.266
10724SOL    HW233072   7.016   6.488   0.274
10725SOL     OW33073   2.366   5.637   5.385
10725SOL    HW133074   2.364   5.558   5.323
10725SOL    HW233075   2.411   5.714   5.338
10726SOL     OW33076   4.958   0.817   3.715
10726SOL    HW133077   4.904   0.901   3.718
10726SOL    HW233078   4.923   0.757   3.642
10727SOL     OW33079   1.551   5.957   6.143
10727SOL    HW133080   1.504   5.985   6.227
10727SOL    HW233081   1.641   5.920   6.167
10728SOL     OW33082   6.704   5.436   0.640
10728SOL    HW133083   6.623   5.386   0.672
10728SOL    HW233084   6.676   5.525   0.604
10729SOL     OW33085   6.455   2.402   1.623
10729SOL    HW133086   6.411   2.348   1.551
10729SOL    HW233087   6.551   2.376   1.629
10730SOL     OW33088   3.942   0.545   1.835
10730SOL    HW133089   3.854   0.575   1.872
10730SOL    HW233090   3.947   0.569   1.738
10731SOL     OW33091   3.804   0.964   0.792
10731SOL    HW133092   3.733   1.031   0.768
10731SOL    HW233093   3.760   0.877   0.817
10732SOL     OW33094   0.072   5.363   4.885
10732SOL    HW133095   0.024   5.276   4.877
10732SOL    HW233096   0.062   5.399   4.978
10733SOL     OW33097   6.013   1.962   6.703
10733SOL    HW133098   6.082   2.033   6.687
10733SOL    HW233099   5.923   1.998   6.681
10734SOL     OW33100   0.909   1.561   1.219
10734SOL    HW133101   0.971   1.515   1.282
10734SOL    HW233102   0.919   1.660   1.229
10735SOL     OW33103   0.032   3.789   2.129
10735SOL    HW133104   0.070   3.698   2.143
10735SOL    HW233105   0.063   3.851   2.201
10736SOL     OW33106   2.694   6.633   4.281
10736SOL    HW133107   2.616   6.603   4.226
10736SOL    HW233108   2.729   6.720   4.245
10737SOL     OW33109   0.195   2.497   1.806
10737SOL    HW133110   0.289   2.529   1.814
10737SOL    HW233111   0.138   2.545   1.874
10738SOL     OW33112   3.971   0.003   3.064
10738SOL    HW133113   4.031   0.059   3.120
10738SOL    HW233114   3.881   7.021   3.108
10739SOL     OW33115   1.829   2.266   1.611
10739SOL    HW133116   1.922   2.250   1.642
10739SOL    HW233117   1.818   2.362   1.586
10740SOL     OW33118   5.384   4.885   4.926
10740SOL    HW133119   5.347   4.923   4.840
10740SOL    HW233120   5.454   4.818   4.905
10741SOL     OW33121   3.410   0.483   2.080
10741SOL    HW133122   3.373   0.414   2.142
10741SOL    HW233123   3.464   0.438   2.009
10742SOL     OW33124   5.823   5.117   1.435
10742SOL    HW133125   5.868   5.044   1.487
10742SOL    HW233126   5.859   5.120   1.342
10743SOL     OW33127   2.482   2.439   3.911
10743SOL    HW133128   2.469   2.450   3.813
10743SOL    HW233129   2.467   2.527   3.957
10744SOL     OW33130   3.711   2.164   1.298
10744SOL    HW133131   3.719   2.078   1.249
10744SOL    HW233132   3.794   2.179   1.352
10745SOL     OW33133   0.009   6.111   6.086
10745SOL    HW133134   6.965   6.183   6.080
10745SOL    HW233135   0.087   6.135   6.028
10746SOL     OW33136   1.006   3.632   5.395
10746SOL    HW133137   0.982   3.700   5.325
10746SOL    HW233138   0.975   3.542   5.367
10747SOL     OW33139   3.243   0.992   4.434
10747SOL    HW133140   3.262   0.898   4.462
10747SOL    HW233141   3.150   1.016   4.462
10748SOL     OW33142   5.338   1.181   2.513
10748SOL    HW133143   5.353   1.275   2.483
10748SOL    HW233144   5.337   1.121   2.433
10749SOL     OW33145   1.295   6.574   5.174
10749SOL    HW133146   1.279   6.673   5.176
10749SOL    HW233147   1.216   6.527   5.212
10750SOL     OW33148   4.075   0.327   4.868
10750SOL    HW133149   4.148   0.269   4.904
10750SOL    HW233150   4.109   0.379   4.791
10751SOL     OW33151   2.101   5.088   4.084
10751SOL    HW133152   2.123   5.139   4.001
10751SOL    HW233153   2.146   4.999   4.082
10752SOL     OW33154   5.212   4.494   4.892
10752SOL    HW133155   5.132   4.548   4.922
10752SOL    HW233156   5.256   4.453   4.972
10753SOL     OW33157   0.191   3.132   3.748
10753SOL    HW133158   0.206   3.190   3.668
10753SOL    HW233159   0.161   3.189   3.825
10754SOL     OW33160   0.894   6.986   3.014
10754SOL    HW133161   0.904   0.015   2.931
10754SOL    HW233162   0.984   6.974   3.057
10755SOL     OW33163   6.593   0.230   2.129
10755SOL    HW133164   6.631   0.216   2.038
10755SOL    HW233165   6.575   0.328   2.143
10756SOL     OW33166   6.761   5.924   5.131
10756SOL    HW133167   6.814   5.846   5.163
10756SOL    HW233168   6.735   5.910   5.036
10757SOL     OW33169   1.892   2.715   0.550
10757SOL    HW133170   1.845   2.769   0.480
10757SOL    HW233171   1.973   2.672   0.510
10758SOL     OW33172   0.319   6.532   3.757
10758SOL    HW133173   0.334   6.518   3.659
10758SOL    HW233174   0.398   6.498   3.808
10759SOL     OW33175   0.527   3.218   0.638
10759SOL    HW133176   0.474   3.269   0.569
10759SOL    HW233177   0.527   3.121   0.615
10760SOL     OW33178   5.942   1.063   3.587
10760SOL    HW133179   6.011   1.039   3.655
10760SOL    HW233180   5.887   1.140   3.620
10761SOL     OW33181   2.210   5.311   5.935
10761SOL    HW133182   2.125   5.282   5.979
10761SOL    HW233183   2.267   5.231   5.917
10762SOL     OW33184   2.794   0.406   4.890
10762SOL    HW133185   2.855   0.470   4.843
10762SOL    HW233186   2.726   0.372   4.826
10763SOL     OW33187   3.744   1.015   3.704
10763SOL    HW133188   3.804   1.045   3.630
10763SOL    HW233189   3.655   0.989   3.665
10764SOL     OW33190   4.681   1.517   4.238
10764SOL    HW133191   4.717   1.605   4.207
10764SOL    HW233192   4.634   1.529   4.325
10765SOL     OW33193   4.885   3.414   1.111
10765SOL    HW133194   4.916   3.375   1.198
10765SOL    HW233195   4.947   3.387   1.038
10766SOL     OW33196   3.512   3.763   0.779
10766SOL    HW133197   3.461   3.843   0.809
10766SOL    HW233198   3.465   3.721   0.702
10767SOL     OW33199   2.250   0.226   1.277
10767SOL    HW133200   2.313   0.231   1.199
10767SOL    HW233201   2.164   0.186   1.247
10768SOL     OW33202   6.646   4.974   0.791
10768SOL    HW133203   6.667   4.922   0.874
10768SOL    HW233204   6.577   4.926   0.737
10769SOL     OW33205   2.311   3.427   6.084
10769SOL    HW133206   2.368   3.441   6.165
10769SOL    HW233207   2.361   3.455   6.002
10770SOL     OW33208   4.596   5.991   3.127
10770SOL    HW133209   4.573   5.968   3.032
10770SOL    HW233210   4.661   5.925   3.163
10771SOL     OW33211   3.407   6.881   3.968
10771SOL    HW133212   3.332   6.816   3.960
10771SOL    HW233213   3.373   6.974   3.954
10772SOL     OW33214   6.359   5.470   4.511
10772SOL    HW133215   6.285   5.453   4.576
10772SOL    HW233216   6.347   5.560   4.470
10773SOL     OW33217   5.218   4.654   4.277
10773SOL    HW133218   5.165   4.651   4.363
10773SOL    HW233219   5.280   4.576   4.274
10774SOL     OW33220   1.602   1.136   3.809
10774SOL    HW133221   1.604   1.156   3.712
10774SOL    HW233222   1.694   1.108   3.839
10775SOL     OW33223   1.144   4.498   1.850
10775SOL    HW133224   1.206   4.420   1.847
10775SOL    HW233225   1.060   4.476   1.801
10776SOL     OW33226   2.176   0.901   6.391
10776SOL    HW133227   2.097   0.891   6.453
10776SOL    HW233228   2.185   0.818   6.336
10777SOL     OW33229   3.280   5.726   1.483
10777SOL    HW133230   3.364   5.690   1.523
10777SOL    HW233231   3.219   5.758   1.555
10778SOL     OW33232   5.608   6.472   3.980
10778SOL    HW133233   5.561   6.443   3.896
10778SOL    HW233234   5.581   6.411   4.055
10779SOL     OW33235   6.082   2.723   3.613
10779SOL    HW133236   6.127   2.771   3.538
10779SOL    HW233237   6.119   2.756   3.700
10780SOL     OW33238   0.655   1.215   3.091
10780SOL    HW133239   0.704   1.298   3.063
10780SOL    HW233240   0.585   1.238   3.158
10781SOL     OW33241   3.798   0.235   4.320
10781SOL    HW133242   3.705   0.260   4.295
10781SOL    HW233243   3.833   0.299   4.388
10782SOL     OW33244   5.943   6.786   4.315
10782SOL    HW133245   5.966   6.878   4.284
10782SOL    HW233246   6.018   6.723   4.294
10783SOL     OW33247   6.605   2.993   3.147
10783SOL    HW133248   6.530   2.943   3.192
10783SOL    HW233249   6.569   3.043   3.069
10784SOL     OW33250   2.923   1.409   4.081
10784SOL    HW133251   2.836   1.380   4.121
10784SOL    HW233252   2.997   1.384   4.142
10785SOL     OW33253   0.598   4.044   0.314
10785SOL    HW133254   0.697   4.037   0.329
10785SOL    HW233255   0.579   4.126   0.259
10786SOL     OW33256   6.097   5.883   2.783
10786SOL    HW133257   6.169   5.816   2.764
10786SOL    HW233258   6.085   5.893   2.881
10787SOL     OW33259   0.830   1.034   5.138
10787SOL    HW133260   0.751   1.002   5.086
10787SOL    HW233261   0.868   0.958   5.191
10788SOL     OW33262   0.085   4.192   6.814
10788SOL    HW133263   0.182   4.167   6.818
10788SOL    HW233264   0.056   4.225   6.904
10789SOL     OW33265   6.805   2.512   0.381
10789SOL    HW133266   6.795   2.526   0.480
10789SOL    HW233267   6.785   2.417   0.359
10790SOL     OW33268   0.329   0.049   1.823
10790SOL    HW133269   0.261   0.069   1.892
10790SOL    HW233270   0.372   0.134   1.793
10791SOL     OW33271   6.184   6.016   2.378
10791SOL    HW133272   6.139   6.105   2.374
10791SOL    HW233273   6.242   6.004   2.297
10792SOL     OW33274   3.961   3.669   5.276
10792SOL    HW133275   3.881   3.714   5.317
10792SOL    HW233276   4.031   3.656   5.346
10793SOL     OW33277   5.915   3.479   5.140
10793SOL    HW133278   5.944   3.446   5.229
10793SOL    HW233279   5.945   3.574   5.128
10794SOL     OW33280   3.427   3.333   3.874
10794SOL    HW133281   3.424   3.427   3.906
10794SOL    HW233282   3.421   3.271   3.952
10795SOL     OW33283   1.125   4.394   2.942
10795SOL    HW133284   1.117   4.491   2.965
10795SOL    HW233285   1.096   4.379   2.848
10796SOL     OW33286   0.600   6.474   5.192
10796SOL    HW133287   0.636   6.421   5.115
10796SOL    HW233288   0.609   6.571   5.172
10797SOL     OW33289   3.904   3.071   0.162
10797SOL    HW133290   3.962   3.092   0.083
10797SOL    HW233291   3.949   3.104   0.245
10798SOL     OW33292   1.622   1.143   1.493
10798SOL    HW133293   1.616   1.127   1.592
10798SOL    HW233294   1.700   1.093   1.455
10799SOL     OW33295   4.037   0.942   2.449
10799SOL    HW133296   3.998   0.882   2.520
10799SOL    HW233297   4.027   1.037   2.477
10800SOL     OW33298   1.166   6.407   0.172
10800SOL    HW133299   1.114   6.322   0.180
10800SOL    HW233300   1.115   6.473   0.117
10801SOL     OW33301   1.656   0.685   0.597
10801SOL    HW133302   1.648   0.585   0.589
10801SOL    HW233303   1.733   0.708   0.656
10802SOL     OW33304   6.310   6.455   3.429
10802SOL    HW133305   6.274   6.548   3.436
10802SOL    HW233306   6.234   6.391   3.415
10803SOL     OW33307   1.658   5.388   6.543
10803SOL    HW133308   1.751   5.417   6.567
10803SOL    HW233309   1.660   5.296   6.505
10804SOL     OW33310   0.362   3.400   3.893
10804SOL    HW133311   0.291   3.443   3.838
10804SOL    HW233312   0.326   3.377   3.983
10805SOL     OW33313   5.942   0.890   5.116
10805SOL    HW133314   5.872   0.939   5.168
10805SOL    HW233315   5.939   0.793   5.141
10806SOL     OW33316   2.400   4.456   6.894
10806SOL    HW133317   2.397   4.375   6.952
10806SOL    HW233318   2.335   4.446   6.819
10807SOL     OW33319   2.507   5.832   3.833
10807SOL    HW133320   2.512   5.739   3.797
10807SOL    HW233321   2.474   5.830   3.927
10808SOL     OW33322   6.994   2.417   5.907
10808SOL    HW133323   7.017   2.505   5.947
10808SOL    HW233324   7.019   2.344   5.971
10809SOL     OW33325   2.185   5.321   4.322
10809SOL    HW133326   2.258   5.387   4.339
10809SOL    HW233327   2.171   5.312   4.223
10810SOL     OW33328   0.588   0.310   4.518
10810SOL    HW133329   0.646   0.332   4.596
10810SOL    HW233330   0.640   0.255   4.452
10811SOL     OW33331   4.807   5.433   4.576
10811SOL    HW133332   4.811   5.407   4.673
10811SOL    HW233333   4.732   5.498   4.562
10812SOL     OW33334   0.170   2.993   6.791
10812SOL    HW133335   0.159   3.009   6.693
10812SOL    HW233336   0.266   2.974   6.811
10813SOL     OW33337   0.287   3.565   6.173
10813SOL    HW133338   0.261   3.469   6.156
10813SOL    HW233339   0.310   3.608   6.086
10814SOL     OW33340   2.167   0.409   6.963
10814SOL    HW133341   2.131   0.333   7.016
10814SOL    HW233342   2.267   0.414   6.974
10815SOL     OW33343   5.021   0.953   4.426
10815SOL    HW133344   4.936   1.005   4.416
10815SOL    HW233345   5.091   0.990   4.365
10816SOL     OW33346   3.771   2.931   3.624
10816SOL    HW133347   3.715   2.848   3.617
10816SOL    HW233348   3.756   2.989   3.544
10817SOL     OW33349   2.428   7.012   2.950
10817SOL    HW133350   2.486   6.930   2.952
10817SOL    HW233351   2.428   0.025   2.857
10818SOL     OW33352   4.548   4.833   6.060
10818SOL    HW133353   4.453   4.813   6.039
10818SOL    HW233354   4.608   4.771   6.009
10819SOL     OW33355   0.096   5.711   6.388
10819SOL    HW133356   0.043   5.717   6.473
10819SOL    HW233357   0.066   5.631   6.336
10820SOL     OW33358   1.816   4.768   5.678
10820SOL    HW133359   1.914   4.767   5.696
10820SOL    HW233360   1.794   4.844   5.617
10821SOL     OW33361   4.982   5.094   3.039
10821SOL    HW133362   4.966   5.045   2.954
10821SOL    HW233363   5.001   5.190   3.019
10822SOL     OW33364   5.686   2.870   0.659
10822SOL    HW133365   5.736   2.834   0.581
10822SOL    HW233366   5.671   2.968   0.648
10823SOL     OW33367   6.526   6.526   3.209
10823SOL    HW133368   6.452   6.471   3.249
10823SOL    HW233369   6.587   6.467   3.157
10824SOL     OW33370   1.385   1.306   4.594
10824SOL    HW133371   1.334   1.334   4.513
10824SOL    HW233372   1.335   1.333   4.676
10825SOL     OW33373   1.325   1.816   0.983
10825SOL    HW133374   1.357   1.902   0.943
10825SOL    HW233375   1.366   1.805   1.074
10826SOL     OW33376   1.287   2.464   3.004
10826SOL    HW133377   1.265   2.366   2.995
10826SOL    HW233378   1.315   2.499   2.915
10827SOL     OW33379   6.939   3.386   5.333
10827SOL    HW133380   7.018   3.324   5.333
10827SOL    HW233381   6.856   3.333   5.352
10828SOL     OW33382   6.346   4.310   6.252
10828SOL    HW133383   6.436   4.341   6.221
10828SOL    HW233384   6.356   4.249   6.330
10829SOL     OW33385   4.133   3.658   5.759
10829SOL    HW133386   4.192   3.578   5.752
10829SOL    HW233387   4.176   3.726   5.817
10830SOL     OW33388   4.949   1.235   3.798
10830SOL    HW133389   4.872   1.171   3.799
10830SOL    HW233390   5.035   1.184   3.794
10831SOL     OW33391   3.721   1.184   2.677
10831SOL    HW133392   3.636   1.229   2.707
10831SOL    HW233393   3.699   1.099   2.630
10832SOL     OW33394   6.867   3.440   0.192
10832SOL    HW133395   6.923   3.483   0.263
10832SOL    HW233396   6.794   3.502   0.165
10833SOL     OW33397   0.635   0.828   0.692
10833SOL    HW133398   0.625   0.834   0.791
10833SOL    HW233399   0.671   0.915   0.657
10834SOL     OW33400   6.356   6.648   0.479
10834SOL    HW133401   6.449   6.614   0.490
10834SOL    HW233402   6.335   6.712   0.553
10835SOL     OW33403   6.616   2.748   5.461
10835SOL    HW133404   6.698   2.785   5.505
10835SOL    HW233405   6.601   2.654   5.493
10836SOL     OW33406   0.240   1.956   3.611
10836SOL    HW133407   0.201   2.047   3.597
10836SOL    HW233408   0.230   1.929   3.707
10837SOL     OW33409   7.000   4.387   2.734
10837SOL    HW133410   0.038   4.337   2.793
10837SOL    HW233411   6.919   4.331   2.716
10838SOL     OW33412   5.928   5.953   4.047
10838SOL    HW133413   5.903   5.858   4.068
10838SOL    HW233414   6.013   5.954   3.994
10839SOL     OW33415   4.822   3.863   0.570
10839SOL    HW133416   4.731   3.829   0.550
10839SOL    HW233417   4.867   3.889   0.485
10840SOL     OW33418   3.187   0.642   0.714
10840SOL    HW133419   3.208   0.565   0.654
10840SOL    HW233420   3.217   0.621   0.807
10841SOL     OW33421   1.175   4.719   4.491
10841SOL    HW133422   1.150   4.809   4.529
10841SOL    HW233423   1.224   4.733   4.405
10842SOL     OW33424   4.872   4.155   0.915
10842SOL    HW133425   4.950   4.210   0.947
10842SOL    HW233426   4.900   4.060   0.907
10843SOL     OW33427   1.695   2.445   1.253
10843SOL    HW133428   1.729   2.363   1.298
10843SOL    HW233429   1.761   2.519   1.263
10844SOL     OW33430   0.971   5.201   5.159
10844SOL    HW133431   0.975   5.288   5.210
10844SOL    HW233432   0.882   5.193   5.114
10845SOL     OW33433   4.418   6.265   4.819
10845SOL    HW133434   4.382   6.172   4.821
10845SOL    HW233435   4.515   6.263   4.792
10846SOL     OW33436   5.700   0.309   0.718
10846SOL    HW133437   5.787   0.337   0.760
10846SOL    HW233438   5.672   0.378   0.652
10847SOL     OW33439   1.828   1.786   0.520
10847SOL    HW133440   1.804   1.880   0.543
10847SOL    HW233441   1.745   1.733   0.504
10848SOL     OW33442   1.883   4.351   1.238
10848SOL    HW133443   1.828   4.424   1.278
10848SOL    HW233444   1.909   4.376   1.145
10849SOL     OW33445   2.361   5.885   4.058
10849SOL    HW133446   2.339   5.969   4.108
10849SOL    HW233447   2.344   5.806   4.116
10850SOL     OW33448   3.636   6.701   0.167
10850SOL    HW133449   3.687   6.627   0.124
10850SOL    HW233450   3.599   6.761   0.096
10851SOL     OW33451   2.392   5.081   1.654
10851SOL    HW133452   2.457   5.156   1.648
10851SOL    HW233453   2.415   5.022   1.732
10852SOL     OW33454   2.116   1.642   1.363
10852SOL    HW133455   2.017   1.625   1.358
10852SOL    HW233456   2.158   1.573   1.422
10853SOL     OW33457   2.561   2.210   6.402
10853SOL    HW133458   2.627   2.159   6.347
10853SOL    HW233459   2.548   2.301   6.363
10854SOL     OW33460   4.358   6.140   5.471
10854SOL    HW133461   4.330   6.169   5.379
10854SOL    HW233462   4.400   6.217   5.519
10855SOL     OW33463   3.142   1.130   0.705
10855SOL    HW133464   3.192   1.167   0.627
10855SOL    HW233465   3.111   1.037   0.683
10856SOL     OW33466   6.800   0.958   6.991
10856SOL    HW133467   6.794   0.877   0.025
10856SOL    HW233468   6.756   0.938   6.903
10857SOL     OW33469   6.121   1.612   2.627
10857SOL    HW133470   6.082   1.566   2.548
10857SOL    HW233471   6.086   1.705   2.633
10858SOL     OW33472   2.548   5.825   1.364
10858SOL    HW133473   2.581   5.893   1.298
10858SOL    HW233474   2.529   5.870   1.451
10859SOL     OW33475   0.942   5.528   3.865
10859SOL    HW133476   0.928   5.620   3.900
10859SOL    HW233477   0.895   5.519   3.777
10860SOL     OW33478   6.985   2.864   2.724
10860SOL    HW133479   6.954   2.959   2.731
10860SOL    HW233480   6.971   2.818   2.812
10861SOL     OW33481   3.837   2.991   4.344
10861SOL    HW133482   3.744   2.972   4.375
10861SOL    HW233483   3.844   2.970   4.247
10862SOL     OW33484   1.534   0.136   4.807
10862SOL    HW133485   1.605   0.067   4.824
10862SOL    HW233486   1.492   0.119   4.717
10863SOL     OW33487   2.997   5.607   4.887
10863SOL    HW133488   2.920   5.605   4.951
10863SOL    HW233489   2.967   5.643   4.799
10864SOL     OW33490   3.605   6.266   2.787
10864SOL    HW133491   3.653   6.283   2.701
10864SOL    HW233492   3.541   6.341   2.805
10865SOL     OW33493   6.503   2.161   6.077
10865SOL    HW133494   6.603   2.165   6.082
10865SOL    HW233495   6.465   2.246   6.111
10866SOL     OW33496   5.488   4.824   0.578
10866SOL    HW133497   5.508   4.752   0.512
10866SOL    HW233498   5.389   4.836   0.585
10867SOL     OW33499   3.506   3.094   0.566
10867SOL    HW133500   3.469   3.172   0.616
10867SOL    HW233501   3.510   3.117   0.468
10868SOL     OW33502   3.160   1.727   3.051
10868SOL    HW133503   3.201   1.801   2.998
10868SOL    HW233504   3.183   1.737   3.148
10869NA      NA33505   6.308   2.114   5.571
10870NA      NA33506   4.394   4.547   5.284
10871NA      NA33507   2.304   3.731   1.611
10872NA      NA33508   4.848   3.855   5.115
10873NA      NA33509   4.228   2.350   5.286
10874NA      NA33510   3.703   4.620   1.697
10875NA      NA33511   6.587   5.777   5.690
10876NA      NA33512   4.041   3.591   5.059
10877NA      NA33513   4.739   6.580   6.860
10878NA      NA33514   3.600   6.868   5.474
10879NA      NA33515   6.425   4.744   2.136
10880NA      NA33516   2.112   0.440   3.100
10881NA      NA33517   3.276   4.740   1.066
10882NA      NA33518   3.374   3.636   2.933
   7.02520   7.02520   7.02520
