Generated by trjconv : CNT in water t= 388.00000
33518
    1C        C    1   2.850   2.772   4.746
    1C        C    2   2.902   2.721   4.867
    1C        C    3   2.839   2.769   4.982
    1C        C    4   2.847   2.770   4.259
    1C        C    5   2.902   2.726   4.381
    1C        C    6   2.848   2.772   4.503
    1C        C    7   3.016   2.640   4.625
    1C        C    8   2.901   2.722   4.624
    1C        C    9   3.076   2.600   4.746
    1C        C   10   3.011   2.630   4.868
    1C        C   11   3.185   2.494   4.975
    1C        C   12   3.061   2.558   4.977
    1C        C   13   2.850   2.768   3.772
    1C        C   14   2.902   2.716   3.893
    1C        C   15   2.850   2.768   4.014
    1C        C   16   3.017   2.641   4.139
    1C        C   17   2.903   2.725   4.137
    1C        C   18   3.081   2.609   4.261
    1C        C   19   3.020   2.649   4.382
    1C        C   20   3.212   2.555   4.503
    1C        C   21   3.083   2.612   4.503
    1C        C   22   3.277   2.527   4.625
    1C        C   23   3.206   2.544   4.746
    1C        C   24   3.416   2.484   4.867
    1C        C   25   3.274   2.499   4.863
    1C        C   26   3.494   2.470   4.983
    1C        C   27   2.852   2.771   3.282
    1C        C   28   2.906   2.723   3.404
    1C        C   29   2.855   2.769   3.528
    1C        C   30   3.018   2.635   3.650
    1C        C   31   2.904   2.719   3.651
    1C        C   32   3.076   2.595   3.772
    1C        C   33   3.014   2.629   3.894
    1C        C   34   3.206   2.546   4.014
    1C        C   35   3.075   2.600   4.017
    1C        C   36   3.275   2.528   4.136
    1C        C   37   3.209   2.549   4.259
    1C        C   38   3.416   2.507   4.380
    1C        C   39   3.276   2.527   4.381
    1C        C   40   3.485   2.503   4.504
    1C        C   41   3.415   2.497   4.626
    1C        C   42   3.631   2.476   4.742
    1C        C   43   3.489   2.480   4.745
    1C        C   44   3.707   2.482   4.862
    1C        C   45   3.633   2.472   4.980
    1C        C   46   2.840   2.753   2.794
    1C        C   47   2.897   2.711   2.916
    1C        C   48   2.848   2.763   3.038
    1C        C   49   3.016   2.634   3.160
    1C        C   50   2.906   2.723   3.160
    1C        C   51   3.077   2.598   3.282
    1C        C   52   3.018   2.637   3.404
    1C        C   53   3.206   2.541   3.525
    1C        C   54   3.077   2.599   3.527
    1C        C   55   3.275   2.523   3.647
    1C        C   56   3.208   2.544   3.769
    1C        C   57   3.415   2.508   3.895
    1C        C   58   3.275   2.524   3.892
    1C        C   59   3.488   2.508   4.016
    1C        C   60   3.415   2.509   4.137
    1C        C   61   3.628   2.497   4.261
    1C        C   62   3.487   2.500   4.258
    1C        C   63   3.703   2.504   4.381
    1C        C   64   3.627   2.499   4.500
    1C        C   65   3.833   2.547   4.623
    1C        C   66   3.699   2.500   4.621
    1C        C   67   3.902   2.566   4.744
    1C        C   68   3.841   2.525   4.865
    1C        C   69   4.049   2.583   4.977
    1C        C   70   3.922   2.523   4.979
    1C        C   71   2.823   2.735   2.310
    1C        C   72   2.883   2.693   2.430
    1C        C   73   2.827   2.741   2.551
    1C        C   74   3.007   2.624   2.670
    1C        C   75   2.888   2.700   2.672
    1C        C   76   3.074   2.595   2.791
    1C        C   77   3.013   2.631   2.913
    1C        C   78   3.206   2.546   3.036
    1C        C   79   3.075   2.601   3.037
    1C        C   80   3.274   2.527   3.158
    1C        C   81   3.207   2.544   3.282
    1C        C   82   3.413   2.497   3.403
    1C        C   83   3.273   2.516   3.404
    1C        C   84   3.484   2.498   3.525
    1C        C   85   3.415   2.503   3.649
    1C        C   86   3.625   2.505   3.771
    1C        C   87   3.484   2.498   3.772
    1C        C   88   3.695   2.519   3.893
    1C        C   89   3.629   2.508   4.017
    1C        C   90   3.832   2.558   4.136
    1C        C   91   3.699   2.510   4.140
    1C        C   92   3.900   2.578   4.258
    1C        C   93   3.837   2.548   4.381
    1C        C   94   4.028   2.638   4.499
    1C        C   95   3.903   2.574   4.503
    1C        C   96   4.089   2.672   4.622
    1C        C   97   4.029   2.631   4.743
    1C        C   98   4.188   2.768   4.865
    1C        C   99   4.096   2.659   4.865
    1C        C  100   4.208   2.848   4.979
    1C        C  101   2.824   2.733   2.069
    1C        C  102   2.991   2.597   2.192
    1C        C  103   2.875   2.682   2.189
    1C        C  104   3.069   2.582   2.310
    1C        C  105   3.004   2.621   2.429
    1C        C  106   3.201   2.534   2.551
    1C        C  107   3.071   2.590   2.549
    1C        C  108   3.270   2.510   2.672
    1C        C  109   3.203   2.536   2.793
    1C        C  110   3.413   2.499   2.915
    1C        C  111   3.274   2.521   2.914
    1C        C  112   3.483   2.491   3.038
    1C        C  113   3.412   2.498   3.160
    1C        C  114   3.625   2.502   3.281
    1C        C  115   3.484   2.496   3.281
    1C        C  116   3.695   2.515   3.403
    1C        C  117   3.626   2.503   3.525
    1C        C  118   3.831   2.550   3.647
    1C        C  119   3.695   2.511   3.648
    1C        C  120   3.898   2.575   3.769
    1C        C  121   3.832   2.554   3.892
    1C        C  122   4.023   2.648   4.011
    1C        C  123   3.898   2.582   4.014
    1C        C  124   4.081   2.685   4.135
    1C        C  125   4.025   2.644   4.258
    1C        C  126   4.199   2.769   4.379
    1C        C  127   4.088   2.681   4.378
    1C        C  128   4.242   2.821   4.503
    1C        C  129   4.190   2.771   4.625
    1C        C  130   4.327   2.937   4.743
    1C        C  131   4.241   2.824   4.745
    1C        C  132   4.352   3.008   4.862
    1C        C  133   4.284   2.964   4.977
    1C        C  134   3.173   2.470   2.081
    1C        C  135   3.039   2.511   2.088
    1C        C  136   3.264   2.482   2.187
    1C        C  137   3.199   2.523   2.305
    1C        C  138   3.404   2.484   2.428
    1C        C  139   3.264   2.505   2.429
    1C        C  140   3.481   2.482   2.547
    1C        C  141   3.411   2.495   2.668
    1C        C  142   3.621   2.495   2.791
    1C        C  143   3.480   2.490   2.791
    1C        C  144   3.692   2.505   2.913
    1C        C  145   3.624   2.498   3.036
    1C        C  146   3.831   2.543   3.155
    1C        C  147   3.695   2.503   3.158
    1C        C  148   3.896   2.569   3.277
    1C        C  149   3.832   2.552   3.402
    1C        C  150   4.027   2.632   3.523
    1C        C  151   3.899   2.571   3.525
    1C        C  152   4.087   2.671   3.644
    1C        C  153   4.024   2.639   3.767
    1C        C  154   4.193   2.771   3.891
    1C        C  155   4.080   2.686   3.887
    1C        C  156   4.246   2.818   4.014
    1C        C  157   4.195   2.768   4.136
    1C        C  158   4.342   2.924   4.257
    1C        C  159   4.249   2.818   4.257
    1C        C  160   4.377   2.984   4.379
    1C        C  161   4.329   2.932   4.502
    1C        C  162   4.439   3.118   4.618
    1C        C  163   4.365   2.998   4.621
    1C        C  164   4.469   3.186   4.738
    1C        C  165   4.427   3.128   4.859
    1C        C  166   4.510   3.323   4.973
    1C        C  167   4.479   3.187   4.974
    1C        C  168   3.478   2.441   2.073
    1C        C  169   3.404   2.460   2.190
    1C        C  170   3.621   2.466   2.308
    1C        C  171   3.479   2.468   2.309
    1C        C  172   3.694   2.488   2.426
    1C        C  173   3.622   2.491   2.548
    1C        C  174   3.829   2.543   2.667
    1C        C  175   3.691   2.511   2.669
    1C        C  176   3.894   2.571   2.789
    1C        C  177   3.828   2.545   2.911
    1C        C  178   4.025   2.625   3.032
    1C        C  179   3.898   2.563   3.032
    1C        C  180   4.084   2.665   3.154
    1C        C  181   4.023   2.629   3.276
    1C        C  182   4.195   2.754   3.400
    1C        C  183   4.084   2.667   3.398
    1C        C  184   4.249   2.804   3.521
    1C        C  185   4.199   2.757   3.644
    1C        C  186   4.339   2.917   3.767
    1C        C  187   4.246   2.810   3.767
    1C        C  188   4.383   2.978   3.887
    1C        C  189   4.338   2.925   4.010
    1C        C  190   4.446   3.106   4.129
    1C        C  191   4.381   2.980   4.133
    1C        C  192   4.475   3.172   4.251
    1C        C  193   4.442   3.110   4.373
    1C        C  194   4.509   3.314   4.492
    1C        C  195   4.468   3.179   4.494
    1C        C  196   4.526   3.388   4.612
    1C        C  197   4.518   3.320   4.735
    1C        C  198   4.546   3.538   4.853
    1C        C  199   4.528   3.396   4.855
    1C        C  200   4.590   3.622   4.960
    1C        C  201   3.616   2.419   2.074
    1C        C  202   3.826   2.516   2.182
    1C        C  203   3.695   2.459   2.187
    1C        C  204   3.898   2.542   2.302
    1C        C  205   3.831   2.521   2.425
    1C        C  206   4.028   2.608   2.544
    1C        C  207   3.898   2.552   2.545
    1C        C  208   4.086   2.654   2.664
    1C        C  209   4.024   2.629   2.789
    1C        C  210   4.198   2.748   2.911
    1C        C  211   4.088   2.660   2.910
    1C        C  212   4.250   2.797   3.033
    1C        C  213   4.197   2.750   3.155
    1C        C  214   4.336   2.910   3.274
    1C        C  215   4.247   2.801   3.277
    1C        C  216   4.379   2.969   3.396
    1C        C  217   4.338   2.914   3.520
    1C        C  218   4.432   3.102   3.639
    1C        C  219   4.373   2.974   3.643
    1C        C  220   4.462   3.169   3.760
    1C        C  221   4.446   3.104   3.884
    1C        C  222   4.505   3.308   4.005
    1C        C  223   4.473   3.170   4.006
    1C        C  224   4.514   3.381   4.126
    1C        C  225   4.508   3.310   4.247
    1C        C  226   4.522   3.523   4.368
    1C        C  227   4.521   3.382   4.368
    1C        C  228   4.524   3.600   4.486
    1C        C  229   4.534   3.528   4.608
    1C        C  230   4.503   3.743   4.726
    1C        C  231   4.533   3.604   4.728
    1C        C  232   4.494   3.819   4.844
    1C        C  233   4.556   3.758   4.953
    1C        C  234   4.026   2.604   2.063
    1C        C  235   3.900   2.544   2.066
    1C        C  236   4.088   2.646   2.181
    1C        C  237   4.024   2.608   2.301
    1C        C  238   4.199   2.734   2.421
    1C        C  239   4.089   2.643   2.421
    1C        C  240   4.252   2.782   2.542
    1C        C  241   4.199   2.738   2.666
    1C        C  242   4.339   2.901   2.784
    1C        C  243   4.252   2.790   2.786
    1C        C  244   4.376   2.964   2.905
    1C        C  245   4.340   2.906   3.029
    1C        C  246   4.443   3.090   3.150
    1C        C  247   4.380   2.964   3.151
    1C        C  248   4.465   3.160   3.271
    1C        C  249   4.438   3.097   3.394
    1C        C  250   4.499   3.301   3.516
    1C        C  251   4.458   3.166   3.516
    1C        C  252   4.515   3.372   3.638
    1C        C  253   4.504   3.304   3.761
    1C        C  254   4.522   3.517   3.879
    1C        C  255   4.518   3.376   3.882
    1C        C  256   4.519   3.591   3.999
    1C        C  257   4.518   3.522   4.123
    1C        C  258   4.488   3.731   4.242
    1C        C  259   4.517   3.593   4.245
    1C        C  260   4.472   3.806   4.361
    1C        C  261   4.492   3.737   4.483
    1C        C  262   4.420   3.939   4.604
    1C        C  263   4.474   3.808   4.604
    1C        C  264   4.396   4.011   4.723
    1C        C  265   4.435   3.948   4.843
    1C        C  266   4.323   4.132   4.957
    1C        C  267   4.391   4.011   4.960
    1C        C  268   4.265   2.770   2.063
    1C        C  269   4.198   2.734   2.181
    1C        C  270   4.346   2.892   2.300
    1C        C  271   4.253   2.784   2.301
    1C        C  272   4.390   2.948   2.422
    1C        C  273   4.345   2.889   2.542
    1C        C  274   4.451   3.078   2.661
    1C        C  275   4.383   2.954   2.661
    1C        C  276   4.471   3.151   2.781
    1C        C  277   4.443   3.089   2.905
    1C        C  278   4.506   3.291   3.027
    1C        C  279   4.472   3.154   3.027
    1C        C  280   4.515   3.365   3.147
    1C        C  281   4.503   3.296   3.270
    1C        C  282   4.521   3.508   3.391
    1C        C  283   4.513   3.366   3.392
    1C        C  284   4.519   3.582   3.511
    1C        C  285   4.520   3.513   3.635
    1C        C  286   4.495   3.726   3.753
    1C        C  287   4.515   3.586   3.756
    1C        C  288   4.472   3.795   3.874
    1C        C  289   4.490   3.729   3.997
    1C        C  290   4.428   3.932   4.115
    1C        C  291   4.472   3.798   4.119
    1C        C  292   4.396   4.000   4.235
    1C        C  293   4.428   3.940   4.359
    1C        C  294   4.326   4.127   4.478
    1C        C  295   4.394   4.003   4.481
    1C        C  296   4.285   4.191   4.596
    1C        C  297   4.329   4.136   4.719
    1C        C  298   4.199   4.312   4.840
    1C        C  299   4.286   4.198   4.839
    1C        C  300   4.168   4.402   4.947
    1C        C  301   4.354   2.877   2.062
    1C        C  302   4.471   3.066   2.180
    1C        C  303   4.390   2.948   2.177
    1C        C  304   4.484   3.141   2.300
    1C        C  305   4.452   3.075   2.421
    1C        C  306   4.506   3.284   2.536
    1C        C  307   4.479   3.146   2.540
    1C        C  308   4.513   3.355   2.659
    1C        C  309   4.511   3.286   2.782
    1C        C  310   4.527   3.499   2.899
    1C        C  311   4.523   3.358   2.904
    1C        C  312   4.518   3.572   3.019
    1C        C  313   4.520   3.506   3.144
    1C        C  314   4.483   3.713   3.265
    1C        C  315   4.514   3.575   3.267
    1C        C  316   4.474   3.788   3.385
    1C        C  317   4.495   3.721   3.508
    1C        C  318   4.420   3.921   3.628
    1C        C  319   4.476   3.791   3.629
    1C        C  320   4.389   3.988   3.748
    1C        C  321   4.418   3.926   3.871
    1C        C  322   4.316   4.111   3.989
    1C        C  323   4.393   3.993   3.992
    1C        C  324   4.273   4.168   4.111
    1C        C  325   4.318   4.117   4.235
    1C        C  326   4.182   4.283   4.354
    1C        C  327   4.279   4.180   4.355
    1C        C  328   4.132   4.339   4.473
    1C        C  329   4.190   4.296   4.595
    1C        C  330   4.029   4.435   4.715
    1C        C  331   4.145   4.353   4.716
    1C        C  332   3.970   4.493   4.830
    1C        C  333   4.050   4.478   4.944
    1C        C  334   4.551   3.269   2.064
    1C        C  335   4.531   3.130   2.067
    1C        C  336   4.530   3.352   2.175
    1C        C  337   4.515   3.280   2.295
    1C        C  338   4.525   3.496   2.414
    1C        C  339   4.520   3.354   2.415
    1C        C  340   4.517   3.566   2.536
    1C        C  341   4.515   3.496   2.658
    1C        C  342   4.493   3.710   2.774
    1C        C  343   4.512   3.571   2.778
    1C        C  344   4.475   3.780   2.895
    1C        C  345   4.490   3.710   3.017
    1C        C  346   4.421   3.910   3.140
    1C        C  347   4.466   3.776   3.140
    1C        C  348   4.393   3.981   3.258
    1C        C  349   4.423   3.919   3.382
    1C        C  350   4.317   4.103   3.500
    1C        C  351   4.392   3.983   3.504
    1C        C  352   4.271   4.163   3.619
    1C        C  353   4.314   4.108   3.743
    1C        C  354   4.180   4.271   3.866
    1C        C  355   4.275   4.167   3.865
    1C        C  356   4.125   4.320   3.986
    1C        C  357   4.179   4.273   4.108
    1C        C  358   4.016   4.410   4.231
    1C        C  359   4.131   4.328   4.230
    1C        C  360   3.952   4.451   4.350
    1C        C  361   4.016   4.420   4.472
    1C        C  362   3.831   4.518   4.593
    1C        C  363   3.961   4.463   4.594
    1C        C  364   3.760   4.545   4.712
    1C        C  365   3.838   4.544   4.830
    1C        C  366   3.632   4.591   4.949
    1C        C  367   3.771   4.579   4.948
    1C        C  368   4.511   3.566   2.052
    1C        C  369   4.522   3.492   2.171
    1C        C  370   4.502   3.706   2.288
    1C        C  371   4.523   3.566   2.291
    1C        C  372   4.488   3.776   2.409
    1C        C  373   4.501   3.707   2.531
    1C        C  374   4.425   3.910   2.650
    1C        C  375   4.478   3.778   2.651
    1C        C  376   4.395   3.974   2.772
    1C        C  377   4.421   3.911   2.896
    1C        C  378   4.316   4.095   3.014
    1C        C  379   4.393   3.976   3.018
    1C        C  380   4.268   4.155   3.133
    1C        C  381   4.315   4.099   3.254
    1C        C  382   4.177   4.259   3.378
    1C        C  383   4.274   4.156   3.376
    1C        C  384   4.121   4.309   3.498
    1C        C  385   4.174   4.265   3.621
    1C        C  386   4.008   4.395   3.741
    1C        C  387   4.127   4.318   3.743
    1C        C  388   3.948   4.435   3.862
    1C        C  389   4.006   4.396   3.985
    1C        C  390   3.821   4.493   4.106
    1C        C  391   3.952   4.439   4.108
    1C        C  392   3.754   4.522   4.227
    1C        C  393   3.824   4.509   4.350
    1C        C  394   3.620   4.559   4.475
    1C        C  395   3.759   4.537   4.472
    1C        C  396   3.545   4.564   4.595
    1C        C  397   3.620   4.563   4.715
    1C        C  398   3.410   4.554   4.840
    1C        C  399   3.550   4.574   4.837
    1C        C  400   3.343   4.521   4.958
    1C        C  401   4.506   3.705   2.050
    1C        C  402   4.446   3.913   2.163
    1C        C  403   4.493   3.780   2.168
    1C        C  404   4.409   3.971   2.286
    1C        C  405   4.436   3.908   2.409
    1C        C  406   4.320   4.092   2.526
    1C        C  407   4.398   3.974   2.527
    1C        C  408   4.280   4.152   2.648
    1C        C  409   4.319   4.093   2.770
    1C        C  410   4.176   4.252   2.887
    1C        C  411   4.272   4.149   2.891
    1C        C  412   4.123   4.303   3.007
    1C        C  413   4.170   4.257   3.132
    1C        C  414   4.006   4.385   3.252
    1C        C  415   4.123   4.306   3.256
    1C        C  416   3.944   4.420   3.374
    1C        C  417   4.007   4.392   3.497
    1C        C  418   3.815   4.484   3.619
    1C        C  419   3.946   4.430   3.619
    1C        C  420   3.750   4.511   3.741
    1C        C  421   3.820   4.494   3.862
    1C        C  422   3.613   4.537   3.988
    1C        C  423   3.753   4.515   3.985
    1C        C  424   3.543   4.545   4.110
    1C        C  425   3.615   4.541   4.231
    1C        C  426   3.406   4.543   4.357
    1C        C  427   3.547   4.548   4.355
    1C        C  428   3.332   4.546   4.478
    1C        C  429   3.404   4.558   4.599
    1C        C  430   3.195   4.521   4.724
    1C        C  431   3.334   4.551   4.721
    1C        C  432   3.129   4.492   4.847
    1C        C  433   3.207   4.492   4.963
    1C        C  434   4.385   4.125   2.056
    1C        C  435   4.449   4.000   2.053
    1C        C  436   4.299   4.160   2.164
    1C        C  437   4.331   4.090   2.284
    1C        C  438   4.182   4.249   2.401
    1C        C  439   4.278   4.146   2.403
    1C        C  440   4.130   4.300   2.522
    1C        C  441   4.184   4.255   2.645
    1C        C  442   4.011   4.383   2.765
    1C        C  443   4.126   4.302   2.764
    1C        C  444   3.946   4.418   2.886
    1C        C  445   4.007   4.384   3.009
    1C        C  446   3.812   4.470   3.131
    1C        C  447   3.945   4.422   3.130
    1C        C  448   3.747   4.495   3.254
    1C        C  449   3.814   4.476   3.377
    1C        C  450   3.607   4.532   3.496
    1C        C  451   3.744   4.498   3.497
    1C        C  452   3.541   4.541   3.621
    1C        C  453   3.611   4.539   3.744
    1C        C  454   3.400   4.540   3.865
    1C        C  455   3.541   4.543   3.866
    1C        C  456   3.332   4.534   3.989
    1C        C  457   3.402   4.538   4.111
    1C        C  458   3.198   4.495   4.236
    1C        C  459   3.335   4.531   4.236
    1C        C  460   3.132   4.475   4.360
    1C        C  461   3.195   4.512   4.481
    1C        C  462   2.998   4.437   4.604
    1C        C  463   3.126   4.497   4.603
    1C        C  464   2.937   4.398   4.725
    1C        C  465   2.995   4.441   4.847
    1C        C  466   2.805   4.334   4.962
    1C        C  467   2.905   4.432   4.958
    1C        C  468   4.124   4.285   2.042
    1C        C  469   4.186   4.248   2.161
    1C        C  470   4.010   4.379   2.280
    1C        C  471   4.129   4.301   2.280
    1C        C  472   3.944   4.407   2.401
    1C        C  473   4.010   4.374   2.522
    1C        C  474   3.818   4.468   2.639
    1C        C  475   3.951   4.418   2.642
    1C        C  476   3.752   4.492   2.762
    1C        C  477   3.818   4.477   2.886
    1C        C  478   3.610   4.526   3.007
    1C        C  479   3.749   4.498   3.008
    1C        C  480   3.538   4.531   3.128
    1C        C  481   3.609   4.524   3.250
    1C        C  482   3.398   4.528   3.378
    1C        C  483   3.539   4.533   3.372
    1C        C  484   3.327   4.528   3.499
    1C        C  485   3.400   4.537   3.620
    1C        C  486   3.194   4.495   3.747
    1C        C  487   3.331   4.528   3.743
    1C        C  488   3.127   4.477   3.870
    1C        C  489   3.195   4.497   3.992
    1C        C  490   3.003   4.412   4.117
    1C        C  491   3.129   4.475   4.115
    1C        C  492   2.943   4.378   4.241
    1C        C  493   3.001   4.422   4.361
    1C        C  494   2.827   4.305   4.485
    1C        C  495   2.940   4.390   4.485
    1C        C  496   2.773   4.256   4.607
    1C        C  497   2.824   4.312   4.726
    1C        C  498   2.667   4.165   4.843
    1C        C  499   2.756   4.274   4.845
    1C        C  500   2.598   4.117   4.956
    1C        C  501   4.003   4.354   2.042
    1C        C  502   3.815   4.464   2.156
    1C        C  503   3.944   4.406   2.158
    1C        C  504   3.744   4.487   2.276
    1C        C  505   3.812   4.458   2.397
    1C        C  506   3.606   4.502   2.523
    1C        C  507   3.745   4.481   2.519
    1C        C  508   3.537   4.513   2.646
    1C        C  509   3.613   4.514   2.765
    1C        C  510   3.398   4.527   2.886
    1C        C  511   3.539   4.531   2.885
    1C        C  512   3.328   4.517   3.008
    1C        C  513   3.397   4.525   3.131
    1C        C  514   3.191   4.490   3.257
    1C        C  515   3.329   4.522   3.254
    1C        C  516   3.125   4.465   3.379
    1C        C  517   3.189   4.497   3.501
    1C        C  518   2.999   4.409   3.625
    1C        C  519   3.126   4.472   3.625
    1C        C  520   2.943   4.372   3.749
    1C        C  521   3.005   4.405   3.871
    1C        C  522   2.832   4.287   3.998
    1C        C  523   2.944   4.374   3.995
    1C        C  524   2.787   4.236   4.121
    1C        C  525   2.836   4.285   4.244
    1C        C  526   2.694   4.133   4.365
    1C        C  527   2.778   4.246   4.367
    1C        C  528   2.653   4.077   4.488
    1C        C  529   2.686   4.145   4.607
    1C        C  530   2.583   3.958   4.732
    1C        C  531   2.640   4.088   4.728
    1C        C  532   2.543   3.898   4.855
    1C        C  533   2.534   3.993   4.962
    1C        C  534   3.617   4.552   2.041
    1C        C  535   3.749   4.507   2.041
    1C        C  536   3.535   4.538   2.157
    1C        C  537   3.605   4.516   2.279
    1C        C  538   3.394   4.518   2.401
    1C        C  539   3.535   4.516   2.401
    1C        C  540   3.322   4.515   2.522
    1C        C  541   3.396   4.518   2.642
    1C        C  542   3.187   4.486   2.766
    1C        C  543   3.326   4.515   2.765
    1C        C  544   3.122   4.463   2.889
    1C        C  545   3.191   4.482   3.011
    1C        C  546   2.997   4.405   3.135
    1C        C  547   3.124   4.465   3.135
    1C        C  548   2.937   4.366   3.256
    1C        C  549   3.000   4.398   3.378
    1C        C  550   2.833   4.277   3.506
    1C        C  551   2.943   4.365   3.503
    1C        C  552   2.779   4.231   3.629
    1C        C  553   2.833   4.282   3.749
    1C        C  554   2.700   4.125   3.874
    1C        C  555   2.787   4.236   3.874
    1C        C  556   2.661   4.066   3.996
    1C        C  557   2.701   4.123   4.119
    1C        C  558   2.602   3.940   4.246
    1C        C  559   2.662   4.068   4.243
    1C        C  560   2.573   3.877   4.370
    1C        C  561   2.600   3.946   4.490
    1C        C  562   2.538   3.746   4.617
    1C        C  563   2.568   3.884   4.613
    1C        C  564   2.515   3.678   4.738
    1C        C  565   2.523   3.756   4.857
    1C        C  566   2.531   3.545   4.978
    1C        C  567   2.521   3.684   4.977
    1C        C  568   3.326   4.474   2.043
    1C        C  569   3.396   4.507   2.160
    1C        C  570   3.184   4.471   2.282
    1C        C  571   3.321   4.507   2.280
    1C        C  572   3.117   4.451   2.405
    1C        C  573   3.184   4.486   2.524
    1C        C  574   2.988   4.403   2.649
    1C        C  575   3.116   4.465   2.646
    1C        C  576   2.934   4.359   2.772
    1C        C  577   2.997   4.398   2.893
    1C        C  578   2.826   4.272   3.016
    1C        C  579   2.937   4.360   3.015
    1C        C  580   2.779   4.221   3.139
    1C        C  581   2.832   4.271   3.261
    1C        C  582   2.693   4.115   3.384
    1C        C  583   2.782   4.225   3.385
    1C        C  584   2.655   4.061   3.509
    1C        C  585   2.694   4.119   3.632
    1C        C  586   2.591   3.936   3.756
    1C        C  587   2.656   4.062   3.755
    1C        C  588   2.570   3.870   3.880
    1C        C  589   2.600   3.939   4.000
    1C        C  590   2.536   3.740   4.129
    1C        C  591   2.574   3.876   4.124
    1C        C  592   2.528   3.672   4.252
    1C        C  593   2.540   3.740   4.375
    1C        C  594   2.517   3.530   4.498
    1C        C  595   2.528   3.671   4.497
    1C        C  596   2.512   3.461   4.621
    1C        C  597   2.514   3.536   4.740
    1C        C  598   2.522   3.325   4.861
    1C        C  599   2.516   3.466   4.863
    1C        C  600   2.521   3.248   4.978
    1C        C  601   3.194   4.434   2.044
    1C        C  602   2.981   4.389   2.159
    1C        C  603   3.117   4.433   2.162
    1C        C  604   2.923   4.358   2.285
    1C        C  605   2.987   4.395   2.405
    1C        C  606   2.820   4.269   2.529
    1C        C  607   2.927   4.362   2.529
    1C        C  608   2.773   4.218   2.652
    1C        C  609   2.823   4.272   2.773
    1C        C  610   2.688   4.109   2.896
    1C        C  611   2.776   4.219   2.895
    1C        C  612   2.650   4.052   3.020
    1C        C  613   2.690   4.112   3.142
    1C        C  614   2.583   3.930   3.265
    1C        C  615   2.650   4.054   3.265
    1C        C  616   2.561   3.868   3.390
    1C        C  617   2.590   3.935   3.511
    1C        C  618   2.528   3.734   3.636
    1C        C  619   2.563   3.871   3.634
    1C        C  620   2.520   3.666   3.760
    1C        C  621   2.533   3.734   3.883
    1C        C  622   2.514   3.528   4.009
    1C        C  623   2.521   3.669   4.008
    1C        C  624   2.519   3.458   4.132
    1C        C  625   2.520   3.530   4.253
    1C        C  626   2.546   3.322   4.378
    1C        C  627   2.518   3.460   4.375
    1C        C  628   2.556   3.250   4.499
    1C        C  629   2.532   3.321   4.619
    1C        C  630   2.589   3.117   4.743
    1C        C  631   2.546   3.253   4.742
    1C        C  632   2.620   3.051   4.866
    1C        C  633   2.564   3.114   4.981
    1C        C  634   2.780   4.303   2.052
    1C        C  635   2.891   4.389   2.049
    1C        C  636   2.748   4.231   2.167
    1C        C  637   2.813   4.268   2.287
    1C        C  638   2.678   4.108   2.411
    1C        C  639   2.762   4.220   2.410
    1C        C  640   2.643   4.045   2.533
    1C        C  641   2.688   4.106   2.653
    1C        C  642   2.584   3.921   2.778
    1C        C  643   2.650   4.046   2.775
    1C        C  644   2.555   3.857   2.901
    1C        C  645   2.584   3.927   3.021
    1C        C  646   2.526   3.725   3.151
    1C        C  647   2.556   3.863   3.143
    1C        C  648   2.512   3.656   3.273
    1C        C  649   2.525   3.731   3.393
    1C        C  650   2.513   3.520   3.520
    1C        C  651   2.518   3.661   3.515
    1C        C  652   2.518   3.453   3.644
    1C        C  653   2.513   3.525   3.766
    1C        C  654   2.530   3.315   3.890
    1C        C  655   2.509   3.454   3.888
    1C        C  656   2.554   3.246   4.011
    1C        C  657   2.541   3.318   4.133
    1C        C  658   2.614   3.121   4.257
    1C        C  659   2.560   3.252   4.256
    1C        C  660   2.636   3.053   4.379
    1C        C  661   2.601   3.116   4.500
    1C        C  662   2.711   2.938   4.625
    1C        C  663   2.631   3.054   4.624
    1C        C  664   2.758   2.880   4.745
    1C        C  665   2.701   2.933   4.864
    1C        C  666   2.742   2.869   4.982
    1C        C  667   2.683   4.021   2.056
    1C        C  668   2.686   4.104   2.170
    1C        C  669   2.595   3.910   2.295
    1C        C  670   2.643   4.044   2.290
    1C        C  671   2.561   3.844   2.415
    1C        C  672   2.588   3.916   2.533
    1C        C  673   2.522   3.717   2.660
    1C        C  674   2.558   3.854   2.657
    1C        C  675   2.508   3.649   2.783
    1C        C  676   2.518   3.721   2.904
    1C        C  677   2.512   3.514   3.030
    1C        C  678   2.513   3.655   3.029
    1C        C  679   2.514   3.445   3.153
    1C        C  680   2.508   3.515   3.275
    1C        C  681   2.533   3.307   3.401
    1C        C  682   2.511   3.447   3.399
    1C        C  683   2.558   3.244   3.525
    1C        C  684   2.542   3.314   3.647
    1C        C  685   2.609   3.114   3.770
    1C        C  686   2.557   3.246   3.769
    1C        C  687   2.641   3.051   3.892
    1C        C  688   2.608   3.116   4.013
    1C        C  689   2.721   2.937   4.138
    1C        C  690   2.645   3.056   4.136
    1C        C  691   2.755   2.877   4.261
    1C        C  692   2.710   2.933   4.383
    1C        C  693   2.756   2.879   4.505
    1C        C  694   2.620   3.897   2.056
    1C        C  695   2.533   3.703   2.176
    1C        C  696   2.581   3.835   2.176
    1C        C  697   2.512   3.634   2.297
    1C        C  698   2.518   3.709   2.416
    1C        C  699   2.495   3.502   2.543
    1C        C  700   2.506   3.643   2.541
    1C        C  701   2.504   3.434   2.666
    1C        C  702   2.508   3.508   2.786
    1C        C  703   2.534   3.299   2.910
    1C        C  704   2.515   3.440   2.910
    1C        C  705   2.551   3.236   3.035
    1C        C  706   2.535   3.305   3.158
    1C        C  707   2.605   3.106   3.279
    1C        C  708   2.556   3.238   3.280
    1C        C  709   2.636   3.045   3.403
    1C        C  710   2.610   3.112   3.525
    1C        C  711   2.710   2.928   3.648
    1C        C  712   2.636   3.048   3.648
    1C        C  713   2.762   2.878   3.770
    1C        C  714   2.724   2.937   3.893
    1C        C  715   2.763   2.879   4.016
    1C        C  716   2.456   3.496   2.057
    1C        C  717   2.497   3.630   2.061
    1C        C  718   2.459   3.422   2.180
    1C        C  719   2.479   3.495   2.300
    1C        C  720   2.515   3.289   2.424
    1C        C  721   2.486   3.427   2.423
    1C        C  722   2.533   3.220   2.545
    1C        C  723   2.521   3.294   2.665
    1C        C  724   2.596   3.097   2.790
    1C        C  725   2.548   3.230   2.788
    1C        C  726   2.630   3.038   2.914
    1C        C  727   2.602   3.105   3.035
    1C        C  728   2.709   2.922   3.158
    1C        C  729   2.633   3.041   3.157
    1C        C  730   2.754   2.873   3.283
    1C        C  731   2.711   2.926   3.407
    1C        C  732   2.758   2.871   3.528
    1C        C  733   2.495   3.199   2.070
    1C        C  734   2.484   3.281   2.183
    1C        C  735   2.580   3.086   2.303
    1C        C  736   2.519   3.215   2.304
    1C        C  737   2.617   3.024   2.424
    1C        C  738   2.590   3.090   2.546
    1C        C  739   2.695   2.909   2.670
    1C        C  740   2.621   3.029   2.669
    1C        C  741   2.746   2.859   2.792
    1C        C  742   2.702   2.917   2.913
    1C        C  743   2.752   2.867   3.035
    1C        C  744   2.543   3.068   2.071
    1C        C  745   2.681   2.895   2.183
    1C        C  746   2.606   3.015   2.184
    1C        C  747   2.729   2.841   2.304
    1C        C  748   2.692   2.904   2.425
    1C        C  749   2.737   2.850   2.548
    1C        C  750   2.733   2.838   2.066
    1C        C  751   3.671   2.334   1.965
    1C        O  752   3.723   2.220   1.976
    1C        O  753   3.703   2.398   1.845
    1C        C  754   4.609   3.066   1.959
    1C        O  755   4.560   3.056   1.843
    1C        O  756   4.703   2.964   1.980
    1C        C  757   4.435   4.231   1.965
    1C        O  758   4.510   4.313   2.024
    1C        O  759   4.451   4.216   1.827
    1C        C  760   3.605   4.669   1.951
    1C        O  761   3.604   4.787   1.996
    1C        O  762   3.547   4.651   1.826
    1C        C  763   2.866   4.505   1.959
    1C        O  764   2.886   4.499   1.835
    1C        O  765   2.786   4.615   1.991
    1C        C  766   2.364   3.481   1.942
    1C        O  767   2.421   3.433   1.840
    1C        O  768   2.231   3.437   1.955
    1C        C  769   4.691   3.583   5.061
    1C        O  770   4.658   3.590   5.182
    1C        O  771   4.826   3.597   5.027
    1C        C  772   4.277   4.458   5.030
    1C        O  773   4.283   4.440   5.155
    1C        O  774   4.379   4.545   4.990
    1C        C  775   4.137   2.536   5.086
    1C        O  776   4.221   2.443   5.077
    1C        O  777   4.105   2.552   5.221
    1C        C  778   2.878   4.544   5.051
    1C        O  779   2.802   4.643   5.037
    1C        O  780   2.920   4.535   5.184
    1C        C  781   2.517   3.044   5.103
    1C        O  782   2.431   2.954   5.086
    1C        O  783   2.533   3.103   5.228
    1C        C  784   2.412   3.995   5.046
    1C        O  785   2.301   4.023   4.994
    1C        O  786   2.419   4.020   5.184
    1C        C  787   2.947   2.425   2.011
    1C        O  788   2.964   2.412   1.887
    1C        O  789   2.846   2.353   2.073
    1C        C  790   3.182   2.373   5.061
    1C        O  791   3.101   2.282   5.029
    1C        O  792   3.200   2.392   5.198
    1C        H  793   4.286   3.023   5.067
    1C        H  794   4.201   2.802   5.075
    1C        H  795   4.544   3.130   5.037
    1C        H  796   4.539   3.370   5.065
    1C        H  797   4.617   3.819   5.017
    1C        H  798   4.412   3.969   5.056
    1C        H  799   4.335   4.194   5.044
    1C        H  800   4.061   4.573   4.992
    1C        H  801   3.829   4.596   5.036
    1C        H  802   3.590   4.645   5.031
    1C        H  803   3.401   4.495   5.044
    1C        H  804   3.174   4.440   5.051
    1C        H  805   3.894   2.466   5.065
    1C        H  806   3.671   2.529   5.062
    1C        H  807   2.983   2.515   5.036
    1C        H  808   3.453   2.472   5.082
    1C        H  809   2.853   2.717   5.074
    1C        H  810   2.746   2.934   5.067
    1C        H  811   2.471   3.289   5.063
    1C        H  812   2.519   3.501   5.075
    1C        H  813   2.474   3.728   5.062
    1C        H  814   2.598   4.175   5.046
    1C        H  815   2.763   4.308   5.057
    1C        H  816   2.711   2.882   1.971
    1C        H  817   2.891   2.731   1.986
    1C        H  818   3.205   2.416   1.995
    1C        H  819   3.426   2.452   1.980
    1C        H  820   3.858   2.518   1.971
    1C        H  821   4.083   2.567   1.980
    1C        H  822   4.261   2.703   1.980
    1C        H  823   4.426   2.878   1.983
    1C        H  824   4.593   3.312   1.975
    1C        H  825   4.550   3.517   1.966
    1C        H  826   4.522   3.750   1.955
    1C        H  827   3.781   4.479   1.942
    1C        H  828   3.975   4.401   1.949
    1C        H  829   4.149   4.242   1.947
    1C        H  830   4.448   3.957   1.955
    1C        H  831   2.557   3.883   1.970
    1C        H  832   2.695   4.068   1.960
    1C        H  833   2.705   4.304   1.976
    1C        H  834   3.356   4.522   1.952
    1C        H  835   3.147   4.410   1.951
    1C        H  836   2.517   3.003   1.990
    1C        H  837   2.458   3.227   1.974
    1C        H  838   2.533   3.670   1.969
    2V3OU   H29  839   2.814   3.544   4.702
    2V3OU   C27  840   2.796   3.499   4.803
    2V3OU   H27  841   2.737   3.571   4.866
    2V3OU   H28  842   2.742   3.401   4.792
    2V3OU   O11  843   2.914   3.469   4.878
    2V3OU   C15  844   2.924   3.394   4.994
    2V3OU   C13  845   3.056   3.375   5.040
    2V3OU   C14  846   3.076   3.267   5.127
    2V3OU   C16  847   2.975   3.186   5.177
    2V3OU    H6  848   2.994   3.102   5.245
    2V3OU   C12  849   3.218   3.236   5.157
    2V3OU    O2  850   3.247   3.130   5.217
    2V3OU   C10  851   3.324   3.308   5.086
    2V3OU    C8  852   3.458   3.272   5.094
    2V3OU   O10  853   3.489   3.155   5.156
    2V3OU   H26  854   3.405   3.114   5.184
    2V3OU    C6  855   3.563   3.351   5.038
    2V3OU    C5  856   3.535   3.466   4.965
    2V3OU    C4  857   3.701   3.296   5.024
    2V3OU    H4  858   3.718   3.231   5.114
    2V3OU    H5  859   3.710   3.227   4.934
    2V3OU    C2  860   3.818   3.395   5.022
    2V3OU    O6  861   3.814   3.478   5.139
    2V3OU   H21  862   3.771   3.559   5.105
    2V3OU    C3  863   3.787   3.496   4.911
    2V3OU    H2  864   3.868   3.572   4.903
    2V3OU    H3  865   3.790   3.436   4.816
    2V3OU   C25  866   3.955   3.328   5.012
    2V3OU    O7  867   4.003   3.300   4.902
    2V3OU   C26  868   4.030   3.284   5.136
    2V3OU   H22  869   4.069   3.379   5.182
    2V3OU   H23  870   4.117   3.219   5.106
    2V3OU    O8  871   3.959   3.202   5.225
    2V3OU   H24  872   3.936   3.257   5.302
    2V3OU    C1  873   3.649   3.557   4.930
    2V3OU    H1  874   3.626   3.614   4.835
    2V3OU    O3  875   3.666   3.661   5.027
    2V3OU   C19  876   3.618   3.796   5.019
    2V3OU    H9  877   3.515   3.803   4.973
    2V3OU    O4  878   3.714   3.856   4.935
    2V3OU   C20  879   3.846   3.874   4.988
    2V3OU   H10  880   3.896   3.775   5.009
    2V3OU   C24  881   3.608   3.857   5.158
    2V3OU   H16  882   3.540   3.792   5.218
    2V3OU   H17  883   3.567   3.962   5.157
    2V3OU   C23  884   3.750   3.878   5.212
    2V3OU   H15  885   3.791   3.773   5.229
    2V3OU    N1  886   3.734   3.955   5.334
    2V3OU   H19  887   3.812   3.919   5.385
    2V3OU   H20  888   3.651   3.932   5.384
    2V3OU   C21  889   3.852   3.952   5.120
    2V3OU   H11  890   3.953   3.937   5.168
    2V3OU    O5  891   3.823   4.091   5.119
    2V3OU   H18  892   3.774   4.112   5.200
    2V3OU   C22  893   3.915   3.949   4.876
    2V3OU   H12  894   3.862   4.046   4.856
    2V3OU   H13  895   3.905   3.889   4.781
    2V3OU   H14  896   4.023   3.963   4.901
    2V3OU   C11  897   3.158   3.477   5.011
    2V3OU    O1  898   3.130   3.595   4.982
    2V3OU    C9  899   3.297   3.426   5.011
    2V3OU    C7  900   3.397   3.500   4.948
    2V3OU    O9  901   3.379   3.621   4.885
    2V3OU   H25  902   3.286   3.632   4.858
    2V3OU   C17  903   2.821   3.311   5.042
    2V3OU    H7  904   2.719   3.347   5.057
    2V3OU   C18  905   2.845   3.207   5.131
    2V3OU    H8  906   2.760   3.150   5.171
    3SOL     OW  907   3.038   4.319   5.383
    3SOL    HW1  908   3.024   4.410   5.345
    3SOL    HW2  909   3.094   4.326   5.466
    4SOL     OW  910   6.759   0.369   0.047
    4SOL    HW1  911   6.744   0.271   0.058
    4SOL    HW2  912   6.820   0.402   0.119
    5SOL     OW  913   4.357   0.843   1.580
    5SOL    HW1  914   4.321   0.872   1.669
    5SOL    HW2  915   4.396   0.921   1.533
    6SOL     OW  916   5.534   1.209   3.447
    6SOL    HW1  917   5.454   1.191   3.505
    6SOL    HW2  918   5.509   1.200   3.351
    7SOL     OW  919   1.391   4.248   5.299
    7SOL    HW1  920   1.373   4.279   5.206
    7SOL    HW2  921   1.322   4.179   5.325
    8SOL     OW  922   2.223   2.528   6.061
    8SOL    HW1  923   2.140   2.525   6.117
    8SOL    HW2  924   2.201   2.566   5.971
    9SOL     OW  925   6.695   1.739   6.453
    9SOL    HW1  926   6.730   1.797   6.379
    9SOL    HW2  927   6.726   1.775   6.541
   10SOL     OW  928   4.850   4.559   2.726
   10SOL    HW1  929   4.781   4.496   2.690
   10SOL    HW2  930   4.928   4.507   2.761
   11SOL     OW  931   2.150   0.868   6.904
   11SOL    HW1  932   2.085   0.920   6.848
   11SOL    HW2  933   2.175   0.921   6.985
   12SOL     OW  934   2.418   4.609   3.364
   12SOL    HW1  935   2.421   4.526   3.420
   12SOL    HW2  936   2.414   4.585   3.268
   13SOL     OW  937   4.434   6.247   2.822
   13SOL    HW1  938   4.418   6.271   2.726
   13SOL    HW2  939   4.401   6.153   2.838
   14SOL     OW  940   4.854   4.644   5.383
   14SOL    HW1  941   4.863   4.545   5.372
   14SOL    HW2  942   4.765   4.674   5.348
   15SOL     OW  943   0.659   6.172   6.272
   15SOL    HW1  944   0.688   6.222   6.353
   15SOL    HW2  945   0.694   6.079   6.276
   16SOL     OW  946   6.211   2.762   6.201
   16SOL    HW1  947   6.113   2.772   6.217
   16SOL    HW2  948   6.236   2.666   6.208
   17SOL     OW  949   6.177   0.659   5.791
   17SOL    HW1  950   6.250   0.727   5.785
   17SOL    HW2  951   6.094   0.695   5.749
   18SOL     OW  952   3.102   0.908   5.081
   18SOL    HW1  953   3.193   0.904   5.122
   18SOL    HW2  954   3.074   1.003   5.070
   19SOL     OW  955   1.165   1.518   3.270
   19SOL    HW1  956   1.197   1.599   3.319
   19SOL    HW2  957   1.155   1.442   3.334
   20SOL     OW  958   5.500   2.558   5.825
   20SOL    HW1  959   5.409   2.526   5.853
   20SOL    HW2  960   5.563   2.551   5.902
   21SOL     OW  961   3.628   6.135   2.599
   21SOL    HW1  962   3.687   6.057   2.621
   21SOL    HW2  963   3.574   6.160   2.679
   22SOL     OW  964   1.928   6.500   4.996
   22SOL    HW1  965   1.948   6.402   4.992
   22SOL    HW2  966   1.837   6.518   4.958
   23SOL     OW  967   5.186   4.657   2.001
   23SOL    HW1  968   5.250   4.581   2.014
   23SOL    HW2  969   5.093   4.621   1.991
   24SOL     OW  970   3.732   0.280   1.669
   24SOL    HW1  971   3.720   0.180   1.667
   24SOL    HW2  972   3.824   0.302   1.636
   25SOL     OW  973   2.657   7.007   3.318
   25SOL    HW1  974   2.683   0.006   3.224
   25SOL    HW2  975   2.694   0.050   3.381
   26SOL     OW  976   1.987   2.053   6.634
   26SOL    HW1  977   2.060   2.017   6.691
   26SOL    HW2  978   1.900   2.012   6.662
   27SOL     OW  979   6.809   1.052   2.414
   27SOL    HW1  980   6.869   1.058   2.493
   27SOL    HW2  981   6.862   1.066   2.330
   28SOL     OW  982   1.915   0.970   4.933
   28SOL    HW1  983   1.958   0.938   5.017
   28SOL    HW2  984   1.902   0.893   4.870
   29SOL     OW  985   6.856   1.008   6.867
   29SOL    HW1  986   6.785   0.939   6.877
   29SOL    HW2  987   6.913   1.010   6.949
   30SOL     OW  988   3.687   0.463   4.995
   30SOL    HW1  989   3.635   0.524   4.935
   30SOL    HW2  990   3.782   0.459   4.963
   31SOL     OW  991   0.134   2.835   4.975
   31SOL    HW1  992   0.037   2.821   4.990
   31SOL    HW2  993   0.172   2.757   4.925
   32SOL     OW  994   1.472   1.153   0.740
   32SOL    HW1  995   1.505   1.068   0.697
   32SOL    HW2  996   1.460   1.138   0.838
   33SOL     OW  997   0.545   3.786   6.044
   33SOL    HW1  998   0.486   3.705   6.053
   33SOL    HW2  999   0.490   3.862   6.009
   34SOL     OW 1000   1.813   5.440   5.322
   34SOL    HW1 1001   1.849   5.533   5.317
   34SOL    HW2 1002   1.713   5.443   5.326
   35SOL     OW 1003   3.573   2.986   6.494
   35SOL    HW1 1004   3.477   3.013   6.505
   35SOL    HW2 1005   3.627   3.066   6.470
   36SOL     OW 1006   5.137   0.776   4.106
   36SOL    HW1 1007   5.187   0.862   4.103
   36SOL    HW2 1008   5.178   0.712   4.041
   37SOL     OW 1009   1.996   1.855   3.751
   37SOL    HW1 1010   1.922   1.825   3.812
   37SOL    HW2 1011   2.078   1.871   3.805
   38SOL     OW 1012   1.972   5.379   2.199
   38SOL    HW1 1013   2.056   5.423   2.166
   38SOL    HW2 1014   1.996   5.305   2.262
   39SOL     OW 1015   5.808   5.123   6.684
   39SOL    HW1 1016   5.821   5.050   6.751
   39SOL    HW2 1017   5.733   5.100   6.623
   40SOL     OW 1018   3.533   0.501   6.420
   40SOL    HW1 1019   3.479   0.425   6.386
   40SOL    HW2 1020   3.473   0.577   6.445
   41SOL     OW 1021   5.625   4.031   2.150
   41SOL    HW1 1022   5.710   3.981   2.165
   41SOL    HW2 1023   5.575   4.039   2.236
   42SOL     OW 1024   2.863   5.644   4.649
   42SOL    HW1 1025   2.862   5.743   4.641
   42SOL    HW2 1026   2.898   5.604   4.564
   43SOL     OW 1027   4.288   0.051   4.879
   43SOL    HW1 1028   4.254   0.110   4.805
   43SOL    HW2 1029   4.356   7.011   4.842
   44SOL     OW 1030   6.177   3.523   4.916
   44SOL    HW1 1031   6.228   3.604   4.945
   44SOL    HW2 1032   6.240   3.458   4.873
   45SOL     OW 1033   4.326   5.700   0.768
   45SOL    HW1 1034   4.227   5.713   0.762
   45SOL    HW2 1035   4.349   5.607   0.738
   46SOL     OW 1036   0.350   3.051   4.286
   46SOL    HW1 1037   0.261   3.077   4.324
   46SOL    HW2 1038   0.420   3.055   4.358
   47SOL     OW 1039   5.339   3.321   1.978
   47SOL    HW1 1040   5.342   3.225   2.005
   47SOL    HW2 1041   5.263   3.366   2.025
   48SOL     OW 1042   0.010   3.267   0.050
   48SOL    HW1 1043   7.003   3.361   0.035
   48SOL    HW2 1044   6.958   3.204   0.042
   49SOL     OW 1045   4.912   3.241   0.314
   49SOL    HW1 1046   4.963   3.236   0.228
   49SOL    HW2 1047   4.839   3.173   0.314
   50SOL     OW 1048   6.084   2.178   6.038
   50SOL    HW1 1049   6.038   2.142   5.957
   50SOL    HW2 1050   6.182   2.186   6.020
   51SOL     OW 1051   2.004   4.859   3.228
   51SOL    HW1 1052   1.962   4.858   3.138
   51SOL    HW2 1053   2.103   4.848   3.219
   52SOL     OW 1054   5.405   3.379   1.735
   52SOL    HW1 1055   5.367   3.351   1.823
   52SOL    HW2 1056   5.370   3.319   1.663
   53SOL     OW 1057   4.916   6.961   3.338
   53SOL    HW1 1058   4.865   0.010   3.293
   53SOL    HW2 1059   5.014   6.976   3.325
   54SOL     OW 1060   5.739   5.977   0.506
   54SOL    HW1 1061   5.720   6.057   0.450
   54SOL    HW2 1062   5.656   5.922   0.516
   55SOL     OW 1063   2.237   2.676   6.533
   55SOL    HW1 1064   2.257   2.770   6.561
   55SOL    HW2 1065   2.170   2.636   6.594
   56SOL     OW 1066   1.582   1.894   0.060
   56SOL    HW1 1067   1.515   1.902   0.134
   56SOL    HW2 1068   1.672   1.922   0.093
   57SOL     OW 1069   3.896   0.938   0.011
   57SOL    HW1 1070   3.956   0.878   6.982
   57SOL    HW2 1071   3.837   0.883   0.071
   58SOL     OW 1072   0.956   0.454   6.189
   58SOL    HW1 1073   0.919   0.471   6.281
   58SOL    HW2 1074   0.919   0.368   6.154
   59SOL     OW 1075   6.253   3.816   6.321
   59SOL    HW1 1076   6.265   3.732   6.375
   59SOL    HW2 1077   6.238   3.893   6.383
   60SOL     OW 1078   5.807   0.613   3.417
   60SOL    HW1 1079   5.887   0.553   3.420
   60SOL    HW2 1080   5.815   0.682   3.489
   61SOL     OW 1081   0.452   1.444   4.074
   61SOL    HW1 1082   0.437   1.445   3.975
   61SOL    HW2 1083   0.549   1.434   4.093
   62SOL     OW 1084   0.867   1.212   2.029
   62SOL    HW1 1085   0.821   1.300   2.021
   62SOL    HW2 1086   0.951   1.213   1.975
   63SOL     OW 1087   3.926   6.504   3.988
   63SOL    HW1 1088   3.982   6.422   4.000
   63SOL    HW2 1089   3.962   6.578   4.045
   64SOL     OW 1090   1.540   4.237   6.663
   64SOL    HW1 1091   1.627   4.201   6.628
   64SOL    HW2 1092   1.546   4.246   6.762
   65SOL     OW 1093   0.768   0.526   5.355
   65SOL    HW1 1094   0.703   0.550   5.427
   65SOL    HW2 1095   0.717   0.490   5.276
   66SOL     OW 1096   3.804   0.004   2.327
   66SOL    HW1 1097   3.868   0.079   2.307
   66SOL    HW2 1098   3.758   0.023   2.414
   67SOL     OW 1099   0.391   2.160   0.658
   67SOL    HW1 1100   0.446   2.239   0.634
   67SOL    HW2 1101   0.374   2.104   0.576
   68SOL     OW 1102   6.952   2.328   5.389
   68SOL    HW1 1103   6.893   2.392   5.339
   68SOL    HW2 1104   6.959   2.243   5.338
   69SOL     OW 1105   0.987   5.244   5.707
   69SOL    HW1 1106   1.084   5.265   5.716
   69SOL    HW2 1107   0.933   5.317   5.748
   70SOL     OW 1108   5.514   3.234   4.501
   70SOL    HW1 1109   5.494   3.164   4.433
   70SOL    HW2 1110   5.536   3.320   4.454
   71SOL     OW 1111   4.709   1.589   4.959
   71SOL    HW1 1112   4.693   1.513   4.896
   71SOL    HW2 1113   4.633   1.653   4.953
   72SOL     OW 1114   0.203   0.560   3.902
   72SOL    HW1 1115   0.244   0.615   3.829
   72SOL    HW2 1116   0.188   0.467   3.870
   73SOL     OW 1117   3.065   0.755   0.352
   73SOL    HW1 1118   3.141   0.793   0.299
   73SOL    HW2 1119   3.091   0.665   0.387
   74SOL     OW 1120   2.538   1.353   6.326
   74SOL    HW1 1121   2.468   1.341   6.396
   74SOL    HW2 1122   2.615   1.292   6.345
   75SOL     OW 1123   4.113   1.569   0.993
   75SOL    HW1 1124   4.172   1.557   1.072
   75SOL    HW2 1125   4.050   1.645   1.009
   76SOL     OW 1126   2.725   4.381   5.322
   76SOL    HW1 1127   2.736   4.427   5.410
   76SOL    HW2 1128   2.798   4.410   5.260
   77SOL     OW 1129   2.023   5.617   4.592
   77SOL    HW1 1130   1.994   5.698   4.643
   77SOL    HW2 1131   2.077   5.557   4.652
   78SOL     OW 1132   4.674   1.719   1.090
   78SOL    HW1 1133   4.740   1.775   1.141
   78SOL    HW2 1134   4.605   1.779   1.049
   79SOL     OW 1135   2.062   5.123   1.805
   79SOL    HW1 1136   2.029   5.217   1.799
   79SOL    HW2 1137   2.025   5.080   1.887
   80SOL     OW 1138   4.569   2.002   5.175
   80SOL    HW1 1139   4.574   2.041   5.083
   80SOL    HW2 1140   4.659   1.970   5.204
   81SOL     OW 1141   1.983   6.834   0.977
   81SOL    HW1 1142   1.898   6.781   0.970
   81SOL    HW2 1143   1.976   6.916   0.921
   82SOL     OW 1144   0.775   5.946   1.751
   82SOL    HW1 1145   0.691   5.892   1.750
   82SOL    HW2 1146   0.784   5.991   1.840
   83SOL     OW 1147   6.292   2.075   5.642
   83SOL    HW1 1148   6.352   1.995   5.633
   83SOL    HW2 1149   6.295   2.128   5.557
   84SOL     OW 1150   6.483   3.290   3.897
   84SOL    HW1 1151   6.557   3.354   3.882
   84SOL    HW2 1152   6.419   3.293   3.821
   85SOL     OW 1153   1.699   6.855   3.870
   85SOL    HW1 1154   1.690   6.805   3.955
   85SOL    HW2 1155   1.612   6.901   3.849
   86SOL     OW 1156   5.572   1.245   6.011
   86SOL    HW1 1157   5.610   1.246   6.104
   86SOL    HW2 1158   5.538   1.337   5.989
   87SOL     OW 1159   4.246   4.581   6.817
   87SOL    HW1 1160   4.261   4.677   6.795
   87SOL    HW2 1161   4.313   4.525   6.768
   88SOL     OW 1162   2.822   2.818   5.803
   88SOL    HW1 1163   2.857   2.904   5.765
   88SOL    HW2 1164   2.722   2.818   5.798
   89SOL     OW 1165   2.999   3.117   2.298
   89SOL    HW1 1166   3.013   3.075   2.388
   89SOL    HW2 1167   2.923   3.071   2.251
   90SOL     OW 1168   4.974   3.515   2.924
   90SOL    HW1 1169   4.964   3.496   3.022
   90SOL    HW2 1170   4.966   3.613   2.907
   91SOL     OW 1171   5.525   5.509   6.182
   91SOL    HW1 1172   5.589   5.550   6.247
   91SOL    HW2 1173   5.576   5.477   6.102
   92SOL     OW 1174   4.948   4.464   0.067
   92SOL    HW1 1175   4.952   4.392   0.137
   92SOL    HW2 1176   5.041   4.492   0.043
   93SOL     OW 1177   2.933   2.824   1.017
   93SOL    HW1 1178   2.894   2.806   1.107
   93SOL    HW2 1179   2.916   2.919   0.992
   94SOL     OW 1180   3.084   0.168   6.291
   94SOL    HW1 1181   3.165   0.135   6.341
   94SOL    HW2 1182   3.096   0.151   6.194
   95SOL     OW 1183   0.635   0.747   4.421
   95SOL    HW1 1184   0.581   0.678   4.469
   95SOL    HW2 1185   0.679   0.705   4.341
   96SOL     OW 1186   4.795   4.871   6.898
   96SOL    HW1 1187   4.706   4.904   6.929
   96SOL    HW2 1188   4.825   4.796   6.957
   97SOL     OW 1189   1.593   4.962   5.645
   97SOL    HW1 1190   1.597   4.866   5.618
   97SOL    HW2 1191   1.676   5.008   5.615
   98SOL     OW 1192   1.042   2.502   2.094
   98SOL    HW1 1193   1.099   2.473   2.170
   98SOL    HW2 1194   1.063   2.597   2.071
   99SOL     OW 1195   3.537   3.324   3.606
   99SOL    HW1 1196   3.478   3.244   3.616
   99SOL    HW2 1197   3.611   3.303   3.542
  100SOL     OW 1198   0.168   6.851   4.261
  100SOL    HW1 1199   0.131   6.758   4.253
  100SOL    HW2 1200   0.206   6.879   4.172
  101SOL     OW 1201   0.698   4.591   2.461
  101SOL    HW1 1202   0.660   4.503   2.489
  101SOL    HW2 1203   0.722   4.588   2.364
  102SOL     OW 1204   2.693   6.205   1.844
  102SOL    HW1 1205   2.696   6.200   1.745
  102SOL    HW2 1206   2.771   6.258   1.877
  103SOL     OW 1207   1.903   1.382   2.303
  103SOL    HW1 1208   1.985   1.365   2.357
  103SOL    HW2 1209   1.905   1.475   2.266
  104SOL     OW 1210   0.961   4.188   1.955
  104SOL    HW1 1211   0.987   4.228   1.867
  104SOL    HW2 1212   1.033   4.205   2.022
  105SOL     OW 1213   5.718   1.570   6.673
  105SOL    HW1 1214   5.647   1.526   6.728
  105SOL    HW2 1215   5.675   1.617   6.596
  106SOL     OW 1216   5.354   5.212   1.620
  106SOL    HW1 1217   5.261   5.217   1.656
  106SOL    HW2 1218   5.389   5.119   1.632
  107SOL     OW 1219   6.814   1.433   0.256
  107SOL    HW1 1220   6.801   1.460   0.160
  107SOL    HW2 1221   6.726   1.408   0.296
  108SOL     OW 1222   1.956   0.553   4.879
  108SOL    HW1 1223   1.859   0.576   4.872
  108SOL    HW2 1224   1.979   0.482   4.813
  109SOL     OW 1225   3.695   1.121   3.047
  109SOL    HW1 1226   3.759   1.108   2.971
  109SOL    HW2 1227   3.694   1.038   3.104
  110SOL     OW 1228   2.508   4.167   5.773
  110SOL    HW1 1229   2.565   4.086   5.786
  110SOL    HW2 1230   2.428   4.143   5.718
  111SOL     OW 1231   5.824   1.128   2.644
  111SOL    HW1 1232   5.901   1.096   2.589
  111SOL    HW2 1233   5.744   1.139   2.586
  112SOL     OW 1234   4.356   6.889   6.893
  112SOL    HW1 1235   4.435   6.887   6.954
  112SOL    HW2 1236   4.334   6.796   6.865
  113SOL     OW 1237   6.246   5.847   2.765
  113SOL    HW1 1238   6.287   5.757   2.752
  113SOL    HW2 1239   6.314   5.910   2.803
  114SOL     OW 1240   1.223   4.454   3.661
  114SOL    HW1 1241   1.275   4.393   3.602
  114SOL    HW2 1242   1.129   4.462   3.628
  115SOL     OW 1243   5.879   0.878   3.521
  115SOL    HW1 1244   5.971   0.841   3.534
  115SOL    HW2 1245   5.882   0.978   3.521
  116SOL     OW 1246   0.901   5.735   0.945
  116SOL    HW1 1247   0.983   5.731   1.003
  116SOL    HW2 1248   0.827   5.685   0.988
  117SOL     OW 1249   2.909   1.479   0.105
  117SOL    HW1 1250   2.814   1.450   0.121
  117SOL    HW2 1251   2.917   1.515   0.012
  118SOL     OW 1252   1.155   1.307   3.414
  118SOL    HW1 1253   1.253   1.304   3.394
  118SOL    HW2 1254   1.131   1.229   3.473
  119SOL     OW 1255   6.972   6.937   6.894
  119SOL    HW1 1256   0.017   6.868   6.872
  119SOL    HW2 1257   6.903   6.938   6.822
  120SOL     OW 1258   4.823   0.885   5.202
  120SOL    HW1 1259   4.821   0.815   5.273
  120SOL    HW2 1260   4.915   0.888   5.161
  121SOL     OW 1261   1.478   3.319   7.024
  121SOL    HW1 1262   1.521   3.303   6.935
  121SOL    HW2 1263   1.455   3.231   0.042
  122SOL     OW 1264   1.574   4.257   6.949
  122SOL    HW1 1265   1.626   4.285   0.006
  122SOL    HW2 1266   1.488   4.306   6.947
  123SOL     OW 1267   1.383   1.349   1.482
  123SOL    HW1 1268   1.370   1.249   1.486
  123SOL    HW2 1269   1.373   1.387   1.574
  124SOL     OW 1270   2.891   2.290   0.985
  124SOL    HW1 1271   2.937   2.330   1.065
  124SOL    HW2 1272   2.799   2.329   0.977
  125SOL     OW 1273   3.152   2.681   6.907
  125SOL    HW1 1274   3.099   2.703   6.824
  125SOL    HW2 1275   3.132   2.749   6.977
  126SOL     OW 1276   3.713   2.966   3.207
  126SOL    HW1 1277   3.716   2.944   3.110
  126SOL    HW2 1278   3.686   3.062   3.219
  127SOL     OW 1279   0.162   5.816   6.170
  127SOL    HW1 1280   0.249   5.806   6.123
  127SOL    HW2 1281   0.160   5.903   6.219
  128SOL     OW 1282   4.687   3.835   1.530
  128SOL    HW1 1283   4.663   3.751   1.479
  128SOL    HW2 1284   4.606   3.868   1.579
  129SOL     OW 1285   2.078   6.368   1.173
  129SOL    HW1 1286   2.034   6.457   1.167
  129SOL    HW2 1287   2.115   6.355   1.266
  130SOL     OW 1288   5.261   2.043   4.758
  130SOL    HW1 1289   5.351   2.007   4.730
  130SOL    HW2 1290   5.274   2.110   4.831
  131SOL     OW 1291   0.275   1.954   3.731
  131SOL    HW1 1292   0.215   1.878   3.756
  131SOL    HW2 1293   0.244   2.037   3.777
  132SOL     OW 1294   3.379   4.036   1.777
  132SOL    HW1 1295   3.367   4.047   1.876
  132SOL    HW2 1296   3.470   4.067   1.752
  133SOL     OW 1297   5.178   0.079   4.640
  133SOL    HW1 1298   5.215   0.169   4.619
  133SOL    HW2 1299   5.251   0.021   4.677
  134SOL     OW 1300   5.911   0.706   1.949
  134SOL    HW1 1301   5.882   0.800   1.932
  134SOL    HW2 1302   5.889   0.650   1.869
  135SOL     OW 1303   5.051   3.620   4.336
  135SOL    HW1 1304   5.095   3.706   4.309
  135SOL    HW2 1305   4.970   3.640   4.392
  136SOL     OW 1306   2.606   6.379   4.403
  136SOL    HW1 1307   2.673   6.400   4.332
  136SOL    HW2 1308   2.637   6.302   4.458
  137SOL     OW 1309   3.248   2.141   4.810
  137SOL    HW1 1310   3.218   2.184   4.896
  137SOL    HW2 1311   3.174   2.085   4.774
  138SOL     OW 1312   1.105   5.360   4.584
  138SOL    HW1 1313   1.122   5.291   4.513
  138SOL    HW2 1314   1.008   5.383   4.586
  139SOL     OW 1315   2.086   6.116   6.658
  139SOL    HW1 1316   2.172   6.143   6.700
  139SOL    HW2 1317   2.105   6.064   6.574
  140SOL     OW 1318   2.418   0.679   3.022
  140SOL    HW1 1319   2.381   0.694   2.930
  140SOL    HW2 1320   2.411   0.762   3.076
  141SOL     OW 1321   6.671   4.146   0.417
  141SOL    HW1 1322   6.662   4.184   0.324
  141SOL    HW2 1323   6.632   4.055   0.419
  142SOL     OW 1324   0.777   4.180   1.647
  142SOL    HW1 1325   0.854   4.117   1.654
  142SOL    HW2 1326   0.809   4.273   1.666
  143SOL     OW 1327   5.841   6.961   1.505
  143SOL    HW1 1328   5.908   0.001   1.541
  143SOL    HW2 1329   5.750   6.985   1.538
  144SOL     OW 1330   2.717   4.807   3.933
  144SOL    HW1 1331   2.699   4.863   4.014
  144SOL    HW2 1332   2.815   4.791   3.925
  145SOL     OW 1333   6.662   4.817   2.848
  145SOL    HW1 1334   6.723   4.738   2.839
  145SOL    HW2 1335   6.582   4.791   2.901
  146SOL     OW 1336   6.300   1.811   5.534
  146SOL    HW1 1337   6.223   1.852   5.485
  146SOL    HW2 1338   6.383   1.817   5.477
  147SOL     OW 1339   5.059   1.171   5.099
  147SOL    HW1 1340   4.979   1.185   5.157
  147SOL    HW2 1341   5.056   1.235   5.022
  148SOL     OW 1342   1.213   4.697   1.080
  148SOL    HW1 1343   1.116   4.672   1.081
  148SOL    HW2 1344   1.239   4.726   0.987
  149SOL     OW 1345   2.469   2.224   5.119
  149SOL    HW1 1346   2.495   2.255   5.210
  149SOL    HW2 1347   2.445   2.302   5.062
  150SOL     OW 1348   4.691   1.415   5.347
  150SOL    HW1 1349   4.661   1.425   5.442
  150SOL    HW2 1350   4.637   1.342   5.303
  151SOL     OW 1351   4.218   2.090   0.802
  151SOL    HW1 1352   4.189   2.015   0.742
  151SOL    HW2 1353   4.273   2.155   0.749
  152SOL     OW 1354   0.967   1.116   6.774
  152SOL    HW1 1355   0.892   1.067   6.820
  152SOL    HW2 1356   0.929   1.170   6.699
  153SOL     OW 1357   2.211   1.518   3.862
  153SOL    HW1 1358   2.262   1.604   3.859
  153SOL    HW2 1359   2.205   1.480   3.769
  154SOL     OW 1360   6.252   2.039   1.480
  154SOL    HW1 1361   6.305   2.018   1.563
  154SOL    HW2 1362   6.204   1.956   1.450
  155SOL     OW 1363   0.566   0.238   2.080
  155SOL    HW1 1364   0.561   0.154   2.025
  155SOL    HW2 1365   0.475   0.260   2.114
  156SOL     OW 1366   4.474   0.891   0.059
  156SOL    HW1 1367   4.555   0.931   0.102
  156SOL    HW2 1368   4.477   0.908   6.985
  157SOL     OW 1369   5.168   3.947   0.472
  157SOL    HW1 1370   5.227   3.867   0.485
  157SOL    HW2 1371   5.176   4.008   0.551
  158SOL     OW 1372   1.261   3.214   2.751
  158SOL    HW1 1373   1.358   3.229   2.728
  158SOL    HW2 1374   1.255   3.176   2.843
  159SOL     OW 1375   5.033   5.530   0.735
  159SOL    HW1 1376   5.070   5.453   0.683
  159SOL    HW2 1377   5.077   5.535   0.825
  160SOL     OW 1378   5.732   0.448   0.473
  160SOL    HW1 1379   5.741   0.464   0.571
  160SOL    HW2 1380   5.738   0.536   0.425
  161SOL     OW 1381   0.756   0.039   0.329
  161SOL    HW1 1382   0.794   0.111   0.271
  161SOL    HW2 1383   0.823   0.012   0.397
  162SOL     OW 1384   2.514   6.333   0.238
  162SOL    HW1 1385   2.570   6.289   0.308
  162SOL    HW2 1386   2.568   6.347   0.156
  163SOL     OW 1387   6.540   4.298   3.258
  163SOL    HW1 1388   6.596   4.216   3.253
  163SOL    HW2 1389   6.451   4.280   3.216
  164SOL     OW 1390   1.382   1.819   2.745
  164SOL    HW1 1391   1.389   1.727   2.706
  164SOL    HW2 1392   1.384   1.814   2.844
  165SOL     OW 1393   0.393   5.855   2.565
  165SOL    HW1 1394   0.385   5.941   2.616
  165SOL    HW2 1395   0.467   5.864   2.498
  166SOL     OW 1396   6.252   3.909   2.040
  166SOL    HW1 1397   6.349   3.903   2.062
  166SOL    HW2 1398   6.238   3.983   1.974
  167SOL     OW 1399   4.878   1.320   0.123
  167SOL    HW1 1400   4.835   1.365   0.201
  167SOL    HW2 1401   4.925   1.389   0.067
  168SOL     OW 1402   4.945   3.995   1.917
  168SOL    HW1 1403   4.935   3.977   1.819
  168SOL    HW2 1404   4.909   3.917   1.969
  169SOL     OW 1405   5.871   2.859   1.105
  169SOL    HW1 1406   5.898   2.860   1.009
  169SOL    HW2 1407   5.804   2.786   1.120
  170SOL     OW 1408   1.488   4.948   3.086
  170SOL    HW1 1409   1.390   4.960   3.100
  170SOL    HW2 1410   1.517   4.862   3.127
  171SOL     OW 1411   2.171   3.282   0.686
  171SOL    HW1 1412   2.246   3.338   0.649
  171SOL    HW2 1413   2.208   3.221   0.756
  172SOL     OW 1414   5.621   2.160   1.875
  172SOL    HW1 1415   5.683   2.237   1.889
  172SOL    HW2 1416   5.674   2.080   1.845
  173SOL     OW 1417   6.291   1.272   5.012
  173SOL    HW1 1418   6.271   1.347   4.948
  173SOL    HW2 1419   6.363   1.300   5.075
  174SOL     OW 1420   5.439   5.736   5.400
  174SOL    HW1 1421   5.360   5.692   5.443
  174SOL    HW2 1422   5.455   5.825   5.443
  175SOL     OW 1423   1.545   0.398   0.642
  175SOL    HW1 1424   1.596   0.457   0.580
  175SOL    HW2 1425   1.462   0.446   0.672
  176SOL     OW 1426   4.966   4.698   2.517
  176SOL    HW1 1427   4.925   4.661   2.601
  176SOL    HW2 1428   4.915   4.779   2.488
  177SOL     OW 1429   5.538   1.939   4.683
  177SOL    HW1 1430   5.516   1.989   4.600
  177SOL    HW2 1431   5.521   1.841   4.669
  178SOL     OW 1432   2.342   6.267   4.945
  178SOL    HW1 1433   2.383   6.264   4.854
  178SOL    HW2 1434   2.352   6.359   4.983
  179SOL     OW 1435   4.277   5.037   0.539
  179SOL    HW1 1436   4.252   4.968   0.472
  179SOL    HW2 1437   4.343   5.100   0.499
  180SOL     OW 1438   3.790   0.194   0.901
  180SOL    HW1 1439   3.813   0.119   0.838
  180SOL    HW2 1440   3.867   0.211   0.962
  181SOL     OW 1441   3.094   2.354   5.477
  181SOL    HW1 1442   3.164   2.315   5.537
  181SOL    HW2 1443   3.109   2.323   5.383
  182SOL     OW 1444   5.617   2.571   0.005
  182SOL    HW1 1445   5.647   2.513   0.081
  182SOL    HW2 1446   5.697   2.612   6.986
  183SOL     OW 1447   3.509   1.865   4.547
  183SOL    HW1 1448   3.412   1.843   4.532
  183SOL    HW2 1449   3.516   1.948   4.602
  184SOL     OW 1450   0.355   6.596   3.648
  184SOL    HW1 1451   0.444   6.611   3.692
  184SOL    HW2 1452   0.367   6.592   3.549
  185SOL     OW 1453   0.434   1.743   4.081
  185SOL    HW1 1454   0.488   1.660   4.093
  185SOL    HW2 1455   0.405   1.777   4.171
  186SOL     OW 1456   5.300   5.479   4.346
  186SOL    HW1 1457   5.266   5.566   4.312
  186SOL    HW2 1458   5.284   5.474   4.445
  187SOL     OW 1459   4.062   5.653   2.848
  187SOL    HW1 1460   4.030   5.745   2.827
  187SOL    HW2 1461   4.161   5.648   2.836
  188SOL     OW 1462   2.491   2.099   2.884
  188SOL    HW1 1463   2.448   2.184   2.853
  188SOL    HW2 1464   2.500   2.036   2.807
  189SOL     OW 1465   6.526   5.554   6.983
  189SOL    HW1 1466   6.588   5.612   6.930
  189SOL    HW2 1467   6.578   5.501   0.025
  190SOL     OW 1468   6.112   5.812   0.203
  190SOL    HW1 1469   6.037   5.800   0.268
  190SOL    HW2 1470   6.112   5.905   0.168
  191SOL     OW 1471   6.494   0.915   6.213
  191SOL    HW1 1472   6.563   0.866   6.159
  191SOL    HW2 1473   6.407   0.914   6.164
  192SOL     OW 1474   0.121   4.996   1.082
  192SOL    HW1 1475   0.140   5.094   1.069
  192SOL    HW2 1476   0.074   4.961   1.001
  193SOL     OW 1477   3.080   5.062   6.338
  193SOL    HW1 1478   3.139   5.137   6.308
  193SOL    HW2 1479   3.137   4.982   6.359
  194SOL     OW 1480   3.894   6.564   2.134
  194SOL    HW1 1481   3.841   6.625   2.192
  194SOL    HW2 1482   3.831   6.506   2.081
  195SOL     OW 1483   3.178   0.739   1.981
  195SOL    HW1 1484   3.151   0.829   1.949
  195SOL    HW2 1485   3.165   0.733   2.080
  196SOL     OW 1486   2.535   1.029   6.451
  196SOL    HW1 1487   2.622   1.077   6.442
  196SOL    HW2 1488   2.472   1.060   6.380
  197SOL     OW 1489   2.376   6.247   6.998
  197SOL    HW1 1490   2.410   6.277   0.063
  197SOL    HW2 1491   2.288   6.292   6.980
  198SOL     OW 1492   4.441   5.947   0.756
  198SOL    HW1 1493   4.463   6.011   0.830
  198SOL    HW2 1494   4.445   5.854   0.790
  199SOL     OW 1495   5.611   0.517   2.310
  199SOL    HW1 1496   5.621   0.595   2.249
  199SOL    HW2 1497   5.566   0.442   2.261
  200SOL     OW 1498   1.320   3.415   2.255
  200SOL    HW1 1499   1.398   3.467   2.289
  200SOL    HW2 1500   1.241   3.428   2.315
  201SOL     OW 1501   2.804   0.812   0.000
  201SOL    HW1 1502   2.753   0.821   6.939
  201SOL    HW2 1503   2.876   0.881   0.003
  202SOL     OW 1504   4.747   6.454   4.115
  202SOL    HW1 1505   4.813   6.457   4.040
  202SOL    HW2 1506   4.796   6.453   4.202
  203SOL     OW 1507   5.084   3.457   6.077
  203SOL    HW1 1508   5.000   3.436   6.028
  203SOL    HW2 1509   5.137   3.525   6.026
  204SOL     OW 1510   1.459   0.152   0.547
  204SOL    HW1 1511   1.538   0.212   0.548
  204SOL    HW2 1512   1.431   0.135   0.452
  205SOL     OW 1513   7.018   1.378   0.954
  205SOL    HW1 1514   7.005   1.409   0.860
  205SOL    HW2 1515   0.046   1.292   0.954
  206SOL     OW 1516   0.686   4.454   1.110
  206SOL    HW1 1517   0.687   4.510   1.028
  206SOL    HW2 1518   0.779   4.423   1.131
  207SOL     OW 1519   4.276   0.205   5.840
  207SOL    HW1 1520   4.297   0.292   5.796
  207SOL    HW2 1521   4.340   0.188   5.914
  208SOL     OW 1522   5.277   4.640   5.721
  208SOL    HW1 1523   5.370   4.666   5.747
  208SOL    HW2 1524   5.242   4.707   5.655
  209SOL     OW 1525   0.228   6.062   5.679
  209SOL    HW1 1526   0.291   5.989   5.706
  209SOL    HW2 1527   0.166   6.028   5.608
  210SOL     OW 1528   3.985   2.195   1.974
  210SOL    HW1 1529   3.887   2.212   1.980
  210SOL    HW2 1530   4.025   2.254   1.905
  211SOL     OW 1531   0.620   1.558   1.750
  211SOL    HW1 1532   0.530   1.587   1.782
  211SOL    HW2 1533   0.664   1.502   1.820
  212SOL     OW 1534   0.521   4.570   3.216
  212SOL    HW1 1535   0.553   4.533   3.129
  212SOL    HW2 1536   0.436   4.524   3.242
  213SOL     OW 1537   5.012   1.075   0.103
  213SOL    HW1 1538   5.107   1.090   0.130
  213SOL    HW2 1539   4.964   1.162   0.098
  214SOL     OW 1540   0.623   6.831   3.241
  214SOL    HW1 1541   0.573   6.909   3.280
  214SOL    HW2 1542   0.564   6.784   3.175
  215SOL     OW 1543   4.167   3.171   1.968
  215SOL    HW1 1544   4.246   3.134   2.017
  215SOL    HW2 1545   4.150   3.265   1.998
  216SOL     OW 1546   1.364   0.075   4.512
  216SOL    HW1 1547   1.272   0.113   4.505
  216SOL    HW2 1548   1.399   0.086   4.605
  217SOL     OW 1549   1.931   2.654   4.223
  217SOL    HW1 1550   1.896   2.578   4.169
  217SOL    HW2 1551   2.027   2.670   4.199
  218SOL     OW 1552   1.219   2.577   4.110
  218SOL    HW1 1553   1.303   2.630   4.116
  218SOL    HW2 1554   1.240   2.479   4.112
  219SOL     OW 1555   3.632   4.203   0.313
  219SOL    HW1 1556   3.620   4.191   0.412
  219SOL    HW2 1557   3.655   4.115   0.272
  220SOL     OW 1558   2.352   5.442   0.010
  220SOL    HW1 1559   2.273   5.391   0.044
  220SOL    HW2 1560   2.426   5.436   0.077
  221SOL     OW 1561   5.585   3.281   4.099
  221SOL    HW1 1562   5.550   3.375   4.101
  221SOL    HW2 1563   5.645   3.269   4.020
  222SOL     OW 1564   1.524   5.523   4.987
  222SOL    HW1 1565   1.513   5.610   5.035
  222SOL    HW2 1566   1.604   5.528   4.927
  223SOL     OW 1567   0.060   3.530   2.046
  223SOL    HW1 1568   0.038   3.548   1.950
  223SOL    HW2 1569   0.089   3.614   2.091
  224SOL     OW 1570   2.718   2.327   2.318
  224SOL    HW1 1571   2.749   2.341   2.224
  224SOL    HW2 1572   2.768   2.251   2.358
  225SOL     OW 1573   5.823   1.192   0.159
  225SOL    HW1 1574   5.795   1.259   0.090
  225SOL    HW2 1575   5.898   1.229   0.213
  226SOL     OW 1576   1.079   6.835   0.964
  226SOL    HW1 1577   1.128   6.748   0.962
  226SOL    HW2 1578   1.138   6.907   0.928
  227SOL     OW 1579   1.464   4.009   3.117
  227SOL    HW1 1580   1.508   3.948   3.183
  227SOL    HW2 1581   1.372   3.977   3.098
  228SOL     OW 1582   3.672   6.995   4.282
  228SOL    HW1 1583   3.764   6.993   4.321
  228SOL    HW2 1584   3.615   0.036   4.333
  229SOL     OW 1585   6.179   5.588   1.344
  229SOL    HW1 1586   6.145   5.636   1.262
  229SOL    HW2 1587   6.214   5.655   1.409
  230SOL     OW 1588   2.228   4.165   4.175
  230SOL    HW1 1589   2.166   4.097   4.136
  230SOL    HW2 1590   2.234   4.153   4.274
  231SOL     OW 1591   6.796   3.143   6.247
  231SOL    HW1 1592   6.834   3.051   6.244
  231SOL    HW2 1593   6.794   3.176   6.341
  232SOL     OW 1594   1.768   3.866   6.424
  232SOL    HW1 1595   1.847   3.808   6.403
  232SOL    HW2 1596   1.691   3.841   6.365
  233SOL     OW 1597   2.678   1.064   5.776
  233SOL    HW1 1598   2.777   1.066   5.782
  233SOL    HW2 1599   2.649   0.986   5.720
  234SOL     OW 1600   2.628   5.055   6.974
  234SOL    HW1 1601   2.609   4.970   6.925
  234SOL    HW2 1602   2.710   5.043   0.006
  235SOL     OW 1603   3.619   3.464   3.899
  235SOL    HW1 1604   3.575   3.434   3.814
  235SOL    HW2 1605   3.552   3.466   3.973
  236SOL     OW 1606   6.292   2.902   5.959
  236SOL    HW1 1607   6.269   2.835   6.030
  236SOL    HW2 1608   6.213   2.961   5.942
  237SOL     OW 1609   6.843   6.820   1.581
  237SOL    HW1 1610   6.839   6.919   1.595
  237SOL    HW2 1611   6.841   6.800   1.483
  238SOL     OW 1612   5.874   3.726   1.657
  238SOL    HW1 1613   5.866   3.748   1.559
  238SOL    HW2 1614   5.783   3.714   1.696
  239SOL     OW 1615   0.151   5.968   6.920
  239SOL    HW1 1616   0.250   5.969   6.933
  239SOL    HW2 1617   0.129   5.923   6.833
  240SOL     OW 1618   0.962   3.910   6.287
  240SOL    HW1 1619   0.982   4.000   6.325
  240SOL    HW2 1620   1.012   3.841   6.340
  241SOL     OW 1621   0.467   1.149   3.749
  241SOL    HW1 1622   0.530   1.080   3.785
  241SOL    HW2 1623   0.490   1.169   3.654
  242SOL     OW 1624   1.595   3.223   4.876
  242SOL    HW1 1625   1.546   3.172   4.804
  242SOL    HW2 1626   1.691   3.233   4.851
  243SOL     OW 1627   5.073   0.309   6.156
  243SOL    HW1 1628   5.098   0.403   6.179
  243SOL    HW2 1629   5.114   0.246   6.221
  244SOL     OW 1630   5.380   1.471   4.887
  244SOL    HW1 1631   5.361   1.567   4.906
  244SOL    HW2 1632   5.439   1.433   4.958
  245SOL     OW 1633   6.119   2.641   5.152
  245SOL    HW1 1634   6.128   2.541   5.154
  245SOL    HW2 1635   6.079   2.673   5.238
  246SOL     OW 1636   4.920   3.725   3.644
  246SOL    HW1 1637   4.896   3.806   3.592
  246SOL    HW2 1638   4.976   3.752   3.723
  247SOL     OW 1639   2.601   0.996   3.574
  247SOL    HW1 1640   2.680   1.033   3.525
  247SOL    HW2 1641   2.549   1.071   3.615
  248SOL     OW 1642   4.765   1.794   4.622
  248SOL    HW1 1643   4.837   1.736   4.657
  248SOL    HW2 1644   4.776   1.887   4.657
  249SOL     OW 1645   3.297   6.502   4.561
  249SOL    HW1 1646   3.235   6.461   4.628
  249SOL    HW2 1647   3.257   6.494   4.470
  250SOL     OW 1648   5.521   2.803   5.370
  250SOL    HW1 1649   5.476   2.730   5.319
  250SOL    HW2 1650   5.513   2.785   5.468
  251SOL     OW 1651   4.790   3.029   6.609
  251SOL    HW1 1652   4.719   2.980   6.558
  251SOL    HW2 1653   4.759   3.044   6.703
  252SOL     OW 1654   6.534   1.093   5.965
  252SOL    HW1 1655   6.570   1.130   6.051
  252SOL    HW2 1656   6.439   1.063   5.978
  253SOL     OW 1657   2.154   2.701   0.776
  253SOL    HW1 1658   2.132   2.724   0.871
  253SOL    HW2 1659   2.190   2.781   0.729
  254SOL     OW 1660   6.817   3.525   4.364
  254SOL    HW1 1661   6.852   3.507   4.272
  254SOL    HW2 1662   6.733   3.578   4.358
  255SOL     OW 1663   3.148   2.028   3.446
  255SOL    HW1 1664   3.188   2.019   3.355
  255SOL    HW2 1665   3.067   2.085   3.441
  256SOL     OW 1666   6.266   5.544   6.497
  256SOL    HW1 1667   6.207   5.570   6.574
  256SOL    HW2 1668   6.218   5.560   6.411
  257SOL     OW 1669   2.679   5.335   5.850
  257SOL    HW1 1670   2.709   5.299   5.939
  257SOL    HW2 1671   2.755   5.333   5.786
  258SOL     OW 1672   4.917   4.367   4.630
  258SOL    HW1 1673   4.818   4.361   4.646
  258SOL    HW2 1674   4.934   4.402   4.538
  259SOL     OW 1675   1.957   2.938   2.546
  259SOL    HW1 1676   1.867   2.980   2.548
  259SOL    HW2 1677   1.997   2.941   2.638
  260SOL     OW 1678   5.235   0.221   6.360
  260SOL    HW1 1679   5.196   0.141   6.407
  260SOL    HW2 1680   5.260   0.290   6.428
  261SOL     OW 1681   0.520   4.314   1.707
  261SOL    HW1 1682   0.607   4.296   1.753
  261SOL    HW2 1683   0.444   4.293   1.770
  262SOL     OW 1684   1.003   2.885   2.460
  262SOL    HW1 1685   1.078   2.868   2.524
  262SOL    HW2 1686   0.931   2.818   2.474
  263SOL     OW 1687   0.912   2.541   4.717
  263SOL    HW1 1688   0.853   2.622   4.719
  263SOL    HW2 1689   0.872   2.473   4.655
  264SOL     OW 1690   0.733   3.799   5.839
  264SOL    HW1 1691   0.651   3.779   5.891
  264SOL    HW2 1692   0.799   3.847   5.897
  265SOL     OW 1693   5.161   4.519   4.123
  265SOL    HW1 1694   5.224   4.535   4.047
  265SOL    HW2 1695   5.069   4.547   4.097
  266SOL     OW 1696   4.284   1.744   0.864
  266SOL    HW1 1697   4.213   1.687   0.904
  266SOL    HW2 1698   4.254   1.779   0.775
  267SOL     OW 1699   1.974   2.555   6.186
  267SOL    HW1 1700   1.923   2.574   6.270
  267SOL    HW2 1701   1.918   2.500   6.124
  268SOL     OW 1702   4.648   4.281   4.631
  268SOL    HW1 1703   4.580   4.260   4.561
  268SOL    HW2 1704   4.604   4.329   4.707
  269SOL     OW 1705   1.441   1.985   6.721
  269SOL    HW1 1706   1.446   2.050   6.797
  269SOL    HW2 1707   1.408   1.897   6.754
  270SOL     OW 1708   5.485   0.702   2.599
  270SOL    HW1 1709   5.553   0.757   2.648
  270SOL    HW2 1710   5.417   0.667   2.664
  271SOL     OW 1711   1.754   0.555   0.820
  271SOL    HW1 1712   1.684   0.494   0.785
  271SOL    HW2 1713   1.800   0.600   0.743
  272SOL     OW 1714   3.776   5.151   3.588
  272SOL    HW1 1715   3.709   5.076   3.580
  272SOL    HW2 1716   3.788   5.174   3.684
  273SOL     OW 1717   1.830   5.462   4.888
  273SOL    HW1 1718   1.778   5.418   4.815
  273SOL    HW2 1719   1.846   5.398   4.962
  274SOL     OW 1720   6.312   2.732   2.948
  274SOL    HW1 1721   6.351   2.729   2.856
  274SOL    HW2 1722   6.269   2.821   2.963
  275SOL     OW 1723   6.923   6.668   5.980
  275SOL    HW1 1724   6.887   6.625   6.064
  275SOL    HW2 1725   6.913   6.604   5.904
  276SOL     OW 1726   6.457   6.087   3.685
  276SOL    HW1 1727   6.549   6.073   3.649
  276SOL    HW2 1728   6.462   6.115   3.780
  277SOL     OW 1729   3.583   1.771   5.434
  277SOL    HW1 1730   3.641   1.800   5.357
  277SOL    HW2 1731   3.491   1.751   5.400
  278SOL     OW 1732   5.473   3.787   2.608
  278SOL    HW1 1733   5.427   3.786   2.520
  278SOL    HW2 1734   5.567   3.819   2.596
  279SOL     OW 1735   0.075   2.961   3.050
  279SOL    HW1 1736   0.106   2.887   2.991
  279SOL    HW2 1737   7.000   2.956   3.060
  280SOL     OW 1738   4.602   0.020   3.530
  280SOL    HW1 1739   4.678   6.979   3.528
  280SOL    HW2 1740   4.517   6.996   3.509
  281SOL     OW 1741   4.678   5.610   3.999
  281SOL    HW1 1742   4.658   5.558   3.916
  281SOL    HW2 1743   4.777   5.619   4.009
  282SOL     OW 1744   4.352   2.207   6.328
  282SOL    HW1 1745   4.320   2.215   6.234
  282SOL    HW2 1746   4.331   2.115   6.362
  283SOL     OW 1747   6.396   0.640   4.973
  283SOL    HW1 1748   6.425   0.545   4.979
  283SOL    HW2 1749   6.345   0.654   4.887
  284SOL     OW 1750   0.204   4.900   5.386
  284SOL    HW1 1751   0.154   4.970   5.336
  284SOL    HW2 1752   0.297   4.892   5.349
  285SOL     OW 1753   4.981   0.195   0.146
  285SOL    HW1 1754   5.060   0.153   0.103
  285SOL    HW2 1755   5.011   0.261   0.215
  286SOL     OW 1756   3.368   5.201   4.631
  286SOL    HW1 1757   3.451   5.161   4.670
  286SOL    HW2 1758   3.322   5.134   4.574
  287SOL     OW 1759   2.035   5.907   5.865
  287SOL    HW1 1760   2.039   5.870   5.772
  287SOL    HW2 1761   2.069   6.001   5.865
  288SOL     OW 1762   3.621   0.816   0.539
  288SOL    HW1 1763   3.717   0.820   0.509
  288SOL    HW2 1764   3.614   0.763   0.623
  289SOL     OW 1765   0.770   6.487   4.877
  289SOL    HW1 1766   0.866   6.501   4.902
  289SOL    HW2 1767   0.731   6.415   4.935
  290SOL     OW 1768   4.443   0.757   3.621
  290SOL    HW1 1769   4.485   0.822   3.685
  290SOL    HW2 1770   4.420   0.673   3.669
  291SOL     OW 1771   4.814   0.479   4.167
  291SOL    HW1 1772   4.832   0.449   4.074
  291SOL    HW2 1773   4.788   0.401   4.223
  292SOL     OW 1774   3.667   0.130   3.815
  292SOL    HW1 1775   3.701   0.112   3.908
  292SOL    HW2 1776   3.743   0.161   3.758
  293SOL     OW 1777   5.640   5.977   2.327
  293SOL    HW1 1778   5.667   6.014   2.416
  293SOL    HW2 1779   5.549   5.936   2.334
  294SOL     OW 1780   5.944   0.202   5.692
  294SOL    HW1 1781   5.931   0.128   5.758
  294SOL    HW2 1782   5.991   0.166   5.611
  295SOL     OW 1783   1.445   1.960   5.307
  295SOL    HW1 1784   1.538   1.989   5.328
  295SOL    HW2 1785   1.406   1.912   5.385
  296SOL     OW 1786   6.943   0.733   1.528
  296SOL    HW1 1787   6.928   0.762   1.433
  296SOL    HW2 1788   6.892   0.794   1.589
  297SOL     OW 1789   5.128   4.200   3.630
  297SOL    HW1 1790   5.188   4.202   3.550
  297SOL    HW2 1791   5.183   4.203   3.713
  298SOL     OW 1792   4.153   0.681   0.357
  298SOL    HW1 1793   4.188   0.749   0.422
  298SOL    HW2 1794   4.227   0.652   0.297
  299SOL     OW 1795   2.993   1.980   0.347
  299SOL    HW1 1796   3.031   2.005   0.436
  299SOL    HW2 1797   3.029   1.891   0.319
  300SOL     OW 1798   3.727   1.315   2.458
  300SOL    HW1 1799   3.716   1.411   2.434
  300SOL    HW2 1800   3.652   1.262   2.419
  301SOL     OW 1801   5.342   6.095   1.790
  301SOL    HW1 1802   5.389   6.162   1.847
  301SOL    HW2 1803   5.407   6.027   1.757
  302SOL     OW 1804   6.770   6.340   1.744
  302SOL    HW1 1805   6.699   6.309   1.807
  302SOL    HW2 1806   6.860   6.319   1.782
  303SOL     OW 1807   6.375   5.498   2.310
  303SOL    HW1 1808   6.281   5.464   2.306
  303SOL    HW2 1809   6.374   5.597   2.297
  304SOL     OW 1810   1.792   6.903   5.134
  304SOL    HW1 1811   1.765   6.822   5.082
  304SOL    HW2 1812   1.723   6.922   5.204
  305SOL     OW 1813   1.229   2.974   1.602
  305SOL    HW1 1814   1.206   2.941   1.511
  305SOL    HW2 1815   1.320   3.016   1.601
  306SOL     OW 1816   6.994   1.012   3.068
  306SOL    HW1 1817   7.018   0.997   3.164
  306SOL    HW2 1818   0.053   1.025   3.014
  307SOL     OW 1819   3.175   3.710   1.252
  307SOL    HW1 1820   3.095   3.691   1.309
  307SOL    HW2 1821   3.256   3.720   1.309
  308SOL     OW 1822   5.625   0.787   4.320
  308SOL    HW1 1823   5.712   0.836   4.326
  308SOL    HW2 1824   5.551   0.852   4.307
  309SOL     OW 1825   0.905   0.067   6.951
  309SOL    HW1 1826   0.893   0.009   0.008
  309SOL    HW2 1827   0.939   0.011   6.875
  310SOL     OW 1828   5.117   6.323   4.546
  310SOL    HW1 1829   5.186   6.256   4.521
  310SOL    HW2 1830   5.119   6.336   4.645
  311SOL     OW 1831   2.344   5.191   3.196
  311SOL    HW1 1832   2.309   5.258   3.131
  311SOL    HW2 1833   2.438   5.167   3.172
  312SOL     OW 1834   4.576   2.180   3.542
  312SOL    HW1 1835   4.659   2.126   3.527
  312SOL    HW2 1836   4.506   2.151   3.477
  313SOL     OW 1837   3.777   3.399   2.781
  313SOL    HW1 1838   3.860   3.374   2.831
  313SOL    HW2 1839   3.798   3.406   2.684
  314SOL     OW 1840   2.032   6.235   5.297
  314SOL    HW1 1841   2.004   6.250   5.202
  314SOL    HW2 1842   2.102   6.163   5.300
  315SOL     OW 1843   6.151   1.201   3.431
  315SOL    HW1 1844   6.052   1.188   3.437
  315SOL    HW2 1845   6.173   1.255   3.349
  316SOL     OW 1846   4.499   1.733   5.600
  316SOL    HW1 1847   4.500   1.789   5.517
  316SOL    HW2 1848   4.573   1.762   5.660
  317SOL     OW 1849   1.643   1.722   1.527
  317SOL    HW1 1850   1.591   1.663   1.465
  317SOL    HW2 1851   1.712   1.772   1.475
  318SOL     OW 1852   6.725   0.776   5.501
  318SOL    HW1 1853   6.646   0.805   5.446
  318SOL    HW2 1854   6.724   0.823   5.589
  319SOL     OW 1855   0.447   1.987   2.731
  319SOL    HW1 1856   0.349   2.003   2.718
  319SOL    HW2 1857   0.493   2.073   2.753
  320SOL     OW 1858   5.748   1.890   6.795
  320SOL    HW1 1859   5.790   1.802   6.814
  320SOL    HW2 1860   5.692   1.918   6.873
  321SOL     OW 1861   4.122   3.311   0.651
  321SOL    HW1 1862   4.154   3.282   0.741
  321SOL    HW2 1863   4.070   3.396   0.659
  322SOL     OW 1864   4.113   3.644   6.413
  322SOL    HW1 1865   4.137   3.549   6.432
  322SOL    HW2 1866   4.159   3.673   6.329
  323SOL     OW 1867   0.345   2.604   3.316
  323SOL    HW1 1868   0.369   2.699   3.334
  323SOL    HW2 1869   0.252   2.586   3.348
  324SOL     OW 1870   2.006   6.786   3.382
  324SOL    HW1 1871   2.036   6.697   3.350
  324SOL    HW2 1872   1.939   6.775   3.456
  325SOL     OW 1873   1.274   3.774   2.467
  325SOL    HW1 1874   1.294   3.762   2.564
  325SOL    HW2 1875   1.207   3.706   2.438
  326SOL     OW 1876   1.623   5.220   6.153
  326SOL    HW1 1877   1.619   5.123   6.126
  326SOL    HW2 1878   1.546   5.241   6.213
  327SOL     OW 1879   3.126   4.866   2.499
  327SOL    HW1 1880   3.078   4.846   2.584
  327SOL    HW2 1881   3.211   4.916   2.519
  328SOL     OW 1882   1.265   4.059   1.799
  328SOL    HW1 1883   1.357   4.036   1.830
  328SOL    HW2 1884   1.261   4.156   1.776
  329SOL     OW 1885   3.012   4.057   1.156
  329SOL    HW1 1886   2.935   4.007   1.117
  329SOL    HW2 1887   2.979   4.139   1.202
  330SOL     OW 1888   3.618   5.739   0.132
  330SOL    HW1 1889   3.686   5.674   0.166
  330SOL    HW2 1890   3.659   5.829   0.121
  331SOL     OW 1891   5.011   5.126   0.665
  331SOL    HW1 1892   5.105   5.158   0.655
  331SOL    HW2 1893   5.011   5.038   0.712
  332SOL     OW 1894   5.314   1.789   3.888
  332SOL    HW1 1895   5.327   1.713   3.824
  332SOL    HW2 1896   5.217   1.807   3.899
  333SOL     OW 1897   4.114   0.920   5.051
  333SOL    HW1 1898   4.077   0.972   4.974
  333SOL    HW2 1899   4.206   0.888   5.028
  334SOL     OW 1900   3.954   3.158   2.698
  334SOL    HW1 1901   3.864   3.118   2.685
  334SOL    HW2 1902   3.967   3.234   2.635
  335SOL     OW 1903   3.928   0.140   6.969
  335SOL    HW1 1904   3.962   0.080   6.897
  335SOL    HW2 1905   3.890   0.223   6.927
  336SOL     OW 1906   3.044   1.135   3.735
  336SOL    HW1 1907   2.981   1.210   3.713
  336SOL    HW2 1908   2.991   1.051   3.750
  337SOL     OW 1909   1.349   2.069   5.765
  337SOL    HW1 1910   1.444   2.059   5.794
  337SOL    HW2 1911   1.309   2.150   5.808
  338SOL     OW 1912   4.240   3.084   1.304
  338SOL    HW1 1913   4.198   3.101   1.215
  338SOL    HW2 1914   4.169   3.069   1.372
  339SOL     OW 1915   4.235   4.747   4.647
  339SOL    HW1 1916   4.274   4.759   4.738
  339SOL    HW2 1917   4.161   4.813   4.634
  340SOL     OW 1918   5.045   2.923   4.920
  340SOL    HW1 1919   5.016   2.924   4.824
  340SOL    HW2 1920   5.140   2.951   4.927
  341SOL     OW 1921   5.494   5.648   4.588
  341SOL    HW1 1922   5.517   5.745   4.590
  341SOL    HW2 1923   5.556   5.600   4.525
  342SOL     OW 1924   4.604   4.230   0.973
  342SOL    HW1 1925   4.558   4.309   0.933
  342SOL    HW2 1926   4.573   4.146   0.927
  343SOL     OW 1927   0.475   6.087   2.726
  343SOL    HW1 1928   0.572   6.068   2.743
  343SOL    HW2 1929   0.428   6.102   2.813
  344SOL     OW 1930   0.553   1.924   1.490
  344SOL    HW1 1931   0.639   1.973   1.504
  344SOL    HW2 1932   0.477   1.979   1.526
  345SOL     OW 1933   6.766   2.325   4.068
  345SOL    HW1 1934   6.828   2.397   4.098
  345SOL    HW2 1935   6.671   2.355   4.082
  346SOL     OW 1936   2.085   6.960   2.724
  346SOL    HW1 1937   2.052   6.918   2.808
  346SOL    HW2 1938   2.045   0.026   2.714
  347SOL     OW 1939   2.013   5.963   0.354
  347SOL    HW1 1940   1.940   6.030   0.356
  347SOL    HW2 1941   2.032   5.936   0.260
  348SOL     OW 1942   4.483   5.011   2.660
  348SOL    HW1 1943   4.396   5.018   2.709
  348SOL    HW2 1944   4.520   5.103   2.646
  349SOL     OW 1945   6.832   4.454   1.682
  349SOL    HW1 1946   6.872   4.466   1.773
  349SOL    HW2 1947   6.902   4.424   1.618
  350SOL     OW 1948   3.234   3.194   0.167
  350SOL    HW1 1949   3.319   3.211   0.117
  350SOL    HW2 1950   3.156   3.210   0.107
  351SOL     OW 1951   2.705   3.717   0.509
  351SOL    HW1 1952   2.619   3.702   0.460
  351SOL    HW2 1953   2.690   3.701   0.607
  352SOL     OW 1954   4.548   6.043   3.819
  352SOL    HW1 1955   4.514   5.960   3.863
  352SOL    HW2 1956   4.598   6.098   3.886
  353SOL     OW 1957   3.376   0.258   6.325
  353SOL    HW1 1958   3.407   0.171   6.365
  353SOL    HW2 1959   3.385   0.254   6.226
  354SOL     OW 1960   5.689   3.050   0.821
  354SOL    HW1 1961   5.617   3.043   0.752
  354SOL    HW2 1962   5.721   3.145   0.826
  355SOL     OW 1963   1.855   2.673   2.571
  355SOL    HW1 1964   1.879   2.769   2.579
  355SOL    HW2 1965   1.769   2.655   2.619
  356SOL     OW 1966   1.683   0.566   4.935
  356SOL    HW1 1967   1.612   0.587   5.002
  356SOL    HW2 1968   1.762   0.524   4.981
  357SOL     OW 1969   0.069   6.256   4.048
  357SOL    HW1 1970   0.024   6.261   3.959
  357SOL    HW2 1971   0.154   6.310   4.046
  358SOL     OW 1972   4.783   6.134   1.042
  358SOL    HW1 1973   4.793   6.231   1.022
  358SOL    HW2 1974   4.863   6.102   1.093
  359SOL     OW 1975   3.407   0.839   1.063
  359SOL    HW1 1976   3.493   0.888   1.075
  359SOL    HW2 1977   3.402   0.764   1.130
  360SOL     OW 1978   1.347   4.320   4.847
  360SOL    HW1 1979   1.355   4.380   4.927
  360SOL    HW2 1980   1.423   4.338   4.785
  361SOL     OW 1981   5.913   6.199   2.630
  361SOL    HW1 1982   5.882   6.293   2.643
  361SOL    HW2 1983   5.992   6.181   2.689
  362SOL     OW 1984   3.606   4.227   0.803
  362SOL    HW1 1985   3.594   4.326   0.810
  362SOL    HW2 1986   3.671   4.197   0.873
  363SOL     OW 1987   6.285   4.494   2.742
  363SOL    HW1 1988   6.257   4.575   2.795
  363SOL    HW2 1989   6.381   4.474   2.762
  364SOL     OW 1990   0.642   5.106   6.622
  364SOL    HW1 1991   0.717   5.143   6.567
  364SOL    HW2 1992   0.674   5.027   6.674
  365SOL     OW 1993   3.056   0.929   1.078
  365SOL    HW1 1994   3.146   0.887   1.078
  365SOL    HW2 1995   2.989   0.866   1.117
  366SOL     OW 1996   6.067   3.669   6.636
  366SOL    HW1 1997   6.117   3.677   6.723
  366SOL    HW2 1998   6.133   3.660   6.561
  367SOL     OW 1999   5.856   2.356   5.865
  367SOL    HW1 2000   5.787   2.371   5.794
  367SOL    HW2 2001   5.945   2.387   5.832
  368SOL     OW 2002   0.119   2.210   5.838
  368SOL    HW1 2003   0.026   2.179   5.822
  368SOL    HW2 2004   0.126   2.251   5.930
  369SOL     OW 2005   5.789   4.003   3.055
  369SOL    HW1 2006   5.841   4.055   3.123
  369SOL    HW2 2007   5.784   3.908   3.083
  370SOL     OW 2008   1.597   1.979   4.513
  370SOL    HW1 2009   1.643   2.009   4.598
  370SOL    HW2 2010   1.602   2.053   4.446
  371SOL     OW 2011   1.967   4.629   6.983
  371SOL    HW1 2012   1.910   4.670   0.029
  371SOL    HW2 2013   2.017   4.701   6.935
  372SOL     OW 2014   1.829   0.345   5.081
  372SOL    HW1 2015   1.903   0.290   5.042
  372SOL    HW2 2016   1.862   0.391   5.164
  373SOL     OW 2017   5.822   6.933   5.449
  373SOL    HW1 2018   5.739   6.982   5.423
  373SOL    HW2 2019   5.898   6.997   5.453
  374SOL     OW 2020   1.933   1.551   2.714
  374SOL    HW1 2021   1.945   1.577   2.618
  374SOL    HW2 2022   2.020   1.522   2.752
  375SOL     OW 2023   0.957   5.117   4.904
  375SOL    HW1 2024   1.033   5.169   4.943
  375SOL    HW2 2025   0.973   5.105   4.806
  376SOL     OW 2026   1.939   1.152   5.251
  376SOL    HW1 2027   2.007   1.104   5.197
  376SOL    HW2 2028   1.864   1.181   5.192
  377SOL     OW 2029   1.728   1.976   0.444
  377SOL    HW1 2030   1.771   1.988   0.355
  377SOL    HW2 2031   1.796   1.995   0.516
  378SOL     OW 2032   3.468   1.246   6.748
  378SOL    HW1 2033   3.475   1.328   6.690
  378SOL    HW2 2034   3.386   1.194   6.723
  379SOL     OW 2035   5.376   2.420   0.029
  379SOL    HW1 2036   5.309   2.469   6.998
  379SOL    HW2 2037   5.463   2.469   0.028
  380SOL     OW 2038   2.855   1.524   1.543
  380SOL    HW1 2039   2.879   1.551   1.450
  380SOL    HW2 2040   2.855   1.424   1.550
  381SOL     OW 2041   1.780   3.340   4.300
  381SOL    HW1 2042   1.782   3.273   4.374
  381SOL    HW2 2043   1.843   3.414   4.320
  382SOL     OW 2044   6.104   0.065   6.936
  382SOL    HW1 2045   6.020   0.029   6.893
  382SOL    HW2 2046   6.125   0.011   7.017
  383SOL     OW 2047   4.755   2.988   0.292
  383SOL    HW1 2048   4.681   2.982   0.358
  383SOL    HW2 2049   4.805   2.901   0.290
  384SOL     OW 2050   0.210   4.393   3.798
  384SOL    HW1 2051   0.112   4.410   3.801
  384SOL    HW2 2052   0.241   4.355   3.885
  385SOL     OW 2053   3.388   5.765   5.613
  385SOL    HW1 2054   3.317   5.708   5.654
  385SOL    HW2 2055   3.345   5.837   5.558
  386SOL     OW 2056   4.326   0.444   4.344
  386SOL    HW1 2057   4.418   0.483   4.355
  386SOL    HW2 2058   4.301   0.393   4.426
  387SOL     OW 2059   1.251   5.603   2.473
  387SOL    HW1 2060   1.162   5.649   2.464
  387SOL    HW2 2061   1.249   5.518   2.422
  388SOL     OW 2062   1.983   1.977   6.357
  388SOL    HW1 2063   1.967   2.010   6.450
  388SOL    HW2 2064   1.895   1.953   6.314
  389SOL     OW 2065   4.125   3.344   2.436
  389SOL    HW1 2066   4.137   3.416   2.505
  389SOL    HW2 2067   4.156   3.378   2.347
  390SOL     OW 2068   3.126   0.726   3.815
  390SOL    HW1 2069   3.123   0.631   3.847
  390SOL    HW2 2070   3.035   0.754   3.786
  391SOL     OW 2071   2.335   3.006   6.467
  391SOL    HW1 2072   2.356   3.102   6.448
  391SOL    HW2 2073   2.354   2.986   6.563
  392SOL     OW 2074   1.892   5.183   0.765
  392SOL    HW1 2075   1.834   5.113   0.724
  392SOL    HW2 2076   1.865   5.197   0.860
  393SOL     OW 2077   6.699   4.436   5.660
  393SOL    HW1 2078   6.683   4.473   5.569
  393SOL    HW2 2079   6.743   4.346   5.652
  394SOL     OW 2080   0.113   6.796   0.278
  394SOL    HW1 2081   0.062   6.874   0.243
  394SOL    HW2 2082   0.187   6.829   0.338
  395SOL     OW 2083   5.277   3.576   3.007
  395SOL    HW1 2084   5.312   3.485   3.030
  395SOL    HW2 2085   5.201   3.568   2.944
  396SOL     OW 2086   3.839   4.003   2.208
  396SOL    HW1 2087   3.932   3.967   2.202
  396SOL    HW2 2088   3.831   4.086   2.152
  397SOL     OW 2089   4.018   2.906   5.499
  397SOL    HW1 2090   4.005   2.987   5.556
  397SOL    HW2 2091   3.986   2.825   5.549
  398SOL     OW 2092   0.442   6.372   1.767
  398SOL    HW1 2093   0.522   6.412   1.722
  398SOL    HW2 2094   0.371   6.355   1.699
  399SOL     OW 2095   5.355   6.019   2.220
  399SOL    HW1 2096   5.355   6.098   2.281
  399SOL    HW2 2097   5.420   6.035   2.145
  400SOL     OW 2098   0.120   0.364   5.828
  400SOL    HW1 2099   0.079   0.275   5.850
  400SOL    HW2 2100   0.070   0.407   5.753
  401SOL     OW 2101   4.865   0.713   6.296
  401SOL    HW1 2102   4.915   0.722   6.210
  401SOL    HW2 2103   4.930   0.698   6.371
  402SOL     OW 2104   5.901   6.483   2.606
  402SOL    HW1 2105   5.878   6.473   2.509
  402SOL    HW2 2106   5.888   6.579   2.633
  403SOL     OW 2107   4.064   2.335   5.934
  403SOL    HW1 2108   3.984   2.322   5.993
  403SOL    HW2 2109   4.035   2.374   5.847
  404SOL     OW 2110   1.366   6.635   3.711
  404SOL    HW1 2111   1.466   6.638   3.717
  404SOL    HW2 2112   1.339   6.604   3.620
  405SOL     OW 2113   1.717   2.809   1.665
  405SOL    HW1 2114   1.698   2.828   1.569
  405SOL    HW2 2115   1.630   2.806   1.716
  406SOL     OW 2116   1.110   2.873   3.809
  406SOL    HW1 2117   1.031   2.933   3.821
  406SOL    HW2 2118   1.083   2.778   3.827
  407SOL     OW 2119   2.134   0.623   4.065
  407SOL    HW1 2120   2.123   0.710   4.114
  407SOL    HW2 2121   2.082   0.552   4.113
  408SOL     OW 2122   1.574   0.731   2.885
  408SOL    HW1 2123   1.664   0.698   2.858
  408SOL    HW2 2124   1.530   0.777   2.807
  409SOL     OW 2125   5.796   3.082   1.866
  409SOL    HW1 2126   5.764   2.988   1.857
  409SOL    HW2 2127   5.737   3.131   1.930
  410SOL     OW 2128   2.310   0.222   6.381
  410SOL    HW1 2129   2.275   0.181   6.465
  410SOL    HW2 2130   2.236   0.227   6.313
  411SOL     OW 2131   6.145   6.748   6.525
  411SOL    HW1 2132   6.172   6.844   6.515
  411SOL    HW2 2133   6.207   6.702   6.590
  412SOL     OW 2134   4.343   6.908   3.808
  412SOL    HW1 2135   4.329   6.987   3.748
  412SOL    HW2 2136   4.277   6.837   3.785
  413SOL     OW 2137   5.084   4.640   1.670
  413SOL    HW1 2138   5.116   4.717   1.726
  413SOL    HW2 2139   5.005   4.669   1.616
  414SOL     OW 2140   3.311   4.955   3.347
  414SOL    HW1 2141   3.296   4.894   3.270
  414SOL    HW2 2142   3.310   5.050   3.315
  415SOL     OW 2143   1.028   5.841   0.456
  415SOL    HW1 2144   1.016   5.925   0.509
  415SOL    HW2 2145   0.988   5.764   0.506
  416SOL     OW 2146   4.673   5.005   5.506
  416SOL    HW1 2147   4.665   4.923   5.562
  416SOL    HW2 2148   4.622   5.080   5.548
  417SOL     OW 2149   2.434   6.349   1.062
  417SOL    HW1 2150   2.499   6.362   0.988
  417SOL    HW2 2151   2.383   6.264   1.048
  418SOL     OW 2152   4.220   6.456   1.257
  418SOL    HW1 2153   4.212   6.358   1.277
  418SOL    HW2 2154   4.157   6.480   1.183
  419SOL     OW 2155   1.305   0.599   1.692
  419SOL    HW1 2156   1.227   0.656   1.666
  419SOL    HW2 2157   1.387   0.631   1.644
  420SOL     OW 2158   6.235   3.214   1.361
  420SOL    HW1 2159   6.178   3.293   1.343
  420SOL    HW2 2160   6.318   3.219   1.306
  421SOL     OW 2161   0.321   4.950   6.201
  421SOL    HW1 2162   0.341   4.901   6.117
  421SOL    HW2 2163   0.231   4.994   6.194
  422SOL     OW 2164   6.063   4.369   0.341
  422SOL    HW1 2165   6.086   4.273   0.323
  422SOL    HW2 2166   5.978   4.392   0.295
  423SOL     OW 2167   0.463   2.873   6.721
  423SOL    HW1 2168   0.372   2.907   6.697
  423SOL    HW2 2169   0.463   2.843   6.817
  424SOL     OW 2170   2.780   3.940   1.049
  424SOL    HW1 2171   2.793   3.993   0.964
  424SOL    HW2 2172   2.692   3.965   1.090
  425SOL     OW 2173   5.603   1.197   2.470
  425SOL    HW1 2174   5.619   1.295   2.457
  425SOL    HW2 2175   5.550   1.161   2.394
  426SOL     OW 2176   5.127   2.215   4.599
  426SOL    HW1 2177   5.159   2.129   4.639
  426SOL    HW2 2178   5.127   2.286   4.670
  427SOL     OW 2179   5.654   4.560   2.340
  427SOL    HW1 2180   5.557   4.546   2.323
  427SOL    HW2 2181   5.669   4.584   2.436
  428SOL     OW 2182   4.314   6.839   4.702
  428SOL    HW1 2183   4.216   6.859   4.700
  428SOL    HW2 2184   4.351   6.847   4.610
  429SOL     OW 2185   2.492   4.287   1.705
  429SOL    HW1 2186   2.484   4.198   1.660
  429SOL    HW2 2187   2.459   4.279   1.799
  430SOL     OW 2188   0.673   0.187   4.791
  430SOL    HW1 2189   0.611   0.204   4.715
  430SOL    HW2 2190   0.672   0.090   4.815
  431SOL     OW 2191   3.268   0.286   0.210
  431SOL    HW1 2192   3.214   0.220   0.262
  431SOL    HW2 2193   3.207   0.343   0.155
  432SOL     OW 2194   6.218   2.544   2.305
  432SOL    HW1 2195   6.189   2.473   2.370
  432SOL    HW2 2196   6.190   2.518   2.213
  433SOL     OW 2197   3.245   6.246   4.320
  433SOL    HW1 2198   3.320   6.241   4.254
  433SOL    HW2 2199   3.201   6.336   4.313
  434SOL     OW 2200   4.490   5.031   1.858
  434SOL    HW1 2201   4.538   5.118   1.874
  434SOL    HW2 2202   4.543   4.956   1.896
  435SOL     OW 2203   3.687   1.852   5.200
  435SOL    HW1 2204   3.662   1.944   5.172
  435SOL    HW2 2205   3.787   1.845   5.205
  436SOL     OW 2206   3.165   6.227   1.064
  436SOL    HW1 2207   3.225   6.307   1.062
  436SOL    HW2 2208   3.187   6.170   1.143
  437SOL     OW 2209   1.095   0.176   6.617
  437SOL    HW1 2210   1.122   0.123   6.536
  437SOL    HW2 2211   1.104   0.119   6.699
  438SOL     OW 2212   2.067   2.662   2.224
  438SOL    HW1 2213   2.123   2.665   2.306
  438SOL    HW2 2214   2.105   2.595   2.160
  439SOL     OW 2215   6.221   4.400   3.400
  439SOL    HW1 2216   6.195   4.496   3.397
  439SOL    HW2 2217   6.300   4.389   3.460
  440SOL     OW 2218   1.269   2.190   4.948
  440SOL    HW1 2219   1.182   2.141   4.956
  440SOL    HW2 2220   1.278   2.254   5.024
  441SOL     OW 2221   0.733   1.541   3.277
  441SOL    HW1 2222   0.764   1.602   3.350
  441SOL    HW2 2223   0.796   1.545   3.200
  442SOL     OW 2224   2.383   5.087   0.073
  442SOL    HW1 2225   2.481   5.083   0.052
  442SOL    HW2 2226   2.367   5.155   0.144
  443SOL     OW 2227   1.013   3.859   4.743
  443SOL    HW1 2228   1.087   3.852   4.677
  443SOL    HW2 2229   0.945   3.924   4.709
  444SOL     OW 2230   5.128   2.207   5.679
  444SOL    HW1 2231   5.057   2.140   5.657
  444SOL    HW2 2232   5.195   2.210   5.604
  445SOL     OW 2233   1.287   5.786   3.394
  445SOL    HW1 2234   1.190   5.792   3.420
  445SOL    HW2 2235   1.320   5.877   3.370
  446SOL     OW 2236   4.014   4.824   3.764
  446SOL    HW1 2237   4.099   4.788   3.726
  446SOL    HW2 2238   3.942   4.819   3.695
  447SOL     OW 2239   0.681   2.890   0.162
  447SOL    HW1 2240   0.721   2.818   0.105
  447SOL    HW2 2241   0.653   2.851   0.250
  448SOL     OW 2242   2.653   0.561   4.706
  448SOL    HW1 2243   2.745   0.522   4.704
  448SOL    HW2 2244   2.588   0.490   4.735
  449SOL     OW 2245   3.832   0.748   5.180
  449SOL    HW1 2246   3.905   0.800   5.223
  449SOL    HW2 2247   3.833   0.654   5.214
  450SOL     OW 2248   1.353   5.882   3.686
  450SOL    HW1 2249   1.436   5.856   3.736
  450SOL    HW2 2250   1.288   5.806   3.688
  451SOL     OW 2251   1.848   2.293   3.545
  451SOL    HW1 2252   1.772   2.235   3.517
  451SOL    HW2 2253   1.924   2.236   3.575
  452SOL     OW 2254   6.352   5.878   1.583
  452SOL    HW1 2255   6.408   5.806   1.624
  452SOL    HW2 2256   6.410   5.956   1.560
  453SOL     OW 2257   3.134   0.546   4.479
  453SOL    HW1 2258   3.216   0.553   4.536
  453SOL    HW2 2259   3.123   0.451   4.449
  454SOL     OW 2260   0.299   5.314   6.108
  454SOL    HW1 2261   0.325   5.353   6.020
  454SOL    HW2 2262   0.380   5.277   6.153
  455SOL     OW 2263   6.876   1.697   3.650
  455SOL    HW1 2264   6.870   1.647   3.736
  455SOL    HW2 2265   6.963   1.677   3.606
  456SOL     OW 2266   4.990   5.368   4.301
  456SOL    HW1 2267   5.066   5.431   4.282
  456SOL    HW2 2268   5.012   5.313   4.381
  457SOL     OW 2269   1.572   3.472   3.357
  457SOL    HW1 2270   1.529   3.421   3.432
  457SOL    HW2 2271   1.596   3.409   3.283
  458SOL     OW 2272   4.996   5.951   3.990
  458SOL    HW1 2273   5.081   5.992   4.022
  458SOL    HW2 2274   5.006   5.921   3.895
  459SOL     OW 2275   1.886   6.626   4.101
  459SOL    HW1 2276   1.925   6.555   4.159
  459SOL    HW2 2277   1.960   6.680   4.060
  460SOL     OW 2278   1.789   0.192   3.138
  460SOL    HW1 2279   1.733   0.274   3.125
  460SOL    HW2 2280   1.750   0.116   3.085
  461SOL     OW 2281   6.101   6.932   4.888
  461SOL    HW1 2282   6.048   6.980   4.959
  461SOL    HW2 2283   6.140   6.849   4.927
  462SOL     OW 2284   4.224   2.917   6.059
  462SOL    HW1 2285   4.213   2.857   5.981
  462SOL    HW2 2286   4.271   2.868   6.133
  463SOL     OW 2287   6.784   5.775   3.458
  463SOL    HW1 2288   6.727   5.767   3.539
  463SOL    HW2 2289   6.771   5.865   3.417
  464SOL     OW 2290   2.686   2.497   6.749
  464SOL    HW1 2291   2.783   2.523   6.751
  464SOL    HW2 2292   2.669   2.442   6.668
  465SOL     OW 2293   1.057   2.818   4.122
  465SOL    HW1 2294   0.971   2.768   4.114
  465SOL    HW2 2295   1.132   2.762   4.088
  466SOL     OW 2296   1.373   4.624   3.071
  466SOL    HW1 2297   1.321   4.565   3.009
  466SOL    HW2 2298   1.312   4.663   3.140
  467SOL     OW 2299   1.136   0.907   6.707
  467SOL    HW1 2300   1.062   0.960   6.748
  467SOL    HW2 2301   1.218   0.964   6.701
  468SOL     OW 2302   3.664   6.247   6.545
  468SOL    HW1 2303   3.581   6.273   6.496
  468SOL    HW2 2304   3.739   6.307   6.516
  469SOL     OW 2305   2.972   4.725   0.568
  469SOL    HW1 2306   2.948   4.663   0.642
  469SOL    HW2 2307   2.899   4.725   0.499
  470SOL     OW 2308   4.047   0.440   2.565
  470SOL    HW1 2309   4.115   0.453   2.493
  470SOL    HW2 2310   4.054   0.347   2.601
  471SOL     OW 2311   1.730   2.408   4.141
  471SOL    HW1 2312   1.761   2.371   4.228
  471SOL    HW2 2313   1.721   2.334   4.074
  472SOL     OW 2314   5.174   4.052   6.426
  472SOL    HW1 2315   5.243   4.106   6.474
  472SOL    HW2 2316   5.112   4.011   6.492
  473SOL     OW 2317   0.533   3.091   2.268
  473SOL    HW1 2318   0.496   3.125   2.355
  473SOL    HW2 2319   0.459   3.049   2.215
  474SOL     OW 2320   5.119   4.639   3.353
  474SOL    HW1 2321   5.145   4.719   3.407
  474SOL    HW2 2322   5.064   4.577   3.410
  475SOL     OW 2323   5.487   0.926   5.943
  475SOL    HW1 2324   5.547   0.997   5.906
  475SOL    HW2 2325   5.502   0.840   5.894
  476SOL     OW 2326   6.996   4.218   2.448
  476SOL    HW1 2327   7.001   4.317   2.439
  476SOL    HW2 2328   0.056   4.183   2.487
  477SOL     OW 2329   1.798   4.205   5.290
  477SOL    HW1 2330   1.721   4.144   5.269
  477SOL    HW2 2331   1.874   4.185   5.227
  478SOL     OW 2332   3.575   0.084   2.205
  478SOL    HW1 2333   3.667   0.073   2.243
  478SOL    HW2 2334   3.572   0.043   2.113
  479SOL     OW 2335   4.309   2.379   0.180
  479SOL    HW1 2336   4.215   2.396   0.208
  479SOL    HW2 2337   4.318   2.388   0.081
  480SOL     OW 2338   2.197   1.591   0.018
  480SOL    HW1 2339   2.102   1.601   0.047
  480SOL    HW2 2340   2.254   1.657   0.066
  481SOL     OW 2341   1.215   0.697   0.057
  481SOL    HW1 2342   1.196   0.662   6.990
  481SOL    HW2 2343   1.252   0.623   0.114
  482SOL     OW 2344   4.639   4.334   3.049
  482SOL    HW1 2345   4.586   4.317   2.966
  482SOL    HW2 2346   4.656   4.432   3.058
  483SOL     OW 2347   6.893   1.921   1.801
  483SOL    HW1 2348   6.916   1.936   1.897
  483SOL    HW2 2349   6.977   1.922   1.746
  484SOL     OW 2350   1.127   3.212   5.130
  484SOL    HW1 2351   1.142   3.127   5.181
  484SOL    HW2 2352   1.200   3.223   5.063
  485SOL     OW 2353   4.053   5.387   2.646
  485SOL    HW1 2354   4.079   5.368   2.552
  485SOL    HW2 2355   4.095   5.321   2.707
  486SOL     OW 2356   6.594   1.937   0.890
  486SOL    HW1 2357   6.581   2.008   0.821
  486SOL    HW2 2358   6.615   1.980   0.978
  487SOL     OW 2359   1.143   2.129   0.797
  487SOL    HW1 2360   1.173   2.076   0.875
  487SOL    HW2 2361   1.190   2.217   0.796
  488SOL     OW 2362   0.532   1.645   1.492
  488SOL    HW1 2363   0.540   1.744   1.478
  488SOL    HW2 2364   0.600   1.615   1.559
  489SOL     OW 2365   3.410   6.336   6.361
  489SOL    HW1 2366   3.339   6.385   6.312
  489SOL    HW2 2367   3.397   6.237   6.350
  490SOL     OW 2368   6.817   5.972   3.240
  490SOL    HW1 2369   6.809   5.886   3.189
  490SOL    HW2 2370   6.913   5.988   3.263
  491SOL     OW 2371   0.344   3.124   2.472
  491SOL    HW1 2372   0.362   3.025   2.474
  491SOL    HW2 2373   0.378   3.166   2.556
  492SOL     OW 2374   2.691   0.043   4.957
  492SOL    HW1 2375   2.634   0.020   5.036
  492SOL    HW2 2376   2.634   0.044   4.875
  493SOL     OW 2377   5.283   6.628   5.635
  493SOL    HW1 2378   5.359   6.636   5.700
  493SOL    HW2 2379   5.249   6.533   5.634
  494SOL     OW 2380   6.856   0.691   6.619
  494SOL    HW1 2381   6.835   0.645   6.705
  494SOL    HW2 2382   6.952   0.720   6.619
  495SOL     OW 2383   4.726   5.625   3.265
  495SOL    HW1 2384   4.670   5.669   3.336
  495SOL    HW2 2385   4.717   5.676   3.180
  496SOL     OW 2386   5.520   3.471   2.119
  496SOL    HW1 2387   5.454   3.422   2.062
  496SOL    HW2 2388   5.513   3.441   2.214
  497SOL     OW 2389   3.631   0.881   5.049
  497SOL    HW1 2390   3.699   0.838   5.109
  497SOL    HW2 2391   3.615   0.823   4.970
  498SOL     OW 2392   2.244   4.345   1.410
  498SOL    HW1 2393   2.167   4.324   1.349
  498SOL    HW2 2394   2.214   4.411   1.479
  499SOL     OW 2395   2.522   0.167   3.875
  499SOL    HW1 2396   2.500   0.080   3.919
  499SOL    HW2 2397   2.597   0.211   3.925
  500SOL     OW 2398   0.572   3.279   3.285
  500SOL    HW1 2399   0.664   3.248   3.310
  500SOL    HW2 2400   0.527   3.209   3.230
  501SOL     OW 2401   2.998   6.173   0.477
  501SOL    HW1 2402   2.991   6.186   0.378
  501SOL    HW2 2403   2.907   6.157   0.515
  502SOL     OW 2404   6.924   4.509   6.886
  502SOL    HW1 2405   6.984   4.441   6.929
  502SOL    HW2 2406   6.832   4.470   6.877
  503SOL     OW 2407   5.778   5.795   5.765
  503SOL    HW1 2408   5.812   5.709   5.804
  503SOL    HW2 2409   5.731   5.848   5.835
  504SOL     OW 2410   1.723   5.447   3.350
  504SOL    HW1 2411   1.775   5.513   3.404
  504SOL    HW2 2412   1.693   5.373   3.409
  505SOL     OW 2413   3.352   6.213   4.804
  505SOL    HW1 2414   3.269   6.258   4.772
  505SOL    HW2 2415   3.351   6.208   4.904
  506SOL     OW 2416   2.278   5.718   4.816
  506SOL    HW1 2417   2.229   5.632   4.828
  506SOL    HW2 2418   2.213   5.794   4.815
  507SOL     OW 2419   3.679   0.524   3.395
  507SOL    HW1 2420   3.653   0.620   3.403
  507SOL    HW2 2421   3.637   0.485   3.313
  508SOL     OW 2422   6.711   3.673   2.251
  508SOL    HW1 2423   6.619   3.712   2.240
  508SOL    HW2 2424   6.717   3.586   2.202
  509SOL     OW 2425   3.421   1.365   1.692
  509SOL    HW1 2426   3.322   1.379   1.703
  509SOL    HW2 2427   3.463   1.449   1.659
  510SOL     OW 2428   6.370   5.050   6.491
  510SOL    HW1 2429   6.426   5.009   6.562
  510SOL    HW2 2430   6.406   5.140   6.468
  511SOL     OW 2431   0.276   1.122   5.916
  511SOL    HW1 2432   0.275   1.089   5.822
  511SOL    HW2 2433   0.183   1.151   5.942
  512SOL     OW 2434   7.004   2.932   0.088
  512SOL    HW1 2435   6.937   2.909   0.018
  512SOL    HW2 2436   0.058   2.871   0.081
  513SOL     OW 2437   5.750   5.855   3.122
  513SOL    HW1 2438   5.650   5.861   3.123
  513SOL    HW2 2439   5.778   5.766   3.086
  514SOL     OW 2440   6.758   2.783   4.080
  514SOL    HW1 2441   6.713   2.853   4.024
  514SOL    HW2 2442   6.696   2.753   4.152
  515SOL     OW 2443   1.829   0.776   6.595
  515SOL    HW1 2444   1.789   0.776   6.687
  515SOL    HW2 2445   1.893   0.701   6.587
  516SOL     OW 2446   2.710   4.601   1.664
  516SOL    HW1 2447   2.677   4.682   1.713
  516SOL    HW2 2448   2.786   4.560   1.715
  517SOL     OW 2449   5.221   5.538   1.877
  517SOL    HW1 2450   5.172   5.551   1.790
  517SOL    HW2 2451   5.286   5.612   1.890
  518SOL     OW 2452   2.378   2.327   2.759
  518SOL    HW1 2453   2.370   2.413   2.808
  518SOL    HW2 2454   2.424   2.342   2.671
  519SOL     OW 2455   1.050   1.205   4.302
  519SOL    HW1 2456   1.035   1.297   4.266
  519SOL    HW2 2457   0.998   1.193   4.387
  520SOL     OW 2458   6.253   4.435   7.022
  520SOL    HW1 2459   6.298   4.501   6.963
  520SOL    HW2 2460   6.275   4.456   0.093
  521SOL     OW 2461   6.844   3.761   6.481
  521SOL    HW1 2462   6.886   3.670   6.485
  521SOL    HW2 2463   6.745   3.752   6.474
  522SOL     OW 2464   3.186   3.825   5.669
  522SOL    HW1 2465   3.207   3.822   5.766
  522SOL    HW2 2466   3.186   3.919   5.637
  523SOL     OW 2467   0.593   4.813   1.633
  523SOL    HW1 2468   0.539   4.813   1.550
  523SOL    HW2 2469   0.660   4.888   1.630
  524SOL     OW 2470   1.236   1.250   0.050
  524SOL    HW1 2471   1.234   1.151   0.064
  524SOL    HW2 2472   1.246   1.297   0.138
  525SOL     OW 2473   2.699   3.837   6.647
  525SOL    HW1 2474   2.703   3.749   6.601
  525SOL    HW2 2475   2.619   3.840   6.707
  526SOL     OW 2476   4.105   6.999   4.127
  526SOL    HW1 2477   4.202   7.011   4.104
  526SOL    HW2 2478   4.082   6.902   4.128
  527SOL     OW 2479   6.344   3.376   6.836
  527SOL    HW1 2480   6.299   3.448   6.889
  527SOL    HW2 2481   6.428   3.412   6.795
  528SOL     OW 2482   1.243   1.360   3.724
  528SOL    HW1 2483   1.213   1.279   3.675
  528SOL    HW2 2484   1.237   1.440   3.663
  529SOL     OW 2485   0.950   6.380   4.271
  529SOL    HW1 2486   0.964   6.462   4.216
  529SOL    HW2 2487   0.852   6.368   4.288
  530SOL     OW 2488   2.826   3.291   5.516
  530SOL    HW1 2489   2.744   3.304   5.460
  530SOL    HW2 2490   2.897   3.356   5.488
  531SOL     OW 2491   6.939   0.490   2.188
  531SOL    HW1 2492   6.985   0.499   2.277
  531SOL    HW2 2493   6.868   0.559   2.180
  532SOL     OW 2494   1.713   1.934   6.742
  532SOL    HW1 2495   1.697   1.835   6.738
  532SOL    HW2 2496   1.671   1.978   6.662
  533SOL     OW 2497   4.117   6.437   3.729
  533SOL    HW1 2498   4.123   6.537   3.728
  533SOL    HW2 2499   4.115   6.405   3.824
  534SOL     OW 2500   5.538   5.327   3.580
  534SOL    HW1 2501   5.513   5.258   3.647
  534SOL    HW2 2502   5.617   5.296   3.527
  535SOL     OW 2503   0.456   3.703   4.391
  535SOL    HW1 2504   0.543   3.725   4.347
  535SOL    HW2 2505   0.387   3.770   4.364
  536SOL     OW 2506   0.326   4.997   2.137
  536SOL    HW1 2507   0.262   4.925   2.164
  536SOL    HW2 2508   0.408   4.955   2.097
  537SOL     OW 2509   2.023   6.520   3.323
  537SOL    HW1 2510   2.006   6.526   3.421
  537SOL    HW2 2511   1.953   6.462   3.280
  538SOL     OW 2512   1.767   4.039   3.279
  538SOL    HW1 2513   1.812   4.026   3.191
  538SOL    HW2 2514   1.669   4.049   3.265
  539SOL     OW 2515   0.990   6.376   0.354
  539SOL    HW1 2516   0.960   6.463   0.315
  539SOL    HW2 2517   0.980   6.303   0.287
  540SOL     OW 2518   0.192   1.172   2.167
  540SOL    HW1 2519   0.191   1.189   2.266
  540SOL    HW2 2520   0.239   1.247   2.121
  541SOL     OW 2521   3.167   5.979   3.765
  541SOL    HW1 2522   3.133   5.915   3.696
  541SOL    HW2 2523   3.266   5.969   3.773
  542SOL     OW 2524   6.318   6.852   0.079
  542SOL    HW1 2525   6.412   6.861   0.114
  542SOL    HW2 2526   6.257   6.910   0.134
  543SOL     OW 2527   1.305   5.345   5.472
  543SOL    HW1 2528   1.363   5.331   5.552
  543SOL    HW2 2529   1.347   5.413   5.412
  544SOL     OW 2530   1.834   4.505   1.231
  544SOL    HW1 2531   1.819   4.547   1.321
  544SOL    HW2 2532   1.885   4.420   1.242
  545SOL     OW 2533   3.376   0.725   3.365
  545SOL    HW1 2534   3.378   0.825   3.361
  545SOL    HW2 2535   3.431   0.687   3.290
  546SOL     OW 2536   1.924   3.023   7.016
  546SOL    HW1 2537   2.020   3.041   6.998
  546SOL    HW2 2538   1.908   2.924   7.018
  547SOL     OW 2539   2.899   1.588   6.856
  547SOL    HW1 2540   2.835   1.662   6.837
  547SOL    HW2 2541   2.901   1.525   6.778
  548SOL     OW 2542   3.737   2.920   2.427
  548SOL    HW1 2543   3.692   3.002   2.463
  548SOL    HW2 2544   3.830   2.944   2.399
  549SOL     OW 2545   4.861   3.609   1.173
  549SOL    HW1 2546   4.836   3.519   1.207
  549SOL    HW2 2547   4.802   3.632   1.095
  550SOL     OW 2548   6.605   4.511   3.414
  550SOL    HW1 2549   6.691   4.462   3.431
  550SOL    HW2 2550   6.547   4.457   3.353
  551SOL     OW 2551   0.745   0.785   1.200
  551SOL    HW1 2552   0.797   0.843   1.262
  551SOL    HW2 2553   0.754   0.689   1.228
  552SOL     OW 2554   4.386   5.456   0.689
  552SOL    HW1 2555   4.303   5.448   0.633
  552SOL    HW2 2556   4.439   5.371   0.683
  553SOL     OW 2557   2.559   6.692   1.569
  553SOL    HW1 2558   2.545   6.635   1.650
  553SOL    HW2 2559   2.596   6.781   1.598
  554SOL     OW 2560   5.666   6.349   5.696
  554SOL    HW1 2561   5.600   6.357   5.621
  554SOL    HW2 2562   5.738   6.418   5.685
  555SOL     OW 2563   2.113   5.183   4.018
  555SOL    HW1 2564   2.127   5.282   4.012
  555SOL    HW2 2565   2.015   5.164   4.027
  556SOL     OW 2566   5.720   2.171   3.785
  556SOL    HW1 2567   5.791   2.190   3.717
  556SOL    HW2 2568   5.658   2.249   3.791
  557SOL     OW 2569   0.488   5.054   0.452
  557SOL    HW1 2570   0.449   5.112   0.523
  557SOL    HW2 2571   0.490   5.104   0.366
  558SOL     OW 2572   3.277   4.126   4.967
  558SOL    HW1 2573   3.301   4.187   5.041
  558SOL    HW2 2574   3.360   4.085   4.929
  559SOL     OW 2575   6.452   6.402   6.702
  559SOL    HW1 2576   6.533   6.348   6.677
  559SOL    HW2 2577   6.377   6.379   6.641
  560SOL     OW 2578   3.797   5.842   0.452
  560SOL    HW1 2579   3.829   5.771   0.390
  560SOL    HW2 2580   3.698   5.839   0.459
  561SOL     OW 2581   6.365   1.215   6.771
  561SOL    HW1 2582   6.408   1.306   6.770
  561SOL    HW2 2583   6.428   1.149   6.812
  562SOL     OW 2584   4.439   0.512   6.060
  562SOL    HW1 2585   4.413   0.588   6.001
  562SOL    HW2 2586   4.390   0.429   6.032
  563SOL     OW 2587   2.228   0.391   3.223
  563SOL    HW1 2588   2.255   0.353   3.134
  563SOL    HW2 2589   2.293   0.362   3.293
  564SOL     OW 2590   2.780   1.687   6.590
  564SOL    HW1 2591   2.736   1.662   6.504
  564SOL    HW2 2592   2.709   1.711   6.657
  565SOL     OW 2593   4.404   3.551   5.778
  565SOL    HW1 2594   4.334   3.503   5.726
  565SOL    HW2 2595   4.494   3.535   5.736
  566SOL     OW 2596   5.994   3.704   3.764
  566SOL    HW1 2597   6.004   3.783   3.703
  566SOL    HW2 2598   5.933   3.727   3.839
  567SOL     OW 2599   3.017   3.917   2.801
  567SOL    HW1 2600   2.964   3.859   2.739
  567SOL    HW2 2601   2.983   3.905   2.895
  568SOL     OW 2602   3.279   2.809   0.615
  568SOL    HW1 2603   3.254   2.829   0.520
  568SOL    HW2 2604   3.330   2.723   0.618
  569SOL     OW 2605   1.826   3.196   0.232
  569SOL    HW1 2606   1.847   3.156   0.143
  569SOL    HW2 2607   1.728   3.186   0.250
  570SOL     OW 2608   2.028   6.537   5.869
  570SOL    HW1 2609   1.931   6.523   5.851
  570SOL    HW2 2610   2.054   6.631   5.846
  571SOL     OW 2611   3.678   0.018   2.574
  571SOL    HW1 2612   3.624   6.960   2.591
  571SOL    HW2 2613   3.691   0.068   2.659
  572SOL     OW 2614   2.713   4.889   5.776
  572SOL    HW1 2615   2.625   4.936   5.783
  572SOL    HW2 2616   2.774   4.942   5.716
  573SOL     OW 2617   4.378   1.541   5.445
  573SOL    HW1 2618   4.418   1.570   5.532
  573SOL    HW2 2619   4.325   1.616   5.406
  574SOL     OW 2620   2.068   2.350   3.374
  574SOL    HW1 2621   1.983   2.339   3.425
  574SOL    HW2 2622   2.049   2.344   3.276
  575SOL     OW 2623   6.249   3.835   5.869
  575SOL    HW1 2624   6.282   3.861   5.960
  575SOL    HW2 2625   6.326   3.818   5.808
  576SOL     OW 2626   1.626   2.139   2.240
  576SOL    HW1 2627   1.536   2.175   2.260
  576SOL    HW2 2628   1.690   2.164   2.313
  577SOL     OW 2629   2.111   0.835   3.071
  577SOL    HW1 2630   2.125   0.875   3.161
  577SOL    HW2 2631   2.087   0.738   3.080
  578SOL     OW 2632   6.622   3.496   3.547
  578SOL    HW1 2633   6.541   3.483   3.490
  578SOL    HW2 2634   6.702   3.461   3.500
  579SOL     OW 2635   3.281   2.167   1.141
  579SOL    HW1 2636   3.208   2.230   1.115
  579SOL    HW2 2637   3.296   2.102   1.067
  580SOL     OW 2638   0.621   4.406   6.866
  580SOL    HW1 2639   0.706   4.412   6.812
  580SOL    HW2 2640   0.548   4.454   6.818
  581SOL     OW 2641   3.238   3.378   2.881
  581SOL    HW1 2642   3.274   3.326   2.959
  581SOL    HW2 2643   3.305   3.376   2.807
  582SOL     OW 2644   5.455   4.896   3.027
  582SOL    HW1 2645   5.461   4.805   3.069
  582SOL    HW2 2646   5.362   4.912   2.995
  583SOL     OW 2647   2.556   5.314   6.888
  583SOL    HW1 2648   2.464   5.352   6.905
  583SOL    HW2 2649   2.569   5.233   6.945
  584SOL     OW 2650   1.207   5.503   5.113
  584SOL    HW1 2651   1.306   5.522   5.115
  584SOL    HW2 2652   1.186   5.450   5.031
  585SOL     OW 2653   6.528   3.059   5.957
  585SOL    HW1 2654   6.518   3.136   6.020
  585SOL    HW2 2655   6.454   2.994   5.973
  586SOL     OW 2656   3.148   0.434   0.023
  586SOL    HW1 2657   3.094   0.515   0.047
  586SOL    HW2 2658   3.145   0.420   6.949
  587SOL     OW 2659   2.558   2.287   5.377
  587SOL    HW1 2660   2.614   2.225   5.433
  587SOL    HW2 2661   2.475   2.311   5.427
  588SOL     OW 2662   2.970   5.508   0.768
  588SOL    HW1 2663   3.063   5.487   0.797
  588SOL    HW2 2664   2.964   5.605   0.745
  589SOL     OW 2665   3.805   5.328   1.874
  589SOL    HW1 2666   3.869   5.255   1.852
  589SOL    HW2 2667   3.830   5.370   1.962
  590SOL     OW 2668   5.871   3.000   1.489
  590SOL    HW1 2669   5.872   2.974   1.585
  590SOL    HW2 2670   5.814   3.082   1.476
  591SOL     OW 2671   4.134   6.341   3.983
  591SOL    HW1 2672   4.191   6.414   4.021
  591SOL    HW2 2673   4.167   6.253   4.015
  592SOL     OW 2674   4.478   0.024   1.026
  592SOL    HW1 2675   4.507   0.119   1.020
  592SOL    HW2 2676   4.477   7.008   0.934
  593SOL     OW 2677   4.352   2.123   3.685
  593SOL    HW1 2678   4.385   2.030   3.704
  593SOL    HW2 2679   4.425   2.177   3.644
  594SOL     OW 2680   4.552   2.562   6.491
  594SOL    HW1 2681   4.535   2.530   6.398
  594SOL    HW2 2682   4.630   2.512   6.529
  595SOL     OW 2683   4.498   6.479   3.690
  595SOL    HW1 2684   4.558   6.559   3.684
  595SOL    HW2 2685   4.503   6.441   3.782
  596SOL     OW 2686   0.898   3.492   1.600
  596SOL    HW1 2687   0.884   3.528   1.507
  596SOL    HW2 2688   0.906   3.393   1.596
  597SOL     OW 2689   4.561   0.543   5.550
  597SOL    HW1 2690   4.614   0.460   5.566
  597SOL    HW2 2691   4.560   0.599   5.633
  598SOL     OW 2692   3.817   4.049   7.006
  598SOL    HW1 2693   3.908   4.055   0.023
  598SOL    HW2 2694   3.748   4.084   0.046
  599SOL     OW 2695   0.899   0.018   2.952
  599SOL    HW1 2696   0.989   0.028   2.910
  599SOL    HW2 2697   0.898   6.962   3.011
  600SOL     OW 2698   1.448   0.527   1.104
  600SOL    HW1 2699   1.429   0.484   1.192
  600SOL    HW2 2700   1.367   0.519   1.046
  601SOL     OW 2701   3.073   5.707   4.106
  601SOL    HW1 2702   3.142   5.728   4.175
  601SOL    HW2 2703   3.064   5.784   4.043
  602SOL     OW 2704   1.172   2.295   0.053
  602SOL    HW1 2705   1.220   2.364   7.023
  602SOL    HW2 2706   1.239   2.240   0.102
  603SOL     OW 2707   4.296   1.827   4.034
  603SOL    HW1 2708   4.395   1.816   4.043
  603SOL    HW2 2709   4.276   1.914   3.990
  604SOL     OW 2710   0.223   3.378   1.377
  604SOL    HW1 2711   0.154   3.402   1.446
  604SOL    HW2 2712   0.312   3.414   1.404
  605SOL     OW 2713   6.584   5.618   2.600
  605SOL    HW1 2714   6.563   5.698   2.545
  605SOL    HW2 2715   6.594   5.538   2.541
  606SOL     OW 2716   5.129   0.315   5.586
  606SOL    HW1 2717   5.104   0.388   5.522
  606SOL    HW2 2718   5.061   0.310   5.659
  607SOL     OW 2719   5.431   0.512   5.048
  607SOL    HW1 2720   5.476   0.601   5.051
  607SOL    HW2 2721   5.497   0.442   5.020
  608SOL     OW 2722   3.601   6.729   0.445
  608SOL    HW1 2723   3.602   6.701   0.349
  608SOL    HW2 2724   3.531   6.799   0.459
  609SOL     OW 2725   3.446   3.400   4.651
  609SOL    HW1 2726   3.485   3.325   4.703
  609SOL    HW2 2727   3.347   3.404   4.667
  610SOL     OW 2728   5.869   2.174   3.559
  610SOL    HW1 2729   5.881   2.077   3.538
  610SOL    HW2 2730   5.800   2.214   3.497
  611SOL     OW 2731   1.065   0.395   6.742
  611SOL    HW1 2732   0.972   0.386   6.778
  611SOL    HW2 2733   1.085   0.319   6.680
  612SOL     OW 2734   3.033   5.678   5.900
  612SOL    HW1 2735   3.105   5.694   5.968
  612SOL    HW2 2736   2.944   5.672   5.946
  613SOL     OW 2737   4.965   0.316   5.779
  613SOL    HW1 2738   4.988   0.245   5.847
  613SOL    HW2 2739   4.910   0.387   5.822
  614SOL     OW 2740   6.154   4.485   0.839
  614SOL    HW1 2741   6.192   4.407   0.889
  614SOL    HW2 2742   6.207   4.567   0.862
  615SOL     OW 2743   0.925   1.293   0.365
  615SOL    HW1 2744   0.829   1.308   0.388
  615SOL    HW2 2745   0.978   1.280   0.448
  616SOL     OW 2746   5.990   1.751   3.931
  616SOL    HW1 2747   5.906   1.802   3.949
  616SOL    HW2 2748   6.052   1.806   3.875
  617SOL     OW 2749   0.112   3.862   6.871
  617SOL    HW1 2750   0.150   3.948   6.838
  617SOL    HW2 2751   0.102   3.798   6.794
  618SOL     OW 2752   5.916   3.984   0.734
  618SOL    HW1 2753   5.879   3.964   0.824
  618SOL    HW2 2754   5.963   3.903   0.699
  619SOL     OW 2755   4.058   0.185   6.549
  619SOL    HW1 2756   4.078   0.246   6.473
  619SOL    HW2 2757   3.961   0.191   6.572
  620SOL     OW 2758   5.667   2.632   1.177
  620SOL    HW1 2759   5.583   2.604   1.131
  620SOL    HW2 2760   5.686   2.569   1.252
  621SOL     OW 2761   2.231   0.309   5.252
  621SOL    HW1 2762   2.322   0.347   5.264
  621SOL    HW2 2763   2.178   0.369   5.192
  622SOL     OW 2764   0.580   2.307   5.132
  622SOL    HW1 2765   0.632   2.326   5.215
  622SOL    HW2 2766   0.633   2.335   5.052
  623SOL     OW 2767   6.997   0.375   5.048
  623SOL    HW1 2768   0.018   0.285   5.051
  623SOL    HW2 2769   6.995   0.408   4.954
  624SOL     OW 2770   6.399   1.412   0.085
  624SOL    HW1 2771   6.438   1.406   7.017
  624SOL    HW2 2772   6.409   1.505   0.120
  625SOL     OW 2773   1.291   1.381   0.315
  625SOL    HW1 2774   1.295   1.295   0.365
  625SOL    HW2 2775   1.280   1.456   0.380
  626SOL     OW 2776   0.680   5.717   2.647
  626SOL    HW1 2777   0.673   5.775   2.566
  626SOL    HW2 2778   0.628   5.633   2.633
  627SOL     OW 2779   6.542   6.301   0.364
  627SOL    HW1 2780   6.507   6.297   0.458
  627SOL    HW2 2781   6.592   6.217   0.344
  628SOL     OW 2782   5.789   3.912   4.612
  628SOL    HW1 2783   5.708   3.864   4.576
  628SOL    HW2 2784   5.800   3.999   4.564
  629SOL     OW 2785   0.042   1.227   0.273
  629SOL    HW1 2786   7.023   1.203   0.360
  629SOL    HW2 2787   0.021   1.323   0.252
  630SOL     OW 2788   6.684   1.824   0.266
  630SOL    HW1 2789   6.685   1.868   0.355
  630SOL    HW2 2790   6.753   1.868   0.207
  631SOL     OW 2791   3.502   1.780   4.161
  631SOL    HW1 2792   3.592   1.769   4.204
  631SOL    HW2 2793   3.513   1.781   4.061
  632SOL     OW 2794   4.120   2.870   0.809
  632SOL    HW1 2795   4.115   2.958   0.856
  632SOL    HW2 2796   4.198   2.818   0.843
  633SOL     OW 2797   2.559   4.329   0.181
  633SOL    HW1 2798   2.637   4.378   0.218
  633SOL    HW2 2799   2.549   4.241   0.228
  634SOL     OW 2800   4.063   3.656   3.516
  634SOL    HW1 2801   4.060   3.647   3.616
  634SOL    HW2 2802   4.039   3.749   3.490
  635SOL     OW 2803   4.899   6.915   6.848
  635SOL    HW1 2804   4.981   6.901   6.903
  635SOL    HW2 2805   4.856   7.002   6.874
  636SOL     OW 2806   3.105   0.431   5.758
  636SOL    HW1 2807   3.164   0.493   5.810
  636SOL    HW2 2808   3.160   0.357   5.720
  637SOL     OW 2809   5.720   1.910   2.707
  637SOL    HW1 2810   5.733   2.002   2.744
  637SOL    HW2 2811   5.800   1.854   2.728
  638SOL     OW 2812   5.665   3.542   3.930
  638SOL    HW1 2813   5.574   3.571   3.959
  638SOL    HW2 2814   5.729   3.618   3.941
  639SOL     OW 2815   5.536   4.185   3.788
  639SOL    HW1 2816   5.591   4.267   3.773
  639SOL    HW2 2817   5.442   4.212   3.811
  640SOL     OW 2818   0.059   4.169   3.603
  640SOL    HW1 2819   0.049   4.075   3.636
  640SOL    HW2 2820   0.153   4.200   3.617
  641SOL     OW 2821   1.357   4.478   5.101
  641SOL    HW1 2822   1.448   4.489   5.140
  641SOL    HW2 2823   1.294   4.541   5.146
  642SOL     OW 2824   1.626   2.863   4.532
  642SOL    HW1 2825   1.715   2.853   4.487
  642SOL    HW2 2826   1.556   2.818   4.477
  643SOL     OW 2827   5.957   0.114   6.591
  643SOL    HW1 2828   5.875   0.114   6.534
  643SOL    HW2 2829   5.957   0.033   6.649
  644SOL     OW 2830   1.467   0.453   4.699
  644SOL    HW1 2831   1.395   0.462   4.769
  644SOL    HW2 2832   1.511   0.542   4.687
  645SOL     OW 2833   3.217   5.285   3.926
  645SOL    HW1 2834   3.212   5.186   3.910
  645SOL    HW2 2835   3.143   5.312   3.988
  646SOL     OW 2836   3.322   0.856   4.563
  646SOL    HW1 2837   3.235   0.853   4.612
  646SOL    HW2 2838   3.307   0.891   4.471
  647SOL     OW 2839   5.531   1.746   4.917
  647SOL    HW1 2840   5.521   1.796   4.832
  647SOL    HW2 2841   5.498   1.802   4.993
  648SOL     OW 2842   6.773   3.182   3.236
  648SOL    HW1 2843   6.767   3.130   3.151
  648SOL    HW2 2844   6.822   3.129   3.305
  649SOL     OW 2845   2.141   4.317   0.686
  649SOL    HW1 2846   2.133   4.218   0.670
  649SOL    HW2 2847   2.219   4.335   0.746
  650SOL     OW 2848   6.979   5.240   0.571
  650SOL    HW1 2849   0.007   5.184   0.635
  650SOL    HW2 2850   6.987   5.201   0.479
  651SOL     OW 2851   1.849   0.318   5.813
  651SOL    HW1 2852   1.813   0.226   5.799
  651SOL    HW2 2853   1.797   0.364   5.885
  652SOL     OW 2854   4.469   6.945   2.079
  652SOL    HW1 2855   4.559   6.926   2.119
  652SOL    HW2 2856   4.464   6.908   1.987
  653SOL     OW 2857   0.608   6.396   0.668
  653SOL    HW1 2858   0.621   6.470   0.734
  653SOL    HW2 2859   0.518   6.356   0.680
  654SOL     OW 2860   6.438   6.495   5.834
  654SOL    HW1 2861   6.393   6.511   5.922
  654SOL    HW2 2862   6.413   6.568   5.770
  655SOL     OW 2863   0.038   5.342   1.749
  655SOL    HW1 2864   0.096   5.310   1.824
  655SOL    HW2 2865   0.014   5.265   1.690
  656SOL     OW 2866   2.403   6.423   0.611
  656SOL    HW1 2867   2.465   6.422   0.689
  656SOL    HW2 2868   2.309   6.438   0.643
  657SOL     OW 2869   3.201   3.558   0.755
  657SOL    HW1 2870   3.252   3.562   0.841
  657SOL    HW2 2871   3.264   3.536   0.680
  658SOL     OW 2872   1.678   4.359   5.900
  658SOL    HW1 2873   1.593   4.410   5.915
  658SOL    HW2 2874   1.711   4.323   5.987
  659SOL     OW 2875   2.859   5.480   4.379
  659SOL    HW1 2876   2.837   5.383   4.388
  659SOL    HW2 2877   2.777   5.535   4.396
  660SOL     OW 2878   4.413   4.736   2.597
  660SOL    HW1 2879   4.448   4.823   2.631
  660SOL    HW2 2880   4.465   4.709   2.516
  661SOL     OW 2881   4.811   4.114   4.298
  661SOL    HW1 2882   4.906   4.098   4.325
  661SOL    HW2 2883   4.786   4.050   4.226
  662SOL     OW 2884   4.348   1.379   6.510
  662SOL    HW1 2885   4.339   1.384   6.609
  662SOL    HW2 2886   4.277   1.436   6.468
  663SOL     OW 2887   0.767   4.849   6.648
  663SOL    HW1 2888   0.769   4.761   6.695
  663SOL    HW2 2889   0.858   4.873   6.616
  664SOL     OW 2890   1.721   5.120   6.732
  664SOL    HW1 2891   1.772   5.204   6.749
  664SOL    HW2 2892   1.785   5.043   6.727
  665SOL     OW 2893   3.834   5.401   1.134
  665SOL    HW1 2894   3.929   5.372   1.128
  665SOL    HW2 2895   3.813   5.426   1.229
  666SOL     OW 2896   4.026   2.430   1.007
  666SOL    HW1 2897   4.017   2.330   1.007
  666SOL    HW2 2898   3.972   2.468   0.932
  667SOL     OW 2899   0.568   3.135   3.809
  667SOL    HW1 2900   0.627   3.055   3.820
  667SOL    HW2 2901   0.488   3.126   3.867
  668SOL     OW 2902   4.830   5.609   0.122
  668SOL    HW1 2903   4.854   5.706   0.132
  668SOL    HW2 2904   4.731   5.599   0.114
  669SOL     OW 2905   2.316   6.260   3.020
  669SOL    HW1 2906   2.323   6.181   2.959
  669SOL    HW2 2907   2.387   6.326   2.996
  670SOL     OW 2908   3.470   3.726   2.481
  670SOL    HW1 2909   3.450   3.782   2.400
  670SOL    HW2 2910   3.422   3.639   2.473
  671SOL     OW 2911   2.518   6.131   6.033
  671SOL    HW1 2912   2.543   6.058   6.097
  671SOL    HW2 2913   2.584   6.206   6.041
  672SOL     OW 2914   1.174   3.481   2.691
  672SOL    HW1 2915   1.198   3.508   2.784
  672SOL    HW2 2916   1.195   3.384   2.677
  673SOL     OW 2917   4.745   0.117   0.898
  673SOL    HW1 2918   4.687   0.196   0.918
  673SOL    HW2 2919   4.840   0.147   0.888
  674SOL     OW 2920   0.354   3.393   4.214
  674SOL    HW1 2921   0.345   3.402   4.313
  674SOL    HW2 2922   0.351   3.296   4.189
  675SOL     OW 2923   0.967   1.432   4.881
  675SOL    HW1 2924   0.882   1.446   4.830
  675SOL    HW2 2925   1.037   1.495   4.847
  676SOL     OW 2926   2.791   5.169   3.612
  676SOL    HW1 2927   2.732   5.235   3.565
  676SOL    HW2 2928   2.838   5.215   3.687
  677SOL     OW 2929   5.929   1.357   6.467
  677SOL    HW1 2930   6.000   1.372   6.537
  677SOL    HW2 2931   5.945   1.419   6.390
  678SOL     OW 2932   2.403   1.581   5.390
  678SOL    HW1 2933   2.443   1.492   5.411
  678SOL    HW2 2934   2.354   1.615   5.469
  679SOL     OW 2935   4.122   1.046   4.586
  679SOL    HW1 2936   4.204   1.050   4.643
  679SOL    HW2 2937   4.067   1.128   4.601
  680SOL     OW 2938   5.950   4.693   5.633
  680SOL    HW1 2939   6.042   4.699   5.673
  680SOL    HW2 2940   5.928   4.597   5.616
  681SOL     OW 2941   6.532   0.261   0.863
  681SOL    HW1 2942   6.592   0.309   0.927
  681SOL    HW2 2943   6.583   0.185   0.821
  682SOL     OW 2944   2.566   6.468   6.443
  682SOL    HW1 2945   2.652   6.463   6.391
  682SOL    HW2 2946   2.576   6.535   6.516
  683SOL     OW 2947   3.193   0.494   6.288
  683SOL    HW1 2948   3.146   0.480   6.201
  683SOL    HW2 2949   3.215   0.405   6.328
  684SOL     OW 2950   6.303   1.851   6.198
  684SOL    HW1 2951   6.347   1.792   6.266
  684SOL    HW2 2952   6.372   1.890   6.137
  685SOL     OW 2953   4.841   0.545   5.880
  685SOL    HW1 2954   4.799   0.510   5.964
  685SOL    HW2 2955   4.787   0.622   5.846
  686SOL     OW 2956   6.133   2.705   3.250
  686SOL    HW1 2957   6.218   2.674   3.292
  686SOL    HW2 2958   6.134   2.684   3.152
  687SOL     OW 2959   6.759   2.728   5.583
  687SOL    HW1 2960   6.690   2.761   5.647
  687SOL    HW2 2961   6.770   2.629   5.593
  688SOL     OW 2962   2.083   3.787   6.737
  688SOL    HW1 2963   2.043   3.879   6.733
  688SOL    HW2 2964   2.138   3.771   6.655
  689SOL     OW 2965   0.646   4.825   5.389
  689SOL    HW1 2966   0.575   4.755   5.385
  689SOL    HW2 2967   0.667   4.856   5.296
  690SOL     OW 2968   0.610   3.504   3.074
  690SOL    HW1 2969   0.630   3.498   3.172
  690SOL    HW2 2970   0.514   3.527   3.061
  691SOL     OW 2971   2.379   1.375   6.556
  691SOL    HW1 2972   2.323   1.408   6.632
  691SOL    HW2 2973   2.359   1.279   6.539
  692SOL     OW 2974   3.381   6.849   3.896
  692SOL    HW1 2975   3.396   6.916   3.823
  692SOL    HW2 2976   3.319   6.778   3.863
  693SOL     OW 2977   6.330   1.620   3.359
  693SOL    HW1 2978   6.422   1.590   3.384
  693SOL    HW2 2979   6.294   1.681   3.431
  694SOL     OW 2980   3.289   5.502   2.599
  694SOL    HW1 2981   3.344   5.578   2.564
  694SOL    HW2 2982   3.201   5.537   2.632
  695SOL     OW 2983   5.358   4.827   5.324
  695SOL    HW1 2984   5.363   4.745   5.267
  695SOL    HW2 2985   5.450   4.866   5.334
  696SOL     OW 2986   3.316   5.181   2.249
  696SOL    HW1 2987   3.345   5.245   2.178
  696SOL    HW2 2988   3.345   5.089   2.225
  697SOL     OW 2989   0.981   3.311   6.004
  697SOL    HW1 2990   0.909   3.254   5.963
  697SOL    HW2 2991   1.051   3.330   5.936
  698SOL     OW 2992   5.806   0.129   4.777
  698SOL    HW1 2993   5.804   0.093   4.871
  698SOL    HW2 2994   5.742   0.076   4.721
  699SOL     OW 2995   1.160   4.201   6.992
  699SOL    HW1 2996   1.231   4.232   6.929
  699SOL    HW2 2997   1.193   4.208   0.061
  700SOL     OW 2998   3.264   1.840   3.629
  700SOL    HW1 2999   3.224   1.748   3.633
  700SOL    HW2 3000   3.218   1.892   3.556
  701SOL     OW 3001   0.804   4.806   6.344
  701SOL    HW1 3002   0.719   4.855   6.358
  701SOL    HW2 3003   0.879   4.855   6.388
  702SOL     OW 3004   5.917   6.245   6.415
  702SOL    HW1 3005   5.938   6.335   6.453
  702SOL    HW2 3006   5.821   6.222   6.435
  703SOL     OW 3007   4.523   3.558   6.629
  703SOL    HW1 3008   4.560   3.469   6.656
  703SOL    HW2 3009   4.582   3.598   6.559
  704SOL     OW 3010   1.986   1.562   6.181
  704SOL    HW1 3011   2.055   1.510   6.130
  704SOL    HW2 3012   2.030   1.612   6.255
  705SOL     OW 3013   5.340   6.370   3.908
  705SOL    HW1 3014   5.306   6.432   3.837
  705SOL    HW2 3015   5.279   6.291   3.916
  706SOL     OW 3016   4.117   1.913   3.363
  706SOL    HW1 3017   4.192   1.848   3.376
  706SOL    HW2 3018   4.071   1.894   3.276
  707SOL     OW 3019   4.823   0.113   2.325
  707SOL    HW1 3020   4.823   0.068   2.414
  707SOL    HW2 3021   4.790   0.207   2.335
  708SOL     OW 3022   4.221   0.275   0.831
  708SOL    HW1 3023   4.281   0.352   0.853
  708SOL    HW2 3024   4.269   0.213   0.768
  709SOL     OW 3025   1.139   5.500   0.869
  709SOL    HW1 3026   1.170   5.593   0.849
  709SOL    HW2 3027   1.218   5.440   0.877
  710SOL     OW 3028   3.740   3.676   2.844
  710SOL    HW1 3029   3.725   3.701   2.940
  710SOL    HW2 3030   3.751   3.577   2.837
  711SOL     OW 3031   0.800   2.249   5.677
  711SOL    HW1 3032   0.825   2.185   5.605
  711SOL    HW2 3033   0.710   2.224   5.714
  712SOL     OW 3034   2.230   4.219   1.104
  712SOL    HW1 3035   2.323   4.256   1.109
  712SOL    HW2 3036   2.176   4.272   1.039
  713SOL     OW 3037   3.212   3.922   0.402
  713SOL    HW1 3038   3.273   3.933   0.480
  713SOL    HW2 3039   3.135   3.985   0.410
  714SOL     OW 3040   5.935   4.557   5.042
  714SOL    HW1 3041   6.014   4.603   5.002
  714SOL    HW2 3042   5.911   4.600   5.129
  715SOL     OW 3043   4.777   6.002   0.271
  715SOL    HW1 3044   4.809   6.046   0.355
  715SOL    HW2 3045   4.702   5.940   0.293
  716SOL     OW 3046   1.089   5.676   1.170
  716SOL    HW1 3047   1.159   5.616   1.129
  716SOL    HW2 3048   1.129   5.766   1.187
  717SOL     OW 3049   6.229   5.174   6.126
  717SOL    HW1 3050   6.313   5.192   6.075
  717SOL    HW2 3051   6.221   5.239   6.201
  718SOL     OW 3052   3.580   1.814   6.123
  718SOL    HW1 3053   3.580   1.714   6.116
  718SOL    HW2 3054   3.644   1.852   6.056
  719SOL     OW 3055   5.677   2.474   1.842
  719SOL    HW1 3056   5.755   2.531   1.870
  719SOL    HW2 3057   5.664   2.483   1.743
  720SOL     OW 3058   2.992   1.198   6.273
  720SOL    HW1 3059   2.999   1.209   6.173
  720SOL    HW2 3060   3.061   1.133   6.304
  721SOL     OW 3061   1.367   0.113   4.777
  721SOL    HW1 3062   1.401   0.019   4.789
  721SOL    HW2 3063   1.283   0.125   4.829
  722SOL     OW 3064   3.644   6.683   5.231
  722SOL    HW1 3065   3.606   6.755   5.290
  722SOL    HW2 3066   3.636   6.710   5.135
  723SOL     OW 3067   2.198   2.868   1.895
  723SOL    HW1 3068   2.115   2.879   1.840
  723SOL    HW2 3069   2.241   2.957   1.908
  724SOL     OW 3070   1.147   1.410   4.595
  724SOL    HW1 3071   1.106   1.483   4.650
  724SOL    HW2 3072   1.178   1.447   4.507
  725SOL     OW 3073   3.003   5.073   1.575
  725SOL    HW1 3074   3.043   5.051   1.664
  725SOL    HW2 3075   3.010   5.171   1.558
  726SOL     OW 3076   3.860   4.857   0.586
  726SOL    HW1 3077   3.960   4.858   0.587
  726SOL    HW2 3078   3.828   4.763   0.579
  727SOL     OW 3079   4.323   5.825   4.621
  727SOL    HW1 3080   4.405   5.881   4.609
  727SOL    HW2 3081   4.294   5.791   4.531
  728SOL     OW 3082   0.736   4.477   5.309
  728SOL    HW1 3083   0.771   4.521   5.392
  728SOL    HW2 3084   0.772   4.524   5.229
  729SOL     OW 3085   2.494   0.385   0.316
  729SOL    HW1 3086   2.397   0.397   0.296
  729SOL    HW2 3087   2.506   0.364   0.413
  730SOL     OW 3088   5.786   0.375   3.632
  730SOL    HW1 3089   5.764   0.306   3.564
  730SOL    HW2 3090   5.884   0.374   3.650
  731SOL     OW 3091   5.597   3.312   6.132
  731SOL    HW1 3092   5.686   3.351   6.110
  731SOL    HW2 3093   5.593   3.290   6.230
  732SOL     OW 3094   0.122   3.621   0.680
  732SOL    HW1 3095   0.070   3.706   0.664
  732SOL    HW2 3096   0.143   3.578   0.592
  733SOL     OW 3097   5.535   4.105   4.585
  733SOL    HW1 3098   5.470   4.175   4.555
  733SOL    HW2 3099   5.601   4.145   4.648
  734SOL     OW 3100   6.552   4.434   2.812
  734SOL    HW1 3101   6.567   4.453   2.909
  734SOL    HW2 3102   6.534   4.336   2.800
  735SOL     OW 3103   3.507   2.304   1.244
  735SOL    HW1 3104   3.433   2.245   1.211
  735SOL    HW2 3105   3.472   2.395   1.262
  736SOL     OW 3106   6.781   6.575   2.401
  736SOL    HW1 3107   6.696   6.566   2.452
  736SOL    HW2 3108   6.762   6.568   2.303
  737SOL     OW 3109   4.680   3.288   0.731
  737SOL    HW1 3110   4.725   3.235   0.803
  737SOL    HW2 3111   4.746   3.307   0.658
  738SOL     OW 3112   1.738   4.999   3.675
  738SOL    HW1 3113   1.686   4.994   3.589
  738SOL    HW2 3114   1.824   4.950   3.665
  739SOL     OW 3115   4.695   6.248   5.203
  739SOL    HW1 3116   4.759   6.267   5.127
  739SOL    HW2 3117   4.604   6.232   5.166
  740SOL     OW 3118   5.467   0.523   0.500
  740SOL    HW1 3119   5.445   0.562   0.411
  740SOL    HW2 3120   5.565   0.501   0.504
  741SOL     OW 3121   2.240   6.529   3.128
  741SOL    HW1 3122   2.155   6.556   3.174
  741SOL    HW2 3123   2.222   6.451   3.067
  742SOL     OW 3124   2.308   6.692   1.465
  742SOL    HW1 3125   2.276   6.756   1.396
  742SOL    HW2 3126   2.400   6.717   1.495
  743SOL     OW 3127   1.630   3.915   4.630
  743SOL    HW1 3128   1.570   3.844   4.666
  743SOL    HW2 3129   1.674   3.964   4.706
  744SOL     OW 3130   6.481   6.967   6.311
  744SOL    HW1 3131   6.424   0.019   6.282
  744SOL    HW2 3132   6.568   6.969   6.261
  745SOL     OW 3133   1.054   5.824   4.241
  745SOL    HW1 3134   1.104   5.910   4.233
  745SOL    HW2 3135   1.119   5.748   4.248
  746SOL     OW 3136   0.667   6.298   5.025
  746SOL    HW1 3137   0.568   6.296   5.041
  746SOL    HW2 3138   0.692   6.225   4.960
  747SOL     OW 3139   4.649   4.926   4.553
  747SOL    HW1 3140   4.678   4.863   4.625
  747SOL    HW2 3141   4.728   4.949   4.495
  748SOL     OW 3142   3.804   5.334   2.941
  748SOL    HW1 3143   3.857   5.250   2.952
  748SOL    HW2 3144   3.719   5.327   2.994
  749SOL     OW 3145   6.552   3.591   5.024
  749SOL    HW1 3146   6.628   3.634   5.072
  749SOL    HW2 3147   6.588   3.531   4.951
  750SOL     OW 3148   1.968   3.045   0.721
  750SOL    HW1 3149   1.918   3.099   0.789
  750SOL    HW2 3150   2.063   3.076   0.718
  751SOL     OW 3151   3.720   1.389   6.384
  751SOL    HW1 3152   3.785   1.373   6.458
  751SOL    HW2 3153   3.762   1.446   6.314
  752SOL     OW 3154   4.422   2.149   1.497
  752SOL    HW1 3155   4.329   2.180   1.477
  752SOL    HW2 3156   4.453   2.189   1.584
  753SOL     OW 3157   2.049   3.018   3.933
  753SOL    HW1 3158   2.062   3.070   4.018
  753SOL    HW2 3159   2.030   2.922   3.955
  754SOL     OW 3160   6.005   3.463   6.334
  754SOL    HW1 3161   6.092   3.458   6.383
  754SOL    HW2 3162   5.942   3.522   6.384
  755SOL     OW 3163   1.179   5.994   0.023
  755SOL    HW1 3164   1.127   5.909   0.009
  755SOL    HW2 3165   1.274   5.971   0.044
  756SOL     OW 3166   5.028   6.443   1.342
  756SOL    HW1 3167   5.070   6.527   1.375
  756SOL    HW2 3168   4.991   6.391   1.419
  757SOL     OW 3169   0.426   6.117   2.993
  757SOL    HW1 3170   0.514   6.075   3.014
  757SOL    HW2 3171   0.353   6.068   3.040
  758SOL     OW 3172   4.008   0.758   1.599
  758SOL    HW1 3173   4.014   0.846   1.552
  758SOL    HW2 3174   3.955   0.694   1.543
  759SOL     OW 3175   0.174   0.956   0.567
  759SOL    HW1 3176   0.173   0.877   0.629
  759SOL    HW2 3177   0.262   0.958   0.519
  760SOL     OW 3178   4.356   0.830   6.286
  760SOL    HW1 3179   4.369   0.754   6.350
  760SOL    HW2 3180   4.409   0.909   6.318
  761SOL     OW 3181   5.585   3.968   5.848
  761SOL    HW1 3182   5.631   3.880   5.862
  761SOL    HW2 3183   5.625   4.014   5.768
  762SOL     OW 3184   2.353   6.502   3.731
  762SOL    HW1 3185   2.301   6.438   3.675
  762SOL    HW2 3186   2.423   6.546   3.675
  763SOL     OW 3187   4.110   5.435   6.023
  763SOL    HW1 3188   4.047   5.511   6.034
  763SOL    HW2 3189   4.135   5.426   5.926
  764SOL     OW 3190   4.582   0.546   4.387
  764SOL    HW1 3191   4.602   0.563   4.484
  764SOL    HW2 3192   4.552   0.631   4.343
  765SOL     OW 3193   1.112   6.149   1.439
  765SOL    HW1 3194   1.199   6.188   1.469
  765SOL    HW2 3195   1.125   6.053   1.415
  766SOL     OW 3196   0.526   1.679   0.468
  766SOL    HW1 3197   0.474   1.606   0.424
  766SOL    HW2 3198   0.622   1.653   0.474
  767SOL     OW 3199   0.167   6.092   2.401
  767SOL    HW1 3200   0.190   5.995   2.394
  767SOL    HW2 3201   0.182   6.137   2.313
  768SOL     OW 3202   2.683   6.957   2.067
  768SOL    HW1 3203   2.663   6.996   2.157
  768SOL    HW2 3204   2.701   0.006   2.002
  769SOL     OW 3205   2.868   0.061   3.854
  769SOL    HW1 3206   2.924   0.131   3.810
  769SOL    HW2 3207   2.907   0.039   3.943
  770SOL     OW 3208   1.631   4.489   2.684
  770SOL    HW1 3209   1.687   4.569   2.661
  770SOL    HW2 3210   1.662   4.410   2.631
  771SOL     OW 3211   1.805   5.092   2.873
  771SOL    HW1 3212   1.872   5.149   2.827
  771SOL    HW2 3213   1.741   5.149   2.924
  772SOL     OW 3214   6.661   4.896   0.850
  772SOL    HW1 3215   6.677   4.980   0.799
  772SOL    HW2 3216   6.628   4.825   0.787
  773SOL     OW 3217   0.408   3.716   3.561
  773SOL    HW1 3218   0.455   3.641   3.515
  773SOL    HW2 3219   0.405   3.699   3.659
  774SOL     OW 3220   1.181   1.683   2.418
  774SOL    HW1 3221   1.103   1.713   2.363
  774SOL    HW2 3222   1.189   1.583   2.412
  775SOL     OW 3223   1.074   1.923   3.056
  775SOL    HW1 3224   1.158   1.963   3.094
  775SOL    HW2 3225   1.059   1.833   3.095
  776SOL     OW 3226   0.078   1.337   5.653
  776SOL    HW1 3227   0.121   1.382   5.574
  776SOL    HW2 3228   0.141   1.268   5.690
  777SOL     OW 3229   3.122   6.493   0.915
  777SOL    HW1 3230   3.044   6.548   0.945
  777SOL    HW2 3231   3.172   6.460   0.995
  778SOL     OW 3232   3.564   1.390   4.066
  778SOL    HW1 3233   3.638   1.449   4.097
  778SOL    HW2 3234   3.591   1.295   4.076
  779SOL     OW 3235   0.521   1.739   2.725
  779SOL    HW1 3236   0.618   1.744   2.701
  779SOL    HW2 3237   0.489   1.830   2.751
  780SOL     OW 3238   6.371   3.813   4.596
  780SOL    HW1 3239   6.310   3.793   4.672
  780SOL    HW2 3240   6.466   3.806   4.627
  781SOL     OW 3241   5.837   0.915   6.402
  781SOL    HW1 3242   5.771   0.924   6.327
  781SOL    HW2 3243   5.926   0.950   6.373
  782SOL     OW 3244   1.255   3.950   0.352
  782SOL    HW1 3245   1.314   3.898   0.290
  782SOL    HW2 3246   1.181   3.891   0.385
  783SOL     OW 3247   3.657   4.534   0.837
  783SOL    HW1 3248   3.674   4.620   0.885
  783SOL    HW2 3249   3.579   4.544   0.775
  784SOL     OW 3250   5.073   6.668   5.903
  784SOL    HW1 3251   5.050   6.755   5.860
  784SOL    HW2 3252   5.033   6.593   5.851
  785SOL     OW 3253   0.158   2.092   3.489
  785SOL    HW1 3254   0.250   2.124   3.511
  785SOL    HW2 3255   0.153   1.992   3.500
  786SOL     OW 3256   1.544   0.897   0.651
  786SOL    HW1 3257   1.624   0.839   0.662
  786SOL    HW2 3258   1.462   0.841   0.648
  787SOL     OW 3259   3.255   1.833   6.540
  787SOL    HW1 3260   3.247   1.808   6.443
  787SOL    HW2 3261   3.211   1.922   6.554
  788SOL     OW 3262   2.409   2.448   4.967
  788SOL    HW1 3263   2.386   2.538   5.002
  788SOL    HW2 3264   2.493   2.453   4.913
  789SOL     OW 3265   5.540   4.313   1.176
  789SOL    HW1 3266   5.480   4.263   1.114
  789SOL    HW2 3267   5.518   4.288   1.270
  790SOL     OW 3268   2.691   1.501   4.292
  790SOL    HW1 3269   2.683   1.431   4.221
  790SOL    HW2 3270   2.682   1.458   4.382
  791SOL     OW 3271   3.926   0.285   3.274
  791SOL    HW1 3272   3.899   0.377   3.304
  791SOL    HW2 3273   3.860   0.218   3.307
  792SOL     OW 3274   0.409   0.329   1.783
  792SOL    HW1 3275   0.372   0.268   1.714
  792SOL    HW2 3276   0.507   0.312   1.794
  793SOL     OW 3277   4.255   6.114   2.275
  793SOL    HW1 3278   4.205   6.076   2.197
  793SOL    HW2 3279   4.202   6.188   2.315
  794SOL     OW 3280   2.612   3.331   5.331
  794SOL    HW1 3281   2.584   3.244   5.290
  794SOL    HW2 3282   2.535   3.369   5.383
  795SOL     OW 3283   2.979   5.400   5.125
  795SOL    HW1 3284   3.015   5.323   5.179
  795SOL    HW2 3285   3.029   5.406   5.039
  796SOL     OW 3286   1.110   2.470   6.424
  796SOL    HW1 3287   1.105   2.543   6.491
  796SOL    HW2 3288   1.190   2.484   6.365
  797SOL     OW 3289   5.325   2.425   2.597
  797SOL    HW1 3290   5.262   2.400   2.670
  797SOL    HW2 3291   5.295   2.382   2.511
  798SOL     OW 3292   5.323   0.446   1.357
  798SOL    HW1 3293   5.347   0.537   1.392
  798SOL    HW2 3294   5.404   0.388   1.357
  799SOL     OW 3295   6.548   1.442   4.262
  799SOL    HW1 3296   6.527   1.394   4.177
  799SOL    HW2 3297   6.504   1.531   4.262
  800SOL     OW 3298   5.827   0.951   2.852
  800SOL    HW1 3299   5.752   0.889   2.877
  800SOL    HW2 3300   5.799   1.006   2.774
  801SOL     OW 3301   1.491   3.431   2.958
  801SOL    HW1 3302   1.564   3.486   2.917
  801SOL    HW2 3303   1.488   3.341   2.913
  802SOL     OW 3304   4.146   0.407   0.401
  802SOL    HW1 3305   4.121   0.502   0.384
  802SOL    HW2 3306   4.183   0.367   0.317
  803SOL     OW 3307   0.274   5.335   5.110
  803SOL    HW1 3308   0.307   5.252   5.065
  803SOL    HW2 3309   0.276   5.411   5.046
  804SOL     OW 3310   5.963   6.496   0.004
  804SOL    HW1 3311   6.004   6.462   6.944
  804SOL    HW2 3312   5.997   6.442   0.081
  805SOL     OW 3313   3.343   2.329   5.622
  805SOL    HW1 3314   3.380   2.271   5.694
  805SOL    HW2 3315   3.411   2.338   5.549
  806SOL     OW 3316   4.465   1.216   4.648
  806SOL    HW1 3317   4.472   1.139   4.712
  806SOL    HW2 3318   4.381   1.267   4.666
  807SOL     OW 3319   0.923   1.466   3.547
  807SOL    HW1 3320   0.867   1.392   3.584
  807SOL    HW2 3321   1.011   1.430   3.518
  808SOL     OW 3322   4.818   3.592   6.195
  808SOL    HW1 3323   4.869   3.577   6.110
  808SOL    HW2 3324   4.728   3.631   6.174
  809SOL     OW 3325   0.925   4.371   1.185
  809SOL    HW1 3326   0.961   4.369   1.278
  809SOL    HW2 3327   1.001   4.376   1.120
  810SOL     OW 3328   3.884   2.914   1.376
  810SOL    HW1 3329   3.785   2.926   1.376
  810SOL    HW2 3330   3.920   2.939   1.286
  811SOL     OW 3331   4.848   5.023   3.831
  811SOL    HW1 3332   4.874   4.927   3.833
  811SOL    HW2 3333   4.834   5.052   3.736
  812SOL     OW 3334   0.293   1.906   2.114
  812SOL    HW1 3335   0.229   1.834   2.088
  812SOL    HW2 3336   0.307   1.967   2.036
  813SOL     OW 3337   3.693   5.002   4.244
  813SOL    HW1 3338   3.776   4.957   4.212
  813SOL    HW2 3339   3.715   5.096   4.271
  814SOL     OW 3340   5.320   6.160   3.195
  814SOL    HW1 3341   5.302   6.259   3.201
  814SOL    HW2 3342   5.375   6.132   3.273
  815SOL     OW 3343   6.943   3.102   2.632
  815SOL    HW1 3344   6.976   3.087   2.539
  815SOL    HW2 3345   7.021   3.122   2.692
  816SOL     OW 3346   6.807   0.074   0.032
  816SOL    HW1 3347   6.835   0.018   6.979
  816SOL    HW2 3348   6.839   0.033   0.117
  817SOL     OW 3349   1.908   3.928   1.873
  817SOL    HW1 3350   1.865   3.847   1.912
  817SOL    HW2 3351   1.992   3.901   1.825
  818SOL     OW 3352   6.456   3.182   1.192
  818SOL    HW1 3353   6.488   3.277   1.199
  818SOL    HW2 3354   6.532   3.120   1.211
  819SOL     OW 3355   6.050   2.986   3.651
  819SOL    HW1 3356   6.116   3.005   3.578
  819SOL    HW2 3357   6.034   3.070   3.703
  820SOL     OW 3358   1.699   2.895   6.310
  820SOL    HW1 3359   1.695   2.917   6.407
  820SOL    HW2 3360   1.644   2.962   6.259
  821SOL     OW 3361   2.195   4.945   0.699
  821SOL    HW1 3362   2.176   4.969   0.794
  821SOL    HW2 3363   2.157   5.016   0.639
  822SOL     OW 3364   1.140   5.143   4.393
  822SOL    HW1 3365   1.217   5.080   4.399
  822SOL    HW2 3366   1.089   5.125   4.308
  823SOL     OW 3367   4.967   4.349   6.853
  823SOL    HW1 3368   4.955   4.252   6.835
  823SOL    HW2 3369   4.914   4.375   6.934
  824SOL     OW 3370   5.470   0.804   5.502
  824SOL    HW1 3371   5.483   0.903   5.504
  824SOL    HW2 3372   5.391   0.782   5.444
  825SOL     OW 3373   1.690   4.168   1.223
  825SOL    HW1 3374   1.652   4.247   1.176
  825SOL    HW2 3375   1.624   4.093   1.222
  826SOL     OW 3376   5.641   3.760   0.775
  826SOL    HW1 3377   5.732   3.779   0.811
  826SOL    HW2 3378   5.627   3.810   0.690
  827SOL     OW 3379   2.768   5.586   6.155
  827SOL    HW1 3380   2.767   5.657   6.085
  827SOL    HW2 3381   2.841   5.605   6.221
  828SOL     OW 3382   6.022   0.081   5.437
  828SOL    HW1 3383   5.963   0.125   5.370
  828SOL    HW2 3384   6.118   0.100   5.414
  829SOL     OW 3385   2.945   3.600   4.354
  829SOL    HW1 3386   2.919   3.649   4.437
  829SOL    HW2 3387   2.942   3.501   4.372
  830SOL     OW 3388   4.601   4.911   6.174
  830SOL    HW1 3389   4.599   5.007   6.201
  830SOL    HW2 3390   4.677   4.895   6.112
  831SOL     OW 3391   0.133   0.258   5.375
  831SOL    HW1 3392   0.093   0.347   5.352
  831SOL    HW2 3393   0.222   0.272   5.419
  832SOL     OW 3394   1.592   0.813   0.316
  832SOL    HW1 3395   1.495   0.794   0.300
  832SOL    HW2 3396   1.603   0.906   0.352
  833SOL     OW 3397   0.563   5.659   6.193
  833SOL    HW1 3398   0.627   5.582   6.188
  833SOL    HW2 3399   0.518   5.660   6.282
  834SOL     OW 3400   3.837   4.238   1.368
  834SOL    HW1 3401   3.849   4.271   1.461
  834SOL    HW2 3402   3.801   4.311   1.311
  835SOL     OW 3403   3.348   6.926   4.165
  835SOL    HW1 3404   3.361   6.896   4.070
  835SOL    HW2 3405   3.352   0.001   4.169
  836SOL     OW 3406   3.495   6.610   6.624
  836SOL    HW1 3407   3.475   6.679   6.694
  836SOL    HW2 3408   3.594   6.604   6.611
  837SOL     OW 3409   4.945   6.322   6.507
  837SOL    HW1 3410   4.920   6.392   6.439
  837SOL    HW2 3411   4.904   6.234   6.481
  838SOL     OW 3412   0.995   0.523   4.735
  838SOL    HW1 3413   1.072   0.468   4.704
  838SOL    HW2 3414   0.980   0.599   4.672
  839SOL     OW 3415   2.830   1.957   2.068
  839SOL    HW1 3416   2.807   2.014   1.989
  839SOL    HW2 3417   2.902   2.001   2.122
  840SOL     OW 3418   6.108   0.232   6.060
  840SOL    HW1 3419   6.012   0.223   6.088
  840SOL    HW2 3420   6.130   0.329   6.045
  841SOL     OW 3421   5.827   4.491   0.229
  841SOL    HW1 3422   5.775   4.426   0.284
  841SOL    HW2 3423   5.766   4.541   0.169
  842SOL     OW 3424   4.265   5.095   4.303
  842SOL    HW1 3425   4.346   5.155   4.303
  842SOL    HW2 3426   4.283   5.014   4.358
  843SOL     OW 3427   4.323   2.509   6.872
  843SOL    HW1 3428   4.419   2.486   6.887
  843SOL    HW2 3429   4.304   2.507   6.773
  844SOL     OW 3430   4.621   6.707   1.047
  844SOL    HW1 3431   4.706   6.673   1.087
  844SOL    HW2 3432   4.599   6.796   1.087
  845SOL     OW 3433   6.267   3.280   4.290
  845SOL    HW1 3434   6.198   3.240   4.350
  845SOL    HW2 3435   6.252   3.249   4.197
  846SOL     OW 3436   5.291   1.742   6.495
  846SOL    HW1 3437   5.330   1.661   6.537
  846SOL    HW2 3438   5.235   1.716   6.417
  847SOL     OW 3439   6.558   3.605   0.494
  847SOL    HW1 3440   6.584   3.574   0.402
  847SOL    HW2 3441   6.632   3.583   0.558
  848SOL     OW 3442   6.419   1.715   6.412
  848SOL    HW1 3443   6.349   1.768   6.460
  848SOL    HW2 3444   6.509   1.735   6.451
  849SOL     OW 3445   0.969   5.550   5.482
  849SOL    HW1 3446   0.959   5.454   5.458
  849SOL    HW2 3447   0.890   5.581   5.535
  850SOL     OW 3448   5.224   0.505   3.319
  850SOL    HW1 3449   5.216   0.451   3.403
  850SOL    HW2 3450   5.321   0.516   3.296
  851SOL     OW 3451   0.173   1.617   1.096
  851SOL    HW1 3452   0.139   1.684   1.030
  851SOL    HW2 3453   0.095   1.577   1.145
  852SOL     OW 3454   2.870   2.540   6.984
  852SOL    HW1 3455   2.959   2.564   7.024
  852SOL    HW2 3456   2.868   2.443   6.963
  853SOL     OW 3457   1.018   3.979   3.286
  853SOL    HW1 3458   1.102   3.983   3.340
  853SOL    HW2 3459   1.025   4.046   3.211
  854SOL     OW 3460   4.925   5.915   2.276
  854SOL    HW1 3461   4.855   5.940   2.208
  854SOL    HW2 3462   4.882   5.874   2.356
  855SOL     OW 3463   5.980   6.909   1.269
  855SOL    HW1 3464   5.914   6.929   1.342
  855SOL    HW2 3465   6.063   6.871   1.309
  856SOL     OW 3466   2.209   1.488   5.212
  856SOL    HW1 3467   2.244   1.503   5.120
  856SOL    HW2 3468   2.276   1.522   5.279
  857SOL     OW 3469   5.873   5.310   1.213
  857SOL    HW1 3470   5.777   5.285   1.204
  857SOL    HW2 3471   5.915   5.315   1.122
  858SOL     OW 3472   2.537   4.546   1.899
  858SOL    HW1 3473   2.549   4.501   1.811
  858SOL    HW2 3474   2.626   4.573   1.936
  859SOL     OW 3475   5.619   5.439   6.662
  859SOL    HW1 3476   5.612   5.409   6.757
  859SOL    HW2 3477   5.588   5.366   6.602
  860SOL     OW 3478   4.276   4.356   0.980
  860SOL    HW1 3479   4.225   4.422   1.035
  860SOL    HW2 3480   4.370   4.389   0.968
  861SOL     OW 3481   1.723   7.018   4.865
  861SOL    HW1 3482   1.695   0.087   4.843
  861SOL    HW2 3483   1.703   6.999   4.961
  862SOL     OW 3484   6.482   4.001   5.480
  862SOL    HW1 3485   6.409   4.047   5.529
  862SOL    HW2 3486   6.445   3.953   5.400
  863SOL     OW 3487   1.196   0.032   0.575
  863SOL    HW1 3488   1.256   0.096   0.526
  863SOL    HW2 3489   1.223   0.029   0.672
  864SOL     OW 3490   5.544   4.573   3.724
  864SOL    HW1 3491   5.533   4.664   3.683
  864SOL    HW2 3492   5.629   4.570   3.776
  865SOL     OW 3493   1.126   6.903   4.894
  865SOL    HW1 3494   1.129   7.003   4.891
  865SOL    HW2 3495   1.041   6.873   4.937
  866SOL     OW 3496   1.818   1.804   1.333
  866SOL    HW1 3497   1.874   1.728   1.300
  866SOL    HW2 3498   1.870   1.889   1.326
  867SOL     OW 3499   3.454   2.712   0.945
  867SOL    HW1 3500   3.409   2.763   1.018
  867SOL    HW2 3501   3.514   2.773   0.894
  868SOL     OW 3502   6.199   6.703   0.936
  868SOL    HW1 3503   6.272   6.697   0.868
  868SOL    HW2 3504   6.237   6.730   1.024
  869SOL     OW 3505   6.598   5.362   2.745
  869SOL    HW1 3506   6.521   5.299   2.759
  869SOL    HW2 3507   6.564   5.456   2.747
  870SOL     OW 3508   6.159   4.160   0.666
  870SOL    HW1 3509   6.066   4.130   0.687
  870SOL    HW2 3510   6.212   4.169   0.750
  871SOL     OW 3511   6.473   2.845   2.274
  871SOL    HW1 3512   6.466   2.769   2.338
  871SOL    HW2 3513   6.418   2.825   2.193
  872SOL     OW 3514   6.242   3.968   3.986
  872SOL    HW1 3515   6.143   3.980   3.981
  872SOL    HW2 3516   6.263   3.872   3.999
  873SOL     OW 3517   4.295   0.327   2.847
  873SOL    HW1 3518   4.326   0.246   2.897
  873SOL    HW2 3519   4.213   0.364   2.891
  874SOL     OW 3520   1.478   3.864   5.504
  874SOL    HW1 3521   1.417   3.788   5.480
  874SOL    HW2 3522   1.549   3.831   5.566
  875SOL     OW 3523   5.103   4.059   0.948
  875SOL    HW1 3524   5.091   4.075   1.046
  875SOL    HW2 3525   5.043   4.121   0.897
  876SOL     OW 3526   6.850   4.578   3.216
  876SOL    HW1 3527   6.861   4.596   3.314
  876SOL    HW2 3528   6.936   4.600   3.169
  877SOL     OW 3529   4.397   4.428   6.669
  877SOL    HW1 3530   4.465   4.354   6.669
  877SOL    HW2 3531   4.362   4.441   6.576
  878SOL     OW 3532   4.009   5.528   6.439
  878SOL    HW1 3533   4.032   5.459   6.370
  878SOL    HW2 3534   3.978   5.611   6.394
  879SOL     OW 3535   3.879   2.122   2.234
  879SOL    HW1 3536   3.865   2.210   2.187
  879SOL    HW2 3537   3.903   2.052   2.167
  880SOL     OW 3538   3.313   4.843   0.061
  880SOL    HW1 3539   3.283   4.809   6.996
  880SOL    HW2 3540   3.411   4.859   0.060
  881SOL     OW 3541   4.358   4.817   5.148
  881SOL    HW1 3542   4.332   4.884   5.217
  881SOL    HW2 3543   4.281   4.804   5.084
  882SOL     OW 3544   1.941   1.286   4.297
  882SOL    HW1 3545   1.881   1.349   4.346
  882SOL    HW2 3546   1.893   1.200   4.280
  883SOL     OW 3547   4.313   5.382   5.084
  883SOL    HW1 3548   4.272   5.328   5.011
  883SOL    HW2 3549   4.247   5.396   5.158
  884SOL     OW 3550   6.918   3.851   2.236
  884SOL    HW1 3551   6.852   3.778   2.253
  884SOL    HW2 3552   6.875   3.939   2.256
  885SOL     OW 3553   5.641   6.219   6.953
  885SOL    HW1 3554   5.589   6.294   6.911
  885SOL    HW2 3555   5.721   6.198   6.896
  886SOL     OW 3556   4.568   0.580   0.501
  886SOL    HW1 3557   4.637   0.563   0.432
  886SOL    HW2 3558   4.515   0.497   0.517
  887SOL     OW 3559   4.137   6.368   5.659
  887SOL    HW1 3560   4.186   6.321   5.585
  887SOL    HW2 3561   4.089   6.448   5.622
  888SOL     OW 3562   6.890   6.432   2.995
  888SOL    HW1 3563   6.985   6.404   2.987
  888SOL    HW2 3564   6.832   6.367   2.945
  889SOL     OW 3565   0.231   6.832   5.823
  889SOL    HW1 3566   0.143   6.860   5.863
  889SOL    HW2 3567   0.301   6.900   5.846
  890SOL     OW 3568   2.782   4.781   2.203
  890SOL    HW1 3569   2.866   4.807   2.250
  890SOL    HW2 3570   2.803   4.714   2.132
  891SOL     OW 3571   6.154   3.503   1.456
  891SOL    HW1 3572   6.143   3.426   1.519
  891SOL    HW2 3573   6.158   3.589   1.507
  892SOL     OW 3574   4.234   3.860   0.551
  892SOL    HW1 3575   4.252   3.854   0.453
  892SOL    HW2 3576   4.156   3.920   0.567
  893SOL     OW 3577   1.955   0.573   1.089
  893SOL    HW1 3578   2.050   0.597   1.106
  893SOL    HW2 3579   1.930   0.598   0.996
  894SOL     OW 3580   2.046   4.023   3.944
  894SOL    HW1 3581   1.972   3.977   3.992
  894SOL    HW2 3582   2.009   4.096   3.887
  895SOL     OW 3583   1.819   0.045   4.234
  895SOL    HW1 3584   1.754   7.003   4.270
  895SOL    HW2 3585   1.872   0.003   4.160
  896SOL     OW 3586   5.805   5.825   4.104
  896SOL    HW1 3587   5.803   5.806   4.006
  896SOL    HW2 3588   5.865   5.759   4.150
  897SOL     OW 3589   4.761   1.116   0.444
  897SOL    HW1 3590   4.689   1.099   0.511
  897SOL    HW2 3591   4.773   1.214   0.431
  898SOL     OW 3592   4.809   5.989   4.181
  898SOL    HW1 3593   4.894   5.996   4.129
  898SOL    HW2 3594   4.732   5.999   4.118
  899SOL     OW 3595   0.487   5.199   0.213
  899SOL    HW1 3596   0.429   5.280   0.218
  899SOL    HW2 3597   0.476   5.155   0.124
  900SOL     OW 3598   5.840   5.991   1.542
  900SOL    HW1 3599   5.819   5.937   1.460
  900SOL    HW2 3600   5.886   6.075   1.516
  901SOL     OW 3601   0.516   1.867   4.824
  901SOL    HW1 3602   0.511   1.786   4.765
  901SOL    HW2 3603   0.597   1.920   4.800
  902SOL     OW 3604   0.062   0.754   6.318
  902SOL    HW1 3605   0.005   0.763   6.237
  902SOL    HW2 3606   0.154   0.788   6.299
  903SOL     OW 3607   6.618   4.503   0.045
  903SOL    HW1 3608   6.707   4.492   0.088
  903SOL    HW2 3609   6.623   4.474   6.974
  904SOL     OW 3610   1.459   1.974   4.121
  904SOL    HW1 3611   1.485   2.062   4.161
  904SOL    HW2 3612   1.366   1.951   4.148
  905SOL     OW 3613   5.197   2.489   6.859
  905SOL    HW1 3614   5.151   2.448   6.780
  905SOL    HW2 3615   5.256   2.563   6.829
  906SOL     OW 3616   0.390   3.950   6.684
  906SOL    HW1 3617   0.406   3.894   6.766
  906SOL    HW2 3618   0.421   4.043   6.701
  907SOL     OW 3619   6.019   2.426   3.021
  907SOL    HW1 3620   5.951   2.401   3.090
  907SOL    HW2 3621   6.007   2.521   2.996
  908SOL     OW 3622   1.191   0.174   3.879
  908SOL    HW1 3623   1.143   0.236   3.816
  908SOL    HW2 3624   1.140   0.088   3.887
  909SOL     OW 3625   2.538   1.067   0.656
  909SOL    HW1 3626   2.594   0.986   0.674
  909SOL    HW2 3627   2.588   1.128   0.594
  910SOL     OW 3628   1.850   0.295   0.664
  910SOL    HW1 3629   1.943   0.260   0.676
  910SOL    HW2 3630   1.854   0.389   0.631
  911SOL     OW 3631   0.486   4.757   1.363
  911SOL    HW1 3632   0.505   4.820   1.288
  911SOL    HW2 3633   0.390   4.767   1.391
  912SOL     OW 3634   0.742   1.841   5.787
  912SOL    HW1 3635   0.704   1.919   5.836
  912SOL    HW2 3636   0.729   1.758   5.842
  913SOL     OW 3637   2.208   0.955   3.405
  913SOL    HW1 3638   2.199   0.859   3.432
  913SOL    HW2 3639   2.211   1.012   3.487
  914SOL     OW 3640   2.483   5.632   4.985
  914SOL    HW1 3641   2.543   5.586   4.919
  914SOL    HW2 3642   2.400   5.663   4.938
  915SOL     OW 3643   0.440   3.344   0.891
  915SOL    HW1 3644   0.451   3.385   0.800
  915SOL    HW2 3645   0.513   3.377   0.951
  916SOL     OW 3646   2.006   1.897   1.624
  916SOL    HW1 3647   2.059   1.853   1.552
  916SOL    HW2 3648   1.996   1.994   1.604
  917SOL     OW 3649   3.951   0.780   1.147
  917SOL    HW1 3650   4.005   0.696   1.142
  917SOL    HW2 3651   3.854   0.758   1.137
  918SOL     OW 3652   3.239   6.186   6.734
  918SOL    HW1 3653   3.147   6.150   6.753
  918SOL    HW2 3654   3.297   6.112   6.701
  919SOL     OW 3655   1.405   6.418   2.091
  919SOL    HW1 3656   1.320   6.426   2.040
  919SOL    HW2 3657   1.457   6.503   2.083
  920SOL     OW 3658   2.376   0.665   2.716
  920SOL    HW1 3659   2.313   0.712   2.655
  920SOL    HW2 3660   2.447   0.619   2.662
  921SOL     OW 3661   5.744   4.590   3.899
  921SOL    HW1 3662   5.738   4.503   3.948
  921SOL    HW2 3663   5.725   4.665   3.961
  922SOL     OW 3664   3.247   3.350   6.564
  922SOL    HW1 3665   3.291   3.405   6.635
  922SOL    HW2 3666   3.234   3.406   6.482
  923SOL     OW 3667   2.759   6.059   0.274
  923SOL    HW1 3668   2.826   6.133   0.266
  923SOL    HW2 3669   2.724   6.036   0.183
  924SOL     OW 3670   5.351   3.165   2.357
  924SOL    HW1 3671   5.372   3.140   2.262
  924SOL    HW2 3672   5.264   3.122   2.384
  925SOL     OW 3673   6.983   1.874   5.805
  925SOL    HW1 3674   6.968   1.816   5.884
  925SOL    HW2 3675   0.037   1.840   5.753
  926SOL     OW 3676   5.713   0.215   0.316
  926SOL    HW1 3677   5.740   0.303   0.356
  926SOL    HW2 3678   5.636   0.178   0.367
  927SOL     OW 3679   4.920   4.337   3.989
  927SOL    HW1 3680   4.899   4.245   3.957
  927SOL    HW2 3681   4.856   4.362   4.062
  928SOL     OW 3682   1.496   6.976   0.748
  928SOL    HW1 3683   1.477   0.021   0.679
  928SOL    HW2 3684   1.594   6.972   0.766
  929SOL     OW 3685   6.693   2.372   2.222
  929SOL    HW1 3686   6.737   2.446   2.172
  929SOL    HW2 3687   6.698   2.391   2.320
  930SOL     OW 3688   6.844   5.237   4.257
  930SOL    HW1 3689   6.752   5.203   4.239
  930SOL    HW2 3690   6.899   5.164   4.297
  931SOL     OW 3691   0.344   3.507   2.970
  931SOL    HW1 3692   0.329   3.520   2.872
  931SOL    HW2 3693   0.305   3.420   2.999
  932SOL     OW 3694   3.498   6.289   1.901
  932SOL    HW1 3695   3.484   6.317   1.805
  932SOL    HW2 3696   3.529   6.194   1.904
  933SOL     OW 3697   0.984   4.590   3.334
  933SOL    HW1 3698   0.960   4.551   3.423
  933SOL    HW2 3699   0.911   4.650   3.303
  934SOL     OW 3700   2.774   1.555   4.673
  934SOL    HW1 3701   2.839   1.630   4.688
  934SOL    HW2 3702   2.822   1.467   4.680
  935SOL     OW 3703   4.665   4.011   5.904
  935SOL    HW1 3704   4.621   4.077   5.844
  935SOL    HW2 3705   4.733   4.057   5.961
  936SOL     OW 3706   0.504   6.679   0.398
  936SOL    HW1 3707   0.513   6.649   0.493
  936SOL    HW2 3708   0.429   6.745   0.390
  937SOL     OW 3709   4.544   1.816   4.901
  937SOL    HW1 3710   4.463   1.822   4.843
  937SOL    HW2 3711   4.568   1.907   4.934
  938SOL     OW 3712   0.205   4.161   6.570
  938SOL    HW1 3713   0.247   4.090   6.627
  938SOL    HW2 3714   0.187   4.242   6.626
  939SOL     OW 3715   5.146   1.232   5.770
  939SOL    HW1 3716   5.105   1.238   5.860
  939SOL    HW2 3717   5.175   1.137   5.753
  940SOL     OW 3718   6.787   1.854   2.949
  940SOL    HW1 3719   6.814   1.769   2.902
  940SOL    HW2 3720   6.688   1.862   2.949
  941SOL     OW 3721   6.256   0.920   3.725
  941SOL    HW1 3722   6.356   0.921   3.715
  941SOL    HW2 3723   6.226   0.827   3.748
  942SOL     OW 3724   4.815   0.343   4.936
  942SOL    HW1 3725   4.723   0.359   4.900
  942SOL    HW2 3726   4.872   0.303   4.865
  943SOL     OW 3727   0.472   3.404   2.153
  943SOL    HW1 3728   0.393   3.403   2.214
  943SOL    HW2 3729   0.510   3.312   2.147
  944SOL     OW 3730   6.391   3.375   5.084
  944SOL    HW1 3731   6.461   3.445   5.067
  944SOL    HW2 3732   6.319   3.414   5.141
  945SOL     OW 3733   5.141   4.740   4.517
  945SOL    HW1 3734   5.103   4.828   4.548
  945SOL    HW2 3735   5.202   4.703   4.587
  946SOL     OW 3736   5.956   2.800   6.265
  946SOL    HW1 3737   5.910   2.832   6.182
  946SOL    HW2 3738   5.981   2.878   6.322
  947SOL     OW 3739   3.001   3.420   5.797
  947SOL    HW1 3740   3.039   3.486   5.732
  947SOL    HW2 3741   3.026   3.328   5.768
  948SOL     OW 3742   4.159   0.914   0.559
  948SOL    HW1 3743   4.162   0.941   0.655
  948SOL    HW2 3744   4.106   0.981   0.507
  949SOL     OW 3745   6.750   6.239   6.018
  949SOL    HW1 3746   6.692   6.187   6.080
  949SOL    HW2 3747   6.696   6.271   5.940
  950SOL     OW 3748   3.902   5.208   2.359
  950SOL    HW1 3749   3.985   5.262   2.342
  950SOL    HW2 3750   3.926   5.111   2.365
  951SOL     OW 3751   1.139   0.271   2.017
  951SOL    HW1 3752   1.159   0.272   2.115
  951SOL    HW2 3753   1.043   0.246   2.003
  952SOL     OW 3754   5.503   1.827   2.527
  952SOL    HW1 3755   5.502   1.885   2.446
  952SOL    HW2 3756   5.595   1.825   2.566
  953SOL     OW 3757   4.326   5.696   5.752
  953SOL    HW1 3758   4.388   5.670   5.678
  953SOL    HW2 3759   4.376   5.699   5.838
  954SOL     OW 3760   5.865   0.273   0.858
  954SOL    HW1 3761   5.863   0.192   0.798
  954SOL    HW2 3762   5.909   0.349   0.810
  955SOL     OW 3763   0.632   4.992   3.897
  955SOL    HW1 3764   0.730   4.984   3.878
  955SOL    HW2 3765   0.598   5.078   3.859
  956SOL     OW 3766   0.920   1.720   1.187
  956SOL    HW1 3767   0.938   1.674   1.100
  956SOL    HW2 3768   0.850   1.790   1.174
  957SOL     OW 3769   1.588   4.528   5.230
  957SOL    HW1 3770   1.556   4.490   5.316
  957SOL    HW2 3771   1.618   4.623   5.244
  958SOL     OW 3772   4.995   1.724   0.830
  958SOL    HW1 3773   5.093   1.728   0.850
  958SOL    HW2 3774   4.947   1.788   0.889
  959SOL     OW 3775   2.821   4.788   2.959
  959SOL    HW1 3776   2.724   4.764   2.952
  959SOL    HW2 3777   2.839   4.830   3.048
  960SOL     OW 3778   1.062   5.829   3.821
  960SOL    HW1 3779   1.123   5.769   3.768
  960SOL    HW2 3780   1.117   5.897   3.870
  961SOL     OW 3781   4.286   6.716   2.509
  961SOL    HW1 3782   4.376   6.748   2.479
  961SOL    HW2 3783   4.292   6.688   2.605
  962SOL     OW 3784   1.597   1.121   3.598
  962SOL    HW1 3785   1.558   1.135   3.689
  962SOL    HW2 3786   1.681   1.174   3.588
  963SOL     OW 3787   5.963   0.118   0.395
  963SOL    HW1 3788   6.027   0.195   0.393
  963SOL    HW2 3789   5.883   0.140   0.338
  964SOL     OW 3790   5.387   3.448   0.939
  964SOL    HW1 3791   5.465   3.419   0.995
  964SOL    HW2 3792   5.344   3.528   0.981
  965SOL     OW 3793   6.190   1.812   0.670
  965SOL    HW1 3794   6.122   1.864   0.721
  965SOL    HW2 3795   6.242   1.753   0.733
  966SOL     OW 3796   5.764   1.507   2.742
  966SOL    HW1 3797   5.701   1.482   2.668
  966SOL    HW2 3798   5.751   1.445   2.819
  967SOL     OW 3799   1.600   5.315   0.618
  967SOL    HW1 3800   1.668   5.280   0.553
  967SOL    HW2 3801   1.588   5.248   0.692
  968SOL     OW 3802   4.594   2.405   2.374
  968SOL    HW1 3803   4.617   2.457   2.292
  968SOL    HW2 3804   4.590   2.467   2.453
  969SOL     OW 3805   3.229   5.866   5.255
  969SOL    HW1 3806   3.227   5.908   5.346
  969SOL    HW2 3807   3.210   5.769   5.263
  970SOL     OW 3808   5.232   1.674   4.980
  970SOL    HW1 3809   5.288   1.713   5.053
  970SOL    HW2 3810   5.166   1.610   5.018
  971SOL     OW 3811   0.197   1.185   2.450
  971SOL    HW1 3812   0.198   1.262   2.513
  971SOL    HW2 3813   0.231   1.103   2.497
  972SOL     OW 3814   5.766   4.388   0.696
  972SOL    HW1 3815   5.805   4.393   0.788
  972SOL    HW2 3816   5.731   4.478   0.670
  973SOL     OW 3817   0.394   5.056   6.715
  973SOL    HW1 3818   0.341   5.004   6.648
  973SOL    HW2 3819   0.490   5.058   6.688
  974SOL     OW 3820   3.702   0.784   2.314
  974SOL    HW1 3821   3.782   0.768   2.373
  974SOL    HW2 3822   3.712   0.730   2.230
  975SOL     OW 3823   2.712   6.266   6.651
  975SOL    HW1 3824   2.699   6.362   6.624
  975SOL    HW2 3825   2.705   6.259   6.751
  976SOL     OW 3826   6.701   2.490   2.476
  976SOL    HW1 3827   6.606   2.521   2.473
  976SOL    HW2 3828   6.762   2.569   2.464
  977SOL     OW 3829   2.148   1.417   4.465
  977SOL    HW1 3830   2.139   1.436   4.563
  977SOL    HW2 3831   2.064   1.376   4.431
  978SOL     OW 3832   5.169   4.083   4.647
  978SOL    HW1 3833   5.154   4.155   4.716
  978SOL    HW2 3834   5.195   3.998   4.693
  979SOL     OW 3835   6.267   1.137   3.020
  979SOL    HW1 3836   6.323   1.122   2.939
  979SOL    HW2 3837   6.316   1.198   3.083
  980SOL     OW 3838   5.381   1.948   3.653
  980SOL    HW1 3839   5.335   2.021   3.704
  980SOL    HW2 3840   5.355   1.859   3.692
  981SOL     OW 3841   1.701   2.049   4.945
  981SOL    HW1 3842   1.751   2.000   5.016
  981SOL    HW2 3843   1.723   2.147   4.950
  982SOL     OW 3844   2.026   2.547   2.816
  982SOL    HW1 3845   2.045   2.532   2.718
  982SOL    HW2 3846   2.022   2.645   2.835
  983SOL     OW 3847   5.968   2.712   3.616
  983SOL    HW1 3848   5.978   2.676   3.708
  983SOL    HW2 3849   6.012   2.802   3.610
  984SOL     OW 3850   3.345   0.698   5.105
  984SOL    HW1 3851   3.336   0.624   5.038
  984SOL    HW2 3852   3.399   0.773   5.065
  985SOL     OW 3853   4.805   4.681   6.423
  985SOL    HW1 3854   4.846   4.698   6.333
  985SOL    HW2 3855   4.868   4.711   6.495
  986SOL     OW 3856   5.587   5.474   6.985
  986SOL    HW1 3857   5.639   5.539   0.015
  986SOL    HW2 3858   5.511   5.438   0.015
  987SOL     OW 3859   4.155   6.991   0.983
  987SOL    HW1 3860   4.193   0.006   1.066
  987SOL    HW2 3861   4.180   6.894   0.977
  988SOL     OW 3862   4.189   2.654   1.324
  988SOL    HW1 3863   4.144   2.649   1.413
  988SOL    HW2 3864   4.289   2.654   1.337
  989SOL     OW 3865   0.338   0.861   5.956
  989SOL    HW1 3866   0.332   0.960   5.967
  989SOL    HW2 3867   0.398   0.840   5.879
  990SOL     OW 3868   5.314   6.818   3.796
  990SOL    HW1 3869   5.406   6.781   3.783
  990SOL    HW2 3870   5.319   6.901   3.851
  991SOL     OW 3871   1.513   1.572   5.116
  991SOL    HW1 3872   1.457   1.653   5.105
  991SOL    HW2 3873   1.530   1.531   5.026
  992SOL     OW 3874   0.559   2.930   0.454
  992SOL    HW1 3875   0.516   3.016   0.429
  992SOL    HW2 3876   0.652   2.947   0.487
  993SOL     OW 3877   1.950   5.065   2.525
  993SOL    HW1 3878   1.962   5.105   2.434
  993SOL    HW2 3879   1.883   5.118   2.576
  994SOL     OW 3880   3.642   3.680   3.101
  994SOL    HW1 3881   3.661   3.687   3.199
  994SOL    HW2 3882   3.599   3.592   3.082
  995SOL     OW 3883   2.502   2.612   6.401
  995SOL    HW1 3884   2.422   2.646   6.450
  995SOL    HW2 3885   2.476   2.532   6.346
  996SOL     OW 3886   1.633   3.670   3.865
  996SOL    HW1 3887   1.579   3.592   3.898
  996SOL    HW2 3888   1.681   3.713   3.941
  997SOL     OW 3889   0.062   0.149   1.361
  997SOL    HW1 3890   0.085   0.245   1.343
  997SOL    HW2 3891   0.009   0.144   1.446
  998SOL     OW 3892   4.808   6.866   3.560
  998SOL    HW1 3893   4.871   6.904   3.492
  998SOL    HW2 3894   4.803   6.767   3.550
  999SOL     OW 3895   5.441   5.428   1.399
  999SOL    HW1 3896   5.485   5.338   1.403
  999SOL    HW2 3897   5.341   5.416   1.401
 1000SOL     OW 3898   0.809   0.938   2.612
 1000SOL    HW1 3899   0.767   1.027   2.630
 1000SOL    HW2 3900   0.742   0.865   2.625
 1001SOL     OW 3901   4.466   6.964   6.640
 1001SOL    HW1 3902   4.429   6.912   6.718
 1001SOL    HW2 3903   4.391   6.996   6.583
 1002SOL     OW 3904   5.602   1.806   6.539
 1002SOL    HW1 3905   5.617   1.833   6.635
 1002SOL    HW2 3906   5.504   1.797   6.522
 1003SOL     OW 3907   2.701   6.926   1.647
 1003SOL    HW1 3908   2.722   7.006   1.592
 1003SOL    HW2 3909   2.785   6.883   1.678
 1004SOL     OW 3910   6.819   0.729   0.178
 1004SOL    HW1 3911   6.742   0.763   0.123
 1004SOL    HW2 3912   6.853   0.802   0.237
 1005SOL     OW 3913   6.763   0.891   3.017
 1005SOL    HW1 3914   6.715   0.934   2.940
 1005SOL    HW2 3915   6.854   0.929   3.026
 1006SOL     OW 3916   2.384   6.126   1.529
 1006SOL    HW1 3917   2.329   6.176   1.462
 1006SOL    HW2 3918   2.338   6.129   1.618
 1007SOL     OW 3919   6.103   0.065   3.538
 1007SOL    HW1 3920   6.130   6.994   3.550
 1007SOL    HW2 3921   6.160   0.107   3.468
 1008SOL     OW 3922   1.432   2.935   4.184
 1008SOL    HW1 3923   1.512   2.990   4.203
 1008SOL    HW2 3924   1.445   2.842   4.219
 1009SOL     OW 3925   6.961   5.656   3.796
 1009SOL    HW1 3926   6.931   5.751   3.807
 1009SOL    HW2 3927   7.016   5.649   3.713
 1010SOL     OW 3928   4.081   2.679   0.201
 1010SOL    HW1 3929   4.075   2.711   0.107
 1010SOL    HW2 3930   4.077   2.579   0.203
 1011SOL     OW 3931   2.500   5.533   3.217
 1011SOL    HW1 3932   2.422   5.582   3.180
 1011SOL    HW2 3933   2.512   5.447   3.166
 1012SOL     OW 3934   6.503   5.163   0.124
 1012SOL    HW1 3935   6.471   5.090   0.185
 1012SOL    HW2 3936   6.494   5.133   0.029
 1013SOL     OW 3937   0.516   1.483   6.474
 1013SOL    HW1 3938   0.531   1.400   6.419
 1013SOL    HW2 3939   0.581   1.554   6.447
 1014SOL     OW 3940   5.184   5.728   0.166
 1014SOL    HW1 3941   5.163   5.753   0.071
 1014SOL    HW2 3942   5.177   5.629   0.177
 1015SOL     OW 3943   3.107   6.770   5.352
 1015SOL    HW1 3944   3.039   6.792   5.423
 1015SOL    HW2 3945   3.061   6.724   5.276
 1016SOL     OW 3946   2.307   2.925   0.698
 1016SOL    HW1 3947   2.325   2.995   0.767
 1016SOL    HW2 3948   2.289   2.969   0.610
 1017SOL     OW 3949   4.629   2.973   0.552
 1017SOL    HW1 3950   4.571   3.029   0.611
 1017SOL    HW2 3951   4.724   2.982   0.582
 1018SOL     OW 3952   1.824   3.381   3.671
 1018SOL    HW1 3953   1.852   3.461   3.617
 1018SOL    HW2 3954   1.857   3.391   3.765
 1019SOL     OW 3955   0.576   0.791   0.268
 1019SOL    HW1 3956   0.537   0.710   0.223
 1019SOL    HW2 3957   0.671   0.773   0.293
 1020SOL     OW 3958   1.396   6.937   1.239
 1020SOL    HW1 3959   1.409   0.007   1.209
 1020SOL    HW2 3960   1.467   6.911   1.304
 1021SOL     OW 3961   6.303   0.947   0.588
 1021SOL    HW1 3962   6.239   1.019   0.614
 1021SOL    HW2 3963   6.263   0.858   0.610
 1022SOL     OW 3964   4.022   5.043   5.933
 1022SOL    HW1 3965   4.069   5.086   6.010
 1022SOL    HW2 3966   4.030   4.944   5.940
 1023SOL     OW 3967   6.737   6.855   2.586
 1023SOL    HW1 3968   6.713   6.768   2.629
 1023SOL    HW2 3969   6.796   6.907   2.647
 1024SOL     OW 3970   6.625   3.056   4.316
 1024SOL    HW1 3971   6.544   3.005   4.287
 1024SOL    HW2 3972   6.612   3.089   4.410
 1025SOL     OW 3973   3.812   4.389   0.400
 1025SOL    HW1 3974   3.738   4.322   0.404
 1025SOL    HW2 3975   3.838   4.403   0.304
 1026SOL     OW 3976   1.004   1.724   0.541
 1026SOL    HW1 3977   1.019   1.820   0.563
 1026SOL    HW2 3978   1.091   1.683   0.512
 1027SOL     OW 3979   2.933   5.778   1.432
 1027SOL    HW1 3980   3.012   5.836   1.411
 1027SOL    HW2 3981   2.944   5.739   1.524
 1028SOL     OW 3982   2.979   5.856   0.076
 1028SOL    HW1 3983   2.957   5.762   0.100
 1028SOL    HW2 3984   2.894   5.907   0.061
 1029SOL     OW 3985   1.907   0.510   0.359
 1029SOL    HW1 3986   1.906   0.610   0.363
 1029SOL    HW2 3987   1.949   0.480   0.273
 1030SOL     OW 3988   3.666   3.237   3.076
 1030SOL    HW1 3989   3.736   3.302   3.106
 1030SOL    HW2 3990   3.701   3.184   2.999
 1031SOL     OW 3991   4.688   5.000   0.890
 1031SOL    HW1 3992   4.715   5.075   0.950
 1031SOL    HW2 3993   4.729   4.915   0.923
 1032SOL     OW 3994   1.434   1.990   4.896
 1032SOL    HW1 3995   1.375   2.070   4.909
 1032SOL    HW2 3996   1.529   2.015   4.918
 1033SOL     OW 3997   1.307   6.922   1.613
 1033SOL    HW1 3998   1.395   6.970   1.619
 1033SOL    HW2 3999   1.322   6.824   1.625
 1034SOL     OW 4000   1.689   6.594   4.374
 1034SOL    HW1 4001   1.670   6.664   4.443
 1034SOL    HW2 4002   1.603   6.565   4.332
 1035SOL     OW 4003   2.842   1.781   3.287
 1035SOL    HW1 4004   2.902   1.861   3.285
 1035SOL    HW2 4005   2.748   1.810   3.272
 1036SOL     OW 4006   3.546   0.256   0.953
 1036SOL    HW1 4007   3.637   0.251   0.913
 1036SOL    HW2 4008   3.553   0.280   1.050
 1037SOL     OW 4009   1.107   1.197   0.934
 1037SOL    HW1 4010   1.141   1.189   1.028
 1037SOL    HW2 4011   1.134   1.285   0.896
 1038SOL     OW 4012   1.190   0.804   5.841
 1038SOL    HW1 4013   1.283   0.769   5.845
 1038SOL    HW2 4014   1.158   0.803   5.746
 1039SOL     OW 4015   4.379   2.480   5.638
 1039SOL    HW1 4016   4.359   2.529   5.553
 1039SOL    HW2 4017   4.476   2.488   5.660
 1040SOL     OW 4018   5.409   3.010   3.116
 1040SOL    HW1 4019   5.479   2.996   3.046
 1040SOL    HW2 4020   5.412   2.934   3.181
 1041SOL     OW 4021   6.679   7.001   4.051
 1041SOL    HW1 4022   6.600   0.013   4.001
 1041SOL    HW2 4023   6.762   7.015   3.998
 1042SOL     OW 4024   3.361   5.019   2.535
 1042SOL    HW1 4025   3.419   5.086   2.489
 1042SOL    HW2 4026   3.413   4.973   2.607
 1043SOL     OW 4027   4.177   1.240   5.699
 1043SOL    HW1 4028   4.151   1.163   5.758
 1043SOL    HW2 4029   4.192   1.321   5.755
 1044SOL     OW 4030   4.351   2.474   1.707
 1044SOL    HW1 4031   4.425   2.410   1.691
 1044SOL    HW2 4032   4.366   2.522   1.794
 1045SOL     OW 4033   2.926   6.970   1.332
 1045SOL    HW1 4034   2.973   6.889   1.297
 1045SOL    HW2 4035   2.994   0.017   1.353
 1046SOL     OW 4036   2.349   6.915   6.507
 1046SOL    HW1 4037   2.366   6.839   6.569
 1046SOL    HW2 4038   2.261   6.900   6.460
 1047SOL     OW 4039   1.586   5.190   3.036
 1047SOL    HW1 4040   1.502   5.240   3.017
 1047SOL    HW2 4041   1.566   5.092   3.041
 1048SOL     OW 4042   4.487   5.653   5.227
 1048SOL    HW1 4043   4.391   5.661   5.253
 1048SOL    HW2 4044   4.501   5.695   5.138
 1049SOL     OW 4045   0.569   4.233   4.621
 1049SOL    HW1 4046   0.603   4.169   4.690
 1049SOL    HW2 4047   0.570   4.188   4.531
 1050SOL     OW 4048   2.561   5.536   1.292
 1050SOL    HW1 4049   2.583   5.633   1.296
 1050SOL    HW2 4050   2.598   5.496   1.208
 1051SOL     OW 4051   3.803   4.926   0.333
 1051SOL    HW1 4052   3.808   4.912   0.432
 1051SOL    HW2 4053   3.709   4.948   0.307
 1052SOL     OW 4054   4.630   0.243   4.019
 1052SOL    HW1 4055   4.722   0.210   4.001
 1052SOL    HW2 4056   4.621   0.264   4.116
 1053SOL     OW 4057   5.672   5.818   3.381
 1053SOL    HW1 4058   5.682   5.878   3.460
 1053SOL    HW2 4059   5.699   5.868   3.298
 1054SOL     OW 4060   2.476   4.896   5.517
 1054SOL    HW1 4061   2.467   4.911   5.616
 1054SOL    HW2 4062   2.506   4.802   5.500
 1055SOL     OW 4063   5.547   6.416   4.475
 1055SOL    HW1 4064   5.582   6.469   4.553
 1055SOL    HW2 4065   5.620   6.403   4.408
 1056SOL     OW 4066   1.547   6.659   5.348
 1056SOL    HW1 4067   1.547   6.588   5.418
 1056SOL    HW2 4068   1.613   6.637   5.276
 1057SOL     OW 4069   3.020   3.757   3.312
 1057SOL    HW1 4070   2.942   3.733   3.254
 1057SOL    HW2 4071   3.095   3.693   3.294
 1058SOL     OW 4072   4.717   1.544   2.610
 1058SOL    HW1 4073   4.620   1.564   2.600
 1058SOL    HW2 4074   4.768   1.589   2.536
 1059SOL     OW 4075   2.874   0.541   1.780
 1059SOL    HW1 4076   2.974   0.535   1.776
 1059SOL    HW2 4077   2.848   0.620   1.836
 1060SOL     OW 4078   0.097   3.935   5.563
 1060SOL    HW1 4079   0.032   3.952   5.638
 1060SOL    HW2 4080   0.120   4.022   5.520
 1061SOL     OW 4081   4.456   4.505   1.309
 1061SOL    HW1 4082   4.452   4.418   1.261
 1061SOL    HW2 4083   4.370   4.521   1.358
 1062SOL     OW 4084   6.819   5.961   5.918
 1062SOL    HW1 4085   6.865   5.975   6.006
 1062SOL    HW2 4086   6.878   5.992   5.844
 1063SOL     OW 4087   1.036   4.273   1.491
 1063SOL    HW1 4088   1.126   4.255   1.451
 1063SOL    HW2 4089   0.968   4.219   1.443
 1064SOL     OW 4090   1.010   3.897   2.424
 1064SOL    HW1 4091   1.013   3.856   2.333
 1064SOL    HW2 4092   1.098   3.885   2.469
 1065SOL     OW 4093   4.454   0.692   5.144
 1065SOL    HW1 4094   4.524   0.630   5.108
 1065SOL    HW2 4095   4.488   0.734   5.228
 1066SOL     OW 4096   5.080   0.339   4.057
 1066SOL    HW1 4097   5.000   0.351   3.999
 1066SOL    HW2 4098   5.054   0.290   4.140
 1067SOL     OW 4099   1.266   2.890   0.761
 1067SOL    HW1 4100   1.311   2.977   0.743
 1067SOL    HW2 4101   1.320   2.836   0.826
 1068SOL     OW 4102   5.855   3.495   1.872
 1068SOL    HW1 4103   5.863   3.585   1.829
 1068SOL    HW2 4104   5.846   3.425   1.800
 1069SOL     OW 4105   4.704   4.856   1.204
 1069SOL    HW1 4106   4.748   4.938   1.168
 1069SOL    HW2 4107   4.774   4.788   1.226
 1070SOL     OW 4108   0.727   1.007   6.528
 1070SOL    HW1 4109   0.751   0.936   6.594
 1070SOL    HW2 4110   0.809   1.057   6.501
 1071SOL     OW 4111   3.998   0.532   3.463
 1071SOL    HW1 4112   3.963   0.623   3.485
 1071SOL    HW2 4113   4.020   0.483   3.548
 1072SOL     OW 4114   1.965   6.173   2.402
 1072SOL    HW1 4115   1.939   6.266   2.428
 1072SOL    HW2 4116   1.887   6.127   2.360
 1073SOL     OW 4117   3.487   5.641   2.415
 1073SOL    HW1 4118   3.505   5.714   2.480
 1073SOL    HW2 4119   3.450   5.679   2.330
 1074SOL     OW 4120   1.923   5.681   1.980
 1074SOL    HW1 4121   1.952   5.703   2.073
 1074SOL    HW2 4122   1.823   5.682   1.974
 1075SOL     OW 4123   4.682   5.047   3.293
 1075SOL    HW1 4124   4.750   5.120   3.302
 1075SOL    HW2 4125   4.591   5.087   3.283
 1076SOL     OW 4126   0.801   4.647   5.091
 1076SOL    HW1 4127   0.823   4.742   5.113
 1076SOL    HW2 4128   0.733   4.646   5.017
 1077SOL     OW 4129   5.908   6.888   0.265
 1077SOL    HW1 4130   5.964   6.962   0.302
 1077SOL    HW2 4131   5.899   6.816   0.333
 1078SOL     OW 4132   1.592   1.181   1.998
 1078SOL    HW1 4133   1.670   1.229   2.039
 1078SOL    HW2 4134   1.509   1.235   2.009
 1079SOL     OW 4135   1.876   5.050   3.343
 1079SOL    HW1 4136   1.926   5.135   3.355
 1079SOL    HW2 4137   1.936   4.981   3.301
 1080SOL     OW 4138   2.150   4.398   3.473
 1080SOL    HW1 4139   2.122   4.491   3.449
 1080SOL    HW2 4140   2.110   4.334   3.408
 1081SOL     OW 4141   0.200   1.475   5.440
 1081SOL    HW1 4142   0.296   1.487   5.414
 1081SOL    HW2 4143   0.144   1.541   5.390
 1082SOL     OW 4144   1.536   0.273   5.945
 1082SOL    HW1 4145   1.442   0.245   5.964
 1082SOL    HW2 4146   1.599   0.203   5.979
 1083SOL     OW 4147   3.525   4.074   2.044
 1083SOL    HW1 4148   3.479   4.163   2.037
 1083SOL    HW2 4149   3.564   4.050   1.955
 1084SOL     OW 4150   6.555   5.226   0.924
 1084SOL    HW1 4151   6.511   5.242   0.836
 1084SOL    HW2 4152   6.532   5.299   0.988
 1085SOL     OW 4153   1.915   3.632   3.665
 1085SOL    HW1 4154   1.934   3.663   3.572
 1085SOL    HW2 4155   1.830   3.674   3.697
 1086SOL     OW 4156   6.070   5.487   2.980
 1086SOL    HW1 4157   6.088   5.414   3.047
 1086SOL    HW2 4158   5.974   5.513   2.985
 1087SOL     OW 4159   5.475   2.997   5.778
 1087SOL    HW1 4160   5.391   3.019   5.827
 1087SOL    HW2 4161   5.502   3.075   5.721
 1088SOL     OW 4162   6.274   4.873   3.424
 1088SOL    HW1 4163   6.259   4.950   3.362
 1088SOL    HW2 4164   6.346   4.814   3.387
 1089SOL     OW 4165   0.875   0.450   4.266
 1089SOL    HW1 4166   0.805   0.503   4.219
 1089SOL    HW2 4167   0.944   0.512   4.304
 1090SOL     OW 4168   2.982   1.402   4.046
 1090SOL    HW1 4169   3.059   1.411   3.983
 1090SOL    HW2 4170   2.972   1.486   4.099
 1091SOL     OW 4171   1.912   2.104   4.006
 1091SOL    HW1 4172   1.934   2.006   4.000
 1091SOL    HW2 4173   1.828   2.122   3.956
 1092SOL     OW 4174   1.950   3.879   1.532
 1092SOL    HW1 4175   1.981   3.879   1.437
 1092SOL    HW2 4176   1.937   3.974   1.562
 1093SOL     OW 4177   1.900   1.667   2.974
 1093SOL    HW1 4178   1.887   1.743   2.910
 1093SOL    HW2 4179   1.998   1.653   2.990
 1094SOL     OW 4180   6.992   6.646   2.705
 1094SOL    HW1 4181   6.980   6.706   2.626
 1094SOL    HW2 4182   0.044   6.583   2.688
 1095SOL     OW 4183   6.349   2.145   5.947
 1095SOL    HW1 4184   6.421   2.182   6.006
 1095SOL    HW2 4185   6.378   2.151   5.852
 1096SOL     OW 4186   3.418   4.960   1.568
 1096SOL    HW1 4187   3.439   5.056   1.548
 1096SOL    HW2 4188   3.342   4.930   1.510
 1097SOL     OW 4189   1.115   4.740   4.784
 1097SOL    HW1 4190   1.123   4.798   4.864
 1097SOL    HW2 4191   1.019   4.713   4.772
 1098SOL     OW 4192   5.396   2.570   1.008
 1098SOL    HW1 4193   5.480   2.567   0.953
 1098SOL    HW2 4194   5.317   2.557   0.948
 1099SOL     OW 4195   4.176   1.573   4.794
 1099SOL    HW1 4196   4.200   1.662   4.755
 1099SOL    HW2 4197   4.246   1.545   4.860
 1100SOL     OW 4198   1.564   1.657   6.322
 1100SOL    HW1 4199   1.524   1.727   6.381
 1100SOL    HW2 4200   1.519   1.660   6.232
 1101SOL     OW 4201   5.426   3.166   1.296
 1101SOL    HW1 4202   5.333   3.167   1.260
 1101SOL    HW2 4203   5.472   3.082   1.266
 1102SOL     OW 4204   1.297   4.981   3.666
 1102SOL    HW1 4205   1.374   4.929   3.703
 1102SOL    HW2 4206   1.328   5.036   3.589
 1103SOL     OW 4207   2.333   0.719   1.588
 1103SOL    HW1 4208   2.347   0.625   1.618
 1103SOL    HW2 4209   2.306   0.776   1.666
 1104SOL     OW 4210   2.019   4.411   6.199
 1104SOL    HW1 4211   2.015   4.508   6.175
 1104SOL    HW2 4212   2.046   4.358   6.118
 1105SOL     OW 4213   4.742   4.311   6.198
 1105SOL    HW1 4214   4.727   4.354   6.287
 1105SOL    HW2 4215   4.782   4.220   6.210
 1106SOL     OW 4216   1.349   1.763   6.864
 1106SOL    HW1 4217   1.250   1.762   6.879
 1106SOL    HW2 4218   1.394   1.799   6.946
 1107SOL     OW 4219   0.726   0.150   6.730
 1107SOL    HW1 4220   0.677   0.087   6.670
 1107SOL    HW2 4221   0.791   0.098   6.786
 1108SOL     OW 4222   2.623   0.486   5.749
 1108SOL    HW1 4223   2.562   0.514   5.675
 1108SOL    HW2 4224   2.575   0.493   5.837
 1109SOL     OW 4225   4.068   5.214   4.498
 1109SOL    HW1 4226   4.050   5.290   4.561
 1109SOL    HW2 4227   4.120   5.248   4.419
 1110SOL     OW 4228   3.490   1.905   1.837
 1110SOL    HW1 4229   3.439   1.823   1.812
 1110SOL    HW2 4230   3.433   1.964   1.894
 1111SOL     OW 4231   5.399   6.129   0.020
 1111SOL    HW1 4232   5.383   6.137   0.119
 1111SOL    HW2 4233   5.486   6.173   7.021
 1112SOL     OW 4234   6.040   1.018   2.489
 1112SOL    HW1 4235   6.061   1.069   2.406
 1112SOL    HW2 4236   6.105   0.943   2.500
 1113SOL     OW 4237   6.110   3.003   2.503
 1113SOL    HW1 4238   6.196   3.043   2.471
 1113SOL    HW2 4239   6.113   2.904   2.491
 1114SOL     OW 4240   4.831   1.251   6.364
 1114SOL    HW1 4241   4.821   1.272   6.462
 1114SOL    HW2 4242   4.928   1.244   6.341
 1115SOL     OW 4243   4.416   2.933   0.161
 1115SOL    HW1 4244   4.423   3.024   0.202
 1115SOL    HW2 4245   4.377   2.869   0.228
 1116SOL     OW 4246   5.206   5.281   4.025
 1116SOL    HW1 4247   5.274   5.248   4.090
 1116SOL    HW2 4248   5.181   5.375   4.047
 1117SOL     OW 4249   2.819   2.744   1.406
 1117SOL    HW1 4250   2.829   2.700   1.495
 1117SOL    HW2 4251   2.750   2.696   1.352
 1118SOL     OW 4252   0.916   4.825   2.519
 1118SOL    HW1 4253   0.896   4.798   2.613
 1118SOL    HW2 4254   0.905   4.924   2.510
 1119SOL     OW 4255   3.400   3.987   1.032
 1119SOL    HW1 4256   3.311   3.953   1.001
 1119SOL    HW2 4257   3.436   3.927   1.103
 1120SOL     OW 4258   5.347   6.699   5.998
 1120SOL    HW1 4259   5.341   6.600   5.991
 1120SOL    HW2 4260   5.255   6.738   5.991
 1121SOL     OW 4261   5.114   3.108   2.470
 1121SOL    HW1 4262   5.051   3.186   2.475
 1121SOL    HW2 4263   5.177   3.112   2.548
 1122SOL     OW 4264   4.770   2.720   6.073
 1122SOL    HW1 4265   4.791   2.622   6.074
 1122SOL    HW2 4266   4.854   2.772   6.084
 1123SOL     OW 4267   4.625   1.690   2.123
 1123SOL    HW1 4268   4.557   1.701   2.051
 1123SOL    HW2 4269   4.648   1.780   2.162
 1124SOL     OW 4270   0.368   3.852   4.844
 1124SOL    HW1 4271   0.287   3.808   4.883
 1124SOL    HW2 4272   0.370   3.948   4.873
 1125SOL     OW 4273   2.736   2.071   5.087
 1125SOL    HW1 4274   2.651   2.115   5.114
 1125SOL    HW2 4275   2.719   1.975   5.065
 1126SOL     OW 4276   5.007   6.695   6.645
 1126SOL    HW1 4277   5.000   6.727   6.551
 1126SOL    HW2 4278   4.958   6.758   6.706
 1127SOL     OW 4279   3.437   4.923   5.474
 1127SOL    HW1 4280   3.424   4.881   5.384
 1127SOL    HW2 4281   3.489   4.860   5.532
 1128SOL     OW 4282   4.397   2.057   4.231
 1128SOL    HW1 4283   4.458   2.003   4.174
 1128SOL    HW2 4284   4.341   1.996   4.288
 1129SOL     OW 4285   3.600   6.984   7.000
 1129SOL    HW1 4286   3.625   0.020   0.051
 1129SOL    HW2 4287   3.508   6.947   7.016
 1130SOL     OW 4288   1.538   4.187   0.371
 1130SOL    HW1 4289   1.551   4.173   0.469
 1130SOL    HW2 4290   1.588   4.268   0.342
 1131SOL     OW 4291   0.686   6.533   5.789
 1131SOL    HW1 4292   0.687   6.435   5.807
 1131SOL    HW2 4293   0.778   6.570   5.799
 1132SOL     OW 4294   4.777   0.435   6.994
 1132SOL    HW1 4295   4.762   0.392   0.058
 1132SOL    HW2 4296   4.714   0.396   6.927
 1133SOL     OW 4297   6.940   2.033   1.232
 1133SOL    HW1 4298   6.883   2.057   1.310
 1133SOL    HW2 4299   0.011   2.056   1.253
 1134SOL     OW 4300   5.543   1.926   6.968
 1134SOL    HW1 4301   5.470   1.995   6.964
 1134SOL    HW2 4302   5.514   1.844   6.918
 1135SOL     OW 4303   3.119   1.855   2.836
 1135SOL    HW1 4304   3.189   1.923   2.858
 1135SOL    HW2 4305   3.031   1.884   2.875
 1136SOL     OW 4306   2.916   4.876   4.302
 1136SOL    HW1 4307   2.932   4.971   4.328
 1136SOL    HW2 4308   2.976   4.852   4.225
 1137SOL     OW 4309   1.041   2.859   0.202
 1137SOL    HW1 4310   0.975   2.934   0.216
 1137SOL    HW2 4311   1.004   2.775   0.240
 1138SOL     OW 4312   1.836   2.381   5.988
 1138SOL    HW1 4313   1.786   2.365   5.903
 1138SOL    HW2 4314   1.891   2.301   6.010
 1139SOL     OW 4315   2.426   6.660   2.835
 1139SOL    HW1 4316   2.476   6.599   2.773
 1139SOL    HW2 4317   2.330   6.633   2.838
 1140SOL     OW 4318   4.036   2.205   2.449
 1140SOL    HW1 4319   4.110   2.263   2.416
 1140SOL    HW2 4320   3.987   2.165   2.372
 1141SOL     OW 4321   5.894   5.707   6.031
 1141SOL    HW1 4322   5.976   5.743   5.986
 1141SOL    HW2 4323   5.818   5.769   6.016
 1142SOL     OW 4324   5.142   0.591   5.022
 1142SOL    HW1 4325   5.230   0.546   5.010
 1142SOL    HW2 4326   5.109   0.575   5.116
 1143SOL     OW 4327   3.818   2.079   2.621
 1143SOL    HW1 4328   3.856   2.122   2.539
 1143SOL    HW2 4329   3.726   2.044   2.601
 1144SOL     OW 4330   0.139   4.221   4.351
 1144SOL    HW1 4331   0.136   4.251   4.256
 1144SOL    HW2 4332   0.210   4.152   4.362
 1145SOL     OW 4333   0.130   5.071   3.205
 1145SOL    HW1 4334   0.214   5.104   3.161
 1145SOL    HW2 4335   0.082   5.147   3.247
 1146SOL     OW 4336   5.599   1.415   1.038
 1146SOL    HW1 4337   5.665   1.345   1.011
 1146SOL    HW2 4338   5.523   1.417   0.974
 1147SOL     OW 4339   1.672   4.002   0.911
 1147SOL    HW1 4340   1.732   4.033   0.984
 1147SOL    HW2 4341   1.726   3.960   0.838
 1148SOL     OW 4342   2.889   5.873   6.642
 1148SOL    HW1 4343   2.888   5.778   6.671
 1148SOL    HW2 4344   2.801   5.916   6.664
 1149SOL     OW 4345   5.599   3.126   3.317
 1149SOL    HW1 4346   5.531   3.085   3.256
 1149SOL    HW2 4347   5.591   3.086   3.408
 1150SOL     OW 4348   2.342   4.518   1.633
 1150SOL    HW1 4349   2.400   4.581   1.583
 1150SOL    HW2 4350   2.394   4.436   1.658
 1151SOL     OW 4351   5.284   5.599   6.572
 1151SOL    HW1 4352   5.225   5.523   6.545
 1151SOL    HW2 4353   5.373   5.564   6.600
 1152SOL     OW 4354   1.086   0.073   4.522
 1152SOL    HW1 4355   1.029   0.130   4.581
 1152SOL    HW2 4356   1.061   7.001   4.534
 1153SOL     OW 4357   2.536   6.599   2.412
 1153SOL    HW1 4358   2.440   6.612   2.439
 1153SOL    HW2 4359   2.577   6.528   2.469
 1154SOL     OW 4360   0.384   3.231   1.571
 1154SOL    HW1 4361   0.421   3.210   1.480
 1154SOL    HW2 4362   0.429   3.172   1.638
 1155SOL     OW 4363   3.396   5.495   7.015
 1155SOL    HW1 4364   3.431   5.571   0.046
 1155SOL    HW2 4365   3.472   5.436   6.988
 1156SOL     OW 4366   2.164   0.759   3.835
 1156SOL    HW1 4367   2.125   0.850   3.853
 1156SOL    HW2 4368   2.143   0.698   3.911
 1157SOL     OW 4369   6.700   2.464   4.423
 1157SOL    HW1 4370   6.793   2.452   4.386
 1157SOL    HW2 4371   6.662   2.374   4.445
 1158SOL     OW 4372   5.926   5.281   5.541
 1158SOL    HW1 4373   6.021   5.265   5.515
 1158SOL    HW2 4374   5.904   5.229   5.623
 1159SOL     OW 4375   4.657   0.648   2.911
 1159SOL    HW1 4376   4.633   0.696   2.996
 1159SOL    HW2 4377   4.696   0.559   2.933
 1160SOL     OW 4378   3.406   3.693   1.396
 1160SOL    HW1 4379   3.461   3.744   1.329
 1160SOL    HW2 4380   3.369   3.756   1.463
 1161SOL     OW 4381   5.051   0.147   5.327
 1161SOL    HW1 4382   5.027   0.071   5.267
 1161SOL    HW2 4383   4.967   0.188   5.365
 1162SOL     OW 4384   3.854   3.033   0.955
 1162SOL    HW1 4385   3.913   3.113   0.944
 1162SOL    HW2 4386   3.763   3.054   0.920
 1163SOL     OW 4387   5.440   2.345   2.197
 1163SOL    HW1 4388   5.412   2.441   2.195
 1163SOL    HW2 4389   5.472   2.321   2.288
 1164SOL     OW 4390   5.263   2.504   3.860
 1164SOL    HW1 4391   5.170   2.484   3.829
 1164SOL    HW2 4392   5.277   2.603   3.859
 1165SOL     OW 4393   1.626   3.732   3.589
 1165SOL    HW1 4394   1.545   3.775   3.550
 1165SOL    HW2 4395   1.605   3.701   3.682
 1166SOL     OW 4396   3.769   1.193   0.010
 1166SOL    HW1 4397   3.675   1.164   7.020
 1166SOL    HW2 4398   3.830   1.114   7.024
 1167SOL     OW 4399   2.960   0.138   5.579
 1167SOL    HW1 4400   2.900   0.215   5.598
 1167SOL    HW2 4401   2.945   0.066   5.647
 1168SOL     OW 4402   6.039   0.077   2.361
 1168SOL    HW1 4403   6.047   0.007   2.290
 1168SOL    HW2 4404   6.102   0.152   2.340
 1169SOL     OW 4405   0.143   3.016   0.513
 1169SOL    HW1 4406   0.128   3.019   0.414
 1169SOL    HW2 4407   0.194   2.934   0.538
 1170SOL     OW 4408   4.030   0.618   2.121
 1170SOL    HW1 4409   4.053   0.699   2.174
 1170SOL    HW2 4410   4.001   0.645   2.029
 1171SOL     OW 4411   2.742   5.840   0.513
 1171SOL    HW1 4412   2.760   5.936   0.490
 1171SOL    HW2 4413   2.643   5.825   0.513
 1172SOL     OW 4414   2.973   3.824   3.870
 1172SOL    HW1 4415   2.932   3.915   3.877
 1172SOL    HW2 4416   2.976   3.796   3.774
 1173SOL     OW 4417   3.699   0.311   5.700
 1173SOL    HW1 4418   3.651   0.384   5.749
 1173SOL    HW2 4419   3.789   0.296   5.741
 1174SOL     OW 4420   2.372   5.869   1.018
 1174SOL    HW1 4421   2.394   5.898   0.925
 1174SOL    HW2 4422   2.401   5.775   1.033
 1175SOL     OW 4423   5.050   3.983   6.951
 1175SOL    HW1 4424   4.985   4.039   6.900
 1175SOL    HW2 4425   5.008   3.952   0.012
 1176SOL     OW 4426   6.152   4.815   0.569
 1176SOL    HW1 4427   6.118   4.721   0.568
 1176SOL    HW2 4428   6.250   4.815   0.546
 1177SOL     OW 4429   0.308   2.333   5.166
 1177SOL    HW1 4430   0.291   2.368   5.258
 1177SOL    HW2 4431   0.398   2.364   5.135
 1178SOL     OW 4432   4.690   4.244   1.727
 1178SOL    HW1 4433   4.595   4.235   1.754
 1178SOL    HW2 4434   4.727   4.155   1.700
 1179SOL     OW 4435   2.356   4.405   0.820
 1179SOL    HW1 4436   2.406   4.459   0.752
 1179SOL    HW2 4437   2.399   4.416   0.910
 1180SOL     OW 4438   2.654   1.134   3.841
 1180SOL    HW1 4439   2.729   1.074   3.868
 1180SOL    HW2 4440   2.684   1.196   3.768
 1181SOL     OW 4441   0.887   3.515   4.375
 1181SOL    HW1 4442   0.854   3.605   4.347
 1181SOL    HW2 4443   0.880   3.451   4.298
 1182SOL     OW 4444   1.927   4.366   3.042
 1182SOL    HW1 4445   2.004   4.310   3.013
 1182SOL    HW2 4446   1.906   4.433   2.971
 1183SOL     OW 4447   4.307   5.548   2.553
 1183SOL    HW1 4448   4.339   5.459   2.519
 1183SOL    HW2 4449   4.312   5.550   2.653
 1184SOL     OW 4450   3.664   2.604   5.673
 1184SOL    HW1 4451   3.681   2.593   5.770
 1184SOL    HW2 4452   3.577   2.652   5.660
 1185SOL     OW 4453   2.183   0.336   0.332
 1185SOL    HW1 4454   2.213   0.431   0.341
 1185SOL    HW2 4455   2.154   0.319   0.238
 1186SOL     OW 4456   6.102   0.029   5.876
 1186SOL    HW1 4457   6.107   0.113   5.930
 1186SOL    HW2 4458   6.006   0.000   5.869
 1187SOL     OW 4459   5.195   6.515   5.138
 1187SOL    HW1 4460   5.156   6.455   5.208
 1187SOL    HW2 4461   5.168   6.609   5.155
 1188SOL     OW 4462   3.068   6.634   6.666
 1188SOL    HW1 4463   3.029   6.602   6.753
 1188SOL    HW2 4464   3.153   6.585   6.648
 1189SOL     OW 4465   4.934   1.164   2.418
 1189SOL    HW1 4466   4.914   1.256   2.384
 1189SOL    HW2 4467   4.850   1.109   2.419
 1190SOL     OW 4468   4.183   4.700   4.352
 1190SOL    HW1 4469   4.215   4.716   4.445
 1190SOL    HW2 4470   4.103   4.758   4.334
 1191SOL     OW 4471   3.562   5.004   5.813
 1191SOL    HW1 4472   3.470   5.037   5.791
 1191SOL    HW2 4473   3.561   4.957   5.902
 1192SOL     OW 4474   5.481   4.439   2.816
 1192SOL    HW1 4475   5.416   4.432   2.891
 1192SOL    HW2 4476   5.445   4.501   2.746
 1193SOL     OW 4477   6.481   6.901   4.278
 1193SOL    HW1 4478   6.544   6.938   4.210
 1193SOL    HW2 4479   6.468   6.967   4.351
 1194SOL     OW 4480   0.393   1.325   0.634
 1194SOL    HW1 4481   0.325   1.322   0.561
 1194SOL    HW2 4482   0.360   1.383   0.708
 1195SOL     OW 4483   6.337   1.838   0.424
 1195SOL    HW1 4484   6.379   1.748   0.414
 1195SOL    HW2 4485   6.283   1.840   0.508
 1196SOL     OW 4486   0.211   5.010   1.771
 1196SOL    HW1 4487   0.125   4.990   1.724
 1196SOL    HW2 4488   0.252   4.924   1.802
 1197SOL     OW 4489   3.692   5.902   5.879
 1197SOL    HW1 4490   3.595   5.925   5.884
 1197SOL    HW2 4491   3.743   5.979   5.840
 1198SOL     OW 4492   2.317   2.758   2.319
 1198SOL    HW1 4493   2.344   2.667   2.288
 1198SOL    HW2 4494   2.371   2.782   2.400
 1199SOL     OW 4495   4.070   3.650   3.031
 1199SOL    HW1 4496   4.069   3.749   3.044
 1199SOL    HW2 4497   4.057   3.605   3.119
 1200SOL     OW 4498   4.374   3.728   5.242
 1200SOL    HW1 4499   4.469   3.731   5.212
 1200SOL    HW2 4500   4.358   3.802   5.307
 1201SOL     OW 4501   0.752   1.291   4.434
 1201SOL    HW1 4502   0.823   1.237   4.479
 1201SOL    HW2 4503   0.759   1.387   4.463
 1202SOL     OW 4504   6.104   0.831   6.199
 1202SOL    HW1 4505   6.167   0.862   6.272
 1202SOL    HW2 4506   6.126   0.737   6.174
 1203SOL     OW 4507   5.413   6.984   1.019
 1203SOL    HW1 4508   5.381   6.921   1.091
 1203SOL    HW2 4509   5.442   6.931   0.940
 1204SOL     OW 4510   4.107   1.336   0.637
 1204SOL    HW1 4511   4.079   1.253   0.589
 1204SOL    HW2 4512   4.120   1.315   0.734
 1205SOL     OW 4513   5.375   3.219   6.861
 1205SOL    HW1 4514   5.420   3.257   6.942
 1205SOL    HW2 4515   5.378   3.119   6.866
 1206SOL     OW 4516   1.729   1.350   5.143
 1206SOL    HW1 4517   1.665   1.402   5.199
 1206SOL    HW2 4518   1.793   1.413   5.098
 1207SOL     OW 4519   6.488   6.597   1.279
 1207SOL    HW1 4520   6.527   6.647   1.357
 1207SOL    HW2 4521   6.416   6.651   1.237
 1208SOL     OW 4522   3.720   4.111   2.572
 1208SOL    HW1 4523   3.627   4.138   2.594
 1208SOL    HW2 4524   3.742   4.025   2.619
 1209SOL     OW 4525   5.678   6.278   5.267
 1209SOL    HW1 4526   5.765   6.323   5.246
 1209SOL    HW2 4527   5.609   6.347   5.287
 1210SOL     OW 4528   3.885   0.218   2.893
 1210SOL    HW1 4529   3.816   0.182   2.956
 1210SOL    HW2 4530   3.947   0.279   2.943
 1211SOL     OW 4531   1.575   3.283   3.553
 1211SOL    HW1 4532   1.551   3.186   3.552
 1211SOL    HW2 4533   1.634   3.302   3.631
 1212SOL     OW 4534   0.466   3.081   5.349
 1212SOL    HW1 4535   0.521   3.130   5.281
 1212SOL    HW2 4536   0.512   3.084   5.437
 1213SOL     OW 4537   6.056   2.669   4.881
 1213SOL    HW1 4538   6.109   2.607   4.824
 1213SOL    HW2 4539   6.074   2.649   4.978
 1214SOL     OW 4540   1.526   3.162   3.911
 1214SOL    HW1 4541   1.560   3.222   3.983
 1214SOL    HW2 4542   1.430   3.139   3.929
 1215SOL     OW 4543   2.133   4.025   2.171
 1215SOL    HW1 4544   2.038   4.039   2.144
 1215SOL    HW2 4545   2.191   4.019   2.089
 1216SOL     OW 4546   0.304   6.959   1.420
 1216SOL    HW1 4547   0.275   6.865   1.436
 1216SOL    HW2 4548   0.224   7.015   1.399
 1217SOL     OW 4549   1.288   6.508   1.035
 1217SOL    HW1 4550   1.322   6.439   0.971
 1217SOL    HW2 4551   1.308   6.479   1.129
 1218SOL     OW 4552   1.166   2.911   4.627
 1218SOL    HW1 4553   1.217   2.969   4.564
 1218SOL    HW2 4554   1.170   2.949   4.719
 1219SOL     OW 4555   4.382   4.981   0.878
 1219SOL    HW1 4556   4.476   4.954   0.860
 1219SOL    HW2 4557   4.329   4.901   0.905
 1220SOL     OW 4558   5.138   3.582   2.437
 1220SOL    HW1 4559   5.220   3.627   2.404
 1220SOL    HW2 4560   5.087   3.545   2.360
 1221SOL     OW 4561   5.856   3.665   6.807
 1221SOL    HW1 4562   5.829   3.757   6.832
 1221SOL    HW2 4563   5.935   3.669   6.746
 1222SOL     OW 4564   6.868   0.114   0.462
 1222SOL    HW1 4565   6.917   0.122   0.548
 1222SOL    HW2 4566   6.808   0.193   0.449
 1223SOL     OW 4567   5.599   0.977   0.458
 1223SOL    HW1 4568   5.539   0.972   0.538
 1223SOL    HW2 4569   5.673   1.041   0.475
 1224SOL     OW 4570   3.659   6.342   6.800
 1224SOL    HW1 4571   3.629   6.293   6.718
 1224SOL    HW2 4572   3.749   6.383   6.783
 1225SOL     OW 4573   3.820   2.060   0.992
 1225SOL    HW1 4574   3.797   2.057   1.089
 1225SOL    HW2 4575   3.913   2.097   0.981
 1226SOL     OW 4576   5.501   6.793   0.809
 1226SOL    HW1 4577   5.428   6.726   0.798
 1226SOL    HW2 4578   5.586   6.746   0.835
 1227SOL     OW 4579   6.172   5.065   5.713
 1227SOL    HW1 4580   6.243   5.006   5.752
 1227SOL    HW2 4581   6.085   5.047   5.757
 1228SOL     OW 4582   3.938   3.107   1.822
 1228SOL    HW1 4583   4.023   3.099   1.873
 1228SOL    HW2 4584   3.948   3.175   1.750
 1229SOL     OW 4585   1.476   6.944   2.212
 1229SOL    HW1 4586   1.463   6.921   2.116
 1229SOL    HW2 4587   1.411   6.892   2.268
 1230SOL     OW 4588   5.403   5.545   2.936
 1230SOL    HW1 4589   5.397   5.640   2.965
 1230SOL    HW2 4590   5.316   5.499   2.955
 1231SOL     OW 4591   1.612   3.126   6.189
 1231SOL    HW1 4592   1.547   3.138   6.115
 1231SOL    HW2 4593   1.697   3.174   6.167
 1232SOL     OW 4594   4.422   1.210   5.063
 1232SOL    HW1 4595   4.417   1.218   5.163
 1232SOL    HW2 4596   4.333   1.231   5.023
 1233SOL     OW 4597   0.731   5.180   3.450
 1233SOL    HW1 4598   0.672   5.233   3.389
 1233SOL    HW2 4599   0.817   5.229   3.464
 1234SOL     OW 4600   0.114   2.919   6.747
 1234SOL    HW1 4601   0.144   3.013   6.760
 1234SOL    HW2 4602   0.016   2.912   6.770
 1235SOL     OW 4603   6.420   5.318   6.502
 1235SOL    HW1 4604   6.358   5.395   6.492
 1235SOL    HW2 4605   6.453   5.313   6.596
 1236SOL     OW 4606   3.366   1.802   0.651
 1236SOL    HW1 4607   3.345   1.770   0.559
 1236SOL    HW2 4608   3.457   1.844   0.651
 1237SOL     OW 4609   1.628   6.754   4.973
 1237SOL    HW1 4610   1.654   6.684   4.906
 1237SOL    HW2 4611   1.559   6.814   4.932
 1238SOL     OW 4612   0.301   6.620   3.376
 1238SOL    HW1 4613   0.324   6.525   3.356
 1238SOL    HW2 4614   0.277   6.667   3.292
 1239SOL     OW 4615   6.737   5.430   4.607
 1239SOL    HW1 4616   6.787   5.515   4.599
 1239SOL    HW2 4617   6.801   5.354   4.621
 1240SOL     OW 4618   6.024   5.516   2.290
 1240SOL    HW1 4619   6.013   5.576   2.210
 1240SOL    HW2 4620   5.972   5.432   2.276
 1241SOL     OW 4621   0.008   4.717   4.643
 1241SOL    HW1 4622   0.037   4.662   4.564
 1241SOL    HW2 4623   6.935   4.705   4.659
 1242SOL     OW 4624   2.143   4.242   6.796
 1242SOL    HW1 4625   2.171   4.173   6.729
 1242SOL    HW2 4626   2.049   4.223   6.826
 1243SOL     OW 4627   0.075   2.301   5.040
 1243SOL    HW1 4628   0.154   2.300   5.102
 1243SOL    HW2 4629   0.002   2.245   5.079
 1244SOL     OW 4630   5.367   6.726   5.386
 1244SOL    HW1 4631   5.337   6.675   5.466
 1244SOL    HW2 4632   5.460   6.761   5.401
 1245SOL     OW 4633   5.370   5.706   1.017
 1245SOL    HW1 4634   5.433   5.654   1.075
 1245SOL    HW2 4635   5.418   5.737   0.935
 1246SOL     OW 4636   4.449   1.126   1.636
 1246SOL    HW1 4637   4.443   1.218   1.675
 1246SOL    HW2 4638   4.508   1.069   1.694
 1247SOL     OW 4639   6.472   6.488   4.576
 1247SOL    HW1 4640   6.385   6.536   4.590
 1247SOL    HW2 4641   6.455   6.398   4.537
 1248SOL     OW 4642   0.716   6.373   4.405
 1248SOL    HW1 4643   0.712   6.286   4.454
 1248SOL    HW2 4644   0.631   6.424   4.420
 1249SOL     OW 4645   6.848   4.060   1.378
 1249SOL    HW1 4646   6.900   3.990   1.427
 1249SOL    HW2 4647   6.877   4.064   1.283
 1250SOL     OW 4648   6.215   3.519   5.290
 1250SOL    HW1 4649   6.210   3.586   5.364
 1250SOL    HW2 4650   6.260   3.559   5.211
 1251SOL     OW 4651   2.116   1.291   2.543
 1251SOL    HW1 4652   2.065   1.277   2.628
 1251SOL    HW2 4653   2.154   1.204   2.513
 1252SOL     OW 4654   3.370   5.446   6.650
 1252SOL    HW1 4655   3.329   5.392   6.723
 1252SOL    HW2 4656   3.469   5.429   6.648
 1253SOL     OW 4657   3.204   0.779   1.341
 1253SOL    HW1 4658   3.137   0.738   1.402
 1253SOL    HW2 4659   3.241   0.709   1.279
 1254SOL     OW 4660   6.265   1.420   3.200
 1254SOL    HW1 4661   6.352   1.369   3.201
 1254SOL    HW2 4662   6.275   1.503   3.254
 1255SOL     OW 4663   5.535   2.773   4.992
 1255SOL    HW1 4664   5.630   2.748   4.978
 1255SOL    HW2 4665   5.530   2.859   5.043
 1256SOL     OW 4666   6.695   6.123   3.017
 1256SOL    HW1 4667   6.713   6.100   3.112
 1256SOL    HW2 4668   6.652   6.213   3.011
 1257SOL     OW 4669   0.074   4.480   4.476
 1257SOL    HW1 4670   0.149   4.420   4.505
 1257SOL    HW2 4671   7.012   4.430   4.483
 1258SOL     OW 4672   2.241   6.211   3.288
 1258SOL    HW1 4673   2.264   6.215   3.191
 1258SOL    HW2 4674   2.214   6.118   3.312
 1259SOL     OW 4675   3.887   6.749   4.859
 1259SOL    HW1 4676   3.947   6.670   4.867
 1259SOL    HW2 4677   3.912   6.818   4.927
 1260SOL     OW 4678   3.123   0.995   1.863
 1260SOL    HW1 4679   3.062   0.985   1.785
 1260SOL    HW2 4680   3.069   1.003   1.947
 1261SOL     OW 4681   6.870   3.559   0.344
 1261SOL    HW1 4682   6.920   3.544   0.429
 1261SOL    HW2 4683   6.842   3.470   0.306
 1262SOL     OW 4684   4.472   4.737   1.168
 1262SOL    HW1 4685   4.469   4.666   1.239
 1262SOL    HW2 4686   4.551   4.796   1.184
 1263SOL     OW 4687   6.225   2.286   1.577
 1263SOL    HW1 4688   6.212   2.188   1.562
 1263SOL    HW2 4689   6.201   2.336   1.494
 1264SOL     OW 4690   0.240   4.240   3.142
 1264SOL    HW1 4691   0.150   4.228   3.185
 1264SOL    HW2 4692   0.272   4.152   3.106
 1265SOL     OW 4693   6.660   4.493   4.128
 1265SOL    HW1 4694   6.681   4.491   4.030
 1265SOL    HW2 4695   6.584   4.431   4.147
 1266SOL     OW 4696   2.699   1.907   4.507
 1266SOL    HW1 4697   2.658   1.816   4.504
 1266SOL    HW2 4698   2.699   1.941   4.601
 1267SOL     OW 4699   5.969   5.699   1.563
 1267SOL    HW1 4700   5.994   5.780   1.510
 1267SOL    HW2 4701   5.889   5.720   1.620
 1268SOL     OW 4702   5.416   2.504   0.595
 1268SOL    HW1 4703   5.455   2.596   0.586
 1268SOL    HW2 4704   5.425   2.456   0.507
 1269SOL     OW 4705   6.373   6.537   5.343
 1269SOL    HW1 4706   6.334   6.449   5.316
 1269SOL    HW2 4707   6.460   6.522   5.390
 1270SOL     OW 4708   2.223   4.064   4.435
 1270SOL    HW1 4709   2.240   4.054   4.533
 1270SOL    HW2 4710   2.133   4.027   4.413
 1271SOL     OW 4711   3.490   1.775   2.941
 1271SOL    HW1 4712   3.434   1.790   3.023
 1271SOL    HW2 4713   3.583   1.808   2.959
 1272SOL     OW 4714   0.331   5.926   1.110
 1272SOL    HW1 4715   0.409   5.988   1.117
 1272SOL    HW2 4716   0.301   5.919   1.015
 1273SOL     OW 4717   2.110   3.694   7.001
 1273SOL    HW1 4718   2.109   3.713   6.902
 1273SOL    HW2 4719   2.184   3.630   7.022
 1274SOL     OW 4720   0.308   3.081   1.839
 1274SOL    HW1 4721   0.224   3.042   1.878
 1274SOL    HW2 4722   0.303   3.181   1.841
 1275SOL     OW 4723   4.686   0.404   3.611
 1275SOL    HW1 4724   4.638   0.364   3.533
 1275SOL    HW2 4725   4.622   0.420   3.686
 1276SOL     OW 4726   6.882   0.385   3.612
 1276SOL    HW1 4727   6.847   0.361   3.703
 1276SOL    HW2 4728   6.886   0.485   3.604
 1277SOL     OW 4729   1.140   0.551   4.091
 1277SOL    HW1 4730   1.116   0.461   4.056
 1277SOL    HW2 4731   1.089   0.568   4.176
 1278SOL     OW 4732   1.799   1.643   5.064
 1278SOL    HW1 4733   1.823   1.669   4.971
 1278SOL    HW2 4734   1.700   1.636   5.072
 1279SOL     OW 4735   2.038   6.625   0.618
 1279SOL    HW1 4736   2.118   6.677   0.648
 1279SOL    HW2 4737   2.004   6.569   0.694
 1280SOL     OW 4738   2.719   6.416   3.541
 1280SOL    HW1 4739   2.660   6.371   3.608
 1280SOL    HW2 4740   2.671   6.421   3.453
 1281SOL     OW 4741   0.965   5.597   2.994
 1281SOL    HW1 4742   1.061   5.626   2.997
 1281SOL    HW2 4743   0.907   5.675   2.972
 1282SOL     OW 4744   0.676   0.821   0.603
 1282SOL    HW1 4745   0.636   0.836   0.693
 1282SOL    HW2 4746   0.636   0.739   0.562
 1283SOL     OW 4747   5.274   3.337   5.452
 1283SOL    HW1 4748   5.304   3.253   5.408
 1283SOL    HW2 4749   5.290   3.331   5.550
 1284SOL     OW 4750   3.185   2.891   1.913
 1284SOL    HW1 4751   3.284   2.889   1.929
 1284SOL    HW2 4752   3.164   2.840   1.830
 1285SOL     OW 4753   5.738   3.709   6.236
 1285SOL    HW1 4754   5.647   3.671   6.252
 1285SOL    HW2 4755   5.796   3.691   6.315
 1286SOL     OW 4756   4.153   4.745   2.434
 1286SOL    HW1 4757   4.231   4.723   2.492
 1286SOL    HW2 4758   4.176   4.727   2.338
 1287SOL     OW 4759   5.690   4.466   6.367
 1287SOL    HW1 4760   5.726   4.485   6.275
 1287SOL    HW2 4761   5.617   4.532   6.389
 1288SOL     OW 4762   6.956   3.081   1.236
 1288SOL    HW1 4763   6.937   2.988   1.205
 1288SOL    HW2 4764   6.936   3.145   1.162
 1289SOL     OW 4765   0.549   6.069   1.524
 1289SOL    HW1 4766   0.506   5.989   1.566
 1289SOL    HW2 4767   0.530   6.070   1.426
 1290SOL     OW 4768   0.421   0.945   0.419
 1290SOL    HW1 4769   0.396   1.028   0.370
 1290SOL    HW2 4770   0.501   0.903   0.375
 1291SOL     OW 4771   1.620   4.918   6.093
 1291SOL    HW1 4772   1.660   4.842   6.143
 1291SOL    HW2 4773   1.653   4.917   5.998
 1292SOL     OW 4774   6.788   4.715   2.125
 1292SOL    HW1 4775   6.730   4.797   2.129
 1292SOL    HW2 4776   6.846   4.711   2.206
 1293SOL     OW 4777   3.142   1.670   6.293
 1293SOL    HW1 4778   3.113   1.766   6.290
 1293SOL    HW2 4779   3.085   1.616   6.231
 1294SOL     OW 4780   0.644   3.203   0.683
 1294SOL    HW1 4781   0.621   3.283   0.627
 1294SOL    HW2 4782   0.706   3.143   0.633
 1295SOL     OW 4783   6.373   3.846   2.683
 1295SOL    HW1 4784   6.397   3.888   2.596
 1295SOL    HW2 4785   6.446   3.862   2.749
 1296SOL     OW 4786   4.451   1.428   5.931
 1296SOL    HW1 4787   4.355   1.444   5.909
 1296SOL    HW2 4788   4.463   1.335   5.965
 1297SOL     OW 4789   5.597   0.770   6.462
 1297SOL    HW1 4790   5.679   0.800   6.511
 1297SOL    HW2 4791   5.561   0.687   6.504
 1298SOL     OW 4792   6.204   3.366   3.175
 1298SOL    HW1 4793   6.158   3.386   3.261
 1298SOL    HW2 4794   6.246   3.275   3.179
 1299SOL     OW 4795   1.441   4.251   2.925
 1299SOL    HW1 4796   1.481   4.164   2.954
 1299SOL    HW2 4797   1.455   4.263   2.826
 1300SOL     OW 4798   3.883   3.569   2.039
 1300SOL    HW1 4799   3.887   3.480   1.994
 1300SOL    HW2 4800   3.960   3.580   2.101
 1301SOL     OW 4801   1.065   5.898   2.478
 1301SOL    HW1 4802   1.066   5.836   2.557
 1301SOL    HW2 4803   0.975   5.941   2.471
 1302SOL     OW 4804   2.848   6.863   4.806
 1302SOL    HW1 4805   2.785   6.929   4.846
 1302SOL    HW2 4806   2.801   6.776   4.792
 1303SOL     OW 4807   4.310   1.656   0.597
 1303SOL    HW1 4808   4.400   1.698   0.582
 1303SOL    HW2 4809   4.302   1.574   0.541
 1304SOL     OW 4810   1.958   1.604   6.546
 1304SOL    HW1 4811   1.974   1.621   6.643
 1304SOL    HW2 4812   2.037   1.635   6.493
 1305SOL     OW 4813   5.996   5.969   6.848
 1305SOL    HW1 4814   6.058   5.911   6.901
 1305SOL    HW2 4815   6.014   5.956   6.750
 1306SOL     OW 4816   0.677   5.069   5.494
 1306SOL    HW1 4817   0.730   5.051   5.577
 1306SOL    HW2 4818   0.653   4.983   5.450
 1307SOL     OW 4819   1.753   3.010   3.824
 1307SOL    HW1 4820   1.668   3.061   3.824
 1307SOL    HW2 4821   1.755   2.947   3.902
 1308SOL     OW 4822   3.817   6.025   4.831
 1308SOL    HW1 4823   3.766   5.970   4.897
 1308SOL    HW2 4824   3.901   6.059   4.873
 1309SOL     OW 4825   5.477   3.279   5.234
 1309SOL    HW1 4826   5.551   3.342   5.211
 1309SOL    HW2 4827   5.392   3.310   5.191
 1310SOL     OW 4828   5.809   3.763   4.835
 1310SOL    HW1 4829   5.768   3.833   4.777
 1310SOL    HW2 4830   5.840   3.686   4.778
 1311SOL     OW 4831   6.469   6.394   4.238
 1311SOL    HW1 4832   6.563   6.385   4.272
 1311SOL    HW2 4833   6.457   6.486   4.199
 1312SOL     OW 4834   0.758   0.426   6.643
 1312SOL    HW1 4835   0.672   0.469   6.671
 1312SOL    HW2 4836   0.754   0.328   6.663
 1313SOL     OW 4837   2.157   5.529   5.925
 1313SOL    HW1 4838   2.176   5.562   5.832
 1313SOL    HW2 4839   2.126   5.605   5.981
 1314SOL     OW 4840   1.899   1.635   5.669
 1314SOL    HW1 4841   1.829   1.578   5.711
 1314SOL    HW2 4842   1.913   1.716   5.726
 1315SOL     OW 4843   0.778   1.028   0.493
 1315SOL    HW1 4844   0.701   1.092   0.484
 1315SOL    HW2 4845   0.746   0.944   0.536
 1316SOL     OW 4846   2.341   0.231   3.007
 1316SOL    HW1 4847   2.425   0.222   2.954
 1316SOL    HW2 4848   2.285   0.150   2.995
 1317SOL     OW 4849   1.172   4.192   4.681
 1317SOL    HW1 4850   1.222   4.146   4.608
 1317SOL    HW2 4851   1.234   4.253   4.731
 1318SOL     OW 4852   6.880   0.853   0.603
 1318SOL    HW1 4853   6.847   0.915   0.532
 1318SOL    HW2 4854   6.853   0.888   0.693
 1319SOL     OW 4855   6.823   1.904   0.025
 1319SOL    HW1 4856   6.830   1.846   6.968
 1319SOL    HW2 4857   6.847   1.998   0.001
 1320SOL     OW 4858   5.831   4.253   6.930
 1320SOL    HW1 4859   5.909   4.305   6.895
 1320SOL    HW2 4860   5.857   4.208   7.016
 1321SOL     OW 4861   4.031   2.429   6.879
 1321SOL    HW1 4862   4.130   2.431   6.894
 1321SOL    HW2 4863   4.011   2.458   6.786
 1322SOL     OW 4864   5.356   1.119   3.697
 1322SOL    HW1 4865   5.270   1.153   3.659
 1322SOL    HW2 4866   5.365   1.022   3.675
 1323SOL     OW 4867   5.056   2.028   5.475
 1323SOL    HW1 4868   5.018   2.026   5.383
 1323SOL    HW2 4869   5.127   1.957   5.484
 1324SOL     OW 4870   1.416   2.099   1.918
 1324SOL    HW1 4871   1.336   2.050   1.953
 1324SOL    HW2 4872   1.498   2.044   1.935
 1325SOL     OW 4873   3.135   6.939   2.287
 1325SOL    HW1 4874   3.080   6.866   2.328
 1325SOL    HW2 4875   3.124   6.938   2.188
 1326SOL     OW 4876   4.812   2.535   4.655
 1326SOL    HW1 4877   4.843   2.538   4.750
 1326SOL    HW2 4878   4.748   2.459   4.643
 1327SOL     OW 4879   3.115   5.411   2.932
 1327SOL    HW1 4880   3.112   5.322   2.887
 1327SOL    HW2 4881   3.104   5.483   2.863
 1328SOL     OW 4882   0.781   3.007   0.577
 1328SOL    HW1 4883   0.880   2.999   0.563
 1328SOL    HW2 4884   0.755   2.959   0.660
 1329SOL     OW 4885   6.808   1.640   0.515
 1329SOL    HW1 4886   6.798   1.739   0.513
 1329SOL    HW2 4887   6.718   1.597   0.513
 1330SOL     OW 4888   6.719   0.015   1.207
 1330SOL    HW1 4889   6.680   0.107   1.212
 1330SOL    HW2 4890   6.805   0.017   1.155
 1331SOL     OW 4891   4.676   2.128   3.194
 1331SOL    HW1 4892   4.580   2.130   3.165
 1331SOL    HW2 4893   4.726   2.201   3.149
 1332SOL     OW 4894   3.505   0.192   0.405
 1332SOL    HW1 4895   3.601   0.218   0.420
 1332SOL    HW2 4896   3.466   0.251   0.335
 1333SOL     OW 4897   4.051   4.147   5.814
 1333SOL    HW1 4898   4.016   4.173   5.724
 1333SOL    HW2 4899   4.065   4.230   5.869
 1334SOL     OW 4900   0.548   3.072   4.500
 1334SOL    HW1 4901   0.550   3.087   4.599
 1334SOL    HW2 4902   0.640   3.087   4.463
 1335SOL     OW 4903   2.728   6.414   2.618
 1335SOL    HW1 4904   2.708   6.478   2.692
 1335SOL    HW2 4905   2.802   6.451   2.561
 1336SOL     OW 4906   1.717   1.045   5.792
 1336SOL    HW1 4907   1.664   1.042   5.877
 1336SOL    HW2 4908   1.810   1.075   5.812
 1337SOL     OW 4909   0.931   2.391   4.964
 1337SOL    HW1 4910   0.945   2.445   5.047
 1337SOL    HW2 4911   0.918   2.452   4.886
 1338SOL     OW 4912   4.411   3.954   6.148
 1338SOL    HW1 4913   4.406   4.043   6.103
 1338SOL    HW2 4914   4.427   3.883   6.079
 1339SOL     OW 4915   0.363   6.350   0.312
 1339SOL    HW1 4916   0.304   6.289   0.259
 1339SOL    HW2 4917   0.457   6.316   0.309
 1340SOL     OW 4918   1.062   1.571   1.389
 1340SOL    HW1 4919   1.042   1.635   1.315
 1340SOL    HW2 4920   0.976   1.532   1.424
 1341SOL     OW 4921   3.740   0.282   5.427
 1341SOL    HW1 4922   3.657   0.289   5.371
 1341SOL    HW2 4923   3.715   0.291   5.523
 1342SOL     OW 4924   1.268   5.646   6.355
 1342SOL    HW1 4925   1.286   5.734   6.311
 1342SOL    HW2 4926   1.234   5.661   6.448
 1343SOL     OW 4927   3.819   6.765   2.591
 1343SOL    HW1 4928   3.906   6.727   2.560
 1343SOL    HW2 4929   3.789   6.837   2.527
 1344SOL     OW 4930   0.103   3.269   3.305
 1344SOL    HW1 4931   0.009   3.240   3.324
 1344SOL    HW2 4932   0.122   3.353   3.357
 1345SOL     OW 4933   0.538   1.288   3.527
 1345SOL    HW1 4934   0.530   1.216   3.458
 1345SOL    HW2 4935   0.630   1.287   3.565
 1346SOL     OW 4936   1.771   0.347   2.548
 1346SOL    HW1 4937   1.715   0.324   2.628
 1346SOL    HW2 4938   1.812   0.437   2.561
 1347SOL     OW 4939   6.408   6.359   3.549
 1347SOL    HW1 4940   6.324   6.409   3.573
 1347SOL    HW2 4941   6.425   6.289   3.618
 1348SOL     OW 4942   5.902   5.058   3.176
 1348SOL    HW1 4943   5.813   5.101   3.194
 1348SOL    HW2 4944   5.946   5.035   3.263
 1349SOL     OW 4945   5.035   2.924   6.703
 1349SOL    HW1 4946   4.965   2.965   6.645
 1349SOL    HW2 4947   4.995   2.848   6.755
 1350SOL     OW 4948   3.931   5.029   6.911
 1350SOL    HW1 4949   4.027   5.019   6.885
 1350SOL    HW2 4950   3.873   4.992   6.839
 1351SOL     OW 4951   0.938   0.854   3.256
 1351SOL    HW1 4952   0.944   0.872   3.158
 1351SOL    HW2 4953   1.006   0.909   3.304
 1352SOL     OW 4954   0.428   0.142   3.338
 1352SOL    HW1 4955   0.378   0.187   3.264
 1352SOL    HW2 4956   0.378   0.061   3.367
 1353SOL     OW 4957   7.024   4.336   6.302
 1353SOL    HW1 4958   0.084   4.284   6.289
 1353SOL    HW2 4959   6.973   4.340   6.216
 1354SOL     OW 4960   6.801   1.958   0.512
 1354SOL    HW1 4961   6.711   2.000   0.514
 1354SOL    HW2 4962   6.869   2.026   0.483
 1355SOL     OW 4963   5.274   3.485   6.294
 1355SOL    HW1 4964   5.233   3.490   6.203
 1355SOL    HW2 4965   5.285   3.389   6.320
 1356SOL     OW 4966   3.533   3.623   4.501
 1356SOL    HW1 4967   3.600   3.696   4.514
 1356SOL    HW2 4968   3.464   3.628   4.574
 1357SOL     OW 4969   2.737   3.417   5.873
 1357SOL    HW1 4970   2.742   3.441   5.969
 1357SOL    HW2 4971   2.825   3.436   5.829
 1358SOL     OW 4972   2.888   2.088   6.090
 1358SOL    HW1 4973   2.806   2.055   6.043
 1358SOL    HW2 4974   2.968   2.043   6.051
 1359SOL     OW 4975   6.586   4.259   1.373
 1359SOL    HW1 4976   6.546   4.290   1.287
 1359SOL    HW2 4977   6.574   4.160   1.382
 1360SOL     OW 4978   4.026   3.749   2.747
 1360SOL    HW1 4979   3.928   3.742   2.766
 1360SOL    HW2 4980   4.078   3.717   2.826
 1361SOL     OW 4981   6.772   6.934   6.260
 1361SOL    HW1 4982   6.781   0.008   6.277
 1361SOL    HW2 4983   6.803   6.883   6.340
 1362SOL     OW 4984   2.973   3.741   5.184
 1362SOL    HW1 4985   3.024   3.713   5.103
 1362SOL    HW2 4986   2.901   3.673   5.203
 1363SOL     OW 4987   6.676   6.046   4.261
 1363SOL    HW1 4988   6.620   6.081   4.337
 1363SOL    HW2 4989   6.771   6.076   4.273
 1364SOL     OW 4990   0.071   2.288   6.963
 1364SOL    HW1 4991   0.144   2.219   6.954
 1364SOL    HW2 4992   0.038   2.314   6.873
 1365SOL     OW 4993   1.038   3.636   5.669
 1365SOL    HW1 4994   0.951   3.589   5.657
 1365SOL    HW2 4995   1.073   3.619   5.761
 1366SOL     OW 4996   0.210   3.921   1.193
 1366SOL    HW1 4997   0.267   3.964   1.123
 1366SOL    HW2 4998   0.267   3.892   1.269
 1367SOL     OW 4999   1.105   4.855   3.074
 1367SOL    HW1 5000   1.120   4.953   3.055
 1367SOL    HW2 5001   1.184   4.819   3.124
 1368SOL     OW 5002   6.945   0.327   4.068
 1368SOL    HW1 5003   6.945   0.265   4.147
 1368SOL    HW2 5004   6.989   0.413   4.094
 1369SOL     OW 5005   2.198   5.923   2.136
 1369SOL    HW1 5006   2.227   5.860   2.064
 1369SOL    HW2 5007   2.109   5.894   2.172
 1370SOL     OW 5008   6.798   2.041   4.030
 1370SOL    HW1 5009   6.796   2.139   4.048
 1370SOL    HW2 5010   6.705   2.008   4.014
 1371SOL     OW 5011   4.876   1.177   4.724
 1371SOL    HW1 5012   4.941   1.233   4.775
 1371SOL    HW2 5013   4.819   1.235   4.666
 1372SOL     OW 5014   6.399   2.386   1.202
 1372SOL    HW1 5015   6.483   2.424   1.164
 1372SOL    HW2 5016   6.405   2.286   1.202
 1373SOL     OW 5017   5.434   1.833   0.756
 1373SOL    HW1 5018   5.379   1.790   0.828
 1373SOL    HW2 5019   5.391   1.919   0.727
 1374SOL     OW 5020   5.448   4.462   6.840
 1374SOL    HW1 5021   5.378   4.470   6.769
 1374SOL    HW2 5022   5.494   4.374   6.831
 1375SOL     OW 5023   6.832   6.849   6.504
 1375SOL    HW1 5024   6.800   6.764   6.546
 1375SOL    HW2 5025   6.925   6.869   6.536
 1376SOL     OW 5026   3.244   4.827   6.341
 1376SOL    HW1 5027   3.324   4.779   6.379
 1376SOL    HW2 5028   3.181   4.760   6.301
 1377SOL     OW 5029   0.982   2.627   3.841
 1377SOL    HW1 5030   0.976   2.559   3.767
 1377SOL    HW2 5031   0.925   2.598   3.917
 1378SOL     OW 5032   4.950   2.666   4.901
 1378SOL    HW1 5033   5.025   2.632   4.959
 1378SOL    HW2 5034   4.956   2.766   4.894
 1379SOL     OW 5035   4.872   5.776   2.811
 1379SOL    HW1 5036   4.930   5.791   2.891
 1379SOL    HW2 5037   4.792   5.836   2.817
 1380SOL     OW 5038   6.794   6.133   2.557
 1380SOL    HW1 5039   6.760   6.218   2.598
 1380SOL    HW2 5040   6.789   6.059   2.624
 1381SOL     OW 5041   5.894   1.656   6.871
 1381SOL    HW1 5042   5.850   1.636   6.784
 1381SOL    HW2 5043   5.927   1.572   6.913
 1382SOL     OW 5044   4.856   2.864   1.373
 1382SOL    HW1 5045   4.806   2.950   1.370
 1382SOL    HW2 5046   4.920   2.865   1.450
 1383SOL     OW 5047   0.511   6.805   1.256
 1383SOL    HW1 5048   0.430   6.841   1.303
 1383SOL    HW2 5049   0.589   6.804   1.320
 1384SOL     OW 5050   4.443   6.892   1.244
 1384SOL    HW1 5051   4.444   6.946   1.160
 1384SOL    HW2 5052   4.534   6.892   1.285
 1385SOL     OW 5053   2.189   4.497   3.733
 1385SOL    HW1 5054   2.262   4.563   3.718
 1385SOL    HW2 5055   2.156   4.463   3.645
 1386SOL     OW 5056   3.518   0.290   3.332
 1386SOL    HW1 5057   3.440   0.228   3.326
 1386SOL    HW2 5058   3.516   0.338   3.420
 1387SOL     OW 5059   2.898   5.709   2.380
 1387SOL    HW1 5060   2.823   5.690   2.442
 1387SOL    HW2 5061   2.865   5.707   2.286
 1388SOL     OW 5062   6.862   6.921   2.214
 1388SOL    HW1 5063   6.771   6.922   2.255
 1388SOL    HW2 5064   6.900   7.014   2.216
 1389SOL     OW 5065   5.758   2.300   4.059
 1389SOL    HW1 5066   5.786   2.396   4.053
 1389SOL    HW2 5067   5.788   2.252   3.977
 1390SOL     OW 5068   0.160   3.825   0.107
 1390SOL    HW1 5069   0.259   3.815   0.116
 1390SOL    HW2 5070   0.137   3.837   0.010
 1391SOL     OW 5071   6.488   6.790   4.640
 1391SOL    HW1 5072   6.562   6.784   4.574
 1391SOL    HW2 5073   6.406   6.746   4.603
 1392SOL     OW 5074   5.631   5.853   6.069
 1392SOL    HW1 5075   5.623   5.953   6.061
 1392SOL    HW2 5076   5.641   5.829   6.165
 1393SOL     OW 5077   6.258   4.881   5.491
 1393SOL    HW1 5078   6.226   4.913   5.402
 1393SOL    HW2 5079   6.237   4.950   5.561
 1394SOL     OW 5080   2.724   5.396   5.039
 1394SOL    HW1 5081   2.664   5.341   5.098
 1394SOL    HW2 5082   2.818   5.389   5.072
 1395SOL     OW 5083   2.318   4.101   5.575
 1395SOL    HW1 5084   2.228   4.058   5.581
 1395SOL    HW2 5085   2.347   4.104   5.479
 1396SOL     OW 5086   1.477   1.314   4.803
 1396SOL    HW1 5087   1.453   1.288   4.896
 1396SOL    HW2 5088   1.410   1.275   4.739
 1397SOL     OW 5089   0.445   0.379   3.532
 1397SOL    HW1 5090   0.354   0.417   3.514
 1397SOL    HW2 5091   0.511   0.417   3.467
 1398SOL     OW 5092   2.990   0.483   6.082
 1398SOL    HW1 5093   2.966   0.567   6.131
 1398SOL    HW2 5094   2.955   0.488   5.989
 1399SOL     OW 5095   3.541   5.867   0.506
 1399SOL    HW1 5096   3.478   5.920   0.450
 1399SOL    HW2 5097   3.491   5.829   0.584
 1400SOL     OW 5098   7.016   1.035   2.661
 1400SOL    HW1 5099   0.060   1.097   2.698
 1400SOL    HW2 5100   0.036   0.955   2.623
 1401SOL     OW 5101   6.646   2.119   4.658
 1401SOL    HW1 5102   6.585   2.181   4.708
 1401SOL    HW2 5103   6.612   2.106   4.565
 1402SOL     OW 5104   0.327   3.515   0.164
 1402SOL    HW1 5105   0.420   3.498   0.132
 1402SOL    HW2 5106   0.268   3.540   0.086
 1403SOL     OW 5107   2.096   2.284   1.864
 1403SOL    HW1 5108   2.181   2.260   1.911
 1403SOL    HW2 5109   2.034   2.206   1.865
 1404SOL     OW 5110   5.209   6.846   0.230
 1404SOL    HW1 5111   5.234   6.802   0.317
 1404SOL    HW2 5112   5.288   6.845   0.169
 1405SOL     OW 5113   1.990   4.026   1.026
 1405SOL    HW1 5114   1.958   4.113   0.988
 1405SOL    HW2 5115   2.078   4.003   0.985
 1406SOL     OW 5116   1.021   5.213   1.289
 1406SOL    HW1 5117   1.004   5.308   1.318
 1406SOL    HW2 5118   1.112   5.207   1.249
 1407SOL     OW 5119   0.422   2.133   2.390
 1407SOL    HW1 5120   0.505   2.177   2.424
 1407SOL    HW2 5121   0.429   2.122   2.291
 1408SOL     OW 5122   5.811   1.251   5.566
 1408SOL    HW1 5123   5.791   1.200   5.649
 1408SOL    HW2 5124   5.872   1.328   5.588
 1409SOL     OW 5125   0.954   1.006   4.928
 1409SOL    HW1 5126   1.048   1.004   4.893
 1409SOL    HW2 5127   0.903   0.929   4.890
 1410SOL     OW 5128   1.802   3.279   6.445
 1410SOL    HW1 5129   1.757   3.208   6.500
 1410SOL    HW2 5130   1.741   3.358   6.436
 1411SOL     OW 5131   2.875   6.586   1.704
 1411SOL    HW1 5132   2.780   6.597   1.734
 1411SOL    HW2 5133   2.926   6.670   1.723
 1412SOL     OW 5134   6.901   2.255   1.037
 1412SOL    HW1 5135   6.997   2.281   1.027
 1412SOL    HW2 5136   6.895   2.174   1.096
 1413SOL     OW 5137   1.603   1.726   5.602
 1413SOL    HW1 5138   1.702   1.733   5.597
 1413SOL    HW2 5139   1.576   1.630   5.605
 1414SOL     OW 5140   2.363   1.376   1.895
 1414SOL    HW1 5141   2.379   1.395   1.798
 1414SOL    HW2 5142   2.297   1.301   1.904
 1415SOL     OW 5143   2.257   0.572   4.646
 1415SOL    HW1 5144   2.356   0.567   4.654
 1415SOL    HW2 5145   2.221   0.638   4.712
 1416SOL     OW 5146   4.849   4.988   4.342
 1416SOL    HW1 5147   4.940   5.025   4.326
 1416SOL    HW2 5148   4.796   4.991   4.258
 1417SOL     OW 5149   2.646   2.158   0.476
 1417SOL    HW1 5150   2.679   2.098   0.403
 1417SOL    HW2 5151   2.550   2.179   0.461
 1418SOL     OW 5152   2.923   3.413   3.811
 1418SOL    HW1 5153   2.961   3.495   3.855
 1418SOL    HW2 5154   2.901   3.435   3.715
 1419SOL     OW 5155   2.401   6.093   5.138
 1419SOL    HW1 5156   2.423   6.007   5.093
 1419SOL    HW2 5157   2.383   6.164   5.070
 1420SOL     OW 5158   2.513   0.092   1.166
 1420SOL    HW1 5159   2.449   0.054   1.100
 1420SOL    HW2 5160   2.598   0.038   1.165
 1421SOL     OW 5161   1.814   3.803   3.411
 1421SOL    HW1 5162   1.794   3.896   3.381
 1421SOL    HW2 5163   1.756   3.779   3.488
 1422SOL     OW 5164   1.716   3.820   1.430
 1422SOL    HW1 5165   1.686   3.902   1.380
 1422SOL    HW2 5166   1.808   3.835   1.466
 1423SOL     OW 5167   5.653   6.333   3.006
 1423SOL    HW1 5168   5.717   6.265   3.042
 1423SOL    HW2 5169   5.650   6.412   3.066
 1424SOL     OW 5170   6.434   5.206   5.943
 1424SOL    HW1 5171   6.522   5.251   5.961
 1424SOL    HW2 5172   6.451   5.112   5.914
 1425SOL     OW 5173   1.017   6.535   4.988
 1425SOL    HW1 5174   1.007   6.515   5.086
 1425SOL    HW2 5175   1.106   6.577   4.971
 1426SOL     OW 5176   1.969   3.151   6.295
 1426SOL    HW1 5177   2.015   3.075   6.340
 1426SOL    HW2 5178   1.909   3.197   6.360
 1427SOL     OW 5179   0.221   6.863   3.688
 1427SOL    HW1 5180   0.303   6.919   3.700
 1427SOL    HW2 5181   0.245   6.766   3.693
 1428SOL     OW 5182   6.087   2.899   0.432
 1428SOL    HW1 5183   6.170   2.848   0.456
 1428SOL    HW2 5184   6.023   2.895   0.509
 1429SOL     OW 5185   5.087   2.090   0.458
 1429SOL    HW1 5186   5.098   2.035   0.375
 1429SOL    HW2 5187   5.013   2.156   0.444
 1430SOL     OW 5188   1.601   4.206   3.876
 1430SOL    HW1 5189   1.696   4.223   3.903
 1430SOL    HW2 5190   1.544   4.283   3.904
 1431SOL     OW 5191   2.358   2.331   1.282
 1431SOL    HW1 5192   2.453   2.304   1.269
 1431SOL    HW2 5193   2.324   2.375   1.199
 1432SOL     OW 5194   3.015   1.155   2.404
 1432SOL    HW1 5195   3.032   1.252   2.386
 1432SOL    HW2 5196   3.071   1.124   2.480
 1433SOL     OW 5197   4.155   0.927   5.555
 1433SOL    HW1 5198   4.232   0.912   5.493
 1433SOL    HW2 5199   4.076   0.959   5.502
 1434SOL     OW 5200   6.769   0.388   5.679
 1434SOL    HW1 5201   6.802   0.304   5.636
 1434SOL    HW2 5202   6.793   0.387   5.776
 1435SOL     OW 5203   6.271   0.177   3.346
 1435SOL    HW1 5204   6.343   0.199   3.412
 1435SOL    HW2 5205   6.252   0.257   3.289
 1436SOL     OW 5206   5.460   3.545   0.210
 1436SOL    HW1 5207   5.529   3.541   0.282
 1436SOL    HW2 5208   5.491   3.493   0.130
 1437SOL     OW 5209   2.865   2.146   3.448
 1437SOL    HW1 5210   2.768   2.137   3.474
 1437SOL    HW2 5211   2.880   2.101   3.361
 1438SOL     OW 5212   3.166   5.918   1.431
 1438SOL    HW1 5213   3.211   5.971   1.358
 1438SOL    HW2 5214   3.226   5.913   1.511
 1439SOL     OW 5215   6.957   5.572   1.405
 1439SOL    HW1 5216   0.005   5.513   1.370
 1439SOL    HW2 5217   6.874   5.559   1.351
 1440SOL     OW 5218   3.247   3.440   6.954
 1440SOL    HW1 5219   3.263   3.468   6.859
 1440SOL    HW2 5220   3.326   3.388   6.987
 1441SOL     OW 5221   6.260   0.570   4.007
 1441SOL    HW1 5222   6.298   0.658   4.037
 1441SOL    HW2 5223   6.213   0.582   3.920
 1442SOL     OW 5224   0.154   6.204   0.142
 1442SOL    HW1 5225   0.097   6.140   0.092
 1442SOL    HW2 5226   0.123   6.297   0.125
 1443SOL     OW 5227   0.905   2.890   3.209
 1443SOL    HW1 5228   0.877   2.816   3.148
 1443SOL    HW2 5229   0.860   2.879   3.298
 1444SOL     OW 5230   5.023   6.036   1.203
 1444SOL    HW1 5231   5.081   6.115   1.182
 1444SOL    HW2 5232   5.061   5.954   1.160
 1445SOL     OW 5233   0.837   2.682   3.055
 1445SOL    HW1 5234   0.763   2.654   3.117
 1445SOL    HW2 5235   0.871   2.602   3.006
 1446SOL     OW 5236   6.041   1.457   0.089
 1446SOL    HW1 5237   5.957   1.472   0.140
 1446SOL    HW2 5238   6.021   1.411   0.003
 1447SOL     OW 5239   6.188   6.386   4.243
 1447SOL    HW1 5240   6.286   6.403   4.240
 1447SOL    HW2 5241   6.154   6.373   4.149
 1448SOL     OW 5242   6.439   3.165   5.280
 1448SOL    HW1 5243   6.450   3.227   5.202
 1448SOL    HW2 5244   6.409   3.218   5.359
 1449SOL     OW 5245   1.556   3.327   5.932
 1449SOL    HW1 5246   1.622   3.310   6.004
 1449SOL    HW2 5247   1.549   3.425   5.915
 1450SOL     OW 5248   1.194   2.194   6.744
 1450SOL    HW1 5249   1.241   2.273   6.782
 1450SOL    HW2 5250   1.201   2.117   6.807
 1451SOL     OW 5251   0.849   6.072   2.423
 1451SOL    HW1 5252   0.757   6.078   2.463
 1451SOL    HW2 5253   0.902   6.152   2.451
 1452SOL     OW 5254   4.169   2.310   5.503
 1452SOL    HW1 5255   4.231   2.383   5.531
 1452SOL    HW2 5256   4.192   2.226   5.552
 1453SOL     OW 5257   0.538   4.153   5.832
 1453SOL    HW1 5258   0.572   4.212   5.759
 1453SOL    HW2 5259   0.569   4.189   5.921
 1454SOL     OW 5260   0.782   2.388   2.163
 1454SOL    HW1 5261   0.806   2.310   2.222
 1454SOL    HW2 5262   0.865   2.434   2.133
 1455SOL     OW 5263   1.632   6.643   1.993
 1455SOL    HW1 5264   1.697   6.670   2.065
 1455SOL    HW2 5265   1.681   6.627   1.908
 1456SOL     OW 5266   6.311   0.163   6.255
 1456SOL    HW1 5267   6.256   0.166   6.172
 1456SOL    HW2 5268   6.359   0.250   6.267
 1457SOL     OW 5269   0.599   5.947   0.973
 1457SOL    HW1 5270   0.692   5.968   1.001
 1457SOL    HW2 5271   0.569   6.013   0.904
 1458SOL     OW 5272   6.277   4.943   4.911
 1458SOL    HW1 5273   6.283   4.909   4.817
 1458SOL    HW2 5274   6.184   4.974   4.930
 1459SOL     OW 5275   3.802   6.893   5.565
 1459SOL    HW1 5276   3.900   6.896   5.585
 1459SOL    HW2 5277   3.752   6.859   5.645
 1460SOL     OW 5278   0.888   0.163   5.180
 1460SOL    HW1 5279   0.792   0.157   5.152
 1460SOL    HW2 5280   0.920   0.257   5.167
 1461SOL     OW 5281   6.793   4.072   2.296
 1461SOL    HW1 5282   6.738   4.115   2.225
 1461SOL    HW2 5283   6.848   4.141   2.342
 1462SOL     OW 5284   1.623   1.366   6.644
 1462SOL    HW1 5285   1.681   1.342   6.722
 1462SOL    HW2 5286   1.677   1.414   6.575
 1463SOL     OW 5287   0.865   5.463   5.833
 1463SOL    HW1 5288   0.828   5.526   5.765
 1463SOL    HW2 5289   0.895   5.514   5.914
 1464SOL     OW 5290   6.993   6.034   2.114
 1464SOL    HW1 5291   0.042   6.097   2.138
 1464SOL    HW2 5292   6.908   6.063   2.158
 1465SOL     OW 5293   1.538   0.954   4.004
 1465SOL    HW1 5294   1.465   0.895   3.969
 1465SOL    HW2 5295   1.548   1.034   3.944
 1466SOL     OW 5296   2.663   1.563   2.465
 1466SOL    HW1 5297   2.708   1.506   2.396
 1466SOL    HW2 5298   2.605   1.630   2.419
 1467SOL     OW 5299   1.765   1.371   3.791
 1467SOL    HW1 5300   1.837   1.386   3.860
 1467SOL    HW2 5301   1.808   1.352   3.703
 1468SOL     OW 5302   2.224   5.397   2.403
 1468SOL    HW1 5303   2.314   5.423   2.437
 1468SOL    HW2 5304   2.163   5.476   2.406
 1469SOL     OW 5305   6.728   0.610   2.964
 1469SOL    HW1 5306   6.735   0.709   2.978
 1469SOL    HW2 5307   6.698   0.567   3.049
 1470SOL     OW 5308   1.076   1.652   1.998
 1470SOL    HW1 5309   1.053   1.700   1.913
 1470SOL    HW2 5310   1.175   1.641   2.004
 1471SOL     OW 5311   0.692   0.336   0.777
 1471SOL    HW1 5312   0.763   0.283   0.730
 1471SOL    HW2 5313   0.603   0.293   0.764
 1472SOL     OW 5314   2.262   5.893   6.199
 1472SOL    HW1 5315   2.250   5.906   6.297
 1472SOL    HW2 5316   2.358   5.874   6.179
 1473SOL     OW 5317   3.389   5.335   5.540
 1473SOL    HW1 5318   3.438   5.251   5.563
 1473SOL    HW2 5319   3.452   5.413   5.544
 1474SOL     OW 5320   4.843   4.652   1.514
 1474SOL    HW1 5321   4.767   4.594   1.542
 1474SOL    HW2 5322   4.833   4.673   1.416
 1475SOL     OW 5323   5.466   0.823   1.049
 1475SOL    HW1 5324   5.504   0.913   1.068
 1475SOL    HW2 5325   5.369   0.821   1.075
 1476SOL     OW 5326   2.666   1.221   1.296
 1476SOL    HW1 5327   2.754   1.234   1.342
 1476SOL    HW2 5328   2.639   1.305   1.250
 1477SOL     OW 5329   3.908   6.493   6.135
 1477SOL    HW1 5330   3.835   6.557   6.112
 1477SOL    HW2 5331   3.884   6.443   6.219
 1478SOL     OW 5332   6.246   5.834   5.486
 1478SOL    HW1 5333   6.181   5.806   5.557
 1478SOL    HW2 5334   6.252   5.762   5.417
 1479SOL     OW 5335   2.558   3.360   1.266
 1479SOL    HW1 5336   2.557   3.460   1.267
 1479SOL    HW2 5337   2.644   3.328   1.227
 1480SOL     OW 5338   2.798   0.116   4.627
 1480SOL    HW1 5339   2.877   0.119   4.688
 1480SOL    HW2 5340   2.805   0.190   4.559
 1481SOL     OW 5341   6.258   3.205   6.343
 1481SOL    HW1 5342   6.291   3.217   6.437
 1481SOL    HW2 5343   6.307   3.268   6.283
 1482SOL     OW 5344   4.513   0.979   2.034
 1482SOL    HW1 5345   4.606   1.006   2.060
 1482SOL    HW2 5346   4.480   0.908   2.096
 1483SOL     OW 5347   5.254   2.357   5.451
 1483SOL    HW1 5348   5.177   2.393   5.504
 1483SOL    HW2 5349   5.303   2.433   5.407
 1484SOL     OW 5350   4.872   4.709   3.854
 1484SOL    HW1 5351   4.872   4.672   3.947
 1484SOL    HW2 5352   4.959   4.688   3.810
 1485SOL     OW 5353   4.731   0.765   4.586
 1485SOL    HW1 5354   4.742   0.834   4.657
 1485SOL    HW2 5355   4.769   0.800   4.500
 1486SOL     OW 5356   5.541   0.671   3.468
 1486SOL    HW1 5357   5.507   0.708   3.382
 1486SOL    HW2 5358   5.633   0.633   3.453
 1487SOL     OW 5359   0.472   2.235   6.765
 1487SOL    HW1 5360   0.502   2.156   6.711
 1487SOL    HW2 5361   0.418   2.203   6.843
 1488SOL     OW 5362   5.152   6.577   3.762
 1488SOL    HW1 5363   5.182   6.672   3.773
 1488SOL    HW2 5364   5.128   6.560   3.667
 1489SOL     OW 5365   3.704   5.437   6.642
 1489SOL    HW1 5366   3.728   5.359   6.585
 1489SOL    HW2 5367   3.787   5.484   6.671
 1490SOL     OW 5368   0.117   3.650   1.114
 1490SOL    HW1 5369   0.136   3.735   1.165
 1490SOL    HW2 5370   0.179   3.643   1.036
 1491SOL     OW 5371   6.520   4.224   2.445
 1491SOL    HW1 5372   6.478   4.294   2.387
 1491SOL    HW2 5373   6.616   4.245   2.459
 1492SOL     OW 5374   5.938   0.450   2.155
 1492SOL    HW1 5375   6.034   0.461   2.127
 1492SOL    HW2 5376   5.906   0.534   2.197
 1493SOL     OW 5377   3.784   0.151   6.236
 1493SOL    HW1 5378   3.848   0.120   6.165
 1493SOL    HW2 5379   3.816   0.238   6.273
 1494SOL     OW 5380   5.200   2.538   6.503
 1494SOL    HW1 5381   5.234   2.632   6.495
 1494SOL    HW2 5382   5.121   2.536   6.564
 1495SOL     OW 5383   0.655   4.006   5.192
 1495SOL    HW1 5384   0.558   3.993   5.176
 1495SOL    HW2 5385   0.669   4.082   5.256
 1496SOL     OW 5386   1.417   1.479   0.685
 1496SOL    HW1 5387   1.500   1.534   0.694
 1496SOL    HW2 5388   1.442   1.382   0.680
 1497SOL     OW 5389   5.418   2.810   2.304
 1497SOL    HW1 5390   5.470   2.876   2.251
 1497SOL    HW2 5391   5.471   2.781   2.384
 1498SOL     OW 5392   2.582   4.515   6.788
 1498SOL    HW1 5393   2.634   4.463   6.854
 1498SOL    HW2 5394   2.545   4.597   6.832
 1499SOL     OW 5395   0.412   2.618   5.500
 1499SOL    HW1 5396   0.345   2.554   5.463
 1499SOL    HW2 5397   0.410   2.702   5.447
 1500SOL     OW 5398   0.566   0.092   0.011
 1500SOL    HW1 5399   0.660   0.123   7.016
 1500SOL    HW2 5400   0.567   0.031   0.090
 1501SOL     OW 5401   5.696   2.446   6.481
 1501SOL    HW1 5402   5.672   2.349   6.488
 1501SOL    HW2 5403   5.782   2.456   6.433
 1502SOL     OW 5404   4.792   0.705   6.953
 1502SOL    HW1 5405   4.713   0.703   6.892
 1502SOL    HW2 5406   4.804   0.615   6.995
 1503SOL     OW 5407   1.678   2.927   2.510
 1503SOL    HW1 5408   1.603   2.872   2.547
 1503SOL    HW2 5409   1.656   3.024   2.520
 1504SOL     OW 5410   0.684   0.604   4.176
 1504SOL    HW1 5411   0.733   0.640   4.096
 1504SOL    HW2 5412   0.589   0.584   4.150
 1505SOL     OW 5413   4.382   0.330   5.376
 1505SOL    HW1 5414   4.417   0.401   5.436
 1505SOL    HW2 5415   4.459   0.277   5.339
 1506SOL     OW 5416   0.952   6.677   0.316
 1506SOL    HW1 5417   0.943   6.676   0.416
 1506SOL    HW2 5418   0.975   6.770   0.286
 1507SOL     OW 5419   0.329   2.079   5.998
 1507SOL    HW1 5420   0.323   2.011   5.925
 1507SOL    HW2 5421   0.255   2.146   5.988
 1508SOL     OW 5422   6.265   1.178   0.965
 1508SOL    HW1 5423   6.277   1.273   0.937
 1508SOL    HW2 5424   6.252   1.174   1.065
 1509SOL     OW 5425   4.556   2.095   4.930
 1509SOL    HW1 5426   4.465   2.138   4.930
 1509SOL    HW2 5427   4.603   2.115   4.845
 1510SOL     OW 5428   4.949   0.239   4.700
 1510SOL    HW1 5429   4.962   0.322   4.646
 1510SOL    HW2 5430   5.019   0.171   4.675
 1511SOL     OW 5431   4.145   3.471   4.033
 1511SOL    HW1 5432   4.135   3.372   4.042
 1511SOL    HW2 5433   4.197   3.506   4.111
 1512SOL     OW 5434   6.550   5.850   1.034
 1512SOL    HW1 5435   6.572   5.753   1.042
 1512SOL    HW2 5436   6.565   5.895   1.122
 1513SOL     OW 5437   4.148   0.750   4.643
 1513SOL    HW1 5438   4.190   0.838   4.665
 1513SOL    HW2 5439   4.198   0.708   4.567
 1514SOL     OW 5440   3.864   2.952   5.271
 1514SOL    HW1 5441   3.916   2.918   5.349
 1514SOL    HW2 5442   3.913   3.029   5.229
 1515SOL     OW 5443   5.460   2.033   2.309
 1515SOL    HW1 5444   5.360   2.027   2.314
 1515SOL    HW2 5445   5.492   2.105   2.370
 1516SOL     OW 5446   6.255   5.635   5.720
 1516SOL    HW1 5447   6.259   5.561   5.653
 1516SOL    HW2 5448   6.172   5.689   5.706
 1517SOL     OW 5449   4.668   6.123   2.507
 1517SOL    HW1 5450   4.635   6.163   2.422
 1517SOL    HW2 5451   4.747   6.064   2.487
 1518SOL     OW 5452   0.128   2.230   0.365
 1518SOL    HW1 5453   0.065   2.301   0.394
 1518SOL    HW2 5454   0.121   2.152   0.427
 1519SOL     OW 5455   6.610   4.699   1.335
 1519SOL    HW1 5456   6.581   4.743   1.419
 1519SOL    HW2 5457   6.663   4.617   1.357
 1520SOL     OW 5458   0.236   4.575   2.036
 1520SOL    HW1 5459   0.286   4.517   1.972
 1520SOL    HW2 5460   0.160   4.523   2.076
 1521SOL     OW 5461   2.604   4.537   6.240
 1521SOL    HW1 5462   2.617   4.448   6.196
 1521SOL    HW2 5463   2.610   4.526   6.339
 1522SOL     OW 5464   5.838   5.941   4.998
 1522SOL    HW1 5465   5.824   5.859   5.053
 1522SOL    HW2 5466   5.899   6.004   5.046
 1523SOL     OW 5467   4.022   6.582   6.954
 1523SOL    HW1 5468   3.979   6.528   0.002
 1523SOL    HW2 5469   3.997   6.678   6.965
 1524SOL     OW 5470   1.984   1.618   2.138
 1524SOL    HW1 5471   1.917   1.690   2.122
 1524SOL    HW2 5472   2.069   1.658   2.172
 1525SOL     OW 5473   6.306   3.117   0.448
 1525SOL    HW1 5474   6.275   3.088   0.538
 1525SOL    HW2 5475   6.247   3.078   0.377
 1526SOL     OW 5476   0.024   1.227   6.503
 1526SOL    HW1 5477   0.073   1.257   6.585
 1526SOL    HW2 5478   6.970   1.171   6.530
 1527SOL     OW 5479   3.890   1.625   4.437
 1527SOL    HW1 5480   3.843   1.665   4.516
 1527SOL    HW2 5481   3.860   1.671   4.353
 1528SOL     OW 5482   3.964   4.832   3.026
 1528SOL    HW1 5483   3.935   4.790   3.112
 1528SOL    HW2 5484   4.005   4.762   2.967
 1529SOL     OW 5485   3.992   0.433   0.078
 1529SOL    HW1 5486   4.067   0.374   0.108
 1529SOL    HW2 5487   3.957   0.486   0.156
 1530SOL     OW 5488   3.974   1.774   2.108
 1530SOL    HW1 5489   3.945   1.704   2.173
 1530SOL    HW2 5490   3.908   1.780   2.034
 1531SOL     OW 5491   4.702   0.320   5.581
 1531SOL    HW1 5492   4.711   0.273   5.669
 1531SOL    HW2 5493   4.748   0.267   5.510
 1532SOL     OW 5494   3.787   4.464   5.845
 1532SOL    HW1 5495   3.884   4.486   5.833
 1532SOL    HW2 5496   3.772   4.432   5.939
 1533SOL     OW 5497   6.247   5.107   6.908
 1533SOL    HW1 5498   6.198   5.101   6.995
 1533SOL    HW2 5499   6.214   5.186   6.857
 1534SOL     OW 5500   2.954   6.102   6.792
 1534SOL    HW1 5501   2.940   6.015   6.745
 1534SOL    HW2 5502   2.865   6.141   6.816
 1535SOL     OW 5503   5.069   5.891   4.289
 1535SOL    HW1 5504   4.983   5.883   4.238
 1535SOL    HW2 5505   5.054   5.868   4.385
 1536SOL     OW 5506   3.581   4.963   6.336
 1536SOL    HW1 5507   3.563   5.060   6.349
 1536SOL    HW2 5508   3.680   4.947   6.333
 1537SOL     OW 5509   4.504   5.845   4.007
 1537SOL    HW1 5510   4.473   5.857   4.101
 1537SOL    HW2 5511   4.584   5.786   4.006
 1538SOL     OW 5512   3.042   0.057   6.770
 1538SOL    HW1 5513   2.960   0.111   6.747
 1538SOL    HW2 5514   3.063   0.069   6.867
 1539SOL     OW 5515   5.024   3.362   1.864
 1539SOL    HW1 5516   4.931   3.348   1.897
 1539SOL    HW2 5517   5.066   3.274   1.843
 1540SOL     OW 5518   0.215   6.608   5.112
 1540SOL    HW1 5519   0.158   6.677   5.068
 1540SOL    HW2 5520   0.243   6.641   5.202
 1541SOL     OW 5521   3.065   3.185   4.634
 1541SOL    HW1 5522   3.119   3.252   4.684
 1541SOL    HW2 5523   3.101   3.093   4.652
 1542SOL     OW 5524   6.403   0.838   2.460
 1542SOL    HW1 5525   6.489   0.826   2.509
 1542SOL    HW2 5526   6.329   0.852   2.526
 1543SOL     OW 5527   3.493   4.856   5.124
 1543SOL    HW1 5528   3.461   4.871   5.031
 1543SOL    HW2 5529   3.513   4.944   5.168
 1544SOL     OW 5530   2.961   3.338   3.214
 1544SOL    HW1 5531   3.058   3.362   3.202
 1544SOL    HW2 5532   2.935   3.271   3.144
 1545SOL     OW 5533   5.071   0.527   2.888
 1545SOL    HW1 5534   5.080   0.452   2.823
 1545SOL    HW2 5535   5.039   0.492   2.976
 1546SOL     OW 5536   4.288   6.676   5.648
 1546SOL    HW1 5537   4.376   6.631   5.668
 1546SOL    HW2 5538   4.292   6.717   5.557
 1547SOL     OW 5539   1.948   4.244   1.278
 1547SOL    HW1 5540   2.005   4.189   1.216
 1547SOL    HW2 5541   1.852   4.219   1.266
 1548SOL     OW 5542   5.409   4.164   6.525
 1548SOL    HW1 5543   5.433   4.075   6.563
 1548SOL    HW2 5544   5.417   4.162   6.425
 1549SOL     OW 5545   4.225   1.821   1.546
 1549SOL    HW1 5546   4.201   1.854   1.455
 1549SOL    HW2 5547   4.172   1.871   1.615
 1550SOL     OW 5548   2.386   3.669   0.434
 1550SOL    HW1 5549   2.298   3.690   0.392
 1550SOL    HW2 5550   2.453   3.647   0.363
 1551SOL     OW 5551   2.026   4.180   6.357
 1551SOL    HW1 5552   2.008   4.249   6.288
 1551SOL    HW2 5553   2.055   4.094   6.313
 1552SOL     OW 5554   2.192   5.278   0.791
 1552SOL    HW1 5555   2.124   5.206   0.775
 1552SOL    HW2 5556   2.282   5.236   0.804
 1553SOL     OW 5557   6.904   1.758   6.836
 1553SOL    HW1 5558   6.831   1.800   6.783
 1553SOL    HW2 5559   6.955   1.694   6.778
 1554SOL     OW 5560   3.492   2.014   3.338
 1554SOL    HW1 5561   3.498   1.926   3.387
 1554SOL    HW2 5562   3.475   2.087   3.404
 1555SOL     OW 5563   5.593   3.070   0.264
 1555SOL    HW1 5564   5.602   3.123   0.179
 1555SOL    HW2 5565   5.497   3.068   0.292
 1556SOL     OW 5566   3.123   2.412   0.131
 1556SOL    HW1 5567   3.134   2.348   0.055
 1556SOL    HW2 5568   3.066   2.371   0.202
 1557SOL     OW 5569   1.804   2.316   5.212
 1557SOL    HW1 5570   1.844   2.406   5.227
 1557SOL    HW2 5571   1.733   2.321   5.142
 1558SOL     OW 5572   6.044   0.729   4.725
 1558SOL    HW1 5573   5.983   0.666   4.678
 1558SOL    HW2 5574   6.018   0.736   4.821
 1559SOL     OW 5575   2.075   2.732   6.909
 1559SOL    HW1 5576   2.038   2.778   6.828
 1559SOL    HW2 5577   2.008   2.735   6.983
 1560SOL     OW 5578   6.887   1.143   5.573
 1560SOL    HW1 5579   6.922   1.234   5.596
 1560SOL    HW2 5580   6.953   1.096   5.515
 1561SOL     OW 5581   5.914   6.514   3.676
 1561SOL    HW1 5582   5.932   6.601   3.630
 1561SOL    HW2 5583   5.851   6.529   3.752
 1562SOL     OW 5584   5.242   5.849   2.534
 1562SOL    HW1 5585   5.335   5.827   2.564
 1562SOL    HW2 5586   5.229   5.822   2.439
 1563SOL     OW 5587   2.116   0.074   5.370
 1563SOL    HW1 5588   2.167   0.150   5.328
 1563SOL    HW2 5589   2.116   7.020   5.308
 1564SOL     OW 5590   1.278   1.958   3.433
 1564SOL    HW1 5591   1.201   1.945   3.496
 1564SOL    HW2 5592   1.247   2.008   3.352
 1565SOL     OW 5593   4.396   4.612   3.765
 1565SOL    HW1 5594   4.478   4.651   3.806
 1565SOL    HW2 5595   4.353   4.681   3.706
 1566SOL     OW 5596   6.200   4.716   2.872
 1566SOL    HW1 5597   6.158   4.791   2.821
 1566SOL    HW2 5598   6.128   4.659   2.912
 1567SOL     OW 5599   6.314   6.228   0.893
 1567SOL    HW1 5600   6.339   6.206   0.987
 1567SOL    HW2 5601   6.251   6.306   0.892
 1568SOL     OW 5602   1.506   6.761   6.717
 1568SOL    HW1 5603   1.421   6.795   6.675
 1568SOL    HW2 5604   1.537   6.680   6.668
 1569SOL     OW 5605   4.661   6.111   3.359
 1569SOL    HW1 5606   4.755   6.103   3.325
 1569SOL    HW2 5607   4.661   6.104   3.459
 1570SOL     OW 5608   1.629   0.430   1.407
 1570SOL    HW1 5609   1.716   0.417   1.359
 1570SOL    HW2 5610   1.554   0.414   1.343
 1571SOL     OW 5611   5.344   2.276   0.711
 1571SOL    HW1 5612   5.290   2.314   0.786
 1571SOL    HW2 5613   5.392   2.350   0.663
 1572SOL     OW 5614   0.145   6.559   1.270
 1572SOL    HW1 5615   0.193   6.485   1.222
 1572SOL    HW2 5616   0.204   6.639   1.276
 1573SOL     OW 5617   5.331   2.192   2.847
 1573SOL    HW1 5618   5.291   2.115   2.896
 1573SOL    HW2 5619   5.270   2.270   2.852
 1574SOL     OW 5620   6.399   0.773   1.887
 1574SOL    HW1 5621   6.438   0.863   1.868
 1574SOL    HW2 5622   6.303   0.771   1.859
 1575SOL     OW 5623   3.026   1.393   0.573
 1575SOL    HW1 5624   2.962   1.324   0.540
 1575SOL    HW2 5625   3.118   1.370   0.543
 1576SOL     OW 5626   0.703   6.741   3.776
 1576SOL    HW1 5627   0.710   6.813   3.845
 1576SOL    HW2 5628   0.674   6.781   3.689
 1577SOL     OW 5629   3.325   2.128   4.492
 1577SOL    HW1 5630   3.238   2.093   4.526
 1577SOL    HW2 5631   3.392   2.127   4.567
 1578SOL     OW 5632   6.199   3.440   5.686
 1578SOL    HW1 5633   6.107   3.437   5.648
 1578SOL    HW2 5634   6.195   3.425   5.785
 1579SOL     OW 5635   0.060   1.671   2.924
 1579SOL    HW1 5636   0.117   1.736   2.874
 1579SOL    HW2 5637   0.083   1.673   3.021
 1580SOL     OW 5638   2.510   3.637   5.377
 1580SOL    HW1 5639   2.548   3.616   5.467
 1580SOL    HW2 5640   2.575   3.693   5.325
 1581SOL     OW 5641   0.456   4.390   5.174
 1581SOL    HW1 5642   0.478   4.435   5.087
 1581SOL    HW2 5643   0.538   4.386   5.231
 1582SOL     OW 5644   1.423   6.528   4.365
 1582SOL    HW1 5645   1.361   6.576   4.427
 1582SOL    HW2 5646   1.425   6.431   4.389
 1583SOL     OW 5647   0.755   4.024   3.670
 1583SOL    HW1 5648   0.835   4.049   3.725
 1583SOL    HW2 5649   0.778   4.034   3.573
 1584SOL     OW 5650   1.405   6.834   4.848
 1584SOL    HW1 5651   1.356   6.783   4.777
 1584SOL    HW2 5652   1.342   6.861   4.920
 1585SOL     OW 5653   5.906   1.289   3.820
 1585SOL    HW1 5654   5.872   1.360   3.881
 1585SOL    HW2 5655   5.828   1.238   3.782
 1586SOL     OW 5656   3.300   4.007   0.660
 1586SOL    HW1 5657   3.232   3.942   0.695
 1586SOL    HW2 5658   3.383   4.000   0.715
 1587SOL     OW 5659   2.587   5.396   0.139
 1587SOL    HW1 5660   2.592   5.412   0.041
 1587SOL    HW2 5661   2.674   5.358   0.172
 1588SOL     OW 5662   5.280   1.470   2.779
 1588SOL    HW1 5663   5.244   1.414   2.853
 1588SOL    HW2 5664   5.336   1.414   2.718
 1589SOL     OW 5665   6.520   3.968   2.905
 1589SOL    HW1 5666   6.493   4.009   2.992
 1589SOL    HW2 5667   6.486   4.025   2.830
 1590SOL     OW 5668   2.629   6.666   6.040
 1590SOL    HW1 5669   2.577   6.598   6.091
 1590SOL    HW2 5670   2.713   6.625   6.005
 1591SOL     OW 5671   0.829   4.905   2.797
 1591SOL    HW1 5672   0.801   4.811   2.815
 1591SOL    HW2 5673   0.753   4.967   2.817
 1592SOL     OW 5674   2.686   4.553   1.400
 1592SOL    HW1 5675   2.636   4.467   1.390
 1592SOL    HW2 5676   2.689   4.578   1.497
 1593SOL     OW 5677   0.805   6.121   3.741
 1593SOL    HW1 5678   0.874   6.173   3.791
 1593SOL    HW2 5679   0.717   6.131   3.786
 1594SOL     OW 5680   6.763   5.695   2.774
 1594SOL    HW1 5681   6.697   5.651   2.713
 1594SOL    HW2 5682   6.793   5.629   2.844
 1595SOL     OW 5683   1.032   5.115   6.855
 1595SOL    HW1 5684   1.096   5.134   6.781
 1595SOL    HW2 5685   1.006   5.200   6.901
 1596SOL     OW 5686   0.533   3.096   4.799
 1596SOL    HW1 5687   0.605   3.113   4.867
 1596SOL    HW2 5688   0.464   3.169   4.805
 1597SOL     OW 5689   2.387   5.985   0.028
 1597SOL    HW1 5690   2.426   5.953   6.966
 1597SOL    HW2 5691   2.395   6.085   0.033
 1598SOL     OW 5692   0.790   3.563   0.261
 1598SOL    HW1 5693   0.795   3.496   0.335
 1598SOL    HW2 5694   0.881   3.578   0.223
 1599SOL     OW 5695   5.110   4.131   5.634
 1599SOL    HW1 5696   5.176   4.151   5.562
 1599SOL    HW2 5697   5.108   4.032   5.650
 1600SOL     OW 5698   5.010   1.854   5.265
 1600SOL    HW1 5699   4.926   1.820   5.223
 1600SOL    HW2 5700   5.059   1.777   5.306
 1601SOL     OW 5701   0.465   4.935   4.509
 1601SOL    HW1 5702   0.520   4.893   4.437
 1601SOL    HW2 5703   0.518   5.006   4.555
 1602SOL     OW 5704   2.012   5.471   4.115
 1602SOL    HW1 5705   1.982   5.475   4.020
 1602SOL    HW2 5706   2.064   5.553   4.138
 1603SOL     OW 5707   0.440   5.855   2.116
 1603SOL    HW1 5708   0.498   5.817   2.188
 1603SOL    HW2 5709   0.344   5.836   2.138
 1604SOL     OW 5710   6.167   4.833   6.812
 1604SOL    HW1 5711   6.100   4.835   6.887
 1604SOL    HW2 5712   6.181   4.926   6.778
 1605SOL     OW 5713   6.198   6.394   2.489
 1605SOL    HW1 5714   6.248   6.311   2.517
 1605SOL    HW2 5715   6.127   6.369   2.423
 1606SOL     OW 5716   3.327   0.457   4.940
 1606SOL    HW1 5717   3.335   0.361   4.965
 1606SOL    HW2 5718   3.324   0.466   4.841
 1607SOL     OW 5719   4.441   2.774   0.608
 1607SOL    HW1 5720   4.502   2.849   0.584
 1607SOL    HW2 5721   4.384   2.751   0.529
 1608SOL     OW 5722   1.441   1.019   5.471
 1608SOL    HW1 5723   1.482   1.014   5.379
 1608SOL    HW2 5724   1.422   0.926   5.503
 1609SOL     OW 5725   4.374   0.629   0.218
 1609SOL    HW1 5726   4.433   0.550   0.232
 1609SOL    HW2 5727   4.425   0.701   0.170
 1610SOL     OW 5728   6.330   3.920   5.265
 1610SOL    HW1 5729   6.338   3.839   5.207
 1610SOL    HW2 5730   6.368   4.000   5.217
 1611SOL     OW 5731   3.377   3.609   1.785
 1611SOL    HW1 5732   3.306   3.679   1.775
 1611SOL    HW2 5733   3.460   3.652   1.822
 1612SOL     OW 5734   3.170   1.434   5.401
 1612SOL    HW1 5735   3.247   1.439   5.465
 1612SOL    HW2 5736   3.102   1.502   5.426
 1613SOL     OW 5737   1.711   6.020   1.898
 1613SOL    HW1 5738   1.691   6.109   1.940
 1613SOL    HW2 5739   1.651   5.951   1.938
 1614SOL     OW 5740   6.337   3.791   7.007
 1614SOL    HW1 5741   6.323   3.888   6.986
 1614SOL    HW2 5742   6.303   3.772   0.075
 1615SOL     OW 5743   6.075   4.554   0.543
 1615SOL    HW1 5744   6.095   4.527   0.637
 1615SOL    HW2 5745   6.060   4.472   0.487
 1616SOL     OW 5746   3.986   2.088   5.700
 1616SOL    HW1 5747   4.054   2.142   5.750
 1616SOL    HW2 5748   3.912   2.147   5.668
 1617SOL     OW 5749   6.498   6.780   1.490
 1617SOL    HW1 5750   6.545   6.713   1.547
 1617SOL    HW2 5751   6.399   6.770   1.502
 1618SOL     OW 5752   1.043   3.644   0.743
 1618SOL    HW1 5753   0.968   3.658   0.807
 1618SOL    HW2 5754   1.042   3.549   0.711
 1619SOL     OW 5755   1.074   1.887   3.926
 1619SOL    HW1 5756   1.086   1.983   3.900
 1619SOL    HW2 5757   1.147   1.832   3.885
 1620SOL     OW 5758   1.994   5.920   0.904
 1620SOL    HW1 5759   1.964   5.973   0.983
 1620SOL    HW2 5760   2.001   5.980   0.824
 1621SOL     OW 5761   0.611   1.277   0.464
 1621SOL    HW1 5762   0.540   1.311   0.524
 1621SOL    HW2 5763   0.571   1.254   0.375
 1622SOL     OW 5764   1.070   2.627   4.355
 1622SOL    HW1 5765   1.148   2.617   4.294
 1622SOL    HW2 5766   1.102   2.638   4.449
 1623SOL     OW 5767   2.541   3.330   5.634
 1623SOL    HW1 5768   2.510   3.235   5.631
 1623SOL    HW2 5769   2.573   3.351   5.727
 1624SOL     OW 5770   3.486   1.080   5.905
 1624SOL    HW1 5771   3.448   1.023   5.832
 1624SOL    HW2 5772   3.456   1.174   5.892
 1625SOL     OW 5773   1.403   5.727   2.221
 1625SOL    HW1 5774   1.401   5.632   2.189
 1625SOL    HW2 5775   1.312   5.766   2.216
 1626SOL     OW 5776   3.135   2.082   6.626
 1626SOL    HW1 5777   3.088   2.144   6.564
 1626SOL    HW2 5778   3.068   2.030   6.679
 1627SOL     OW 5779   6.303   2.328   4.215
 1627SOL    HW1 5780   6.280   2.234   4.186
 1627SOL    HW2 5781   6.221   2.371   4.253
 1628SOL     OW 5782   4.320   4.814   0.057
 1628SOL    HW1 5783   4.241   4.855   0.011
 1628SOL    HW2 5784   4.320   4.715   0.042
 1629SOL     OW 5785   2.948   1.996   4.397
 1629SOL    HW1 5786   2.939   2.088   4.360
 1629SOL    HW2 5787   2.860   1.965   4.432
 1630SOL     OW 5788   1.397   6.420   5.593
 1630SOL    HW1 5789   1.413   6.514   5.624
 1630SOL    HW2 5790   1.307   6.414   5.549
 1631SOL     OW 5791   0.352   1.295   6.123
 1631SOL    HW1 5792   0.307   1.381   6.100
 1631SOL    HW2 5793   0.341   1.231   6.047
 1632SOL     OW 5794   0.320   1.670   0.048
 1632SOL    HW1 5795   0.225   1.688   0.075
 1632SOL    HW2 5796   0.348   1.734   7.001
 1633SOL     OW 5797   5.045   1.995   3.650
 1633SOL    HW1 5798   5.100   2.023   3.730
 1633SOL    HW2 5799   5.106   1.959   3.579
 1634SOL     OW 5800   4.261   5.158   5.572
 1634SOL    HW1 5801   4.344   5.148   5.626
 1634SOL    HW2 5802   4.183   5.173   5.633
 1635SOL     OW 5803   6.216   5.494   5.494
 1635SOL    HW1 5804   6.222   5.395   5.479
 1635SOL    HW2 5805   6.229   5.541   5.406
 1636SOL     OW 5806   2.217   4.028   1.516
 1636SOL    HW1 5807   2.158   4.072   1.449
 1636SOL    HW2 5808   2.288   3.975   1.469
 1637SOL     OW 5809   0.008   0.617   2.926
 1637SOL    HW1 5810   0.010   0.587   3.021
 1637SOL    HW2 5811   6.941   0.603   2.888
 1638SOL     OW 5812   0.750   4.230   4.143
 1638SOL    HW1 5813   0.701   4.286   4.077
 1638SOL    HW2 5814   0.713   4.137   4.142
 1639SOL     OW 5815   4.583   0.190   2.874
 1639SOL    HW1 5816   4.541   0.168   2.786
 1639SOL    HW2 5817   4.528   0.152   2.948
 1640SOL     OW 5818   5.855   1.708   1.031
 1640SOL    HW1 5819   5.774   1.700   0.974
 1640SOL    HW2 5820   5.840   1.657   1.116
 1641SOL     OW 5821   5.445   3.038   4.042
 1641SOL    HW1 5822   5.476   3.127   4.009
 1641SOL    HW2 5823   5.524   2.977   4.050
 1642SOL     OW 5824   6.537   3.591   7.014
 1642SOL    HW1 5825   6.456   3.649   7.014
 1642SOL    HW2 5826   6.618   3.647   6.996
 1643SOL     OW 5827   2.425   5.350   4.133
 1643SOL    HW1 5828   2.521   5.372   4.118
 1643SOL    HW2 5829   2.368   5.408   4.073
 1644SOL     OW 5830   1.344   2.492   1.159
 1644SOL    HW1 5831   1.366   2.399   1.131
 1644SOL    HW2 5832   1.390   2.557   1.099
 1645SOL     OW 5833   3.002   6.624   5.010
 1645SOL    HW1 5834   2.929   6.633   5.077
 1645SOL    HW2 5835   3.054   6.709   5.005
 1646SOL     OW 5836   2.652   6.240   1.565
 1646SOL    HW1 5837   2.564   6.193   1.570
 1646SOL    HW2 5838   2.647   6.313   1.497
 1647SOL     OW 5839   5.276   2.299   4.383
 1647SOL    HW1 5840   5.230   2.294   4.471
 1647SOL    HW2 5841   5.253   2.384   4.337
 1648SOL     OW 5842   6.150   5.977   1.142
 1648SOL    HW1 5843   6.206   5.923   1.079
 1648SOL    HW2 5844   6.187   6.070   1.147
 1649SOL     OW 5845   3.671   0.517   3.757
 1649SOL    HW1 5846   3.579   0.542   3.788
 1649SOL    HW2 5847   3.677   0.526   3.658
 1650SOL     OW 5848   2.411   6.517   4.149
 1650SOL    HW1 5849   2.354   6.592   4.183
 1650SOL    HW2 5850   2.500   6.553   4.120
 1651SOL     OW 5851   1.081   1.089   1.365
 1651SOL    HW1 5852   1.104   1.097   1.462
 1651SOL    HW2 5853   1.053   1.179   1.330
 1652SOL     OW 5854   1.540   2.682   2.048
 1652SOL    HW1 5855   1.507   2.611   1.986
 1652SOL    HW2 5856   1.628   2.655   2.087
 1653SOL     OW 5857   0.281   6.681   1.483
 1653SOL    HW1 5858   0.274   6.654   1.579
 1653SOL    HW2 5859   0.236   6.613   1.426
 1654SOL     OW 5860   6.650   2.638   1.856
 1654SOL    HW1 5861   6.687   2.584   1.780
 1654SOL    HW2 5862   6.703   2.619   1.939
 1655SOL     OW 5863   5.624   3.446   5.447
 1655SOL    HW1 5864   5.636   3.544   5.459
 1655SOL    HW2 5865   5.683   3.414   5.372
 1656SOL     OW 5866   1.810   4.501   3.255
 1656SOL    HW1 5867   1.882   4.446   3.212
 1656SOL    HW2 5868   1.723   4.484   3.210
 1657SOL     OW 5869   0.213   1.284   4.166
 1657SOL    HW1 5870   0.293   1.310   4.111
 1657SOL    HW2 5871   0.240   1.215   4.233
 1658SOL     OW 5872   0.632   0.354   3.078
 1658SOL    HW1 5873   0.539   0.378   3.107
 1658SOL    HW2 5874   0.659   0.413   3.003
 1659SOL     OW 5875   3.748   1.508   6.130
 1659SOL    HW1 5876   3.814   1.583   6.126
 1659SOL    HW2 5877   3.773   1.439   6.063
 1660SOL     OW 5878   1.487   4.903   4.104
 1660SOL    HW1 5879   1.529   4.875   4.190
 1660SOL    HW2 5880   1.453   4.996   4.112
 1661SOL     OW 5881   3.142   1.637   1.533
 1661SOL    HW1 5882   3.213   1.632   1.463
 1661SOL    HW2 5883   3.084   1.717   1.516
 1662SOL     OW 5884   6.458   1.298   4.031
 1662SOL    HW1 5885   6.413   1.339   3.952
 1662SOL    HW2 5886   6.448   1.198   4.027
 1663SOL     OW 5887   2.869   1.503   3.223
 1663SOL    HW1 5888   2.839   1.488   3.129
 1663SOL    HW2 5889   2.847   1.596   3.251
 1664SOL     OW 5890   1.706   0.260   3.871
 1664SOL    HW1 5891   1.623   0.265   3.816
 1664SOL    HW2 5892   1.739   0.353   3.890
 1665SOL     OW 5893   6.711   1.554   2.664
 1665SOL    HW1 5894   6.809   1.571   2.676
 1665SOL    HW2 5895   6.673   1.622   2.602
 1666SOL     OW 5896   6.020   3.778   0.595
 1666SOL    HW1 5897   6.111   3.805   0.563
 1666SOL    HW2 5898   5.957   3.776   0.517
 1667SOL     OW 5899   5.341   6.782   1.211
 1667SOL    HW1 5900   5.401   6.775   1.291
 1667SOL    HW2 5901   5.361   6.706   1.149
 1668SOL     OW 5902   5.090   6.002   5.891
 1668SOL    HW1 5903   5.098   5.947   5.974
 1668SOL    HW2 5904   5.182   6.028   5.860
 1669SOL     OW 5905   6.071   6.936   0.712
 1669SOL    HW1 5906   6.040   6.893   0.796
 1669SOL    HW2 5907   6.000   6.998   0.678
 1670SOL     OW 5908   0.073   5.589   6.432
 1670SOL    HW1 5909   0.113   5.670   6.390
 1670SOL    HW2 5910   0.082   5.594   6.531
 1671SOL     OW 5911   4.440   2.462   0.708
 1671SOL    HW1 5912   4.392   2.524   0.645
 1671SOL    HW2 5913   4.391   2.460   0.795
 1672SOL     OW 5914   2.060   4.063   2.450
 1672SOL    HW1 5915   2.063   4.159   2.478
 1672SOL    HW2 5916   2.098   4.055   2.358
 1673SOL     OW 5917   0.623   2.555   4.433
 1673SOL    HW1 5918   0.602   2.556   4.335
 1673SOL    HW2 5919   0.680   2.475   4.455
 1674SOL     OW 5920   0.761   3.916   1.778
 1674SOL    HW1 5921   0.683   3.949   1.725
 1674SOL    HW2 5922   0.845   3.948   1.736
 1675SOL     OW 5923   4.414   0.135   6.047
 1675SOL    HW1 5924   4.454   0.166   6.133
 1675SOL    HW2 5925   4.381   0.041   6.058
 1676SOL     OW 5926   3.321   1.153   2.059
 1676SOL    HW1 5927   3.406   1.186   2.018
 1676SOL    HW2 5928   3.245   1.170   1.996
 1677SOL     OW 5929   4.298   2.881   5.585
 1677SOL    HW1 5930   4.322   2.797   5.635
 1677SOL    HW2 5931   4.200   2.883   5.567
 1678SOL     OW 5932   4.887   4.719   4.387
 1678SOL    HW1 5933   4.966   4.721   4.449
 1678SOL    HW2 5934   4.871   4.812   4.352
 1679SOL     OW 5935   2.165   3.362   5.086
 1679SOL    HW1 5936   2.241   3.378   5.149
 1679SOL    HW2 5937   2.150   3.444   5.030
 1680SOL     OW 5938   0.954   2.009   4.158
 1680SOL    HW1 5939   0.854   2.006   4.152
 1680SOL    HW2 5940   0.994   1.962   4.079
 1681SOL     OW 5941   6.558   5.979   1.290
 1681SOL    HW1 5942   6.514   6.029   1.364
 1681SOL    HW2 5943   6.641   6.027   1.261
 1682SOL     OW 5944   6.918   2.810   4.694
 1682SOL    HW1 5945   6.952   2.777   4.606
 1682SOL    HW2 5946   6.994   2.818   4.758
 1683SOL     OW 5947   3.601   5.825   1.215
 1683SOL    HW1 5948   3.614   5.757   1.287
 1683SOL    HW2 5949   3.690   5.858   1.184
 1684SOL     OW 5950   1.335   6.031   2.743
 1684SOL    HW1 5951   1.309   5.935   2.736
 1684SOL    HW2 5952   1.269   6.079   2.801
 1685SOL     OW 5953   3.141   1.482   6.488
 1685SOL    HW1 5954   3.203   1.405   6.476
 1685SOL    HW2 5955   3.148   1.544   6.410
 1686SOL     OW 5956   1.865   5.069   5.555
 1686SOL    HW1 5957   1.883   4.978   5.516
 1686SOL    HW2 5958   1.896   5.139   5.491
 1687SOL     OW 5959   2.245   3.426   1.250
 1687SOL    HW1 5960   2.160   3.386   1.214
 1687SOL    HW2 5961   2.322   3.368   1.225
 1688SOL     OW 5962   1.213   2.436   3.819
 1688SOL    HW1 5963   1.291   2.499   3.815
 1688SOL    HW2 5964   1.145   2.470   3.883
 1689SOL     OW 5965   3.899   1.057   1.691
 1689SOL    HW1 5966   3.991   1.093   1.707
 1689SOL    HW2 5967   3.884   1.047   1.592
 1690SOL     OW 5968   1.374   2.666   3.521
 1690SOL    HW1 5969   1.275   2.659   3.516
 1690SOL    HW2 5970   1.400   2.737   3.586
 1691SOL     OW 5971   4.867   3.715   3.291
 1691SOL    HW1 5972   4.947   3.692   3.347
 1691SOL    HW2 5973   4.838   3.635   3.240
 1692SOL     OW 5974   6.604   0.018   1.471
 1692SOL    HW1 5975   6.642   0.008   1.379
 1692SOL    HW2 5976   6.581   6.951   1.507
 1693SOL     OW 5977   0.869   2.206   2.336
 1693SOL    HW1 5978   0.840   2.111   2.322
 1693SOL    HW2 5979   0.791   2.260   2.369
 1694SOL     OW 5980   4.844   6.748   4.285
 1694SOL    HW1 5981   4.753   6.775   4.318
 1694SOL    HW2 5982   4.902   6.725   4.363
 1695SOL     OW 5983   2.533   1.370   5.441
 1695SOL    HW1 5984   2.546   1.334   5.533
 1695SOL    HW2 5985   2.524   1.294   5.376
 1696SOL     OW 5986   5.471   5.237   0.400
 1696SOL    HW1 5987   5.415   5.319   0.388
 1696SOL    HW2 5988   5.565   5.264   0.421
 1697SOL     OW 5989   6.447   6.493   2.396
 1697SOL    HW1 5990   6.420   6.584   2.366
 1697SOL    HW2 5991   6.370   6.448   2.442
 1698SOL     OW 5992   4.431   1.089   0.610
 1698SOL    HW1 5993   4.353   1.118   0.555
 1698SOL    HW2 5994   4.410   1.103   0.707
 1699SOL     OW 5995   3.011   1.045   2.125
 1699SOL    HW1 5996   3.013   1.108   2.203
 1699SOL    HW2 5997   2.984   0.954   2.155
 1700SOL     OW 5998   6.139   1.909   3.780
 1700SOL    HW1 5999   6.123   2.006   3.801
 1700SOL    HW2 6000   6.236   1.888   3.793
 1701SOL     OW 6001   4.964   3.310   5.458
 1701SOL    HW1 6002   5.014   3.265   5.383
 1701SOL    HW2 6003   5.022   3.312   5.539
 1702SOL     OW 6004   6.979   3.435   0.809
 1702SOL    HW1 6005   0.003   3.522   0.811
 1702SOL    HW2 6006   0.020   3.359   0.814
 1703SOL     OW 6007   3.345   4.106   3.121
 1703SOL    HW1 6008   3.295   4.057   3.192
 1703SOL    HW2 6009   3.329   4.205   3.131
 1704SOL     OW 6010   0.555   1.513   1.231
 1704SOL    HW1 6011   0.522   1.419   1.233
 1704SOL    HW2 6012   0.542   1.556   1.320
 1705SOL     OW 6013   3.546   2.080   2.136
 1705SOL    HW1 6014   3.465   2.099   2.080
 1705SOL    HW2 6015   3.625   2.129   2.099
 1706SOL     OW 6016   4.242   6.920   1.449
 1706SOL    HW1 6017   4.300   6.916   1.368
 1706SOL    HW2 6018   4.251   6.834   1.500
 1707SOL     OW 6019   4.368   1.579   2.758
 1707SOL    HW1 6020   4.404   1.578   2.665
 1707SOL    HW2 6021   4.327   1.669   2.777
 1708SOL     OW 6022   5.411   5.747   1.912
 1708SOL    HW1 6023   5.392   5.832   1.862
 1708SOL    HW2 6024   5.509   5.742   1.932
 1709SOL     OW 6025   2.460   6.049   1.877
 1709SOL    HW1 6026   2.526   6.124   1.863
 1709SOL    HW2 6027   2.501   5.963   1.846
 1710SOL     OW 6028   5.949   4.514   3.745
 1710SOL    HW1 6029   5.886   4.540   3.818
 1710SOL    HW2 6030   6.040   4.551   3.765
 1711SOL     OW 6031   1.564   4.100   5.037
 1711SOL    HW1 6032   1.575   4.056   5.125
 1711SOL    HW2 6033   1.467   4.119   5.021
 1712SOL     OW 6034   1.101   3.135   6.655
 1712SOL    HW1 6035   1.065   3.119   6.747
 1712SOL    HW2 6036   1.189   3.181   6.661
 1713SOL     OW 6037   3.221   1.970   0.923
 1713SOL    HW1 6038   3.218   1.871   0.908
 1713SOL    HW2 6039   3.316   2.001   0.914
 1714SOL     OW 6040   4.440   1.775   6.024
 1714SOL    HW1 6041   4.511   1.706   6.038
 1714SOL    HW2 6042   4.355   1.744   6.067
 1715SOL     OW 6043   6.727   3.824   2.521
 1715SOL    HW1 6044   6.723   3.917   2.484
 1715SOL    HW2 6045   6.651   3.771   2.485
 1716SOL     OW 6046   4.960   0.085   1.588
 1716SOL    HW1 6047   5.003   0.173   1.568
 1716SOL    HW2 6048   4.864   0.087   1.561
 1717SOL     OW 6049   1.744   6.264   6.412
 1717SOL    HW1 6050   1.731   6.191   6.345
 1717SOL    HW2 6051   1.775   6.225   6.499
 1718SOL     OW 6052   1.725   1.499   0.899
 1718SOL    HW1 6053   1.758   1.573   0.959
 1718SOL    HW2 6054   1.785   1.492   0.819
 1719SOL     OW 6055   2.520   4.337   1.352
 1719SOL    HW1 6056   2.437   4.339   1.408
 1719SOL    HW2 6057   2.499   4.378   1.262
 1720SOL     OW 6058   0.040   1.126   1.534
 1720SOL    HW1 6059   0.080   1.195   1.473
 1720SOL    HW2 6060   0.039   1.037   1.489
 1721SOL     OW 6061   1.296   6.417   2.751
 1721SOL    HW1 6062   1.305   6.460   2.662
 1721SOL    HW2 6063   1.305   6.486   2.823
 1722SOL     OW 6064   5.155   1.456   3.917
 1722SOL    HW1 6065   5.213   1.505   3.852
 1722SOL    HW2 6066   5.065   1.439   3.875
 1723SOL     OW 6067   6.838   2.864   3.109
 1723SOL    HW1 6068   6.800   2.849   3.017
 1723SOL    HW2 6069   6.891   2.784   3.137
 1724SOL     OW 6070   5.607   1.676   0.923
 1724SOL    HW1 6071   5.594   1.581   0.953
 1724SOL    HW2 6072   5.548   1.695   0.845
 1725SOL     OW 6073   2.778   5.077   0.355
 1725SOL    HW1 6074   2.865   5.094   0.403
 1725SOL    HW2 6075   2.795   5.072   0.256
 1726SOL     OW 6076   6.996   4.306   5.711
 1726SOL    HW1 6077   7.021   4.399   5.686
 1726SOL    HW2 6078   7.008   4.246   5.632
 1727SOL     OW 6079   3.620   2.912   4.581
 1727SOL    HW1 6080   3.717   2.931   4.597
 1727SOL    HW2 6081   3.580   2.872   4.664
 1728SOL     OW 6082   5.538   5.522   4.870
 1728SOL    HW1 6083   5.520   5.520   4.968
 1728SOL    HW2 6084   5.481   5.593   4.827
 1729SOL     OW 6085   2.091   3.739   3.897
 1729SOL    HW1 6086   2.097   3.839   3.887
 1729SOL    HW2 6087   2.033   3.702   3.825
 1730SOL     OW 6088   6.734   0.473   4.270
 1730SOL    HW1 6089   6.670   0.540   4.231
 1730SOL    HW2 6090   6.733   0.390   4.213
 1731SOL     OW 6091   1.008   5.424   2.145
 1731SOL    HW1 6092   1.010   5.494   2.216
 1731SOL    HW2 6093   0.941   5.354   2.169
 1732SOL     OW 6094   2.322   4.558   6.167
 1732SOL    HW1 6095   2.402   4.530   6.221
 1732SOL    HW2 6096   2.277   4.477   6.130
 1733SOL     OW 6097   1.356   3.726   2.726
 1733SOL    HW1 6098   1.327   3.666   2.800
 1733SOL    HW2 6099   1.409   3.673   2.660
 1734SOL     OW 6100   4.896   2.867   1.835
 1734SOL    HW1 6101   4.905   2.777   1.877
 1734SOL    HW2 6102   4.821   2.917   1.879
 1735SOL     OW 6103   5.820   5.585   0.826
 1735SOL    HW1 6104   5.854   5.509   0.771
 1735SOL    HW2 6105   5.731   5.614   0.792
 1736SOL     OW 6106   4.877   1.680   0.498
 1736SOL    HW1 6107   4.873   1.632   0.586
 1736SOL    HW2 6108   4.973   1.696   0.474
 1737SOL     OW 6109   2.806   0.618   4.352
 1737SOL    HW1 6110   2.834   0.708   4.384
 1737SOL    HW2 6111   2.879   0.578   4.295
 1738SOL     OW 6112   1.997   2.374   4.058
 1738SOL    HW1 6113   2.095   2.356   4.068
 1738SOL    HW2 6114   1.952   2.293   4.020
 1739SOL     OW 6115   4.893   3.115   5.058
 1739SOL    HW1 6116   4.803   3.072   5.064
 1739SOL    HW2 6117   4.958   3.051   5.016
 1740SOL     OW 6118   0.412   1.848   6.894
 1740SOL    HW1 6119   0.500   1.801   6.902
 1740SOL    HW2 6120   0.404   1.889   6.803
 1741SOL     OW 6121   2.442   0.986   3.279
 1741SOL    HW1 6122   2.355   0.975   3.325
 1741SOL    HW2 6123   2.496   0.902   3.288
 1742SOL     OW 6124   4.211   6.005   5.784
 1742SOL    HW1 6125   4.294   5.974   5.831
 1742SOL    HW2 6126   4.175   5.932   5.727
 1743SOL     OW 6127   2.041   1.486   1.900
 1743SOL    HW1 6128   2.044   1.523   1.993
 1743SOL    HW2 6129   2.007   1.555   1.837
 1744SOL     OW 6130   0.608   6.948   1.768
 1744SOL    HW1 6131   0.662   6.993   1.839
 1744SOL    HW2 6132   0.514   6.937   1.800
 1745SOL     OW 6133   0.114   0.798   4.265
 1745SOL    HW1 6134   0.209   0.829   4.260
 1745SOL    HW2 6135   0.085   0.794   4.361
 1746SOL     OW 6136   1.973   5.239   5.370
 1746SOL    HW1 6137   2.069   5.230   5.341
 1746SOL    HW2 6138   1.941   5.331   5.348
 1747SOL     OW 6139   5.411   6.896   2.568
 1747SOL    HW1 6140   5.365   6.831   2.629
 1747SOL    HW2 6141   5.422   6.983   2.615
 1748SOL     OW 6142   0.103   0.752   3.426
 1748SOL    HW1 6143   0.100   0.807   3.510
 1748SOL    HW2 6144   0.132   0.659   3.448
 1749SOL     OW 6145   2.847   6.633   5.253
 1749SOL    HW1 6146   2.790   6.554   5.277
 1749SOL    HW2 6147   2.802   6.717   5.283
 1750SOL     OW 6148   6.146   0.644   3.770
 1750SOL    HW1 6149   6.144   0.653   3.671
 1750SOL    HW2 6150   6.056   0.668   3.808
 1751SOL     OW 6151   3.638   5.433   4.494
 1751SOL    HW1 6152   3.542   5.460   4.487
 1751SOL    HW2 6153   3.664   5.380   4.414
 1752SOL     OW 6154   6.836   2.111   2.388
 1752SOL    HW1 6155   6.779   2.056   2.327
 1752SOL    HW2 6156   6.808   2.096   2.483
 1753SOL     OW 6157   0.052   2.043   0.562
 1753SOL    HW1 6158   0.050   2.115   0.632
 1753SOL    HW2 6159   0.040   1.954   0.606
 1754SOL     OW 6160   3.445   3.249   1.811
 1754SOL    HW1 6161   3.406   3.332   1.773
 1754SOL    HW2 6162   3.437   3.174   1.745
 1755SOL     OW 6163   5.879   5.171   2.035
 1755SOL    HW1 6164   5.895   5.218   2.122
 1755SOL    HW2 6165   5.829   5.086   2.052
 1756SOL     OW 6166   4.229   4.391   6.446
 1756SOL    HW1 6167   4.137   4.392   6.407
 1756SOL    HW2 6168   4.284   4.323   6.397
 1757SOL     OW 6169   2.455   5.897   4.721
 1757SOL    HW1 6170   2.413   5.929   4.636
 1757SOL    HW2 6171   2.400   5.824   4.760
 1758SOL     OW 6172   2.152   0.689   3.435
 1758SOL    HW1 6173   2.081   0.677   3.504
 1758SOL    HW2 6174   2.219   0.614   3.443
 1759SOL     OW 6175   0.874   4.767   5.813
 1759SOL    HW1 6176   0.894   4.767   5.911
 1759SOL    HW2 6177   0.947   4.719   5.764
 1760SOL     OW 6178   6.839   1.227   1.717
 1760SOL    HW1 6179   6.769   1.245   1.647
 1760SOL    HW2 6180   6.923   1.195   1.672
 1761SOL     OW 6181   0.017   0.277   6.982
 1761SOL    HW1 6182   0.048   0.321   0.042
 1761SOL    HW2 6183   6.946   0.250   6.991
 1762SOL     OW 6184   6.150   1.659   5.076
 1762SOL    HW1 6185   6.194   1.611   5.000
 1762SOL    HW2 6186   6.205   1.648   5.159
 1763SOL     OW 6187   1.917   3.554   4.375
 1763SOL    HW1 6188   1.900   3.619   4.449
 1763SOL    HW2 6189   1.966   3.599   4.301
 1764SOL     OW 6190   1.320   4.067   2.521
 1764SOL    HW1 6191   1.391   4.029   2.581
 1764SOL    HW2 6192   1.312   4.009   2.440
 1765SOL     OW 6193   3.688   2.152   6.857
 1765SOL    HW1 6194   3.620   2.078   6.860
 1765SOL    HW2 6195   3.642   2.237   6.832
 1766SOL     OW 6196   4.951   3.334   3.954
 1766SOL    HW1 6197   4.929   3.431   3.943
 1766SOL    HW2 6198   5.005   3.303   3.875
 1767SOL     OW 6199   5.991   3.695   2.910
 1767SOL    HW1 6200   5.969   3.718   3.005
 1767SOL    HW2 6201   6.066   3.753   2.879
 1768SOL     OW 6202   3.679   1.468   4.671
 1768SOL    HW1 6203   3.754   1.468   4.737
 1768SOL    HW2 6204   3.710   1.429   4.585
 1769SOL     OW 6205   4.316   2.228   4.885
 1769SOL    HW1 6206   4.309   2.258   4.790
 1769SOL    HW2 6207   4.269   2.293   4.945
 1770SOL     OW 6208   0.853   5.481   4.579
 1770SOL    HW1 6209   0.902   5.567   4.565
 1770SOL    HW2 6210   0.782   5.494   4.648
 1771SOL     OW 6211   2.759   5.378   0.439
 1771SOL    HW1 6212   2.674   5.429   0.451
 1771SOL    HW2 6213   2.788   5.341   0.527
 1772SOL     OW 6214   3.251   0.146   3.558
 1772SOL    HW1 6215   3.152   0.159   3.557
 1772SOL    HW2 6216   3.282   0.120   3.467
 1773SOL     OW 6217   2.645   4.758   6.086
 1773SOL    HW1 6218   2.617   4.672   6.128
 1773SOL    HW2 6219   2.664   4.743   5.989
 1774SOL     OW 6220   4.189   6.733   1.688
 1774SOL    HW1 6221   4.163   6.702   1.597
 1774SOL    HW2 6222   4.132   6.688   1.756
 1775SOL     OW 6223   1.093   4.816   4.217
 1775SOL    HW1 6224   1.038   4.760   4.279
 1775SOL    HW2 6225   1.187   4.822   4.252
 1776SOL     OW 6226   3.215   0.275   3.830
 1776SOL    HW1 6227   3.297   0.286   3.886
 1776SOL    HW2 6228   3.240   0.234   3.742
 1777SOL     OW 6229   3.018   5.302   5.681
 1777SOL    HW1 6230   3.000   5.390   5.639
 1777SOL    HW2 6231   2.983   5.229   5.622
 1778SOL     OW 6232   4.542   3.203   5.651
 1778SOL    HW1 6233   4.502   3.128   5.704
 1778SOL    HW2 6234   4.592   3.164   5.573
 1779SOL     OW 6235   3.994   1.264   4.639
 1779SOL    HW1 6236   4.067   1.331   4.625
 1779SOL    HW2 6237   3.917   1.285   4.578
 1780SOL     OW 6238   3.402   3.314   6.160
 1780SOL    HW1 6239   3.492   3.352   6.137
 1780SOL    HW2 6240   3.330   3.371   6.120
 1781SOL     OW 6241   4.731   5.667   3.569
 1781SOL    HW1 6242   4.733   5.582   3.622
 1781SOL    HW2 6243   4.792   5.735   3.611
 1782SOL     OW 6244   3.607   1.572   2.456
 1782SOL    HW1 6245   3.620   1.628   2.373
 1782SOL    HW2 6246   3.571   1.630   2.529
 1783SOL     OW 6247   1.438   4.626   6.374
 1783SOL    HW1 6248   1.518   4.602   6.429
 1783SOL    HW2 6249   1.438   4.573   6.290
 1784SOL     OW 6250   3.846   1.299   5.960
 1784SOL    HW1 6251   3.868   1.298   5.862
 1784SOL    HW2 6252   3.848   1.205   5.995
 1785SOL     OW 6253   6.410   5.109   3.779
 1785SOL    HW1 6254   6.395   5.192   3.833
 1785SOL    HW2 6255   6.443   5.134   3.688
 1786SOL     OW 6256   1.063   2.392   1.198
 1786SOL    HW1 6257   1.153   2.431   1.178
 1786SOL    HW2 6258   1.058   2.300   1.161
 1787SOL     OW 6259   2.393   1.028   5.047
 1787SOL    HW1 6260   2.384   0.930   5.062
 1787SOL    HW2 6261   2.312   1.062   5.000
 1788SOL     OW 6262   3.622   3.125   0.151
 1788SOL    HW1 6263   3.618   3.202   0.214
 1788SOL    HW2 6264   3.701   3.067   0.173
 1789SOL     OW 6265   6.334   2.211   3.377
 1789SOL    HW1 6266   6.287   2.238   3.461
 1789SOL    HW2 6267   6.317   2.278   3.306
 1790SOL     OW 6268   3.898   5.959   4.073
 1790SOL    HW1 6269   3.836   6.011   4.015
 1790SOL    HW2 6270   3.986   5.947   4.027
 1791SOL     OW 6271   6.889   0.998   3.677
 1791SOL    HW1 6272   6.871   0.989   3.775
 1791SOL    HW2 6273   6.985   0.980   3.659
 1792SOL     OW 6274   0.078   3.146   4.317
 1792SOL    HW1 6275   0.002   3.102   4.365
 1792SOL    HW2 6276   0.045   3.230   4.272
 1793SOL     OW 6277   6.825   6.821   3.323
 1793SOL    HW1 6278   6.769   6.841   3.403
 1793SOL    HW2 6279   6.877   6.737   3.339
 1794SOL     OW 6280   5.701   6.141   6.105
 1794SOL    HW1 6281   5.741   6.135   6.014
 1794SOL    HW2 6282   5.745   6.216   6.156
 1795SOL     OW 6283   0.935   2.639   1.207
 1795SOL    HW1 6284   0.977   2.551   1.186
 1795SOL    HW2 6285   0.874   2.629   1.286
 1796SOL     OW 6286   2.363   0.313   4.237
 1796SOL    HW1 6287   2.273   0.285   4.270
 1796SOL    HW2 6288   2.359   0.332   4.139
 1797SOL     OW 6289   1.390   0.453   6.820
 1797SOL    HW1 6290   1.314   0.502   6.777
 1797SOL    HW2 6291   1.453   0.519   6.861
 1798SOL     OW 6292   4.965   2.055   4.416
 1798SOL    HW1 6293   5.027   2.099   4.482
 1798SOL    HW2 6294   5.012   2.044   4.329
 1799SOL     OW 6295   6.253   1.797   5.807
 1799SOL    HW1 6296   6.267   1.775   5.711
 1799SOL    HW2 6297   6.333   1.848   5.841
 1800SOL     OW 6298   3.899   4.891   2.450
 1800SOL    HW1 6299   3.976   4.828   2.453
 1800SOL    HW2 6300   3.858   4.889   2.359
 1801SOL     OW 6301   0.182   0.700   2.214
 1801SOL    HW1 6302   0.182   0.705   2.114
 1801SOL    HW2 6303   0.096   0.735   2.249
 1802SOL     OW 6304   5.592   5.381   2.799
 1802SOL    HW1 6305   5.551   5.291   2.780
 1802SOL    HW2 6306   5.527   5.437   2.851
 1803SOL     OW 6307   0.231   6.516   6.732
 1803SOL    HW1 6308   0.283   6.559   6.658
 1803SOL    HW2 6309   0.190   6.587   6.789
 1804SOL     OW 6310   2.143   3.820   5.516
 1804SOL    HW1 6311   2.231   3.836   5.471
 1804SOL    HW2 6312   2.150   3.742   5.577
 1805SOL     OW 6313   6.250   4.131   5.634
 1805SOL    HW1 6314   6.170   4.106   5.580
 1805SOL    HW2 6315   6.221   4.163   5.725
 1806SOL     OW 6316   1.015   0.703   0.486
 1806SOL    HW1 6317   0.992   0.798   0.504
 1806SOL    HW2 6318   0.973   0.645   0.556
 1807SOL     OW 6319   5.066   2.565   5.539
 1807SOL    HW1 6320   4.972   2.580   5.510
 1807SOL    HW2 6321   5.113   2.653   5.550
 1808SOL     OW 6322   0.649   4.140   6.090
 1808SOL    HW1 6323   0.658   4.113   6.186
 1808SOL    HW2 6324   0.738   4.136   6.046
 1809SOL     OW 6325   2.219   2.483   4.588
 1809SOL    HW1 6326   2.319   2.482   4.590
 1809SOL    HW2 6327   2.187   2.575   4.563
 1810SOL     OW 6328   2.977   0.199   3.580
 1810SOL    HW1 6329   2.960   0.297   3.564
 1810SOL    HW2 6330   2.890   0.153   3.595
 1811SOL     OW 6331   5.135   4.594   3.699
 1811SOL    HW1 6332   5.075   4.534   3.646
 1811SOL    HW2 6333   5.224   4.550   3.712
 1812SOL     OW 6334   4.207   6.357   5.145
 1812SOL    HW1 6335   4.116   6.355   5.104
 1812SOL    HW2 6336   4.236   6.451   5.160
 1813SOL     OW 6337   6.300   5.065   1.011
 1813SOL    HW1 6338   6.378   5.064   0.948
 1813SOL    HW2 6339   6.231   5.000   0.980
 1814SOL     OW 6340   6.410   1.574   0.380
 1814SOL    HW1 6341   6.378   1.485   0.413
 1814SOL    HW2 6342   6.494   1.561   0.327
 1815SOL     OW 6343   5.810   1.932   2.072
 1815SOL    HW1 6344   5.784   2.019   2.113
 1815SOL    HW2 6345   5.884   1.891   2.125
 1816SOL     OW 6346   2.442   3.872   0.847
 1816SOL    HW1 6347   2.381   3.870   0.926
 1816SOL    HW2 6348   2.508   3.946   0.858
 1817SOL     OW 6349   3.525   0.323   2.980
 1817SOL    HW1 6350   3.506   0.387   2.906
 1817SOL    HW2 6351   3.442   0.271   3.001
 1818SOL     OW 6352   1.963   6.328   2.819
 1818SOL    HW1 6353   1.901   6.290   2.751
 1818SOL    HW2 6354   2.053   6.285   2.810
 1819SOL     OW 6355   0.704   5.061   1.573
 1819SOL    HW1 6356   0.719   5.093   1.480
 1819SOL    HW2 6357   0.611   5.085   1.603
 1820SOL     OW 6358   4.949   0.785   2.093
 1820SOL    HW1 6359   4.935   0.691   2.124
 1820SOL    HW2 6360   4.907   0.797   2.003
 1821SOL     OW 6361   1.379   0.844   1.929
 1821SOL    HW1 6362   1.312   0.773   1.952
 1821SOL    HW2 6363   1.471   0.805   1.929
 1822SOL     OW 6364   2.261   2.707   1.650
 1822SOL    HW1 6365   2.285   2.785   1.592
 1822SOL    HW2 6366   2.217   2.740   1.733
 1823SOL     OW 6367   3.095   5.926   3.078
 1823SOL    HW1 6368   3.184   5.943   3.036
 1823SOL    HW2 6369   3.090   5.975   3.166
 1824SOL     OW 6370   3.098   2.623   1.623
 1824SOL    HW1 6371   3.021   2.561   1.614
 1824SOL    HW2 6372   3.183   2.571   1.634
 1825SOL     OW 6373   1.466   1.294   3.401
 1825SOL    HW1 6374   1.497   1.388   3.392
 1825SOL    HW2 6375   1.523   1.246   3.468
 1826SOL     OW 6376   3.213   0.031   1.038
 1826SOL    HW1 6377   3.229   6.957   1.026
 1826SOL    HW2 6378   3.246   0.080   0.957
 1827SOL     OW 6379   6.598   5.959   1.829
 1827SOL    HW1 6380   6.604   6.059   1.824
 1827SOL    HW2 6381   6.670   5.918   1.774
 1828SOL     OW 6382   1.307   2.346   0.809
 1828SOL    HW1 6383   1.368   2.311   0.879
 1828SOL    HW2 6384   1.357   2.411   0.750
 1829SOL     OW 6385   3.723   0.103   3.356
 1829SOL    HW1 6386   3.648   0.168   3.353
 1829SOL    HW2 6387   3.697   0.024   3.411
 1830SOL     OW 6388   6.101   5.946   4.112
 1830SOL    HW1 6389   6.114   5.869   4.175
 1830SOL    HW2 6390   6.028   5.925   4.048
 1831SOL     OW 6391   6.130   0.195   1.838
 1831SOL    HW1 6392   6.033   0.217   1.846
 1831SOL    HW2 6393   6.184   0.267   1.882
 1832SOL     OW 6394   5.292   1.107   1.140
 1832SOL    HW1 6395   5.243   1.043   1.198
 1832SOL    HW2 6396   5.276   1.200   1.172
 1833SOL     OW 6397   5.369   0.204   5.592
 1833SOL    HW1 6398   5.383   0.161   5.503
 1833SOL    HW2 6399   5.277   0.242   5.596
 1834SOL     OW 6400   2.460   4.117   0.428
 1834SOL    HW1 6401   2.555   4.104   0.456
 1834SOL    HW2 6402   2.400   4.091   0.502
 1835SOL     OW 6403   1.417   3.795   1.472
 1835SOL    HW1 6404   1.516   3.797   1.487
 1835SOL    HW2 6405   1.371   3.854   1.539
 1836SOL     OW 6406   5.290   1.685   0.934
 1836SOL    HW1 6407   5.324   1.594   0.911
 1836SOL    HW2 6408   5.292   1.697   1.033
 1837SOL     OW 6409   1.068   2.300   4.422
 1837SOL    HW1 6410   1.096   2.309   4.326
 1837SOL    HW2 6411   1.123   2.230   4.466
 1838SOL     OW 6412   0.091   1.810   4.295
 1838SOL    HW1 6413   0.076   1.804   4.394
 1838SOL    HW2 6414   0.151   1.735   4.266
 1839SOL     OW 6415   5.281   3.036   4.920
 1839SOL    HW1 6416   5.346   3.012   4.991
 1839SOL    HW2 6417   5.323   3.025   4.830
 1840SOL     OW 6418   3.476   5.957   1.658
 1840SOL    HW1 6419   3.494   6.042   1.609
 1840SOL    HW2 6420   3.547   5.890   1.636
 1841SOL     OW 6421   2.508   1.664   4.167
 1841SOL    HW1 6422   2.566   1.593   4.207
 1841SOL    HW2 6423   2.438   1.691   4.233
 1842SOL     OW 6424   0.991   5.409   0.394
 1842SOL    HW1 6425   1.089   5.415   0.411
 1842SOL    HW2 6426   0.957   5.321   0.427
 1843SOL     OW 6427   0.026   2.042   4.138
 1843SOL    HW1 6428   0.062   1.971   4.198
 1843SOL    HW2 6429   6.959   2.017   4.106
 1844SOL     OW 6430   3.916   0.083   5.397
 1844SOL    HW1 6431   3.859   0.162   5.375
 1844SOL    HW2 6432   3.861   0.013   5.442
 1845SOL     OW 6433   1.912   6.814   4.848
 1845SOL    HW1 6434   1.852   6.891   4.870
 1845SOL    HW2 6435   1.857   6.736   4.820
 1846SOL     OW 6436   4.032   2.387   0.201
 1846SOL    HW1 6437   4.050   2.289   0.188
 1846SOL    HW2 6438   3.934   2.403   0.194
 1847SOL     OW 6439   1.088   0.562   5.950
 1847SOL    HW1 6440   1.040   0.528   6.031
 1847SOL    HW2 6441   1.127   0.652   5.970
 1848SOL     OW 6442   0.690   6.711   2.383
 1848SOL    HW1 6443   0.637   6.627   2.366
 1848SOL    HW2 6444   0.683   6.771   2.303
 1849SOL     OW 6445   3.469   2.063   0.883
 1849SOL    HW1 6446   3.560   2.023   0.899
 1849SOL    HW2 6447   3.477   2.137   0.816
 1850SOL     OW 6448   0.065   3.174   2.369
 1850SOL    HW1 6449   0.055   3.268   2.337
 1850SOL    HW2 6450   0.155   3.163   2.413
 1851SOL     OW 6451   0.446   2.350   1.483
 1851SOL    HW1 6452   0.516   2.281   1.502
 1851SOL    HW2 6453   0.377   2.348   1.556
 1852SOL     OW 6454   6.026   3.789   1.969
 1852SOL    HW1 6455   6.000   3.819   1.877
 1852SOL    HW2 6456   6.094   3.852   2.006
 1853SOL     OW 6457   0.218   3.220   3.056
 1853SOL    HW1 6458   0.171   3.132   3.051
 1853SOL    HW2 6459   0.215   3.254   3.150
 1854SOL     OW 6460   2.479   6.367   3.334
 1854SOL    HW1 6461   2.461   6.458   3.369
 1854SOL    HW2 6462   2.397   6.330   3.291
 1855SOL     OW 6463   5.131   3.955   6.679
 1855SOL    HW1 6464   5.069   3.895   6.628
 1855SOL    HW2 6465   5.101   3.960   6.775
 1856SOL     OW 6466   6.586   3.637   5.410
 1856SOL    HW1 6467   6.655   3.694   5.454
 1856SOL    HW2 6468   6.497   3.656   5.450
 1857SOL     OW 6469   4.099   1.039   5.909
 1857SOL    HW1 6470   4.018   1.055   5.965
 1857SOL    HW2 6471   4.102   0.943   5.881
 1858SOL     OW 6472   5.973   3.196   3.395
 1858SOL    HW1 6473   5.953   3.291   3.371
 1858SOL    HW2 6474   6.061   3.191   3.443
 1859SOL     OW 6475   4.350   1.724   3.363
 1859SOL    HW1 6476   4.423   1.682   3.418
 1859SOL    HW2 6477   4.309   1.654   3.304
 1860SOL     OW 6478   6.844   0.655   3.903
 1860SOL    HW1 6479   6.834   0.742   3.951
 1860SOL    HW2 6480   6.899   0.592   3.958
 1861SOL     OW 6481   5.561   0.132   2.385
 1861SOL    HW1 6482   5.497   0.158   2.457
 1861SOL    HW2 6483   5.648   0.104   2.425
 1862SOL     OW 6484   2.604   0.549   6.413
 1862SOL    HW1 6485   2.679   0.516   6.356
 1862SOL    HW2 6486   2.606   0.649   6.417
 1863SOL     OW 6487   1.690   1.253   1.021
 1863SOL    HW1 6488   1.712   1.338   0.972
 1863SOL    HW2 6489   1.760   1.185   1.003
 1864SOL     OW 6490   0.924   6.706   5.808
 1864SOL    HW1 6491   0.996   6.739   5.869
 1864SOL    HW2 6492   0.850   6.774   5.806
 1865SOL     OW 6493   3.512   0.216   6.102
 1865SOL    HW1 6494   3.522   0.294   6.042
 1865SOL    HW2 6495   3.602   0.185   6.132
 1866SOL     OW 6496   3.983   4.807   3.329
 1866SOL    HW1 6497   4.078   4.778   3.343
 1866SOL    HW2 6498   3.928   4.779   3.408
 1867SOL     OW 6499   0.437   3.801   6.898
 1867SOL    HW1 6500   0.361   3.735   6.892
 1867SOL    HW2 6501   0.441   3.839   6.990
 1868SOL     OW 6502   4.487   4.408   0.010
 1868SOL    HW1 6503   4.404   4.437   0.056
 1868SOL    HW2 6504   4.507   4.470   6.958
 1869SOL     OW 6505   6.184   2.533   5.470
 1869SOL    HW1 6506   6.105   2.492   5.515
 1869SOL    HW2 6507   6.268   2.501   5.514
 1870SOL     OW 6508   2.199   2.613   5.800
 1870SOL    HW1 6509   2.131   2.608   5.727
 1870SOL    HW2 6510   2.216   2.709   5.823
 1871SOL     OW 6511   0.353   0.698   6.833
 1871SOL    HW1 6512   0.286   0.723   6.764
 1871SOL    HW2 6513   0.364   0.774   6.898
 1872SOL     OW 6514   3.603   2.432   6.818
 1872SOL    HW1 6515   3.675   2.461   6.881
 1872SOL    HW2 6516   3.622   2.469   6.727
 1873SOL     OW 6517   4.957   1.958   6.092
 1873SOL    HW1 6518   4.983   2.036   6.035
 1873SOL    HW2 6519   5.022   1.884   6.081
 1874SOL     OW 6520   3.604   1.204   1.200
 1874SOL    HW1 6521   3.675   1.270   1.178
 1874SOL    HW2 6522   3.556   1.232   1.283
 1875SOL     OW 6523   0.308   1.192   0.271
 1875SOL    HW1 6524   0.209   1.177   0.260
 1875SOL    HW2 6525   0.323   1.277   0.322
 1876SOL     OW 6526   4.099   6.844   6.040
 1876SOL    HW1 6527   4.092   6.767   5.976
 1876SOL    HW2 6528   4.130   6.811   6.129
 1877SOL     OW 6529   0.600   7.008   2.332
 1877SOL    HW1 6530   0.635   0.077   2.329
 1877SOL    HW2 6531   0.501   7.010   2.345
 1878SOL     OW 6532   6.820   2.145   3.660
 1878SOL    HW1 6533   6.808   2.218   3.593
 1878SOL    HW2 6534   6.831   2.058   3.613
 1879SOL     OW 6535   1.478   4.357   4.283
 1879SOL    HW1 6536   1.544   4.311   4.223
 1879SOL    HW2 6537   1.512   4.356   4.377
 1880SOL     OW 6538   0.008   1.742   4.548
 1880SOL    HW1 6539   0.025   1.643   4.555
 1880SOL    HW2 6540   6.941   1.762   4.584
 1881SOL     OW 6541   5.848   1.904   3.455
 1881SOL    HW1 6542   5.756   1.923   3.490
 1881SOL    HW2 6543   5.883   1.820   3.496
 1882SOL     OW 6544   1.525   4.098   6.221
 1882SOL    HW1 6545   1.558   4.004   6.217
 1882SOL    HW2 6546   1.475   4.120   6.137
 1883SOL     OW 6547   0.173   1.820   3.436
 1883SOL    HW1 6548   0.142   1.744   3.493
 1883SOL    HW2 6549   0.273   1.827   3.442
 1884SOL     OW 6550   0.155   2.376   0.990
 1884SOL    HW1 6551   0.137   2.465   0.949
 1884SOL    HW2 6552   0.229   2.384   1.057
 1885SOL     OW 6553   1.906   2.274   6.472
 1885SOL    HW1 6554   1.919   2.215   6.551
 1885SOL    HW2 6555   1.984   2.336   6.463
 1886SOL     OW 6556   1.754   0.961   1.638
 1886SOL    HW1 6557   1.809   0.942   1.720
 1886SOL    HW2 6558   1.795   0.914   1.560
 1887SOL     OW 6559   1.264   5.993   4.744
 1887SOL    HW1 6560   1.164   5.994   4.739
 1887SOL    HW2 6561   1.293   6.019   4.836
 1888SOL     OW 6562   3.060   2.266   0.343
 1888SOL    HW1 6563   3.021   2.177   0.320
 1888SOL    HW2 6564   3.108   2.260   0.430
 1889SOL     OW 6565   0.090   2.846   5.783
 1889SOL    HW1 6566   0.156   2.915   5.753
 1889SOL    HW2 6567   0.007   2.891   5.816
 1890SOL     OW 6568   1.570   6.146   3.985
 1890SOL    HW1 6569   1.599   6.236   3.954
 1890SOL    HW2 6570   1.493   6.115   3.930
 1891SOL     OW 6571   5.688   2.410   2.108
 1891SOL    HW1 6572   5.681   2.456   2.019
 1891SOL    HW2 6573   5.597   2.393   2.144
 1892SOL     OW 6574   2.081   0.528   2.542
 1892SOL    HW1 6575   2.097   0.429   2.547
 1892SOL    HW2 6576   2.143   0.575   2.604
 1893SOL     OW 6577   3.122   3.832   0.746
 1893SOL    HW1 6578   3.128   3.839   0.846
 1893SOL    HW2 6579   3.129   3.737   0.718
 1894SOL     OW 6580   3.462   4.094   3.785
 1894SOL    HW1 6581   3.557   4.119   3.771
 1894SOL    HW2 6582   3.439   4.102   3.882
 1895SOL     OW 6583   4.671   0.561   1.732
 1895SOL    HW1 6584   4.632   0.551   1.641
 1895SOL    HW2 6585   4.598   0.586   1.797
 1896SOL     OW 6586   5.173   1.086   1.558
 1896SOL    HW1 6587   5.255   1.090   1.615
 1896SOL    HW2 6588   5.119   1.169   1.572
 1897SOL     OW 6589   2.230   5.720   1.469
 1897SOL    HW1 6590   2.265   5.789   1.532
 1897SOL    HW2 6591   2.165   5.660   1.518
 1898SOL     OW 6592   2.282   5.564   3.624
 1898SOL    HW1 6593   2.323   5.477   3.649
 1898SOL    HW2 6594   2.354   5.631   3.606
 1899SOL     OW 6595   0.319   1.448   1.548
 1899SOL    HW1 6596   0.272   1.458   1.636
 1899SOL    HW2 6597   0.365   1.534   1.525
 1900SOL     OW 6598   2.108   0.397   6.830
 1900SOL    HW1 6599   2.149   0.487   6.811
 1900SOL    HW2 6600   2.168   0.345   6.890
 1901SOL     OW 6601   1.906   1.957   0.970
 1901SOL    HW1 6602   1.953   1.869   0.980
 1901SOL    HW2 6603   1.973   2.031   0.974
 1902SOL     OW 6604   2.028   0.837   5.124
 1902SOL    HW1 6605   2.098   0.765   5.121
 1902SOL    HW2 6606   1.965   0.819   5.200
 1903SOL     OW 6607   0.403   3.840   2.583
 1903SOL    HW1 6608   0.460   3.792   2.651
 1903SOL    HW2 6609   0.381   3.931   2.617
 1904SOL     OW 6610   5.705   5.548   3.689
 1904SOL    HW1 6611   5.753   5.460   3.684
 1904SOL    HW2 6612   5.729   5.604   3.609
 1905SOL     OW 6613   1.090   0.321   3.680
 1905SOL    HW1 6614   1.154   0.275   3.617
 1905SOL    HW2 6615   1.021   0.369   3.627
 1906SOL     OW 6616   1.922   0.128   4.628
 1906SOL    HW1 6617   1.832   0.147   4.589
 1906SOL    HW2 6618   1.956   0.209   4.676
 1907SOL     OW 6619   3.884   1.487   1.851
 1907SOL    HW1 6620   3.855   1.561   1.790
 1907SOL    HW2 6621   3.820   1.482   1.928
 1908SOL     OW 6622   3.446   6.473   5.773
 1908SOL    HW1 6623   3.458   6.478   5.872
 1908SOL    HW2 6624   3.460   6.378   5.743
 1909SOL     OW 6625   0.890   3.568   3.083
 1909SOL    HW1 6626   0.876   3.650   3.027
 1909SOL    HW2 6627   0.803   3.538   3.121
 1910SOL     OW 6628   0.028   5.454   6.021
 1910SOL    HW1 6629   0.117   5.415   6.044
 1910SOL    HW2 6630   0.038   5.552   6.003
 1911SOL     OW 6631   0.157   3.672   4.983
 1911SOL    HW1 6632   0.211   3.597   5.020
 1911SOL    HW2 6633   0.102   3.713   5.056
 1912SOL     OW 6634   3.168   5.714   1.225
 1912SOL    HW1 6635   3.160   5.790   1.290
 1912SOL    HW2 6636   3.089   5.714   1.164
 1913SOL     OW 6637   2.318   0.184   4.784
 1913SOL    HW1 6638   2.340   0.272   4.825
 1913SOL    HW2 6639   2.402   0.135   4.762
 1914SOL     OW 6640   3.978   3.170   6.677
 1914SOL    HW1 6641   4.010   3.091   6.624
 1914SOL    HW2 6642   3.890   3.201   6.642
 1915SOL     OW 6643   3.631   2.364   5.545
 1915SOL    HW1 6644   3.575   2.394   5.467
 1915SOL    HW2 6645   3.654   2.443   5.601
 1916SOL     OW 6646   4.122   5.596   1.437
 1916SOL    HW1 6647   4.089   5.687   1.411
 1916SOL    HW2 6648   4.204   5.574   1.386
 1917SOL     OW 6649   2.408   2.915   6.709
 1917SOL    HW1 6650   2.456   2.847   6.764
 1917SOL    HW2 6651   2.424   3.006   6.748
 1918SOL     OW 6652   1.388   1.724   4.765
 1918SOL    HW1 6653   1.454   1.650   4.773
 1918SOL    HW2 6654   1.424   1.805   4.813
 1919SOL     OW 6655   1.344   1.635   1.973
 1919SOL    HW1 6656   1.329   1.730   1.946
 1919SOL    HW2 6657   1.433   1.627   2.019
 1920SOL     OW 6658   0.341   4.042   2.918
 1920SOL    HW1 6659   0.352   3.955   2.967
 1920SOL    HW2 6660   0.273   4.030   2.845
 1921SOL     OW 6661   1.694   3.786   6.663
 1921SOL    HW1 6662   1.726   3.821   6.575
 1921SOL    HW2 6663   1.713   3.854   6.735
 1922SOL     OW 6664   3.011   3.468   1.560
 1922SOL    HW1 6665   3.027   3.425   1.649
 1922SOL    HW2 6666   2.914   3.465   1.538
 1923SOL     OW 6667   4.235   1.685   6.168
 1923SOL    HW1 6668   4.235   1.766   6.226
 1923SOL    HW2 6669   4.260   1.605   6.221
 1924SOL     OW 6670   4.368   6.390   0.027
 1924SOL    HW1 6671   4.365   6.311   6.990
 1924SOL    HW2 6672   4.435   6.457   7.016
 1925SOL     OW 6673   1.349   4.473   0.868
 1925SOL    HW1 6674   1.328   4.570   0.861
 1925SOL    HW2 6675   1.384   4.440   0.781
 1926SOL     OW 6676   3.052   6.547   2.854
 1926SOL    HW1 6677   2.966   6.593   2.878
 1926SOL    HW2 6678   3.035   6.480   2.782
 1927SOL     OW 6679   2.480   4.800   0.398
 1927SOL    HW1 6680   2.457   4.898   0.393
 1927SOL    HW2 6681   2.579   4.789   0.386
 1928SOL     OW 6682   6.063   4.362   4.789
 1928SOL    HW1 6683   6.148   4.334   4.833
 1928SOL    HW2 6684   5.991   4.371   4.857
 1929SOL     OW 6685   2.683   0.278   1.323
 1929SOL    HW1 6686   2.676   0.377   1.332
 1929SOL    HW2 6687   2.613   0.245   1.260
 1930SOL     OW 6688   5.574   3.721   6.589
 1930SOL    HW1 6689   5.527   3.693   6.506
 1930SOL    HW2 6690   5.523   3.795   6.633
 1931SOL     OW 6691   0.858   2.228   0.717
 1931SOL    HW1 6692   0.937   2.170   0.738
 1931SOL    HW2 6693   0.809   2.190   0.639
 1932SOL     OW 6694   4.754   2.718   3.389
 1932SOL    HW1 6695   4.809   2.706   3.307
 1932SOL    HW2 6696   4.697   2.637   3.403
 1933SOL     OW 6697   1.391   3.142   0.769
 1933SOL    HW1 6698   1.443   3.210   0.718
 1933SOL    HW2 6699   1.297   3.174   0.782
 1934SOL     OW 6700   6.987   1.606   4.935
 1934SOL    HW1 6701   0.017   1.684   4.966
 1934SOL    HW2 6702   6.893   1.635   4.919
 1935SOL     OW 6703   4.795   4.857   3.461
 1935SOL    HW1 6704   4.720   4.899   3.409
 1935SOL    HW2 6705   4.758   4.784   3.519
 1936SOL     OW 6706   4.780   4.121   3.874
 1936SOL    HW1 6707   4.853   4.100   3.809
 1936SOL    HW2 6708   4.692   4.101   3.831
 1937SOL     OW 6709   3.845   6.198   0.035
 1937SOL    HW1 6710   3.832   6.286   0.080
 1937SOL    HW2 6711   3.938   6.193   7.022
 1938SOL     OW 6712   1.682   2.087   1.076
 1938SOL    HW1 6713   1.771   2.052   1.048
 1938SOL    HW2 6714   1.627   2.012   1.113
 1939SOL     OW 6715   6.836   6.548   4.605
 1939SOL    HW1 6716   6.818   6.499   4.690
 1939SOL    HW2 6717   6.755   6.603   4.581
 1940SOL     OW 6718   6.110   4.559   1.364
 1940SOL    HW1 6719   6.086   4.482   1.306
 1940SOL    HW2 6720   6.209   4.558   1.383
 1941SOL     OW 6721   1.757   2.789   4.009
 1941SOL    HW1 6722   1.756   2.738   4.095
 1941SOL    HW2 6723   1.848   2.784   3.968
 1942SOL     OW 6724   5.621   2.769   2.499
 1942SOL    HW1 6725   5.590   2.840   2.561
 1942SOL    HW2 6726   5.698   2.802   2.445
 1943SOL     OW 6727   1.625   0.391   3.058
 1943SOL    HW1 6728   1.541   0.438   3.029
 1943SOL    HW2 6729   1.699   0.458   3.066
 1944SOL     OW 6730   5.819   3.731   0.330
 1944SOL    HW1 6731   5.825   3.828   0.352
 1944SOL    HW2 6732   5.845   3.717   0.234
 1945SOL     OW 6733   3.726   5.625   6.927
 1945SOL    HW1 6734   3.669   5.698   6.965
 1945SOL    HW2 6735   3.706   5.539   6.974
 1946SOL     OW 6736   5.708   0.315   1.088
 1946SOL    HW1 6737   5.718   0.411   1.115
 1946SOL    HW2 6738   5.762   0.298   1.006
 1947SOL     OW 6739   5.475   5.862   3.915
 1947SOL    HW1 6740   5.569   5.872   3.882
 1947SOL    HW2 6741   5.472   5.881   4.013
 1948SOL     OW 6742   6.177   5.128   2.834
 1948SOL    HW1 6743   6.144   5.039   2.801
 1948SOL    HW2 6744   6.139   5.201   2.776
 1949SOL     OW 6745   4.083   3.089   6.922
 1949SOL    HW1 6746   4.020   3.113   6.848
 1949SOL    HW2 6747   4.153   3.160   6.929
 1950SOL     OW 6748   3.591   2.857   2.678
 1950SOL    HW1 6749   3.594   2.956   2.659
 1950SOL    HW2 6750   3.621   2.807   2.597
 1951SOL     OW 6751   6.992   4.656   6.479
 1951SOL    HW1 6752   6.904   4.644   6.435
 1951SOL    HW2 6753   0.000   4.569   6.515
 1952SOL     OW 6754   5.796   4.698   1.134
 1952SOL    HW1 6755   5.816   4.772   1.070
 1952SOL    HW2 6756   5.702   4.667   1.121
 1953SOL     OW 6757   0.002   1.734   6.031
 1953SOL    HW1 6758   0.057   1.656   6.062
 1953SOL    HW2 6759   0.049   1.819   6.054
 1954SOL     OW 6760   6.254   0.346   1.216
 1954SOL    HW1 6761   6.188   0.336   1.142
 1954SOL    HW2 6762   6.225   0.418   1.278
 1955SOL     OW 6763   0.596   0.549   2.264
 1955SOL    HW1 6764   0.512   0.568   2.315
 1955SOL    HW2 6765   0.640   0.636   2.240
 1956SOL     OW 6766   4.468   0.323   1.837
 1956SOL    HW1 6767   4.444   0.414   1.870
 1956SOL    HW2 6768   4.546   0.289   1.889
 1957SOL     OW 6769   5.352   4.503   3.904
 1957SOL    HW1 6770   5.412   4.530   3.828
 1957SOL    HW2 6771   5.396   4.526   3.991
 1958SOL     OW 6772   4.788   1.287   1.726
 1958SOL    HW1 6773   4.821   1.298   1.819
 1958SOL    HW2 6774   4.716   1.217   1.725
 1959SOL     OW 6775   0.569   0.148   3.997
 1959SOL    HW1 6776   0.665   0.175   4.009
 1959SOL    HW2 6777   0.528   0.202   3.924
 1960SOL     OW 6778   0.376   3.850   2.282
 1960SOL    HW1 6779   0.386   3.828   2.379
 1960SOL    HW2 6780   0.467   3.858   2.241
 1961SOL     OW 6781   5.813   4.199   4.582
 1961SOL    HW1 6782   5.800   4.298   4.580
 1961SOL    HW2 6783   5.885   4.177   4.649
 1962SOL     OW 6784   1.610   6.548   2.576
 1962SOL    HW1 6785   1.574   6.490   2.648
 1962SOL    HW2 6786   1.543   6.618   2.552
 1963SOL     OW 6787   1.359   1.914   1.382
 1963SOL    HW1 6788   1.427   1.987   1.388
 1963SOL    HW2 6789   1.362   1.873   1.291
 1964SOL     OW 6790   3.774   4.968   1.427
 1964SOL    HW1 6791   3.721   4.901   1.375
 1964SOL    HW2 6792   3.828   5.024   1.365
 1965SOL     OW 6793   1.761   2.438   4.578
 1965SOL    HW1 6794   1.782   2.386   4.495
 1965SOL    HW2 6795   1.843   2.446   4.634
 1966SOL     OW 6796   1.413   5.528   1.329
 1966SOL    HW1 6797   1.499   5.482   1.309
 1966SOL    HW2 6798   1.345   5.505   1.259
 1967SOL     OW 6799   6.361   2.745   4.110
 1967SOL    HW1 6800   6.437   2.718   4.170
 1967SOL    HW2 6801   6.308   2.818   4.154
 1968SOL     OW 6802   2.585   0.859   5.629
 1968SOL    HW1 6803   2.540   0.776   5.595
 1968SOL    HW2 6804   2.530   0.939   5.603
 1969SOL     OW 6805   2.943   1.228   1.366
 1969SOL    HW1 6806   3.000   1.150   1.392
 1969SOL    HW2 6807   2.931   1.229   1.267
 1970SOL     OW 6808   0.330   0.575   5.169
 1970SOL    HW1 6809   0.258   0.617   5.224
 1970SOL    HW2 6810   0.419   0.601   5.207
 1971SOL     OW 6811   0.295   1.044   5.655
 1971SOL    HW1 6812   0.365   1.040   5.584
 1971SOL    HW2 6813   0.239   0.961   5.652
 1972SOL     OW 6814   5.867   2.519   1.026
 1972SOL    HW1 6815   5.799   2.547   1.093
 1972SOL    HW2 6816   5.929   2.452   1.067
 1973SOL     OW 6817   2.816   4.252   1.524
 1973SOL    HW1 6818   2.764   4.298   1.596
 1973SOL    HW2 6819   2.754   4.199   1.466
 1974SOL     OW 6820   4.771   6.845   4.592
 1974SOL    HW1 6821   4.744   6.839   4.688
 1974SOL    HW2 6822   4.844   6.781   4.573
 1975SOL     OW 6823   2.065   2.104   4.268
 1975SOL    HW1 6824   1.992   2.102   4.199
 1975SOL    HW2 6825   2.047   2.178   4.333
 1976SOL     OW 6826   5.480   5.885   0.503
 1976SOL    HW1 6827   5.484   5.839   0.414
 1976SOL    HW2 6828   5.406   5.845   0.558
 1977SOL     OW 6829   1.792   3.224   5.301
 1977SOL    HW1 6830   1.746   3.253   5.217
 1977SOL    HW2 6831   1.891   3.222   5.287
 1978SOL     OW 6832   1.811   5.742   3.000
 1978SOL    HW1 6833   1.887   5.685   2.969
 1978SOL    HW2 6834   1.840   5.795   3.080
 1979SOL     OW 6835   5.136   5.138   0.135
 1979SOL    HW1 6836   5.179   5.198   0.068
 1979SOL    HW2 6837   5.037   5.153   0.133
 1980SOL     OW 6838   4.330   0.463   3.142
 1980SOL    HW1 6839   4.276   0.544   3.164
 1980SOL    HW2 6840   4.426   0.479   3.165
 1981SOL     OW 6841   5.696   2.607   2.779
 1981SOL    HW1 6842   5.597   2.616   2.794
 1981SOL    HW2 6843   5.722   2.659   2.698
 1982SOL     OW 6844   0.004   3.527   3.742
 1982SOL    HW1 6845   0.023   3.460   3.670
 1982SOL    HW2 6846   0.090   3.563   3.778
 1983SOL     OW 6847   1.522   0.685   1.526
 1983SOL    HW1 6848   1.568   0.604   1.488
 1983SOL    HW2 6849   1.583   0.730   1.591
 1984SOL     OW 6850   4.482   2.389   5.121
 1984SOL    HW1 6851   4.387   2.417   5.102
 1984SOL    HW2 6852   4.540   2.470   5.125
 1985SOL     OW 6853   6.975   6.080   1.837
 1985SOL    HW1 6854   6.968   6.085   1.936
 1985SOL    HW2 6855   6.934   5.994   1.805
 1986SOL     OW 6856   3.178   0.976   6.395
 1986SOL    HW1 6857   3.232   0.896   6.368
 1986SOL    HW2 6858   3.088   0.945   6.428
 1987SOL     OW 6859   2.446   1.700   3.866
 1987SOL    HW1 6860   2.502   1.651   3.799
 1987SOL    HW2 6861   2.482   1.683   3.958
 1988SOL     OW 6862   0.578   1.731   0.753
 1988SOL    HW1 6863   0.533   1.654   0.798
 1988SOL    HW2 6864   0.553   1.733   0.656
 1989SOL     OW 6865   1.855   5.782   4.116
 1989SOL    HW1 6866   1.829   5.876   4.140
 1989SOL    HW2 6867   1.914   5.745   4.187
 1990SOL     OW 6868   3.397   6.090   0.337
 1990SOL    HW1 6869   3.415   6.082   0.239
 1990SOL    HW2 6870   3.330   6.021   0.365
 1991SOL     OW 6871   1.956   5.568   0.141
 1991SOL    HW1 6872   1.938   5.653   0.092
 1991SOL    HW2 6873   1.890   5.499   0.113
 1992SOL     OW 6874   6.883   0.479   0.255
 1992SOL    HW1 6875   6.981   0.484   0.274
 1992SOL    HW2 6876   6.848   0.570   0.233
 1993SOL     OW 6877   3.327   1.745   5.378
 1993SOL    HW1 6878   3.294   1.838   5.361
 1993SOL    HW2 6879   3.316   1.690   5.295
 1994SOL     OW 6880   5.478   2.347   1.429
 1994SOL    HW1 6881   5.500   2.284   1.503
 1994SOL    HW2 6882   5.545   2.336   1.355
 1995SOL     OW 6883   5.411   2.733   3.705
 1995SOL    HW1 6884   5.422   2.655   3.645
 1995SOL    HW2 6885   5.500   2.760   3.742
 1996SOL     OW 6886   2.542   1.870   1.271
 1996SOL    HW1 6887   2.561   1.884   1.368
 1996SOL    HW2 6888   2.628   1.862   1.221
 1997SOL     OW 6889   3.477   1.696   3.850
 1997SOL    HW1 6890   3.387   1.665   3.882
 1997SOL    HW2 6891   3.515   1.629   3.787
 1998SOL     OW 6892   1.435   3.718   0.679
 1998SOL    HW1 6893   1.454   3.719   0.777
 1998SOL    HW2 6894   1.412   3.810   0.648
 1999SOL     OW 6895   1.029   0.446   5.288
 1999SOL    HW1 6896   0.940   0.485   5.312
 1999SOL    HW2 6897   1.058   0.481   5.199
 2000SOL     OW 6898   3.961   3.132   5.679
 2000SOL    HW1 6899   4.035   3.115   5.745
 2000SOL    HW2 6900   3.899   3.202   5.714
 2001SOL     OW 6901   2.281   1.328   0.246
 2001SOL    HW1 6902   2.276   1.244   0.299
 2001SOL    HW2 6903   2.265   1.407   0.306
 2002SOL     OW 6904   0.474   5.257   0.916
 2002SOL    HW1 6905   0.481   5.251   0.816
 2002SOL    HW2 6906   0.378   5.266   0.942
 2003SOL     OW 6907   0.032   4.874   1.652
 2003SOL    HW1 6908   0.054   4.832   1.564
 2003SOL    HW2 6909   7.021   4.804   1.714
 2004SOL     OW 6910   4.307   0.488   5.002
 2004SOL    HW1 6911   4.339   0.570   5.049
 2004SOL    HW2 6912   4.225   0.454   5.048
 2005SOL     OW 6913   0.098   4.906   6.968
 2005SOL    HW1 6914   0.077   4.906   6.870
 2005SOL    HW2 6915   0.170   4.839   6.986
 2006SOL     OW 6916   5.663   6.660   4.141
 2006SOL    HW1 6917   5.644   6.753   4.112
 2006SOL    HW2 6918   5.578   6.607   4.144
 2007SOL     OW 6919   5.479   4.215   1.418
 2007SOL    HW1 6920   5.389   4.170   1.414
 2007SOL    HW2 6921   5.503   4.232   1.513
 2008SOL     OW 6922   2.164   3.432   3.434
 2008SOL    HW1 6923   2.173   3.530   3.450
 2008SOL    HW2 6924   2.114   3.417   3.348
 2009SOL     OW 6925   5.578   6.298   2.715
 2009SOL    HW1 6926   5.560   6.391   2.680
 2009SOL    HW2 6927   5.608   6.304   2.810
 2010SOL     OW 6928   2.136   1.266   1.610
 2010SOL    HW1 6929   2.043   1.295   1.589
 2010SOL    HW2 6930   2.196   1.347   1.612
 2011SOL     OW 6931   0.549   1.294   4.942
 2011SOL    HW1 6932   0.520   1.386   4.916
 2011SOL    HW2 6933   0.635   1.299   4.993
 2012SOL     OW 6934   1.591   3.517   2.314
 2012SOL    HW1 6935   1.603   3.435   2.370
 2012SOL    HW2 6936   1.643   3.507   2.229
 2013SOL     OW 6937   6.693   3.447   3.809
 2013SOL    HW1 6938   6.777   3.396   3.825
 2013SOL    HW2 6939   6.671   3.445   3.711
 2014SOL     OW 6940   3.323   7.008   2.771
 2014SOL    HW1 6941   3.333   0.081   2.751
 2014SOL    HW2 6942   3.305   6.958   2.686
 2015SOL     OW 6943   3.617   6.592   0.171
 2015SOL    HW1 6944   3.537   6.544   0.209
 2015SOL    HW2 6945   3.610   6.595   0.072
 2016SOL     OW 6946   1.630   5.695   5.203
 2016SOL    HW1 6947   1.710   5.754   5.217
 2016SOL    HW2 6948   1.553   5.750   5.169
 2017SOL     OW 6949   4.835   0.178   3.244
 2017SOL    HW1 6950   4.890   0.260   3.228
 2017SOL    HW2 6951   4.763   0.199   3.310
 2018SOL     OW 6952   6.561   3.017   3.775
 2018SOL    HW1 6953   6.526   3.085   3.839
 2018SOL    HW2 6954   6.531   3.040   3.682
 2019SOL     OW 6955   6.019   4.217   6.391
 2019SOL    HW1 6956   5.924   4.243   6.370
 2019SOL    HW2 6957   6.065   4.189   6.307
 2020SOL     OW 6958   1.766   6.266   5.627
 2020SOL    HW1 6959   1.731   6.210   5.702
 2020SOL    HW2 6960   1.741   6.361   5.642
 2021SOL     OW 6961   6.374   6.517   3.984
 2021SOL    HW1 6962   6.282   6.530   3.948
 2021SOL    HW2 6963   6.396   6.591   4.047
 2022SOL     OW 6964   1.813   4.486   4.562
 2022SOL    HW1 6965   1.817   4.574   4.516
 2022SOL    HW2 6966   1.780   4.498   4.655
 2023SOL     OW 6967   0.675   0.490   6.970
 2023SOL    HW1 6968   0.654   0.500   6.873
 2023SOL    HW2 6969   0.765   0.530   6.989
 2024SOL     OW 6970   6.836   5.874   3.883
 2024SOL    HW1 6971   6.847   5.951   3.821
 2024SOL    HW2 6972   6.744   5.875   3.923
 2025SOL     OW 6973   3.040   0.466   3.914
 2025SOL    HW1 6974   3.112   0.402   3.886
 2025SOL    HW2 6975   2.961   0.456   3.854
 2026SOL     OW 6976   6.612   2.085   6.554
 2026SOL    HW1 6977   6.574   2.170   6.590
 2026SOL    HW2 6978   6.544   2.040   6.496
 2027SOL     OW 6979   0.662   6.445   1.596
 2027SOL    HW1 6980   0.707   6.356   1.595
 2027SOL    HW2 6981   0.731   6.517   1.597
 2028SOL     OW 6982   3.542   5.358   3.434
 2028SOL    HW1 6983   3.535   5.281   3.498
 2028SOL    HW2 6984   3.637   5.389   3.430
 2029SOL     OW 6985   6.654   2.601   6.799
 2029SOL    HW1 6986   6.686   2.507   6.811
 2029SOL    HW2 6987   6.557   2.607   6.819
 2030SOL     OW 6988   3.525   0.386   2.553
 2030SOL    HW1 6989   3.610   0.352   2.510
 2030SOL    HW2 6990   3.494   0.468   2.504
 2031SOL     OW 6991   0.013   6.318   2.523
 2031SOL    HW1 6992   6.952   6.271   2.501
 2031SOL    HW2 6993   0.090   6.262   2.492
 2032SOL     OW 6994   3.438   1.490   1.210
 2032SOL    HW1 6995   3.521   1.536   1.243
 2032SOL    HW2 6996   3.426   1.404   1.259
 2033SOL     OW 6997   2.193   0.743   1.121
 2033SOL    HW1 6998   2.240   0.755   1.209
 2033SOL    HW2 6999   2.261   0.741   1.048
 2034SOL     OW 7000   1.511   5.211   5.609
 2034SOL    HW1 7001   1.530   5.112   5.611
 2034SOL    HW2 7002   1.596   5.262   5.621
 2035SOL     OW 7003   6.246   6.697   2.301
 2035SOL    HW1 7004   6.297   6.773   2.260
 2035SOL    HW2 7005   6.153   6.728   2.323
 2036SOL     OW 7006   1.462   3.921   3.480
 2036SOL    HW1 7007   1.491   4.002   3.531
 2036SOL    HW2 7008   1.363   3.914   3.482
 2037SOL     OW 7009   6.490   2.844   6.353
 2037SOL    HW1 7010   6.459   2.832   6.258
 2037SOL    HW2 7011   6.491   2.755   6.399
 2038SOL     OW 7012   2.300   1.043   0.487
 2038SOL    HW1 7013   2.361   1.053   0.566
 2038SOL    HW2 7014   2.220   1.102   0.499
 2039SOL     OW 7015   0.292   6.565   2.921
 2039SOL    HW1 7016   0.365   6.503   2.951
 2039SOL    HW2 7017   0.304   6.587   2.825
 2040SOL     OW 7018   2.155   1.701   0.474
 2040SOL    HW1 7019   2.222   1.627   0.469
 2040SOL    HW2 7020   2.063   1.664   0.461
 2041SOL     OW 7021   0.998   0.277   5.525
 2041SOL    HW1 7022   0.905   0.276   5.562
 2041SOL    HW2 7023   0.998   0.316   5.433
 2042SOL     OW 7024   4.798   0.341   6.088
 2042SOL    HW1 7025   4.759   0.356   6.179
 2042SOL    HW2 7026   4.898   0.342   6.094
 2043SOL     OW 7027   6.444   2.324   2.563
 2043SOL    HW1 7028   6.346   2.343   2.571
 2043SOL    HW2 7029   6.460   2.264   2.485
 2044SOL     OW 7030   6.350   0.935   0.972
 2044SOL    HW1 7031   6.360   1.032   0.953
 2044SOL    HW2 7032   6.259   0.904   0.943
 2045SOL     OW 7033   1.186   5.611   4.654
 2045SOL    HW1 7034   1.190   5.515   4.627
 2045SOL    HW2 7035   1.114   5.658   4.602
 2046SOL     OW 7036   6.456   2.420   5.373
 2046SOL    HW1 7037   6.459   2.470   5.459
 2046SOL    HW2 7038   6.405   2.335   5.386
 2047SOL     OW 7039   6.254   2.442   0.959
 2047SOL    HW1 7040   6.334   2.446   1.019
 2047SOL    HW2 7041   6.180   2.395   1.006
 2048SOL     OW 7042   0.492   0.857   4.831
 2048SOL    HW1 7043   0.418   0.862   4.898
 2048SOL    HW2 7044   0.473   0.782   4.766
 2049SOL     OW 7045   5.261   1.544   4.227
 2049SOL    HW1 7046   5.188   1.491   4.184
 2049SOL    HW2 7047   5.297   1.611   4.162
 2050SOL     OW 7048   0.291   2.827   4.696
 2050SOL    HW1 7049   0.263   2.739   4.734
 2050SOL    HW2 7050   0.342   2.811   4.611
 2051SOL     OW 7051   1.806   6.127   6.644
 2051SOL    HW1 7052   1.899   6.092   6.633
 2051SOL    HW2 7053   1.795   6.164   6.736
 2052SOL     OW 7054   1.599   2.991   0.886
 2052SOL    HW1 7055   1.631   2.939   0.808
 2052SOL    HW2 7056   1.511   3.033   0.864
 2053SOL     OW 7057   1.406   5.301   4.993
 2053SOL    HW1 7058   1.456   5.385   5.012
 2053SOL    HW2 7059   1.386   5.254   5.079
 2054SOL     OW 7060   3.386   3.301   3.102
 2054SOL    HW1 7061   3.473   3.283   3.056
 2054SOL    HW2 7062   3.399   3.294   3.201
 2055SOL     OW 7063   6.754   2.566   4.903
 2055SOL    HW1 7064   6.664   2.555   4.946
 2055SOL    HW2 7065   6.742   2.605   4.811
 2056SOL     OW 7066   4.164   4.693   1.691
 2056SOL    HW1 7067   4.251   4.708   1.737
 2056SOL    HW2 7068   4.108   4.775   1.697
 2057SOL     OW 7069   4.988   3.364   5.004
 2057SOL    HW1 7070   4.933   3.444   5.024
 2057SOL    HW2 7071   4.930   3.283   5.002
 2058SOL     OW 7072   0.614   6.449   2.339
 2058SOL    HW1 7073   0.651   6.460   2.431
 2058SOL    HW2 7074   0.688   6.424   2.277
 2059SOL     OW 7075   2.719   0.227   5.783
 2059SOL    HW1 7076   2.665   0.311   5.773
 2059SOL    HW2 7077   2.716   0.176   5.697
 2060SOL     OW 7078   0.599   3.033   1.851
 2060SOL    HW1 7079   0.608   2.978   1.769
 2060SOL    HW2 7080   0.506   3.024   1.888
 2061SOL     OW 7081   2.332   2.156   2.296
 2061SOL    HW1 7082   2.253   2.199   2.341
 2061SOL    HW2 7083   2.401   2.134   2.364
 2062SOL     OW 7084   6.678   5.913   5.307
 2062SOL    HW1 7085   6.664   6.012   5.298
 2062SOL    HW2 7086   6.694   5.891   5.403
 2063SOL     OW 7087   1.329   6.825   4.400
 2063SOL    HW1 7088   1.336   6.908   4.455
 2063SOL    HW2 7089   1.329   6.849   4.303
 2064SOL     OW 7090   0.819   3.033   4.417
 2064SOL    HW1 7091   0.892   3.014   4.351
 2064SOL    HW2 7092   0.837   2.983   4.502
 2065SOL     OW 7093   5.427   3.445   5.950
 2065SOL    HW1 7094   5.405   3.542   5.951
 2065SOL    HW2 7095   5.516   3.430   5.993
 2066SOL     OW 7096   6.745   4.041   5.372
 2066SOL    HW1 7097   6.779   3.967   5.314
 2066SOL    HW2 7098   6.647   4.030   5.385
 2067SOL     OW 7099   6.178   4.841   1.289
 2067SOL    HW1 7100   6.097   4.825   1.346
 2067SOL    HW2 7101   6.158   4.913   1.223
 2068SOL     OW 7102   4.005   1.316   4.336
 2068SOL    HW1 7103   4.048   1.403   4.316
 2068SOL    HW2 7104   4.055   1.242   4.290
 2069SOL     OW 7105   0.357   2.424   4.053
 2069SOL    HW1 7106   0.320   2.455   4.141
 2069SOL    HW2 7107   0.349   2.324   4.048
 2070SOL     OW 7108   1.614   2.900   1.134
 2070SOL    HW1 7109   1.550   2.824   1.135
 2070SOL    HW2 7110   1.613   2.944   1.044
 2071SOL     OW 7111   5.953   1.997   6.198
 2071SOL    HW1 7112   5.979   2.073   6.138
 2071SOL    HW2 7113   6.000   1.913   6.168
 2072SOL     OW 7114   4.156   5.081   5.112
 2072SOL    HW1 7115   4.235   5.090   5.052
 2072SOL    HW2 7116   4.187   5.079   5.207
 2073SOL     OW 7117   3.498   6.181   5.827
 2073SOL    HW1 7118   3.581   6.199   5.879
 2073SOL    HW2 7119   3.459   6.093   5.856
 2074SOL     OW 7120   1.797   2.591   6.771
 2074SOL    HW1 7121   1.855   2.519   6.810
 2074SOL    HW2 7122   1.711   2.552   6.740
 2075SOL     OW 7123   6.593   1.932   3.356
 2075SOL    HW1 7124   6.586   1.955   3.453
 2075SOL    HW2 7125   6.502   1.921   3.317
 2076SOL     OW 7126   6.483   0.522   5.314
 2076SOL    HW1 7127   6.476   0.481   5.404
 2076SOL    HW2 7128   6.493   0.621   5.323
 2077SOL     OW 7129   5.940   2.134   1.829
 2077SOL    HW1 7130   5.965   2.228   1.805
 2077SOL    HW2 7131   5.892   2.092   1.752
 2078SOL     OW 7132   1.360   5.187   5.844
 2078SOL    HW1 7133   1.396   5.181   5.750
 2078SOL    HW2 7134   1.296   5.263   5.850
 2079SOL     OW 7135   5.792   1.061   2.181
 2079SOL    HW1 7136   5.792   1.006   2.265
 2079SOL    HW2 7137   5.878   1.110   2.174
 2080SOL     OW 7138   3.670   1.719   4.880
 2080SOL    HW1 7139   3.626   1.654   4.816
 2080SOL    HW2 7140   3.601   1.782   4.915
 2081SOL     OW 7141   1.020   6.496   3.995
 2081SOL    HW1 7142   1.100   6.509   4.053
 2081SOL    HW2 7143   1.006   6.398   3.980
 2082SOL     OW 7144   0.729   6.345   3.387
 2082SOL    HW1 7145   0.788   6.318   3.310
 2082SOL    HW2 7146   0.732   6.445   3.397
 2083SOL     OW 7147   0.535   5.679   4.121
 2083SOL    HW1 7148   0.446   5.695   4.078
 2083SOL    HW2 7149   0.607   5.718   4.064
 2084SOL     OW 7150   1.192   2.632   1.601
 2084SOL    HW1 7151   1.214   2.676   1.515
 2084SOL    HW2 7152   1.130   2.555   1.585
 2085SOL     OW 7153   5.013   6.399   0.865
 2085SOL    HW1 7154   4.919   6.411   0.895
 2085SOL    HW2 7155   5.075   6.414   0.942
 2086SOL     OW 7156   3.407   6.096   0.053
 2086SOL    HW1 7157   3.356   6.180   0.034
 2086SOL    HW2 7158   3.498   6.102   0.013
 2087SOL     OW 7159   4.311   2.022   0.412
 2087SOL    HW1 7160   4.368   2.043   0.491
 2087SOL    HW2 7161   4.227   1.978   0.442
 2088SOL     OW 7162   1.048   6.002   5.343
 2088SOL    HW1 7163   1.026   5.905   5.337
 2088SOL    HW2 7164   0.967   6.052   5.374
 2089SOL     OW 7165   3.896   2.263   5.322
 2089SOL    HW1 7166   3.830   2.337   5.339
 2089SOL    HW2 7167   3.869   2.182   5.374
 2090SOL     OW 7168   5.106   2.843   5.504
 2090SOL    HW1 7169   5.094   2.818   5.408
 2090SOL    HW2 7170   5.026   2.894   5.535
 2091SOL     OW 7171   6.773   6.099   1.172
 2091SOL    HW1 7172   6.794   6.104   1.074
 2091SOL    HW2 7173   6.842   6.151   1.223
 2092SOL     OW 7174   5.325   3.726   0.544
 2092SOL    HW1 7175   5.411   3.758   0.584
 2092SOL    HW2 7176   5.310   3.631   0.570
 2093SOL     OW 7177   3.557   2.086   2.417
 2093SOL    HW1 7178   3.543   2.080   2.318
 2093SOL    HW2 7179   3.601   2.173   2.439
 2094SOL     OW 7180   5.652   2.187   0.626
 2094SOL    HW1 7181   5.745   2.158   0.605
 2094SOL    HW2 7182   5.652   2.245   0.708
 2095SOL     OW 7183   6.194   6.100   3.377
 2095SOL    HW1 7184   6.286   6.064   3.363
 2095SOL    HW2 7185   6.128   6.025   3.378
 2096SOL     OW 7186   4.568   5.994   3.003
 2096SOL    HW1 7187   4.662   5.989   3.036
 2096SOL    HW2 7188   4.566   5.971   2.905
 2097SOL     OW 7189   2.922   4.019   6.698
 2097SOL    HW1 7190   2.849   3.976   6.752
 2097SOL    HW2 7191   2.944   3.959   6.621
 2098SOL     OW 7192   4.131   6.115   3.297
 2098SOL    HW1 7193   4.230   6.101   3.299
 2098SOL    HW2 7194   4.108   6.190   3.236
 2099SOL     OW 7195   4.442   1.827   0.253
 2099SOL    HW1 7196   4.539   1.843   0.236
 2099SOL    HW2 7197   4.402   1.906   0.299
 2100SOL     OW 7198   5.437   0.990   0.666
 2100SOL    HW1 7199   5.473   1.030   0.749
 2100SOL    HW2 7200   5.344   0.955   0.683
 2101SOL     OW 7201   6.872   6.460   1.100
 2101SOL    HW1 7202   6.905   6.370   1.130
 2101SOL    HW2 7203   6.774   6.453   1.078
 2102SOL     OW 7204   4.432   3.621   1.156
 2102SOL    HW1 7205   4.476   3.544   1.109
 2102SOL    HW2 7206   4.351   3.588   1.204
 2103SOL     OW 7207   2.936   3.541   0.526
 2103SOL    HW1 7208   2.873   3.607   0.483
 2103SOL    HW2 7209   2.914   3.533   0.623
 2104SOL     OW 7210   1.509   4.851   2.076
 2104SOL    HW1 7211   1.602   4.853   2.040
 2104SOL    HW2 7212   1.505   4.899   2.163
 2105SOL     OW 7213   3.857   4.489   6.820
 2105SOL    HW1 7214   3.822   4.460   6.731
 2105SOL    HW2 7215   3.783   4.488   6.887
 2106SOL     OW 7216   5.264   3.733   1.231
 2106SOL    HW1 7217   5.320   3.719   1.313
 2106SOL    HW2 7218   5.325   3.747   1.152
 2107SOL     OW 7219   5.758   3.029   5.622
 2107SOL    HW1 7220   5.752   2.929   5.620
 2107SOL    HW2 7221   5.689   3.067   5.560
 2108SOL     OW 7222   5.567   6.475   5.923
 2108SOL    HW1 7223   5.628   6.444   5.851
 2108SOL    HW2 7224   5.537   6.569   5.904
 2109SOL     OW 7225   2.988   5.403   2.227
 2109SOL    HW1 7226   3.001   5.499   2.199
 2109SOL    HW2 7227   3.012   5.394   2.324
 2110SOL     OW 7228   4.309   0.500   5.764
 2110SOL    HW1 7229   4.270   0.528   5.676
 2110SOL    HW2 7230   4.361   0.576   5.803
 2111SOL     OW 7231   1.270   2.304   5.847
 2111SOL    HW1 7232   1.301   2.378   5.906
 2111SOL    HW2 7233   1.178   2.276   5.874
 2112SOL     OW 7234   5.667   2.009   6.189
 2112SOL    HW1 7235   5.767   2.005   6.193
 2112SOL    HW2 7236   5.632   2.052   6.272
 2113SOL     OW 7237   1.956   6.883   4.572
 2113SOL    HW1 7238   1.923   6.961   4.520
 2113SOL    HW2 7239   1.962   6.907   4.669
 2114SOL     OW 7240   2.311   2.871   0.159
 2114SOL    HW1 7241   2.409   2.891   0.156
 2114SOL    HW2 7242   2.295   2.777   0.129
 2115SOL     OW 7243   1.199   4.552   1.755
 2115SOL    HW1 7244   1.218   4.617   1.681
 2115SOL    HW2 7245   1.254   4.577   1.835
 2116SOL     OW 7246   0.676   2.780   0.850
 2116SOL    HW1 7247   0.644   2.868   0.884
 2116SOL    HW2 7248   0.626   2.706   0.895
 2117SOL     OW 7249   5.098   2.870   1.547
 2117SOL    HW1 7250   5.170   2.938   1.560
 2117SOL    HW2 7251   5.051   2.853   1.634
 2118SOL     OW 7252   6.120   3.592   2.153
 2118SOL    HW1 7253   6.074   3.530   2.217
 2118SOL    HW2 7254   6.055   3.621   2.083
 2119SOL     OW 7255   1.511   1.165   0.093
 2119SOL    HW1 7256   1.416   1.167   0.061
 2119SOL    HW2 7257   1.555   1.080   0.062
 2120SOL     OW 7258   6.272   1.885   2.735
 2120SOL    HW1 7259   6.300   1.912   2.827
 2120SOL    HW2 7260   6.344   1.829   2.694
 2121SOL     OW 7261   2.421   2.143   6.160
 2121SOL    HW1 7262   2.325   2.145   6.186
 2121SOL    HW2 7263   2.460   2.054   6.183
 2122SOL     OW 7264   5.951   6.569   6.087
 2122SOL    HW1 7265   5.975   6.615   6.173
 2122SOL    HW2 7266   6.020   6.501   6.066
 2123SOL     OW 7267   6.568   6.136   2.372
 2123SOL    HW1 7268   6.487   6.167   2.321
 2123SOL    HW2 7269   6.562   6.169   2.466
 2124SOL     OW 7270   2.996   1.902   5.578
 2124SOL    HW1 7271   2.900   1.875   5.586
 2124SOL    HW2 7272   3.013   1.984   5.632
 2125SOL     OW 7273   1.628   5.968   3.034
 2125SOL    HW1 7274   1.692   5.900   2.998
 2125SOL    HW2 7275   1.599   6.028   2.959
 2126SOL     OW 7276   4.087   3.000   0.165
 2126SOL    HW1 7277   4.073   3.015   0.067
 2126SOL    HW2 7278   4.181   2.970   0.182
 2127SOL     OW 7279   0.344   1.983   5.453
 2127SOL    HW1 7280   0.316   2.041   5.530
 2127SOL    HW2 7281   0.295   2.011   5.371
 2128SOL     OW 7282   5.796   3.882   0.982
 2128SOL    HW1 7283   5.741   3.929   1.051
 2128SOL    HW2 7284   5.819   3.790   1.015
 2129SOL     OW 7285   5.137   4.197   4.111
 2129SOL    HW1 7286   5.117   4.184   4.208
 2129SOL    HW2 7287   5.077   4.269   4.075
 2130SOL     OW 7288   2.531   1.601   1.425
 2130SOL    HW1 7289   2.498   1.692   1.449
 2130SOL    HW2 7290   2.508   1.537   1.499
 2131SOL     OW 7291   5.428   2.208   0.445
 2131SOL    HW1 7292   5.522   2.190   0.474
 2131SOL    HW2 7293   5.366   2.196   0.522
 2132SOL     OW 7294   3.447   1.242   0.227
 2132SOL    HW1 7295   3.521   1.308   0.241
 2132SOL    HW2 7296   3.377   1.255   0.298
 2133SOL     OW 7297   2.424   2.415   1.561
 2133SOL    HW1 7298   2.345   2.448   1.614
 2133SOL    HW2 7299   2.393   2.382   1.472
 2134SOL     OW 7300   1.069   0.619   4.337
 2134SOL    HW1 7301   1.165   0.642   4.355
 2134SOL    HW2 7302   1.010   0.669   4.401
 2135SOL     OW 7303   0.363   2.139   4.101
 2135SOL    HW1 7304   0.417   2.090   4.032
 2135SOL    HW2 7305   0.342   2.076   4.177
 2136SOL     OW 7306   0.933   3.640   4.920
 2136SOL    HW1 7307   0.950   3.607   4.827
 2136SOL    HW2 7308   0.850   3.695   4.921
 2137SOL     OW 7309   0.902   6.769   5.253
 2137SOL    HW1 7310   0.894   6.849   5.313
 2137SOL    HW2 7311   0.923   6.689   5.309
 2138SOL     OW 7312   6.054   2.390   1.751
 2138SOL    HW1 7313   6.061   2.490   1.760
 2138SOL    HW2 7314   6.124   2.358   1.688
 2139SOL     OW 7315   3.466   0.687   3.859
 2139SOL    HW1 7316   3.387   0.659   3.805
 2139SOL    HW2 7317   3.508   0.768   3.818
 2140SOL     OW 7318   3.045   6.272   3.156
 2140SOL    HW1 7319   3.097   6.222   3.086
 2140SOL    HW2 7320   3.088   6.260   3.245
 2141SOL     OW 7321   6.352   2.851   1.431
 2141SOL    HW1 7322   6.430   2.905   1.400
 2141SOL    HW2 7323   6.269   2.885   1.386
 2142SOL     OW 7324   1.594   2.142   3.473
 2142SOL    HW1 7325   1.544   2.223   3.443
 2142SOL    HW2 7326   1.530   2.066   3.486
 2143SOL     OW 7327   3.908   6.209   1.117
 2143SOL    HW1 7328   3.870   6.248   1.033
 2143SOL    HW2 7329   3.879   6.113   1.125
 2144SOL     OW 7330   1.671   0.676   3.307
 2144SOL    HW1 7331   1.727   0.612   3.254
 2144SOL    HW2 7332   1.584   0.632   3.330
 2145SOL     OW 7333   3.309   5.714   3.658
 2145SOL    HW1 7334   3.367   5.793   3.680
 2145SOL    HW2 7335   3.222   5.746   3.622
 2146SOL     OW 7336   3.277   4.010   2.380
 2146SOL    HW1 7337   3.217   3.978   2.307
 2146SOL    HW2 7338   3.223   4.051   2.453
 2147SOL     OW 7339   0.249   1.461   6.908
 2147SOL    HW1 7340   0.334   1.444   6.858
 2147SOL    HW2 7341   0.264   1.531   6.978
 2148SOL     OW 7342   4.930   3.607   3.982
 2148SOL    HW1 7343   5.027   3.630   3.982
 2148SOL    HW2 7344   4.880   3.671   4.040
 2149SOL     OW 7345   3.450   0.582   1.636
 2149SOL    HW1 7346   3.487   0.537   1.717
 2149SOL    HW2 7347   3.475   0.678   1.637
 2150SOL     OW 7348   3.442   2.020   2.661
 2150SOL    HW1 7349   3.482   2.063   2.580
 2150SOL    HW2 7350   3.481   1.929   2.672
 2151SOL     OW 7351   3.590   2.178   5.220
 2151SOL    HW1 7352   3.493   2.162   5.198
 2151SOL    HW2 7353   3.604   2.166   5.318
 2152SOL     OW 7354   5.464   6.340   1.921
 2152SOL    HW1 7355   5.431   6.369   2.011
 2152SOL    HW2 7356   5.543   6.394   1.896
 2153SOL     OW 7357   4.402   1.239   3.968
 2153SOL    HW1 7358   4.465   1.197   4.033
 2153SOL    HW2 7359   4.309   1.239   4.007
 2154SOL     OW 7360   3.428   5.911   4.694
 2154SOL    HW1 7361   3.410   5.976   4.620
 2154SOL    HW2 7362   3.382   5.942   4.777
 2155SOL     OW 7363   1.561   5.112   0.208
 2155SOL    HW1 7364   1.471   5.116   0.165
 2155SOL    HW2 7365   1.626   5.069   0.145
 2156SOL     OW 7366   2.018   0.284   1.748
 2156SOL    HW1 7367   2.111   0.290   1.712
 2156SOL    HW2 7368   1.995   0.188   1.764
 2157SOL     OW 7369   6.667   0.826   4.609
 2157SOL    HW1 7370   6.624   0.828   4.699
 2157SOL    HW2 7371   6.702   0.917   4.587
 2158SOL     OW 7372   3.418   6.456   0.292
 2158SOL    HW1 7373   3.321   6.437   0.276
 2158SOL    HW2 7374   3.449   6.400   0.369
 2159SOL     OW 7375   1.677   6.517   4.840
 2159SOL    HW1 7376   1.654   6.449   4.909
 2159SOL    HW2 7377   1.650   6.483   4.750
 2160SOL     OW 7378   4.187   4.321   1.556
 2160SOL    HW1 7379   4.268   4.363   1.595
 2160SOL    HW2 7380   4.207   4.288   1.463
 2161SOL     OW 7381   4.895   3.444   3.228
 2161SOL    HW1 7382   4.934   3.365   3.276
 2161SOL    HW2 7383   4.816   3.414   3.174
 2162SOL     OW 7384   1.776   0.775   0.097
 2162SOL    HW1 7385   1.724   0.767   0.182
 2162SOL    HW2 7386   1.870   0.746   0.113
 2163SOL     OW 7387   1.202   6.531   6.476
 2163SOL    HW1 7388   1.106   6.505   6.480
 2163SOL    HW2 7389   1.212   6.618   6.427
 2164SOL     OW 7390   2.073   0.871   5.854
 2164SOL    HW1 7391   1.975   0.848   5.854
 2164SOL    HW2 7392   2.114   0.840   5.768
 2165SOL     OW 7393   1.475   1.095   2.302
 2165SOL    HW1 7394   1.502   1.189   2.323
 2165SOL    HW2 7395   1.400   1.096   2.237
 2166SOL     OW 7396   1.681   2.784   5.539
 2166SOL    HW1 7397   1.758   2.829   5.585
 2166SOL    HW2 7398   1.608   2.850   5.524
 2167SOL     OW 7399   3.136   0.378   2.166
 2167SOL    HW1 7400   3.098   0.388   2.258
 2167SOL    HW2 7401   3.235   0.390   2.169
 2168SOL     OW 7402   6.223   2.920   5.102
 2168SOL    HW1 7403   6.130   2.955   5.118
 2168SOL    HW2 7404   6.218   2.822   5.080
 2169SOL     OW 7405   5.536   2.359   6.225
 2169SOL    HW1 7406   5.577   2.420   6.157
 2169SOL    HW2 7407   5.609   2.315   6.277
 2170SOL     OW 7408   5.111   4.956   5.236
 2170SOL    HW1 7409   5.037   4.936   5.300
 2170SOL    HW2 7410   5.194   4.975   5.287
 2171SOL     OW 7411   6.662   2.776   0.073
 2171SOL    HW1 7412   6.621   2.807   0.159
 2171SOL    HW2 7413   6.673   2.676   0.076
 2172SOL     OW 7414   2.910   1.173   0.463
 2172SOL    HW1 7415   2.820   1.129   0.466
 2172SOL    HW2 7416   2.933   1.194   0.368
 2173SOL     OW 7417   3.989   0.226   5.756
 2173SOL    HW1 7418   4.083   0.195   5.743
 2173SOL    HW2 7419   3.971   0.304   5.697
 2174SOL     OW 7420   6.605   4.349   5.922
 2174SOL    HW1 7421   6.633   4.417   5.855
 2174SOL    HW2 7422   6.646   4.370   6.010
 2175SOL     OW 7423   3.249   0.913   3.629
 2175SOL    HW1 7424   3.218   0.825   3.666
 2175SOL    HW2 7425   3.172   0.976   3.623
 2176SOL     OW 7426   1.646   1.958   1.820
 2176SOL    HW1 7427   1.613   1.866   1.801
 2176SOL    HW2 7428   1.686   1.998   1.738
 2177SOL     OW 7429   6.329   1.457   2.178
 2177SOL    HW1 7430   6.269   1.520   2.226
 2177SOL    HW2 7431   6.409   1.507   2.143
 2178SOL     OW 7432   0.864   4.129   0.536
 2178SOL    HW1 7433   0.919   4.157   0.457
 2178SOL    HW2 7434   0.924   4.119   0.615
 2179SOL     OW 7435   1.680   5.502   4.143
 2179SOL    HW1 7436   1.677   5.409   4.180
 2179SOL    HW2 7437   1.776   5.531   4.135
 2180SOL     OW 7438   3.117   3.613   2.953
 2180SOL    HW1 7439   3.149   3.667   2.875
 2180SOL    HW2 7440   3.160   3.523   2.951
 2181SOL     OW 7441   4.356   4.879   6.008
 2181SOL    HW1 7442   4.278   4.845   6.061
 2181SOL    HW2 7443   4.441   4.855   6.055
 2182SOL     OW 7444   6.976   3.496   6.528
 2182SOL    HW1 7445   0.016   3.488   6.451
 2182SOL    HW2 7446   6.900   3.433   6.513
 2183SOL     OW 7447   2.965   3.207   0.703
 2183SOL    HW1 7448   2.988   3.282   0.641
 2183SOL    HW2 7449   2.876   3.169   0.677
 2184SOL     OW 7450   3.975   0.804   6.348
 2184SOL    HW1 7451   3.882   0.782   6.321
 2184SOL    HW2 7452   4.012   0.730   6.404
 2185SOL     OW 7453   1.647   1.600   0.616
 2185SOL    HW1 7454   1.612   1.693   0.628
 2185SOL    HW2 7455   1.746   1.600   0.627
 2186SOL     OW 7456   6.949   4.777   2.327
 2186SOL    HW1 7457   6.988   4.703   2.383
 2186SOL    HW2 7458   7.021   4.818   2.271
 2187SOL     OW 7459   0.207   1.294   1.350
 2187SOL    HW1 7460   0.266   1.246   1.284
 2187SOL    HW2 7461   0.264   1.355   1.406
 2188SOL     OW 7462   4.925   5.880   3.602
 2188SOL    HW1 7463   4.951   5.878   3.505
 2188SOL    HW2 7464   5.007   5.896   3.657
 2189SOL     OW 7465   1.728   6.847   5.885
 2189SOL    HW1 7466   1.772   6.810   5.967
 2189SOL    HW2 7467   1.629   6.835   5.892
 2190SOL     OW 7468   6.045   2.681   1.640
 2190SOL    HW1 7469   6.027   2.778   1.654
 2190SOL    HW2 7470   6.143   2.666   1.627
 2191SOL     OW 7471   3.381   2.610   6.102
 2191SOL    HW1 7472   3.351   2.705   6.106
 2191SOL    HW2 7473   3.383   2.580   6.007
 2192SOL     OW 7474   4.254   6.314   5.417
 2192SOL    HW1 7475   4.344   6.357   5.406
 2192SOL    HW2 7476   4.206   6.315   5.330
 2193SOL     OW 7477   6.977   5.371   5.755
 2193SOL    HW1 7478   7.023   5.389   5.843
 2193SOL    HW2 7479   6.954   5.458   5.712
 2194SOL     OW 7480   1.662   5.961   0.354
 2194SOL    HW1 7481   1.676   5.936   0.450
 2194SOL    HW2 7482   1.686   6.057   0.341
 2195SOL     OW 7483   0.573   6.332   2.017
 2195SOL    HW1 7484   0.511   6.359   1.944
 2195SOL    HW2 7485   0.634   6.409   2.040
 2196SOL     OW 7486   3.083   0.961   5.425
 2196SOL    HW1 7487   3.000   0.949   5.479
 2196SOL    HW2 7488   3.126   0.873   5.408
 2197SOL     OW 7489   4.671   4.510   1.877
 2197SOL    HW1 7490   4.656   4.485   1.781
 2197SOL    HW2 7491   4.627   4.443   1.936
 2198SOL     OW 7492   6.761   3.774   6.990
 2198SOL    HW1 7493   6.819   3.855   6.985
 2198SOL    HW2 7494   6.817   3.693   7.007
 2199SOL     OW 7495   4.835   6.856   0.662
 2199SOL    HW1 7496   4.782   6.880   0.581
 2199SOL    HW2 7497   4.898   6.931   0.684
 2200SOL     OW 7498   4.107   0.649   4.367
 2200SOL    HW1 7499   4.017   0.607   4.365
 2200SOL    HW2 7500   4.176   0.579   4.388
 2201SOL     OW 7501   6.185   3.836   2.286
 2201SOL    HW1 7502   6.213   3.899   2.214
 2201SOL    HW2 7503   6.163   3.747   2.246
 2202SOL     OW 7504   3.569   4.914   4.485
 2202SOL    HW1 7505   3.626   4.934   4.405
 2202SOL    HW2 7506   3.565   4.815   4.499
 2203SOL     OW 7507   3.558   2.017   3.064
 2203SOL    HW1 7508   3.610   2.098   3.036
 2203SOL    HW2 7509   3.545   2.018   3.163
 2204SOL     OW 7510   3.514   1.138   7.005
 2204SOL    HW1 7511   3.469   1.189   6.932
 2204SOL    HW2 7512   3.478   1.169   0.069
 2205SOL     OW 7513   1.524   0.370   6.559
 2205SOL    HW1 7514   1.525   0.347   6.462
 2205SOL    HW2 7515   1.534   0.286   6.613
 2206SOL     OW 7516   2.864   3.772   6.341
 2206SOL    HW1 7517   2.768   3.796   6.328
 2206SOL    HW2 7518   2.871   3.690   6.397
 2207SOL     OW 7519   1.056   4.456   6.301
 2207SOL    HW1 7520   1.121   4.380   6.305
 2207SOL    HW2 7521   1.067   4.505   6.215
 2208SOL     OW 7522   0.888   3.682   1.802
 2208SOL    HW1 7523   0.813   3.747   1.792
 2208SOL    HW2 7524   0.885   3.616   1.727
 2209SOL     OW 7525   1.770   5.789   6.451
 2209SOL    HW1 7526   1.706   5.803   6.375
 2209SOL    HW2 7527   1.719   5.794   6.538
 2210SOL     OW 7528   0.576   4.833   3.261
 2210SOL    HW1 7529   0.578   4.734   3.248
 2210SOL    HW2 7530   0.665   4.871   3.236
 2211SOL     OW 7531   5.976   1.705   5.577
 2211SOL    HW1 7532   6.030   1.777   5.534
 2211SOL    HW2 7533   5.899   1.746   5.626
 2212SOL     OW 7534   0.181   6.601   6.181
 2212SOL    HW1 7535   0.130   6.637   6.259
 2212SOL    HW2 7536   0.129   6.616   6.097
 2213SOL     OW 7537   4.295   2.315   4.180
 2213SOL    HW1 7538   4.340   2.226   4.196
 2213SOL    HW2 7539   4.260   2.350   4.266
 2214SOL     OW 7540   5.441   0.377   5.317
 2214SOL    HW1 7541   5.514   0.427   5.364
 2214SOL    HW2 7542   5.418   0.425   5.232
 2215SOL     OW 7543   6.899   1.735   5.551
 2215SOL    HW1 7544   6.985   1.714   5.598
 2215SOL    HW2 7545   6.824   1.732   5.617
 2216SOL     OW 7546   1.140   6.827   1.323
 2216SOL    HW1 7547   1.170   6.843   1.418
 2216SOL    HW2 7548   1.219   6.836   1.262
 2217SOL     OW 7549   4.056   0.227   0.603
 2217SOL    HW1 7550   4.105   0.243   0.688
 2217SOL    HW2 7551   4.078   0.299   0.537
 2218SOL     OW 7552   1.107   6.166   6.848
 2218SOL    HW1 7553   1.184   6.221   6.815
 2218SOL    HW2 7554   1.138   6.110   6.925
 2219SOL     OW 7555   1.474   3.971   2.728
 2219SOL    HW1 7556   1.417   3.894   2.756
 2219SOL    HW2 7557   1.570   3.948   2.739
 2220SOL     OW 7558   0.423   2.138   4.883
 2220SOL    HW1 7559   0.434   2.200   4.961
 2220SOL    HW2 7560   0.457   2.048   4.907
 2221SOL     OW 7561   6.604   2.089   1.138
 2221SOL    HW1 7562   6.663   2.127   1.210
 2221SOL    HW2 7563   6.510   2.082   1.172
 2222SOL     OW 7564   4.057   0.432   1.812
 2222SOL    HW1 7565   4.024   0.526   1.803
 2222SOL    HW2 7566   4.060   0.389   1.721
 2223SOL     OW 7567   6.481   5.157   3.513
 2223SOL    HW1 7568   6.557   5.206   3.470
 2223SOL    HW2 7569   6.413   5.135   3.443
 2224SOL     OW 7570   1.829   4.618   1.477
 2224SOL    HW1 7571   1.841   4.558   1.557
 2224SOL    HW2 7572   1.851   4.712   1.503
 2225SOL     OW 7573   5.986   4.657   2.544
 2225SOL    HW1 7574   6.016   4.716   2.469
 2225SOL    HW2 7575   6.020   4.695   2.631
 2226SOL     OW 7576   4.068   3.085   1.540
 2226SOL    HW1 7577   4.054   3.171   1.589
 2226SOL    HW2 7578   3.979   3.049   1.510
 2227SOL     OW 7579   6.811   4.074   6.031
 2227SOL    HW1 7580   6.725   4.042   5.993
 2227SOL    HW2 7581   6.878   3.999   6.031
 2228SOL     OW 7582   2.954   4.824   0.221
 2228SOL    HW1 7583   3.040   4.827   0.271
 2228SOL    HW2 7584   2.958   4.751   0.152
 2229SOL     OW 7585   4.698   1.406   4.111
 2229SOL    HW1 7586   4.729   1.394   4.205
 2229SOL    HW2 7587   4.642   1.328   4.084
 2230SOL     OW 7588   1.425   5.578   4.055
 2230SOL    HW1 7589   1.508   5.560   4.108
 2230SOL    HW2 7590   1.421   5.515   3.978
 2231SOL     OW 7591   1.819   1.296   2.053
 2231SOL    HW1 7592   1.885   1.270   1.982
 2231SOL    HW2 7593   1.867   1.307   2.140
 2232SOL     OW 7594   0.500   3.101   3.081
 2232SOL    HW1 7595   0.419   3.153   3.053
 2232SOL    HW2 7596   0.548   3.068   3.000
 2233SOL     OW 7597   3.554   5.255   0.576
 2233SOL    HW1 7598   3.525   5.244   0.671
 2233SOL    HW2 7599   3.530   5.347   0.544
 2234SOL     OW 7600   3.804   1.898   0.752
 2234SOL    HW1 7601   3.838   1.917   0.844
 2234SOL    HW2 7602   3.800   1.799   0.737
 2235SOL     OW 7603   1.164   0.040   6.400
 2235SOL    HW1 7604   1.157   6.989   6.334
 2235SOL    HW2 7605   1.185   0.125   6.351
 2236SOL     OW 7606   0.678   4.360   0.586
 2236SOL    HW1 7607   0.635   4.418   0.518
 2236SOL    HW2 7608   0.732   4.290   0.541
 2237SOL     OW 7609   6.803   3.605   4.625
 2237SOL    HW1 7610   6.789   3.548   4.544
 2237SOL    HW2 7611   6.899   3.601   4.653
 2238SOL     OW 7612   0.098   5.437   2.080
 2238SOL    HW1 7613   0.139   5.523   2.052
 2238SOL    HW2 7614   0.144   5.361   2.034
 2239SOL     OW 7615   4.252   4.789   3.598
 2239SOL    HW1 7616   4.258   4.752   3.505
 2239SOL    HW2 7617   4.203   4.876   3.597
 2240SOL     OW 7618   6.709   5.506   3.238
 2240SOL    HW1 7619   6.769   5.550   3.305
 2240SOL    HW2 7620   6.665   5.427   3.281
 2241SOL     OW 7621   0.208   6.191   2.152
 2241SOL    HW1 7622   0.154   6.270   2.179
 2241SOL    HW2 7623   0.227   6.196   2.054
 2242SOL     OW 7624   4.985   2.061   3.026
 2242SOL    HW1 7625   4.923   2.070   2.948
 2242SOL    HW2 7626   4.960   1.980   3.079
 2243SOL     OW 7627   2.736   6.164   4.489
 2243SOL    HW1 7628   2.818   6.219   4.472
 2243SOL    HW2 7629   2.763   6.077   4.530
 2244SOL     OW 7630   3.746   1.045   4.226
 2244SOL    HW1 7631   3.682   1.044   4.303
 2244SOL    HW2 7632   3.836   1.015   4.258
 2245SOL     OW 7633   6.685   2.188   2.024
 2245SOL    HW1 7634   6.676   2.255   2.098
 2245SOL    HW2 7635   6.776   2.147   2.028
 2246SOL     OW 7636   1.307   3.043   5.267
 2246SOL    HW1 7637   1.396   3.001   5.283
 2246SOL    HW2 7638   1.309   3.138   5.298
 2247SOL     OW 7639   2.083   2.235   5.595
 2247SOL    HW1 7640   2.165   2.244   5.539
 2247SOL    HW2 7641   2.042   2.325   5.609
 2248SOL     OW 7642   5.055   4.287   5.130
 2248SOL    HW1 7643   4.979   4.296   5.065
 2248SOL    HW2 7644   5.090   4.194   5.128
 2249SOL     OW 7645   5.516   5.821   2.621
 2249SOL    HW1 7646   5.545   5.914   2.601
 2249SOL    HW2 7647   5.565   5.757   2.562
 2250SOL     OW 7648   5.505   3.796   1.388
 2250SOL    HW1 7649   5.491   3.810   1.486
 2250SOL    HW2 7650   5.554   3.710   1.374
 2251SOL     OW 7651   6.145   1.741   6.938
 2251SOL    HW1 7652   6.169   1.710   0.005
 2251SOL    HW2 7653   6.048   1.724   6.922
 2252SOL     OW 7654   5.742   2.891   5.255
 2252SOL    HW1 7655   5.667   2.854   5.310
 2252SOL    HW2 7656   5.786   2.965   5.305
 2253SOL     OW 7657   2.443   3.179   6.807
 2253SOL    HW1 7658   2.447   3.188   6.906
 2253SOL    HW2 7659   2.431   3.270   6.766
 2254SOL     OW 7660   2.111   3.357   5.966
 2254SOL    HW1 7661   2.078   3.263   5.974
 2254SOL    HW2 7662   2.141   3.373   5.872
 2255SOL     OW 7663   5.871   2.624   1.912
 2255SOL    HW1 7664   5.907   2.642   2.004
 2255SOL    HW2 7665   5.936   2.659   1.844
 2256SOL     OW 7666   3.195   4.855   2.223
 2256SOL    HW1 7667   3.154   4.839   2.312
 2256SOL    HW2 7668   3.291   4.880   2.235
 2257SOL     OW 7669   1.341   3.402   4.335
 2257SOL    HW1 7670   1.262   3.344   4.357
 2257SOL    HW2 7671   1.409   3.394   4.408
 2258SOL     OW 7672   1.935   4.680   4.907
 2258SOL    HW1 7673   1.950   4.593   4.953
 2258SOL    HW2 7674   2.024   4.717   4.876
 2259SOL     OW 7675   5.736   4.175   6.397
 2259SOL    HW1 7676   5.740   4.187   6.496
 2259SOL    HW2 7677   5.674   4.243   6.358
 2260SOL     OW 7678   3.897   5.084   2.912
 2260SOL    HW1 7679   3.884   5.027   2.993
 2260SOL    HW2 7680   3.863   5.036   2.832
 2261SOL     OW 7681   5.414   6.573   1.032
 2261SOL    HW1 7682   5.416   6.585   0.933
 2261SOL    HW2 7683   5.480   6.502   1.059
 2262SOL     OW 7684   5.460   2.073   4.422
 2262SOL    HW1 7685   5.400   2.151   4.409
 2262SOL    HW2 7686   5.548   2.091   4.378
 2263SOL     OW 7687   1.863   5.597   5.768
 2263SOL    HW1 7688   1.928   5.556   5.831
 2263SOL    HW2 7689   1.780   5.622   5.817
 2264SOL     OW 7690   3.060   3.030   2.545
 2264SOL    HW1 7691   3.149   2.989   2.565
 2264SOL    HW2 7692   3.022   3.069   2.629
 2265SOL     OW 7693   0.017   1.400   2.344
 2265SOL    HW1 7694   6.968   1.456   2.384
 2265SOL    HW2 7695   0.038   1.324   2.405
 2266SOL     OW 7696   6.316   0.691   0.731
 2266SOL    HW1 7697   6.349   0.727   0.818
 2266SOL    HW2 7698   6.222   0.661   0.741
 2267SOL     OW 7699   5.537   2.497   4.616
 2267SOL    HW1 7700   5.477   2.565   4.658
 2267SOL    HW2 7701   5.519   2.492   4.518
 2268SOL     OW 7702   6.756   6.230   0.877
 2268SOL    HW1 7703   6.784   6.325   0.864
 2268SOL    HW2 7704   6.659   6.220   0.855
 2269SOL     OW 7705   6.306   6.049   5.654
 2269SOL    HW1 7706   6.288   5.975   5.590
 2269SOL    HW2 7707   6.359   6.014   5.732
 2270SOL     OW 7708   3.137   3.619   1.962
 2270SOL    HW1 7709   3.137   3.525   1.928
 2270SOL    HW2 7710   3.103   3.620   2.057
 2271SOL     OW 7711   5.857   4.325   1.503
 2271SOL    HW1 7712   5.842   4.383   1.423
 2271SOL    HW2 7713   5.948   4.284   1.498
 2272SOL     OW 7714   5.129   2.264   5.216
 2272SOL    HW1 7715   5.176   2.185   5.176
 2272SOL    HW2 7716   5.160   2.277   5.310
 2273SOL     OW 7717   0.381   0.422   3.152
 2273SOL    HW1 7718   0.368   0.521   3.143
 2273SOL    HW2 7719   0.292   0.376   3.158
 2274SOL     OW 7720   1.762   3.468   4.844
 2274SOL    HW1 7721   1.817   3.395   4.886
 2274SOL    HW2 7722   1.789   3.556   4.883
 2275SOL     OW 7723   5.034   6.046   4.677
 2275SOL    HW1 7724   5.084   6.003   4.752
 2275SOL    HW2 7725   5.052   5.997   4.592
 2276SOL     OW 7726   3.998   4.466   0.801
 2276SOL    HW1 7727   4.043   4.552   0.779
 2276SOL    HW2 7728   4.060   4.390   0.782
 2277SOL     OW 7729   3.246   3.561   5.647
 2277SOL    HW1 7730   3.224   3.654   5.615
 2277SOL    HW2 7731   3.342   3.541   5.629
 2278SOL     OW 7732   5.286   6.247   2.385
 2278SOL    HW1 7733   5.295   6.263   2.483
 2278SOL    HW2 7734   5.316   6.328   2.335
 2279SOL     OW 7735   5.298   3.593   4.423
 2279SOL    HW1 7736   5.367   3.638   4.367
 2279SOL    HW2 7737   5.213   3.584   4.372
 2280SOL     OW 7738   6.643   6.168   5.308
 2280SOL    HW1 7739   6.640   6.218   5.394
 2280SOL    HW2 7740   6.651   6.233   5.232
 2281SOL     OW 7741   3.738   2.025   1.806
 2281SOL    HW1 7742   3.745   2.104   1.867
 2281SOL    HW2 7743   3.648   1.982   1.819
 2282SOL     OW 7744   4.547   5.324   4.648
 2282SOL    HW1 7745   4.599   5.410   4.651
 2282SOL    HW2 7746   4.603   5.250   4.685
 2283SOL     OW 7747   6.625   3.958   3.211
 2283SOL    HW1 7748   6.670   3.935   3.124
 2283SOL    HW2 7749   6.528   3.973   3.195
 2284SOL     OW 7750   2.426   2.519   2.245
 2284SOL    HW1 7751   2.459   2.577   2.171
 2284SOL    HW2 7752   2.470   2.429   2.239
 2285SOL     OW 7753   1.723   3.737   0.475
 2285SOL    HW1 7754   1.697   3.794   0.397
 2285SOL    HW2 7755   1.640   3.703   0.520
 2286SOL     OW 7756   6.957   5.804   4.878
 2286SOL    HW1 7757   6.951   5.826   4.976
 2286SOL    HW2 7758   6.872   5.831   4.833
 2287SOL     OW 7759   2.184   2.769   1.338
 2287SOL    HW1 7760   2.127   2.844   1.371
 2287SOL    HW2 7761   2.157   2.684   1.385
 2288SOL     OW 7762   0.606   6.475   3.755
 2288SOL    HW1 7763   0.670   6.428   3.694
 2288SOL    HW2 7764   0.655   6.543   3.809
 2289SOL     OW 7765   5.379   2.054   2.003
 2289SOL    HW1 7766   5.470   2.094   2.007
 2289SOL    HW2 7767   5.385   1.960   1.967
 2290SOL     OW 7768   2.971   3.489   3.545
 2290SOL    HW1 7769   2.952   3.514   3.450
 2290SOL    HW2 7770   3.059   3.528   3.572
 2291SOL     OW 7771   2.042   1.730   1.056
 2291SOL    HW1 7772   2.139   1.750   1.060
 2291SOL    HW2 7773   2.027   1.633   1.077
 2292SOL     OW 7774   4.893   2.165   4.059
 2292SOL    HW1 7775   4.958   2.092   4.079
 2292SOL    HW2 7776   4.912   2.244   4.117
 2293SOL     OW 7777   5.632   1.295   0.702
 2293SOL    HW1 7778   5.723   1.333   0.715
 2293SOL    HW2 7779   5.618   1.218   0.764
 2294SOL     OW 7780   2.014   2.487   5.517
 2294SOL    HW1 7781   2.034   2.585   5.507
 2294SOL    HW2 7782   1.919   2.475   5.547
 2295SOL     OW 7783   6.724   0.324   1.482
 2295SOL    HW1 7784   6.689   0.393   1.546
 2295SOL    HW2 7785   6.665   0.244   1.484
 2296SOL     OW 7786   2.473   4.910   3.763
 2296SOL    HW1 7787   2.417   4.948   3.837
 2296SOL    HW2 7788   2.433   4.823   3.733
 2297SOL     OW 7789   5.200   4.805   5.531
 2297SOL    HW1 7790   5.116   4.856   5.514
 2297SOL    HW2 7791   5.260   4.812   5.451
 2298SOL     OW 7792   3.898   3.036   4.582
 2298SOL    HW1 7793   3.945   2.957   4.541
 2298SOL    HW2 7794   3.903   3.029   4.682
 2299SOL     OW 7795   5.158   3.494   4.648
 2299SOL    HW1 7796   5.188   3.546   4.568
 2299SOL    HW2 7797   5.063   3.519   4.670
 2300SOL     OW 7798   3.380   6.801   3.216
 2300SOL    HW1 7799   3.359   6.785   3.312
 2300SOL    HW2 7800   3.448   6.735   3.185
 2301SOL     OW 7801   3.177   3.478   4.671
 2301SOL    HW1 7802   3.232   3.555   4.637
 2301SOL    HW2 7803   3.083   3.508   4.684
 2302SOL     OW 7804   3.995   1.594   0.523
 2302SOL    HW1 7805   4.037   1.538   0.595
 2302SOL    HW2 7806   4.067   1.630   0.464
 2303SOL     OW 7807   2.565   2.878   1.152
 2303SOL    HW1 7808   2.613   2.966   1.154
 2303SOL    HW2 7809   2.482   2.885   1.207
 2304SOL     OW 7810   6.565   5.695   3.601
 2304SOL    HW1 7811   6.503   5.738   3.667
 2304SOL    HW2 7812   6.524   5.698   3.510
 2305SOL     OW 7813   1.578   1.185   3.866
 2305SOL    HW1 7814   1.509   1.223   3.927
 2305SOL    HW2 7815   1.655   1.248   3.859
 2306SOL     OW 7816   1.960   4.676   3.431
 2306SOL    HW1 7817   1.977   4.749   3.366
 2306SOL    HW2 7818   1.905   4.604   3.388
 2307SOL     OW 7819   1.192   3.263   5.562
 2307SOL    HW1 7820   1.200   3.165   5.579
 2307SOL    HW2 7821   1.256   3.290   5.491
 2308SOL     OW 7822   2.092   4.947   1.610
 2308SOL    HW1 7823   2.189   4.927   1.594
 2308SOL    HW2 7824   2.083   5.018   1.680
 2309SOL     OW 7825   1.484   0.156   4.016
 2309SOL    HW1 7826   1.421   0.211   4.073
 2309SOL    HW2 7827   1.575   0.198   4.018
 2310SOL     OW 7828   4.635   7.012   1.835
 2310SOL    HW1 7829   4.623   7.007   1.934
 2310SOL    HW2 7830   4.607   6.925   1.794
 2311SOL     OW 7831   2.503   6.175   0.507
 2311SOL    HW1 7832   2.424   6.135   0.461
 2311SOL    HW2 7833   2.476   6.262   0.548
 2312SOL     OW 7834   3.720   5.864   2.640
 2312SOL    HW1 7835   3.752   5.793   2.578
 2312SOL    HW2 7836   3.620   5.866   2.639
 2313SOL     OW 7837   5.252   4.881   2.782
 2313SOL    HW1 7838   5.198   4.872   2.865
 2313SOL    HW2 7839   5.225   4.963   2.732
 2314SOL     OW 7840   3.318   5.506   3.088
 2314SOL    HW1 7841   3.244   5.450   3.051
 2314SOL    HW2 7842   3.315   5.504   3.188
 2315SOL     OW 7843   4.871   3.145   6.210
 2315SOL    HW1 7844   4.778   3.152   6.172
 2315SOL    HW2 7845   4.879   3.203   6.291
 2316SOL     OW 7846   5.271   2.597   3.384
 2316SOL    HW1 7847   5.193   2.594   3.445
 2316SOL    HW2 7848   5.251   2.545   3.301
 2317SOL     OW 7849   1.237   4.696   2.292
 2317SOL    HW1 7850   1.137   4.696   2.298
 2317SOL    HW2 7851   1.273   4.776   2.341
 2318SOL     OW 7852   0.518   1.684   3.135
 2318SOL    HW1 7853   0.596   1.639   3.178
 2318SOL    HW2 7854   0.484   1.627   3.060
 2319SOL     OW 7855   1.951   3.964   4.413
 2319SOL    HW1 7856   1.943   4.049   4.464
 2319SOL    HW2 7857   1.863   3.940   4.373
 2320SOL     OW 7858   6.966   2.611   4.120
 2320SOL    HW1 7859   6.903   2.672   4.073
 2320SOL    HW2 7860   0.030   2.610   4.073
 2321SOL     OW 7861   2.864   6.915   5.131
 2321SOL    HW1 7862   2.809   6.949   5.054
 2321SOL    HW2 7863   2.961   6.929   5.111
 2322SOL     OW 7864   1.316   1.705   5.824
 2322SOL    HW1 7865   1.328   1.749   5.735
 2322SOL    HW2 7866   1.219   1.698   5.845
 2323SOL     OW 7867   4.430   5.620   3.278
 2323SOL    HW1 7868   4.361   5.674   3.326
 2323SOL    HW2 7869   4.460   5.545   3.338
 2324SOL     OW 7870   0.972   6.101   2.782
 2324SOL    HW1 7871   0.882   6.128   2.816
 2324SOL    HW2 7872   1.005   6.021   2.833
 2325SOL     OW 7873   1.018   3.523   1.181
 2325SOL    HW1 7874   0.973   3.437   1.201
 2325SOL    HW2 7875   1.000   3.550   1.086
 2326SOL     OW 7876   1.580   4.982   6.476
 2326SOL    HW1 7877   1.664   4.940   6.443
 2326SOL    HW2 7878   1.600   5.075   6.509
 2327SOL     OW 7879   4.904   2.630   3.989
 2327SOL    HW1 7880   4.872   2.645   4.083
 2327SOL    HW2 7881   4.967   2.702   3.962
 2328SOL     OW 7882   5.055   1.464   2.967
 2328SOL    HW1 7883   5.068   1.392   3.035
 2328SOL    HW2 7884   4.961   1.461   2.933
 2329SOL     OW 7885   1.227   5.637   4.248
 2329SOL    HW1 7886   1.275   5.671   4.329
 2329SOL    HW2 7887   1.290   5.636   4.171
 2330SOL     OW 7888   0.498   4.492   1.948
 2330SOL    HW1 7889   0.550   4.547   1.883
 2330SOL    HW2 7890   0.560   4.452   2.016
 2331SOL     OW 7891   0.341   3.948   5.305
 2331SOL    HW1 7892   0.397   3.986   5.379
 2331SOL    HW2 7893   0.344   3.848   5.309
 2332SOL     OW 7894   5.169   2.903   6.269
 2332SOL    HW1 7895   5.084   2.882   6.221
 2332SOL    HW2 7896   5.212   2.983   6.227
 2333SOL     OW 7897   1.166   5.046   3.388
 2333SOL    HW1 7898   1.071   5.037   3.420
 2333SOL    HW2 7899   1.169   5.035   3.289
 2334SOL     OW 7900   3.362   6.645   0.000
 2334SOL    HW1 7901   3.457   6.675   7.014
 2334SOL    HW2 7902   3.306   6.686   6.953
 2335SOL     OW 7903   5.240   6.948   3.546
 2335SOL    HW1 7904   5.237   0.024   3.545
 2335SOL    HW2 7905   5.263   6.916   3.637
 2336SOL     OW 7906   4.913   1.027   6.065
 2336SOL    HW1 7907   4.835   1.021   6.128
 2336SOL    HW2 7908   4.927   1.123   6.039
 2337SOL     OW 7909   5.584   0.473   3.266
 2337SOL    HW1 7910   5.565   0.380   3.298
 2337SOL    HW2 7911   5.680   0.495   3.283
 2338SOL     OW 7912   6.977   6.504   6.987
 2338SOL    HW1 7913   0.031   6.522   0.022
 2338SOL    HW2 7914   6.910   6.449   0.012
 2339SOL     OW 7915   3.625   4.669   6.594
 2339SOL    HW1 7916   3.648   4.572   6.581
 2339SOL    HW2 7917   3.539   4.689   6.548
 2340SOL     OW 7918   3.330   5.927   5.007
 2340SOL    HW1 7919   3.345   6.024   5.024
 2340SOL    HW2 7920   3.294   5.884   5.090
 2341SOL     OW 7921   5.823   5.077   0.687
 2341SOL    HW1 7922   5.775   5.115   0.765
 2341SOL    HW2 7923   5.767   5.006   0.644
 2342SOL     OW 7924   0.012   0.492   5.316
 2342SOL    HW1 7925   0.007   0.453   5.225
 2342SOL    HW2 7926   6.943   0.506   5.351
 2343SOL     OW 7927   1.139   6.040   0.935
 2343SOL    HW1 7928   1.049   6.021   0.896
 2343SOL    HW2 7929   1.197   6.083   0.866
 2344SOL     OW 7930   2.442   1.608   2.687
 2344SOL    HW1 7931   2.443   1.536   2.617
 2344SOL    HW2 7932   2.525   1.663   2.679
 2345SOL     OW 7933   1.252   0.683   4.750
 2345SOL    HW1 7934   1.251   0.617   4.825
 2345SOL    HW2 7935   1.241   0.776   4.787
 2346SOL     OW 7936   4.883   3.535   5.721
 2346SOL    HW1 7937   4.815   3.546   5.648
 2346SOL    HW2 7938   4.962   3.486   5.686
 2347SOL     OW 7939   1.489   3.379   1.958
 2347SOL    HW1 7940   1.394   3.390   1.986
 2347SOL    HW2 7941   1.533   3.469   1.954
 2348SOL     OW 7942   2.817   6.662   3.691
 2348SOL    HW1 7943   2.867   6.696   3.612
 2348SOL    HW2 7944   2.760   6.584   3.664
 2349SOL     OW 7945   0.006   6.914   5.962
 2349SOL    HW1 7946   7.014   6.816   5.957
 2349SOL    HW2 7947   6.944   6.962   5.974
 2350SOL     OW 7948   2.924   0.424   5.151
 2350SOL    HW1 7949   2.937   0.499   5.216
 2350SOL    HW2 7950   2.952   0.338   5.193
 2351SOL     OW 7951   2.677   4.865   3.574
 2351SOL    HW1 7952   2.697   4.963   3.565
 2351SOL    HW2 7953   2.626   4.849   3.659
 2352SOL     OW 7954   6.991   4.346   2.906
 2352SOL    HW1 7955   6.986   4.262   2.851
 2352SOL    HW2 7956   6.941   4.332   2.992
 2353SOL     OW 7957   2.694   3.956   5.799
 2353SOL    HW1 7958   2.790   3.945   5.823
 2353SOL    HW2 7959   2.680   3.930   5.703
 2354SOL     OW 7960   3.820   2.525   0.828
 2354SOL    HW1 7961   3.737   2.500   0.878
 2354SOL    HW2 7962   3.832   2.624   0.832
 2355SOL     OW 7963   0.593   6.610   0.857
 2355SOL    HW1 7964   0.685   6.648   0.864
 2355SOL    HW2 7965   0.537   6.669   0.798
 2356SOL     OW 7966   2.361   5.087   2.792
 2356SOL    HW1 7967   2.299   5.056   2.720
 2356SOL    HW2 7968   2.319   5.162   2.843
 2357SOL     OW 7969   5.217   4.252   2.471
 2357SOL    HW1 7970   5.175   4.172   2.515
 2357SOL    HW2 7971   5.232   4.323   2.539
 2358SOL     OW 7972   3.592   0.311   5.201
 2358SOL    HW1 7973   3.638   0.372   5.137
 2358SOL    HW2 7974   3.500   0.345   5.219
 2359SOL     OW 7975   2.829   1.657   5.711
 2359SOL    HW1 7976   2.768   1.729   5.679
 2359SOL    HW2 7977   2.776   1.586   5.757
 2360SOL     OW 7978   3.680   4.934   0.790
 2360SOL    HW1 7979   3.725   4.909   0.705
 2360SOL    HW2 7980   3.726   4.889   0.867
 2361SOL     OW 7981   3.312   6.552   2.810
 2361SOL    HW1 7982   3.380   6.625   2.824
 2361SOL    HW2 7983   3.227   6.578   2.855
 2362SOL     OW 7984   4.533   5.991   4.576
 2362SOL    HW1 7985   4.488   6.071   4.536
 2362SOL    HW2 7986   4.620   6.019   4.617
 2363SOL     OW 7987   3.570   3.143   6.771
 2363SOL    HW1 7988   3.608   3.062   6.726
 2363SOL    HW2 7989   3.501   3.115   6.837
 2364SOL     OW 7990   4.984   1.572   2.109
 2364SOL    HW1 7991   4.922   1.620   2.047
 2364SOL    HW2 7992   4.931   1.519   2.175
 2365SOL     OW 7993   4.943   3.247   4.692
 2365SOL    HW1 7994   4.983   3.267   4.782
 2365SOL    HW2 7995   4.851   3.287   4.687
 2366SOL     OW 7996   1.872   4.033   5.787
 2366SOL    HW1 7997   1.786   4.056   5.833
 2366SOL    HW2 7998   1.866   4.060   5.690
 2367SOL     OW 7999   0.805   3.698   6.233
 2367SOL    HW1 8000   0.856   3.772   6.276
 2367SOL    HW2 8001   0.724   3.734   6.188
 2368SOL     OW 8002   5.278   0.463   4.328
 2368SOL    HW1 8003   5.200   0.415   4.288
 2368SOL    HW2 8004   5.251   0.507   4.413
 2369SOL     OW 8005   3.412   1.420   3.619
 2369SOL    HW1 8006   3.503   1.459   3.636
 2369SOL    HW2 8007   3.350   1.449   3.692
 2370SOL     OW 8008   4.687   2.649   0.935
 2370SOL    HW1 8009   4.769   2.668   0.989
 2370SOL    HW2 8010   4.606   2.673   0.988
 2371SOL     OW 8011   0.710   6.484   2.620
 2371SOL    HW1 8012   0.766   6.565   2.604
 2371SOL    HW2 8013   0.718   6.456   2.716
 2372SOL     OW 8014   6.514   1.478   5.948
 2372SOL    HW1 8015   6.545   1.500   6.040
 2372SOL    HW2 8016   6.415   1.463   5.949
 2373SOL     OW 8017   6.270   0.592   6.263
 2373SOL    HW1 8018   6.223   0.561   6.346
 2373SOL    HW2 8019   6.351   0.537   6.247
 2374SOL     OW 8020   6.040   5.863   3.309
 2374SOL    HW1 8021   5.947   5.833   3.287
 2374SOL    HW2 8022   6.106   5.810   3.257
 2375SOL     OW 8023   0.559   0.645   3.855
 2375SOL    HW1 8024   0.509   0.619   3.938
 2375SOL    HW2 8025   0.613   0.567   3.823
 2376SOL     OW 8026   6.891   2.126   2.920
 2376SOL    HW1 8027   6.975   2.134   2.975
 2376SOL    HW2 8028   6.860   2.031   2.921
 2377SOL     OW 8029   3.477   4.692   6.357
 2377SOL    HW1 8030   3.535   4.773   6.346
 2377SOL    HW2 8031   3.514   4.617   6.302
 2378SOL     OW 8032   6.213   2.360   0.584
 2378SOL    HW1 8033   6.243   2.287   0.645
 2378SOL    HW2 8034   6.186   2.320   0.496
 2379SOL     OW 8035   0.248   5.131   0.630
 2379SOL    HW1 8036   0.271   5.078   0.712
 2379SOL    HW2 8037   0.314   5.205   0.619
 2380SOL     OW 8038   6.031   3.367   5.180
 2380SOL    HW1 8039   6.023   3.403   5.087
 2380SOL    HW2 8040   6.100   3.419   5.230
 2381SOL     OW 8041   2.200   4.650   5.248
 2381SOL    HW1 8042   2.115   4.621   5.292
 2381SOL    HW2 8043   2.277   4.598   5.287
 2382SOL     OW 8044   2.012   5.790   2.695
 2382SOL    HW1 8045   1.912   5.798   2.690
 2382SOL    HW2 8046   2.039   5.762   2.787
 2383SOL     OW 8047   5.063   5.979   5.493
 2383SOL    HW1 8048   5.032   5.899   5.543
 2383SOL    HW2 8049   5.002   5.995   5.415
 2384SOL     OW 8050   0.566   2.569   1.605
 2384SOL    HW1 8051   0.540   2.492   1.547
 2384SOL    HW2 8052   0.568   2.539   1.701
 2385SOL     OW 8053   0.423   2.036   0.390
 2385SOL    HW1 8054   0.419   2.111   0.324
 2385SOL    HW2 8055   0.476   1.960   0.352
 2386SOL     OW 8056   2.888   5.201   4.210
 2386SOL    HW1 8057   2.833   5.189   4.293
 2386SOL    HW2 8058   2.984   5.183   4.230
 2387SOL     OW 8059   0.586   2.753   3.746
 2387SOL    HW1 8060   0.518   2.698   3.795
 2387SOL    HW2 8061   0.620   2.702   3.668
 2388SOL     OW 8062   0.166   2.139   6.328
 2388SOL    HW1 8063   0.207   2.222   6.291
 2388SOL    HW2 8064   0.179   2.064   6.262
 2389SOL     OW 8065   5.630   5.045   4.374
 2389SOL    HW1 8066   5.711   5.078   4.328
 2389SOL    HW2 8067   5.638   5.060   4.473
 2390SOL     OW 8068   4.362   3.793   6.521
 2390SOL    HW1 8069   4.272   3.751   6.515
 2390SOL    HW2 8070   4.430   3.724   6.545
 2391SOL     OW 8071   3.553   3.638   6.563
 2391SOL    HW1 8072   3.467   3.687   6.550
 2391SOL    HW2 8073   3.548   3.583   6.647
 2392SOL     OW 8074   3.312   5.102   5.829
 2392SOL    HW1 8075   3.331   5.192   5.868
 2392SOL    HW2 8076   3.214   5.086   5.830
 2393SOL     OW 8077   4.082   5.420   1.936
 2393SOL    HW1 8078   4.144   5.342   1.929
 2393SOL    HW2 8079   4.073   5.464   1.847
 2394SOL     OW 8080   0.179   3.737   3.448
 2394SOL    HW1 8081   0.264   3.739   3.502
 2394SOL    HW2 8082   0.122   3.815   3.474
 2395SOL     OW 8083   0.655   3.347   6.779
 2395SOL    HW1 8084   0.641   3.445   6.792
 2395SOL    HW2 8085   0.699   3.330   6.691
 2396SOL     OW 8086   5.630   0.577   5.434
 2396SOL    HW1 8087   5.690   0.593   5.356
 2396SOL    HW2 8088   5.579   0.660   5.454
 2397SOL     OW 8089   0.605   5.068   5.849
 2397SOL    HW1 8090   0.671   5.025   5.787
 2397SOL    HW2 8091   0.636   5.160   5.871
 2398SOL     OW 8092   2.455   5.724   3.424
 2398SOL    HW1 8093   2.465   5.630   3.391
 2398SOL    HW2 8094   2.403   5.777   3.358
 2399SOL     OW 8095   2.551   2.145   3.506
 2399SOL    HW1 8096   2.453   2.133   3.520
 2399SOL    HW2 8097   2.576   2.240   3.525
 2400SOL     OW 8098   2.168   3.742   0.298
 2400SOL    HW1 8099   2.105   3.671   0.329
 2400SOL    HW2 8100   2.129   3.789   0.219
 2401SOL     OW 8101   3.400   0.178   4.168
 2401SOL    HW1 8102   3.396   0.212   4.074
 2401SOL    HW2 8103   3.483   0.210   4.212
 2402SOL     OW 8104   1.178   2.131   3.240
 2402SOL    HW1 8105   1.119   2.198   3.284
 2402SOL    HW2 8106   1.223   2.172   3.161
 2403SOL     OW 8107   3.659   3.234   0.938
 2403SOL    HW1 8108   3.648   3.211   1.034
 2403SOL    HW2 8109   3.570   3.237   0.894
 2404SOL     OW 8110   6.378   1.463   1.269
 2404SOL    HW1 8111   6.404   1.560   1.275
 2404SOL    HW2 8112   6.431   1.419   1.197
 2405SOL     OW 8113   2.691   4.818   6.575
 2405SOL    HW1 8114   2.748   4.819   6.657
 2405SOL    HW2 8115   2.674   4.723   6.547
 2406SOL     OW 8116   1.489   0.475   3.519
 2406SOL    HW1 8117   1.483   0.571   3.545
 2406SOL    HW2 8118   1.466   0.417   3.597
 2407SOL     OW 8119   4.407   2.116   3.162
 2407SOL    HW1 8120   4.349   2.191   3.194
 2407SOL    HW2 8121   4.396   2.038   3.224
 2408SOL     OW 8122   2.314   5.798   3.195
 2408SOL    HW1 8123   2.260   5.756   3.122
 2408SOL    HW2 8124   2.392   5.847   3.155
 2409SOL     OW 8125   2.455   2.785   0.886
 2409SOL    HW1 8126   2.378   2.823   0.835
 2409SOL    HW2 8127   2.475   2.843   0.965
 2410SOL     OW 8128   6.231   3.479   5.956
 2410SOL    HW1 8129   6.184   3.554   6.002
 2410SOL    HW2 8130   6.330   3.495   5.957
 2411SOL     OW 8131   2.873   4.390   6.575
 2411SOL    HW1 8132   2.948   4.348   6.523
 2411SOL    HW2 8133   2.869   4.347   6.665
 2412SOL     OW 8134   2.860   3.011   6.913
 2412SOL    HW1 8135   2.806   2.953   6.851
 2412SOL    HW2 8136   2.923   3.068   6.859
 2413SOL     OW 8137   6.542   3.257   6.150
 2413SOL    HW1 8138   6.615   3.234   6.215
 2413SOL    HW2 8139   6.517   3.353   6.160
 2414SOL     OW 8140   5.678   2.544   3.955
 2414SOL    HW1 8141   5.639   2.478   3.891
 2414SOL    HW2 8142   5.606   2.602   3.992
 2415SOL     OW 8143   2.506   6.702   0.543
 2415SOL    HW1 8144   2.428   6.708   0.606
 2415SOL    HW2 8145   2.539   6.608   0.540
 2416SOL     OW 8146   0.599   3.111   2.833
 2416SOL    HW1 8147   0.612   3.104   2.734
 2416SOL    HW2 8148   0.633   3.199   2.865
 2417SOL     OW 8149   4.603   2.497   7.007
 2417SOL    HW1 8150   4.701   2.495   6.988
 2417SOL    HW2 8151   4.579   2.587   0.020
 2418SOL     OW 8152   4.117   4.140   5.240
 2418SOL    HW1 8153   4.077   4.196   5.312
 2418SOL    HW2 8154   4.044   4.100   5.184
 2419SOL     OW 8155   2.278   6.743   4.263
 2419SOL    HW1 8156   2.225   6.712   4.342
 2419SOL    HW2 8157   2.348   6.808   4.295
 2420SOL     OW 8158   3.480   5.986   1.934
 2420SOL    HW1 8159   3.389   6.005   1.970
 2420SOL    HW2 8160   3.473   5.968   1.836
 2421SOL     OW 8161   4.085   6.748   3.796
 2421SOL    HW1 8162   4.010   6.768   3.860
 2421SOL    HW2 8163   4.049   6.739   3.704
 2422SOL     OW 8164   3.922   6.853   1.415
 2422SOL    HW1 8165   4.016   6.831   1.392
 2422SOL    HW2 8166   3.896   6.807   1.500
 2423SOL     OW 8167   2.067   5.792   1.764
 2423SOL    HW1 8168   1.994   5.764   1.826
 2423SOL    HW2 8169   2.136   5.719   1.759
 2424SOL     OW 8170   5.476   6.414   6.784
 2424SOL    HW1 8171   5.434   6.404   6.693
 2424SOL    HW2 8172   5.412   6.458   6.846
 2425SOL     OW 8173   4.890   5.599   5.884
 2425SOL    HW1 8174   4.862   5.517   5.933
 2425SOL    HW2 8175   4.860   5.680   5.936
 2426SOL     OW 8176   1.562   5.992   4.616
 2426SOL    HW1 8177   1.475   6.033   4.643
 2426SOL    HW2 8178   1.564   5.897   4.648
 2427SOL     OW 8179   4.582   6.380   6.543
 2427SOL    HW1 8180   4.625   6.379   6.633
 2427SOL    HW2 8181   4.509   6.312   6.541
 2428SOL     OW 8182   0.174   1.396   3.285
 2428SOL    HW1 8183   0.266   1.401   3.324
 2428SOL    HW2 8184   0.163   1.467   3.216
 2429SOL     OW 8185   5.069   5.101   2.197
 2429SOL    HW1 8186   5.116   5.013   2.205
 2429SOL    HW2 8187   5.137   5.175   2.199
 2430SOL     OW 8188   5.949   2.158   0.599
 2430SOL    HW1 8189   5.996   2.086   0.549
 2430SOL    HW2 8190   5.987   2.247   0.574
 2431SOL     OW 8191   5.775   1.743   1.868
 2431SOL    HW1 8192   5.771   1.804   1.947
 2431SOL    HW2 8193   5.861   1.692   1.871
 2432SOL     OW 8194   3.214   5.331   1.742
 2432SOL    HW1 8195   3.213   5.236   1.774
 2432SOL    HW2 8196   3.165   5.336   1.655
 2433SOL     OW 8197   0.307   6.014   0.247
 2433SOL    HW1 8198   0.286   6.094   0.190
 2433SOL    HW2 8199   0.277   6.032   0.341
 2434SOL     OW 8200   4.194   2.161   2.137
 2434SOL    HW1 8201   4.192   2.081   2.197
 2434SOL    HW2 8202   4.106   2.170   2.090
 2435SOL     OW 8203   5.467   5.766   0.247
 2435SOL    HW1 8204   5.480   5.849   0.192
 2435SOL    HW2 8205   5.374   5.732   0.233
 2436SOL     OW 8206   1.671   1.164   1.423
 2436SOL    HW1 8207   1.703   1.102   1.495
 2436SOL    HW2 8208   1.572   1.163   1.421
 2437SOL     OW 8209   5.696   5.552   2.112
 2437SOL    HW1 8210   5.687   5.527   2.209
 2437SOL    HW2 8211   5.674   5.472   2.055
 2438SOL     OW 8212   3.843   2.102   4.802
 2438SOL    HW1 8213   3.831   2.003   4.803
 2438SOL    HW2 8214   3.773   2.145   4.859
 2439SOL     OW 8215   0.194   5.550   6.689
 2439SOL    HW1 8216   0.178   5.451   6.693
 2439SOL    HW2 8217   0.279   5.572   6.737
 2440SOL     OW 8218   4.164   0.485   4.765
 2440SOL    HW1 8219   4.166   0.576   4.723
 2440SOL    HW2 8220   4.228   0.481   4.841
 2441SOL     OW 8221   5.351   0.779   6.893
 2441SOL    HW1 8222   5.447   0.809   6.885
 2441SOL    HW2 8223   5.318   0.800   6.985
 2442SOL     OW 8224   5.749   3.593   2.821
 2442SOL    HW1 8225   5.846   3.615   2.831
 2442SOL    HW2 8226   5.696   3.678   2.816
 2443SOL     OW 8227   2.115   0.880   6.506
 2443SOL    HW1 8228   2.087   0.785   6.514
 2443SOL    HW2 8229   2.072   0.921   6.426
 2444SOL     OW 8230   4.002   4.851   0.148
 2444SOL    HW1 8231   4.070   4.924   0.153
 2444SOL    HW2 8232   3.919   4.879   0.196
 2445SOL     OW 8233   6.044   1.630   1.871
 2445SOL    HW1 8234   6.047   1.729   1.881
 2445SOL    HW2 8235   6.136   1.592   1.884
 2446SOL     OW 8236   0.828   2.465   2.636
 2446SOL    HW1 8237   0.868   2.385   2.680
 2446SOL    HW2 8238   0.896   2.539   2.634
 2447SOL     OW 8239   2.230   0.633   0.588
 2447SOL    HW1 8240   2.285   0.711   0.616
 2447SOL    HW2 8241   2.248   0.612   0.492
 2448SOL     OW 8242   6.105   1.956   4.336
 2448SOL    HW1 8243   6.010   1.924   4.342
 2448SOL    HW2 8244   6.143   1.964   4.428
 2449SOL     OW 8245   1.219   3.582   2.043
 2449SOL    HW1 8246   1.275   3.538   2.113
 2449SOL    HW2 8247   1.148   3.519   2.012
 2450SOL     OW 8248   3.093   5.204   7.010
 2450SOL    HW1 8249   3.137   5.236   6.926
 2450SOL    HW2 8250   3.143   5.239   0.065
 2451SOL     OW 8251   0.823   0.199   3.931
 2451SOL    HW1 8252   0.909   0.225   3.974
 2451SOL    HW2 8253   0.841   0.150   3.846
 2452SOL     OW 8254   2.313   2.259   3.364
 2452SOL    HW1 8255   2.220   2.294   3.367
 2452SOL    HW2 8256   2.323   2.196   3.287
 2453SOL     OW 8257   6.807   2.826   0.824
 2453SOL    HW1 8258   6.842   2.905   0.775
 2453SOL    HW2 8259   6.707   2.827   0.823
 2454SOL     OW 8260   2.577   5.639   6.720
 2454SOL    HW1 8261   2.633   5.556   6.720
 2454SOL    HW2 8262   2.547   5.659   6.627
 2455SOL     OW 8263   3.676   1.236   0.687
 2455SOL    HW1 8264   3.722   1.289   0.758
 2455SOL    HW2 8265   3.682   1.285   0.600
 2456SOL     OW 8266   0.686   3.713   6.528
 2456SOL    HW1 8267   0.604   3.758   6.493
 2456SOL    HW2 8268   0.667   3.675   6.618
 2457SOL     OW 8269   6.053   0.986   5.497
 2457SOL    HW1 8270   6.078   0.975   5.401
 2457SOL    HW2 8271   6.004   1.072   5.510
 2458SOL     OW 8272   0.827   0.331   3.556
 2458SOL    HW1 8273   0.891   0.353   3.482
 2458SOL    HW2 8274   0.772   0.252   3.530
 2459SOL     OW 8275   3.047   5.903   5.726
 2459SOL    HW1 8276   3.031   5.816   5.773
 2459SOL    HW2 8277   2.967   5.961   5.736
 2460SOL     OW 8278   1.259   0.819   0.583
 2460SOL    HW1 8279   1.188   0.749   0.573
 2460SOL    HW2 8280   1.226   0.892   0.642
 2461SOL     OW 8281   5.042   6.729   4.060
 2461SOL    HW1 8282   4.964   6.755   4.117
 2461SOL    HW2 8283   5.108   6.805   4.057
 2462SOL     OW 8284   2.056   5.110   0.535
 2462SOL    HW1 8285   2.079   5.205   0.510
 2462SOL    HW2 8286   1.967   5.108   0.579
 2463SOL     OW 8287   6.850   2.249   0.377
 2463SOL    HW1 8288   6.819   2.289   0.291
 2463SOL    HW2 8289   6.812   2.302   0.453
 2464SOL     OW 8290   1.219   2.828   3.195
 2464SOL    HW1 8291   1.265   2.865   3.114
 2464SOL    HW2 8292   1.188   2.903   3.253
 2465SOL     OW 8293   6.796   6.396   6.393
 2465SOL    HW1 8294   6.871   6.335   6.368
 2465SOL    HW2 8295   6.763   6.372   6.484
 2466SOL     OW 8296   1.688   1.845   2.467
 2466SOL    HW1 8297   1.729   1.936   2.475
 2466SOL    HW2 8298   1.664   1.811   2.558
 2467SOL     OW 8299   4.702   1.819   5.764
 2467SOL    HW1 8300   4.667   1.910   5.789
 2467SOL    HW2 8301   4.800   1.825   5.744
 2468SOL     OW 8302   4.166   6.903   0.258
 2468SOL    HW1 8303   4.174   6.947   0.347
 2468SOL    HW2 8304   4.206   6.962   0.187
 2469SOL     OW 8305   3.952   3.390   5.421
 2469SOL    HW1 8306   3.861   3.412   5.457
 2469SOL    HW2 8307   4.004   3.341   5.491
 2470SOL     OW 8308   3.826   5.305   6.120
 2470SOL    HW1 8309   3.904   5.338   6.066
 2470SOL    HW2 8310   3.759   5.378   6.131
 2471SOL     OW 8311   3.273   6.976   7.010
 2471SOL    HW1 8312   3.307   6.957   0.078
 2471SOL    HW2 8313   3.206   6.906   6.985
 2472SOL     OW 8314   4.119   2.263   3.559
 2472SOL    HW1 8315   4.075   2.214   3.484
 2472SOL    HW2 8316   4.181   2.202   3.607
 2473SOL     OW 8317   1.173   4.154   5.619
 2473SOL    HW1 8318   1.242   4.223   5.643
 2473SOL    HW2 8319   1.194   4.115   5.530
 2474SOL     OW 8320   0.953   5.466   1.320
 2474SOL    HW1 8321   0.884   5.456   1.249
 2474SOL    HW2 8322   1.000   5.554   1.308
 2475SOL     OW 8323   4.459   0.634   1.891
 2475SOL    HW1 8324   4.421   0.707   1.834
 2475SOL    HW2 8325   4.454   0.660   1.987
 2476SOL     OW 8326   5.804   0.082   2.509
 2476SOL    HW1 8327   5.832   0.111   2.600
 2476SOL    HW2 8328   5.885   0.072   2.451
 2477SOL     OW 8329   3.928   0.799   3.551
 2477SOL    HW1 8330   3.927   0.832   3.645
 2477SOL    HW2 8331   3.994   0.852   3.497
 2478SOL     OW 8332   5.962   1.167   1.879
 2478SOL    HW1 8333   5.885   1.226   1.902
 2478SOL    HW2 8334   5.931   1.093   1.820
 2479SOL     OW 8335   1.217   3.162   2.151
 2479SOL    HW1 8336   1.266   3.243   2.182
 2479SOL    HW2 8337   1.279   3.083   2.151
 2480SOL     OW 8338   4.105   3.264   0.927
 2480SOL    HW1 8339   4.164   3.345   0.932
 2480SOL    HW2 8340   4.143   3.193   0.985
 2481SOL     OW 8341   3.344   6.691   1.217
 2481SOL    HW1 8342   3.343   6.698   1.117
 2481SOL    HW2 8343   3.409   6.619   1.245
 2482SOL     OW 8344   5.555   3.239   6.395
 2482SOL    HW1 8345   5.463   3.205   6.375
 2482SOL    HW2 8346   5.551   3.298   6.476
 2483SOL     OW 8347   2.167   1.940   6.912
 2483SOL    HW1 8348   2.190   1.921   7.008
 2483SOL    HW2 8349   2.239   1.995   6.870
 2484SOL     OW 8350   3.284   0.853   0.155
 2484SOL    HW1 8351   3.342   0.855   0.237
 2484SOL    HW2 8352   3.329   0.797   0.085
 2485SOL     OW 8353   5.306   2.940   0.993
 2485SOL    HW1 8354   5.310   3.037   0.970
 2485SOL    HW2 8355   5.396   2.909   1.022
 2486SOL     OW 8356   1.674   4.770   5.281
 2486SOL    HW1 8357   1.721   4.775   5.193
 2486SOL    HW2 8358   1.736   4.798   5.354
 2487SOL     OW 8359   4.656   6.409   0.533
 2487SOL    HW1 8360   4.567   6.385   0.494
 2487SOL    HW2 8361   4.643   6.459   0.618
 2488SOL     OW 8362   0.823   3.948   2.062
 2488SOL    HW1 8363   0.827   3.850   2.041
 2488SOL    HW2 8364   0.882   3.998   1.999
 2489SOL     OW 8365   0.616   5.847   3.921
 2489SOL    HW1 8366   0.705   5.852   3.966
 2489SOL    HW2 8367   0.623   5.792   3.838
 2490SOL     OW 8368   0.201   5.300   0.918
 2490SOL    HW1 8369   0.235   5.367   0.853
 2490SOL    HW2 8370   0.132   5.242   0.874
 2491SOL     OW 8371   2.999   4.067   0.394
 2491SOL    HW1 8372   2.908   4.028   0.408
 2491SOL    HW2 8373   2.999   4.123   0.311
 2492SOL     OW 8374   4.573   3.952   0.914
 2492SOL    HW1 8375   4.535   3.873   0.865
 2492SOL    HW2 8376   4.582   3.930   1.011
 2493SOL     OW 8377   6.796   6.938   1.922
 2493SOL    HW1 8378   6.759   6.975   2.008
 2493SOL    HW2 8379   6.877   6.989   1.895
 2494SOL     OW 8380   5.512   4.195   2.653
 2494SOL    HW1 8381   5.452   4.139   2.710
 2494SOL    HW2 8382   5.511   4.289   2.686
 2495SOL     OW 8383   5.302   5.982   3.520
 2495SOL    HW1 8384   5.284   5.898   3.469
 2495SOL    HW2 8385   5.266   5.972   3.613
 2496SOL     OW 8386   0.744   2.719   6.463
 2496SOL    HW1 8387   0.802   2.778   6.519
 2496SOL    HW2 8388   0.797   2.641   6.430
 2497SOL     OW 8389   0.245   0.264   0.644
 2497SOL    HW1 8390   0.270   0.270   0.548
 2497SOL    HW2 8391   0.323   0.228   0.696
 2498SOL     OW 8392   2.656   1.837   5.389
 2498SOL    HW1 8393   2.572   1.887   5.368
 2498SOL    HW2 8394   2.674   1.770   5.318
 2499SOL     OW 8395   5.986   3.049   2.087
 2499SOL    HW1 8396   5.919   3.083   2.021
 2499SOL    HW2 8397   5.961   3.079   2.179
 2500SOL     OW 8398   3.688   4.174   6.745
 2500SOL    HW1 8399   3.761   4.137   6.803
 2500SOL    HW2 8400   3.603   4.176   6.798
 2501SOL     OW 8401   5.127   5.588   0.969
 2501SOL    HW1 8402   5.087   5.587   1.061
 2501SOL    HW2 8403   5.221   5.621   0.975
 2502SOL     OW 8404   1.358   0.328   4.182
 2502SOL    HW1 8405   1.384   0.353   4.275
 2502SOL    HW2 8406   1.259   0.326   4.174
 2503SOL     OW 8407   2.313   6.264   4.288
 2503SOL    HW1 8408   2.283   6.222   4.203
 2503SOL    HW2 8409   2.383   6.333   4.269
 2504SOL     OW 8410   3.968   5.156   3.381
 2504SOL    HW1 8411   3.908   5.152   3.460
 2504SOL    HW2 8412   3.913   5.159   3.297
 2505SOL     OW 8413   6.909   6.876   2.806
 2505SOL    HW1 8414   6.942   6.785   2.783
 2505SOL    HW2 8415   6.948   6.905   2.894
 2506SOL     OW 8416   6.621   3.967   6.189
 2506SOL    HW1 8417   6.660   3.877   6.210
 2506SOL    HW2 8418   6.694   4.027   6.155
 2507SOL     OW 8419   6.562   3.453   0.211
 2507SOL    HW1 8420   6.470   3.433   0.243
 2507SOL    HW2 8421   6.557   3.515   0.132
 2508SOL     OW 8422   3.163   1.533   3.266
 2508SOL    HW1 8423   3.070   1.498   3.253
 2508SOL    HW2 8424   3.216   1.518   3.182
 2509SOL     OW 8425   0.303   4.121   0.666
 2509SOL    HW1 8426   0.360   4.043   0.639
 2509SOL    HW2 8427   0.283   4.177   0.585
 2510SOL     OW 8428   2.808   5.201   1.276
 2510SOL    HW1 8429   2.773   5.113   1.307
 2510SOL    HW2 8430   2.746   5.239   1.207
 2511SOL     OW 8431   3.476   2.127   4.054
 2511SOL    HW1 8432   3.573   2.103   4.065
 2511SOL    HW2 8433   3.447   2.185   4.130
 2512SOL     OW 8434   4.629   3.899   5.629
 2512SOL    HW1 8435   4.684   3.880   5.711
 2512SOL    HW2 8436   4.652   3.834   5.557
 2513SOL     OW 8437   1.995   4.438   4.998
 2513SOL    HW1 8438   1.990   4.381   5.080
 2513SOL    HW2 8439   2.078   4.416   4.947
 2514SOL     OW 8440   0.692   3.819   4.936
 2514SOL    HW1 8441   0.628   3.744   4.951
 2514SOL    HW2 8442   0.642   3.905   4.928
 2515SOL     OW 8443   1.139   6.395   0.572
 2515SOL    HW1 8444   1.195   6.312   0.576
 2515SOL    HW2 8445   1.091   6.398   0.484
 2516SOL     OW 8446   5.309   1.725   2.712
 2516SOL    HW1 8447   5.370   1.753   2.638
 2516SOL    HW2 8448   5.302   1.625   2.714
 2517SOL     OW 8449   0.524   6.764   5.981
 2517SOL    HW1 8450   0.504   6.669   6.007
 2517SOL    HW2 8451   0.606   6.767   5.924
 2518SOL     OW 8452   1.540   4.971   0.457
 2518SOL    HW1 8453   1.464   5.011   0.507
 2518SOL    HW2 8454   1.538   5.001   0.362
 2519SOL     OW 8455   3.758   6.409   1.982
 2519SOL    HW1 8456   3.845   6.381   1.942
 2519SOL    HW2 8457   3.687   6.343   1.960
 2520SOL     OW 8458   3.243   1.702   0.884
 2520SOL    HW1 8459   3.299   1.741   0.810
 2520SOL    HW2 8460   3.276   1.611   0.907
 2521SOL     OW 8461   2.951   0.643   5.318
 2521SOL    HW1 8462   3.049   0.662   5.319
 2521SOL    HW2 8463   2.908   0.684   5.399
 2522SOL     OW 8464   0.760   2.322   5.346
 2522SOL    HW1 8465   0.859   2.328   5.331
 2522SOL    HW2 8466   0.730   2.397   5.404
 2523SOL     OW 8467   0.612   2.890   1.279
 2523SOL    HW1 8468   0.540   2.851   1.223
 2523SOL    HW2 8469   0.700   2.883   1.231
 2524SOL     OW 8470   0.861   6.784   4.953
 2524SOL    HW1 8471   0.890   6.688   4.951
 2524SOL    HW2 8472   0.853   6.814   5.048
 2525SOL     OW 8473   1.045   2.384   5.374
 2525SOL    HW1 8474   1.086   2.348   5.458
 2525SOL    HW2 8475   1.112   2.381   5.300
 2526SOL     OW 8476   1.320   4.948   6.238
 2526SOL    HW1 8477   1.419   4.953   6.229
 2526SOL    HW2 8478   1.280   5.038   6.219
 2527SOL     OW 8479   4.935   6.165   5.710
 2527SOL    HW1 8480   4.991   6.115   5.643
 2527SOL    HW2 8481   4.960   6.137   5.802
 2528SOL     OW 8482   6.367   4.672   6.915
 2528SOL    HW1 8483   6.308   4.752   6.911
 2528SOL    HW2 8484   6.431   4.674   6.838
 2529SOL     OW 8485   6.575   6.113   6.571
 2529SOL    HW1 8486   6.585   6.059   6.488
 2529SOL    HW2 8487   6.480   6.109   6.602
 2530SOL     OW 8488   2.958   6.546   4.727
 2530SOL    HW1 8489   2.876   6.599   4.703
 2530SOL    HW2 8490   2.980   6.562   4.824
 2531SOL     OW 8491   5.163   5.918   4.881
 2531SOL    HW1 8492   5.175   5.819   4.888
 2531SOL    HW2 8493   5.242   5.965   4.920
 2532SOL     OW 8494   0.255   5.907   0.832
 2532SOL    HW1 8495   0.241   5.808   0.834
 2532SOL    HW2 8496   0.182   5.949   0.779
 2533SOL     OW 8497   3.815   6.591   4.270
 2533SOL    HW1 8498   3.794   6.613   4.174
 2533SOL    HW2 8499   3.747   6.632   4.330
 2534SOL     OW 8500   3.933   0.999   2.211
 2534SOL    HW1 8501   3.862   1.011   2.142
 2534SOL    HW2 8502   3.892   0.964   2.295
 2535SOL     OW 8503   3.336   2.965   5.457
 2535SOL    HW1 8504   3.282   3.000   5.381
 2535SOL    HW2 8505   3.276   2.935   5.531
 2536SOL     OW 8506   1.156   1.621   5.172
 2536SOL    HW1 8507   1.226   1.685   5.141
 2536SOL    HW2 8508   1.200   1.549   5.226
 2537SOL     OW 8509   3.797   0.399   6.339
 2537SOL    HW1 8510   3.705   0.431   6.359
 2537SOL    HW2 8511   3.858   0.477   6.323
 2538SOL     OW 8512   0.792   4.311   3.106
 2538SOL    HW1 8513   0.787   4.367   3.188
 2538SOL    HW2 8514   0.701   4.303   3.066
 2539SOL     OW 8515   6.099   0.971   4.615
 2539SOL    HW1 8516   6.062   0.882   4.641
 2539SOL    HW2 8517   6.161   1.004   4.687
 2540SOL     OW 8518   3.781   1.819   2.958
 2540SOL    HW1 8519   3.780   1.918   2.941
 2540SOL    HW2 8520   3.811   1.772   2.875
 2541SOL     OW 8521   2.575   0.643   5.281
 2541SOL    HW1 8522   2.527   0.666   5.196
 2541SOL    HW2 8523   2.674   0.647   5.266
 2542SOL     OW 8524   2.765   2.251   5.725
 2542SOL    HW1 8525   2.696   2.234   5.796
 2542SOL    HW2 8526   2.752   2.185   5.650
 2543SOL     OW 8527   1.120   0.860   2.793
 2543SOL    HW1 8528   1.141   0.953   2.822
 2543SOL    HW2 8529   1.204   0.816   2.759
 2544SOL     OW 8530   0.567   6.058   1.242
 2544SOL    HW1 8531   0.606   6.150   1.250
 2544SOL    HW2 8532   0.603   6.014   1.159
 2545SOL     OW 8533   0.941   6.989   2.444
 2545SOL    HW1 8534   0.936   0.018   2.360
 2545SOL    HW2 8535   0.864   7.012   2.504
 2546SOL     OW 8536   0.227   0.718   1.938
 2546SOL    HW1 8537   0.326   0.707   1.943
 2546SOL    HW2 8538   0.205   0.800   1.884
 2547SOL     OW 8539   6.719   4.655   0.559
 2547SOL    HW1 8540   6.630   4.613   0.543
 2547SOL    HW2 8541   6.778   4.591   0.609
 2548SOL     OW 8542   1.170   6.601   5.502
 2548SOL    HW1 8543   1.115   6.554   5.571
 2548SOL    HW2 8544   1.176   6.699   5.524
 2549SOL     OW 8545   2.042   0.359   0.862
 2549SOL    HW1 8546   1.971   0.429   0.853
 2549SOL    HW2 8547   2.080   0.337   0.773
 2550SOL     OW 8548   0.226   0.492   6.546
 2550SOL    HW1 8549   0.203   0.587   6.567
 2550SOL    HW2 8550   0.209   0.435   6.626
 2551SOL     OW 8551   3.213   5.297   0.576
 2551SOL    HW1 8552   3.293   5.276   0.633
 2551SOL    HW2 8553   3.230   5.382   0.526
 2552SOL     OW 8554   1.945   6.396   4.271
 2552SOL    HW1 8555   1.854   6.404   4.312
 2552SOL    HW2 8556   2.007   6.355   4.337
 2553SOL     OW 8557   4.834   3.448   5.957
 2553SOL    HW1 8558   4.734   3.447   5.965
 2553SOL    HW2 8559   4.860   3.493   5.872
 2554SOL     OW 8560   2.035   6.833   0.282
 2554SOL    HW1 8561   1.954   6.826   0.225
 2554SOL    HW2 8562   2.027   6.769   0.359
 2555SOL     OW 8563   5.050   6.997   5.126
 2555SOL    HW1 8564   5.114   0.027   5.071
 2555SOL    HW2 8565   4.957   7.013   5.093
 2556SOL     OW 8566   4.047   5.956   0.049
 2556SOL    HW1 8567   4.099   6.031   0.089
 2556SOL    HW2 8568   3.967   5.936   0.106
 2557SOL     OW 8569   2.164   4.778   6.830
 2557SOL    HW1 8570   2.228   4.854   6.838
 2557SOL    HW2 8571   2.212   4.697   6.797
 2558SOL     OW 8572   5.579   1.494   5.076
 2558SOL    HW1 8573   5.563   1.578   5.024
 2558SOL    HW2 8574   5.654   1.443   5.034
 2559SOL     OW 8575   0.682   4.149   4.922
 2559SOL    HW1 8576   0.753   4.219   4.933
 2559SOL    HW2 8577   0.673   4.098   5.007
 2560SOL     OW 8578   5.474   2.943   4.401
 2560SOL    HW1 8579   5.552   2.973   4.345
 2560SOL    HW2 8580   5.464   2.844   4.394
 2561SOL     OW 8581   2.939   6.108   5.032
 2561SOL    HW1 8582   2.898   6.046   5.099
 2561SOL    HW2 8583   2.991   6.055   4.965
 2562SOL     OW 8584   2.268   5.100   1.233
 2562SOL    HW1 8585   2.305   5.088   1.325
 2562SOL    HW2 8586   2.293   5.191   1.198
 2563SOL     OW 8587   3.791   2.059   0.347
 2563SOL    HW1 8588   3.730   1.997   0.296
 2563SOL    HW2 8589   3.763   2.153   0.331
 2564SOL     OW 8590   2.185   5.506   6.629
 2564SOL    HW1 8591   2.147   5.423   6.670
 2564SOL    HW2 8592   2.121   5.542   6.562
 2565SOL     OW 8593   1.216   0.217   0.315
 2565SOL    HW1 8594   1.195   0.137   0.258
 2565SOL    HW2 8595   1.135   0.274   0.323
 2566SOL     OW 8596   2.629   6.655   1.113
 2566SOL    HW1 8597   2.530   6.651   1.126
 2566SOL    HW2 8598   2.674   6.653   1.202
 2567SOL     OW 8599   1.057   0.436   0.896
 2567SOL    HW1 8600   1.020   0.435   0.803
 2567SOL    HW2 8601   1.118   0.515   0.907
 2568SOL     OW 8602   4.555   0.685   6.836
 2568SOL    HW1 8603   4.499   0.716   6.759
 2568SOL    HW2 8604   4.501   0.626   6.896
 2569SOL     OW 8605   3.143   1.468   2.043
 2569SOL    HW1 8606   3.143   1.545   2.107
 2569SOL    HW2 8607   3.134   1.502   1.949
 2570SOL     OW 8608   5.444   0.039   6.611
 2570SOL    HW1 8609   5.438   0.060   6.708
 2570SOL    HW2 8610   5.405   0.115   6.558
 2571SOL     OW 8611   2.413   4.477   4.914
 2571SOL    HW1 8612   2.357   4.400   4.946
 2571SOL    HW2 8613   2.389   4.559   4.966
 2572SOL     OW 8614   2.370   5.896   0.714
 2572SOL    HW1 8615   2.289   5.838   0.716
 2572SOL    HW2 8616   2.437   5.858   0.651
 2573SOL     OW 8617   0.091   1.947   1.594
 2573SOL    HW1 8618   0.122   1.865   1.547
 2573SOL    HW2 8619   0.083   2.023   1.529
 2574SOL     OW 8620   5.741   4.124   0.598
 2574SOL    HW1 8621   5.760   4.219   0.626
 2574SOL    HW2 8622   5.789   4.061   0.660
 2575SOL     OW 8623   5.466   5.472   0.793
 2575SOL    HW1 8624   5.511   5.562   0.785
 2575SOL    HW2 8625   5.518   5.416   0.858
 2576SOL     OW 8626   4.305   6.575   4.839
 2576SOL    HW1 8627   4.385   6.522   4.812
 2576SOL    HW2 8628   4.311   6.667   4.801
 2577SOL     OW 8629   4.140   6.550   2.226
 2577SOL    HW1 8630   4.186   6.638   2.212
 2577SOL    HW2 8631   4.054   6.549   2.177
 2578SOL     OW 8632   4.873   1.837   4.985
 2578SOL    HW1 8633   4.826   1.749   4.979
 2578SOL    HW2 8634   4.959   1.832   4.934
 2579SOL     OW 8635   1.743   6.696   3.040
 2579SOL    HW1 8636   1.687   6.712   3.121
 2579SOL    HW2 8637   1.750   6.598   3.022
 2580SOL     OW 8638   3.599   4.144   6.476
 2580SOL    HW1 8639   3.517   4.100   6.439
 2580SOL    HW2 8640   3.619   4.106   6.567
 2581SOL     OW 8641   2.025   4.977   2.037
 2581SOL    HW1 8642   1.981   4.892   2.008
 2581SOL    HW2 8643   2.119   4.959   2.063
 2582SOL     OW 8644   0.230   4.264   1.349
 2582SOL    HW1 8645   0.184   4.285   1.263
 2582SOL    HW2 8646   0.305   4.328   1.364
 2583SOL     OW 8647   1.387   1.920   6.248
 2583SOL    HW1 8648   1.426   2.003   6.287
 2583SOL    HW2 8649   1.311   1.888   6.306
 2584SOL     OW 8650   4.945   5.110   6.096
 2584SOL    HW1 8651   4.962   5.196   6.049
 2584SOL    HW2 8652   4.885   5.053   6.040
 2585SOL     OW 8653   3.952   3.552   0.696
 2585SOL    HW1 8654   3.964   3.651   0.706
 2585SOL    HW2 8655   3.870   3.534   0.641
 2586SOL     OW 8656   3.610   1.034   4.461
 2586SOL    HW1 8657   3.525   1.085   4.454
 2586SOL    HW2 8658   3.653   1.053   4.549
 2587SOL     OW 8659   6.624   0.732   3.431
 2587SOL    HW1 8660   6.562   0.809   3.418
 2587SOL    HW2 8661   6.598   0.657   3.370
 2588SOL     OW 8662   5.134   1.942   6.590
 2588SOL    HW1 8663   5.199   1.879   6.549
 2588SOL    HW2 8664   5.065   1.969   6.522
 2589SOL     OW 8665   1.404   6.333   5.073
 2589SOL    HW1 8666   1.389   6.432   5.072
 2589SOL    HW2 8667   1.487   6.312   5.125
 2590SOL     OW 8668   3.600   4.752   6.909
 2590SOL    HW1 8669   3.687   4.738   6.861
 2590SOL    HW2 8670   3.534   4.685   6.876
 2591SOL     OW 8671   7.017   4.794   2.982
 2591SOL    HW1 8672   0.062   4.802   2.910
 2591SOL    HW2 8673   0.017   4.718   3.043
 2592SOL     OW 8674   3.087   5.702   0.524
 2592SOL    HW1 8675   3.016   5.674   0.460
 2592SOL    HW2 8676   3.047   5.713   0.616
 2593SOL     OW 8677   4.280   5.871   6.920
 2593SOL    HW1 8678   4.361   5.903   6.968
 2593SOL    HW2 8679   4.199   5.917   6.957
 2594SOL     OW 8680   1.577   4.441   6.182
 2594SOL    HW1 8681   1.650   4.385   6.142
 2594SOL    HW2 8682   1.580   4.433   6.282
 2595SOL     OW 8683   0.382   0.849   4.269
 2595SOL    HW1 8684   0.429   0.920   4.217
 2595SOL    HW2 8685   0.448   0.785   4.306
 2596SOL     OW 8686   3.147   2.282   1.760
 2596SOL    HW1 8687   3.182   2.353   1.699
 2596SOL    HW2 8688   3.072   2.319   1.815
 2597SOL     OW 8689   0.576   5.268   6.221
 2597SOL    HW1 8690   0.625   5.183   6.199
 2597SOL    HW2 8691   0.638   5.330   6.270
 2598SOL     OW 8692   6.450   1.615   2.824
 2598SOL    HW1 8693   6.448   1.679   2.900
 2598SOL    HW2 8694   6.545   1.598   2.797
 2599SOL     OW 8695   1.515   5.828   1.099
 2599SOL    HW1 8696   1.558   5.903   1.050
 2599SOL    HW2 8697   1.425   5.856   1.133
 2600SOL     OW 8698   5.441   2.660   4.373
 2600SOL    HW1 8699   5.525   2.617   4.340
 2600SOL    HW2 8700   5.363   2.622   4.324
 2601SOL     OW 8701   1.902   1.446   1.579
 2601SOL    HW1 8702   1.912   1.521   1.644
 2601SOL    HW2 8703   1.818   1.397   1.598
 2602SOL     OW 8704   1.192   4.821   5.059
 2602SOL    HW1 8705   1.182   4.726   5.091
 2602SOL    HW2 8706   1.179   4.883   5.136
 2603SOL     OW 8707   2.907   1.092   2.806
 2603SOL    HW1 8708   2.923   1.001   2.844
 2603SOL    HW2 8709   2.943   1.096   2.713
 2604SOL     OW 8710   4.655   2.196   2.660
 2604SOL    HW1 8711   4.593   2.271   2.684
 2604SOL    HW2 8712   4.671   2.196   2.561
 2605SOL     OW 8713   1.635   2.734   2.956
 2605SOL    HW1 8714   1.584   2.784   2.886
 2605SOL    HW2 8715   1.643   2.790   3.038
 2606SOL     OW 8716   5.991   5.097   1.353
 2606SOL    HW1 8717   5.955   5.187   1.327
 2606SOL    HW2 8718   6.034   5.054   1.274
 2607SOL     OW 8719   0.797   1.729   1.660
 2607SOL    HW1 8720   0.738   1.663   1.707
 2607SOL    HW2 8721   0.779   1.821   1.696
 2608SOL     OW 8722   3.879   5.681   0.967
 2608SOL    HW1 8723   3.828   5.622   1.029
 2608SOL    HW2 8724   3.977   5.660   0.973
 2609SOL     OW 8725   6.006   1.440   2.262
 2609SOL    HW1 8726   6.083   1.481   2.213
 2609SOL    HW2 8727   5.994   1.486   2.350
 2610SOL     OW 8728   0.966   4.372   4.627
 2610SOL    HW1 8729   1.034   4.302   4.650
 2610SOL    HW2 8730   1.005   4.434   4.558
 2611SOL     OW 8731   4.405   6.198   0.539
 2611SOL    HW1 8732   4.362   6.283   0.571
 2611SOL    HW2 8733   4.434   6.143   0.618
 2612SOL     OW 8734   6.096   6.362   4.662
 2612SOL    HW1 8735   6.001   6.356   4.694
 2612SOL    HW2 8736   6.157   6.321   4.729
 2613SOL     OW 8737   2.233   5.152   5.786
 2613SOL    HW1 8738   2.266   5.207   5.864
 2613SOL    HW2 8739   2.219   5.212   5.707
 2614SOL     OW 8740   6.869   2.530   0.094
 2614SOL    HW1 8741   6.932   2.532   0.016
 2614SOL    HW2 8742   6.918   2.560   0.176
 2615SOL     OW 8743   0.821   3.326   2.533
 2615SOL    HW1 8744   0.856   3.309   2.625
 2615SOL    HW2 8745   0.738   3.382   2.539
 2616SOL     OW 8746   2.574   2.260   5.923
 2616SOL    HW1 8747   2.499   2.285   5.862
 2616SOL    HW2 8748   2.538   2.207   6.000
 2617SOL     OW 8749   4.429   0.828   0.457
 2617SOL    HW1 8750   4.450   0.730   0.463
 2617SOL    HW2 8751   4.350   0.848   0.515
 2618SOL     OW 8752   6.819   0.285   3.835
 2618SOL    HW1 8753   6.838   0.189   3.815
 2618SOL    HW2 8754   6.854   0.307   3.926
 2619SOL     OW 8755   5.126   1.704   1.849
 2619SOL    HW1 8756   5.090   1.768   1.917
 2619SOL    HW2 8757   5.050   1.663   1.799
 2620SOL     OW 8758   6.785   0.122   3.208
 2620SOL    HW1 8759   6.800   0.166   3.296
 2620SOL    HW2 8760   6.847   0.044   3.199
 2621SOL     OW 8761   0.943   5.579   2.451
 2621SOL    HW1 8762   0.843   5.589   2.453
 2621SOL    HW2 8763   0.970   5.511   2.519
 2622SOL     OW 8764   2.483   3.539   5.862
 2622SOL    HW1 8765   2.565   3.500   5.905
 2622SOL    HW2 8766   2.510   3.610   5.797
 2623SOL     OW 8767   0.861   1.056   5.480
 2623SOL    HW1 8768   0.916   1.026   5.403
 2623SOL    HW2 8769   0.842   1.153   5.472
 2624SOL     OW 8770   0.257   2.058   5.215
 2624SOL    HW1 8771   0.297   1.997   5.147
 2624SOL    HW2 8772   0.290   2.151   5.201
 2625SOL     OW 8773   2.441   3.799   5.777
 2625SOL    HW1 8774   2.499   3.830   5.702
 2625SOL    HW2 8775   2.484   3.823   5.865
 2626SOL     OW 8776   6.488   0.449   6.207
 2626SOL    HW1 8777   6.516   0.442   6.111
 2626SOL    HW2 8778   6.566   0.476   6.263
 2627SOL     OW 8779   1.962   1.220   5.793
 2627SOL    HW1 8780   2.008   1.295   5.746
 2627SOL    HW2 8781   1.981   1.226   5.891
 2628SOL     OW 8782   2.080   3.709   5.257
 2628SOL    HW1 8783   1.997   3.654   5.268
 2628SOL    HW2 8784   2.097   3.761   5.342
 2629SOL     OW 8785   3.860   3.371   2.518
 2629SOL    HW1 8786   3.937   3.426   2.489
 2629SOL    HW2 8787   3.811   3.336   2.438
 2630SOL     OW 8788   3.649   1.221   2.740
 2630SOL    HW1 8789   3.658   1.121   2.749
 2630SOL    HW2 8790   3.666   1.248   2.646
 2631SOL     OW 8791   5.199   0.942   6.631
 2631SOL    HW1 8792   5.166   1.029   6.668
 2631SOL    HW2 8793   5.161   0.867   6.684
 2632SOL     OW 8794   5.616   3.373   0.388
 2632SOL    HW1 8795   5.644   3.415   0.474
 2632SOL    HW2 8796   5.607   3.274   0.400
 2633SOL     OW 8797   6.854   2.033   4.943
 2633SOL    HW1 8798   6.867   2.044   4.844
 2633SOL    HW2 8799   6.838   2.122   4.985
 2634SOL     OW 8800   0.515   5.728   3.584
 2634SOL    HW1 8801   0.526   5.668   3.663
 2634SOL    HW2 8802   0.544   5.680   3.501
 2635SOL     OW 8803   6.700   5.770   4.174
 2635SOL    HW1 8804   6.635   5.724   4.234
 2635SOL    HW2 8805   6.711   5.865   4.204
 2636SOL     OW 8806   3.979   0.788   6.832
 2636SOL    HW1 8807   4.039   0.834   6.765
 2636SOL    HW2 8808   3.887   0.780   6.794
 2637SOL     OW 8809   6.395   1.675   4.198
 2637SOL    HW1 8810   6.319   1.693   4.260
 2637SOL    HW2 8811   6.361   1.630   4.115
 2638SOL     OW 8812   0.082   6.627   4.690
 2638SOL    HW1 8813   0.138   6.694   4.640
 2638SOL    HW2 8814   7.014   6.626   4.651
 2639SOL     OW 8815   6.651   5.927   6.843
 2639SOL    HW1 8816   6.596   5.934   6.759
 2639SOL    HW2 8817   6.717   6.002   6.845
 2640SOL     OW 8818   6.773   6.715   5.013
 2640SOL    HW1 8819   6.760   6.773   5.094
 2640SOL    HW2 8820   6.689   6.663   4.995
 2641SOL     OW 8821   5.251   2.252   1.636
 2641SOL    HW1 8822   5.338   2.214   1.605
 2641SOL    HW2 8823   5.266   2.345   1.671
 2642SOL     OW 8824   6.102   0.118   4.182
 2642SOL    HW1 8825   6.175   0.169   4.226
 2642SOL    HW2 8826   6.014   0.144   4.222
 2643SOL     OW 8827   1.285   3.614   3.559
 2643SOL    HW1 8828   1.219   3.659   3.620
 2643SOL    HW2 8829   1.343   3.684   3.517
 2644SOL     OW 8830   4.588   5.253   5.125
 2644SOL    HW1 8831   4.586   5.286   5.219
 2644SOL    HW2 8832   4.512   5.293   5.074
 2645SOL     OW 8833   4.896   5.238   3.332
 2645SOL    HW1 8834   4.875   5.314   3.271
 2645SOL    HW2 8835   4.982   5.196   3.305
 2646SOL     OW 8836   0.156   2.666   0.046
 2646SOL    HW1 8837   0.109   2.670   6.982
 2646SOL    HW2 8838   0.137   2.579   0.090
 2647SOL     OW 8839   6.013   0.179   1.552
 2647SOL    HW1 8840   5.998   0.203   1.456
 2647SOL    HW2 8841   6.111   0.179   1.572
 2648SOL     OW 8842   6.999   6.405   4.413
 2648SOL    HW1 8843   0.019   6.327   4.457
 2648SOL    HW2 8844   6.939   6.451   4.478
 2649SOL     OW 8845   6.119   2.960   1.332
 2649SOL    HW1 8846   6.038   2.953   1.390
 2649SOL    HW2 8847   6.157   3.053   1.338
 2650SOL     OW 8848   2.004   5.661   4.305
 2650SOL    HW1 8849   1.965   5.571   4.286
 2650SOL    HW2 8850   2.043   5.661   4.398
 2651SOL     OW 8851   2.973   1.420   0.875
 2651SOL    HW1 8852   3.039   1.474   0.927
 2651SOL    HW2 8853   3.022   1.366   0.806
 2652SOL     OW 8854   4.810   3.213   5.831
 2652SOL    HW1 8855   4.833   3.297   5.880
 2652SOL    HW2 8856   4.738   3.165   5.881
 2653SOL     OW 8857   4.481   5.975   5.860
 2653SOL    HW1 8858   4.529   6.009   5.941
 2653SOL    HW2 8859   4.535   5.995   5.778
 2654SOL     OW 8860   4.678   6.190   1.427
 2654SOL    HW1 8861   4.596   6.137   1.449
 2654SOL    HW2 8862   4.673   6.221   1.332
 2655SOL     OW 8863   4.726   5.437   3.739
 2655SOL    HW1 8864   4.664   5.361   3.722
 2655SOL    HW2 8865   4.813   5.402   3.773
 2656SOL     OW 8866   3.419   5.465   4.247
 2656SOL    HW1 8867   3.490   5.532   4.226
 2656SOL    HW2 8868   3.336   5.513   4.276
 2657SOL     OW 8869   1.973   3.475   0.692
 2657SOL    HW1 8870   1.981   3.537   0.614
 2657SOL    HW2 8871   2.039   3.401   0.682
 2658SOL     OW 8872   4.590   4.633   0.172
 2658SOL    HW1 8873   4.648   4.708   0.140
 2658SOL    HW2 8874   4.566   4.574   0.095
 2659SOL     OW 8875   4.712   3.210   5.420
 2659SOL    HW1 8876   4.657   3.289   5.396
 2659SOL    HW2 8877   4.808   3.238   5.432
 2660SOL     OW 8878   0.753   0.928   1.632
 2660SOL    HW1 8879   0.654   0.914   1.630
 2660SOL    HW2 8880   0.792   0.878   1.709
 2661SOL     OW 8881   1.913   6.726   1.514
 2661SOL    HW1 8882   1.981   6.696   1.582
 2661SOL    HW2 8883   1.886   6.820   1.533
 2662SOL     OW 8884   2.706   0.220   3.675
 2662SOL    HW1 8885   2.746   0.311   3.678
 2662SOL    HW2 8886   2.701   0.184   3.769
 2663SOL     OW 8887   4.498   4.998   6.560
 2663SOL    HW1 8888   4.597   4.988   6.576
 2663SOL    HW2 8889   4.475   5.096   6.555
 2664SOL     OW 8890   4.280   3.536   5.405
 2664SOL    HW1 8891   4.313   3.611   5.348
 2664SOL    HW2 8892   4.183   3.521   5.389
 2665SOL     OW 8893   2.333   3.434   5.283
 2665SOL    HW1 8894   2.250   3.486   5.266
 2665SOL    HW2 8895   2.405   3.495   5.318
 2666SOL     OW 8896   1.611   4.238   1.547
 2666SOL    HW1 8897   1.627   4.204   1.454
 2666SOL    HW2 8898   1.643   4.170   1.612
 2667SOL     OW 8899   1.102   5.406   4.118
 2667SOL    HW1 8900   1.064   5.324   4.161
 2667SOL    HW2 8901   1.137   5.467   4.189
 2668SOL     OW 8902   5.808   2.822   4.467
 2668SOL    HW1 8903   5.774   2.791   4.556
 2668SOL    HW2 8904   5.753   2.900   4.435
 2669SOL     OW 8905   3.432   5.738   6.747
 2669SOL    HW1 8906   3.423   5.744   6.847
 2669SOL    HW2 8907   3.413   5.645   6.718
 2670SOL     OW 8908   5.734   2.745   4.713
 2670SOL    HW1 8909   5.767   2.767   4.805
 2670SOL    HW2 8910   5.687   2.657   4.715
 2671SOL     OW 8911   4.858   5.370   6.027
 2671SOL    HW1 8912   4.810   5.335   5.946
 2671SOL    HW2 8913   4.793   5.384   6.101
 2672SOL     OW 8914   3.422   6.356   1.649
 2672SOL    HW1 8915   3.355   6.420   1.610
 2672SOL    HW2 8916   3.514   6.388   1.629
 2673SOL     OW 8917   5.580   1.810   2.158
 2673SOL    HW1 8918   5.672   1.850   2.152
 2673SOL    HW2 8919   5.522   1.870   2.212
 2674SOL     OW 8920   1.483   5.202   4.088
 2674SOL    HW1 8921   1.551   5.205   4.016
 2674SOL    HW2 8922   1.516   5.251   4.168
 2675SOL     OW 8923   0.110   6.563   4.212
 2675SOL    HW1 8924   0.203   6.571   4.248
 2675SOL    HW2 8925   0.055   6.507   4.273
 2676SOL     OW 8926   3.524   3.464   2.221
 2676SOL    HW1 8927   3.481   3.463   2.312
 2676SOL    HW2 8928   3.510   3.374   2.178
 2677SOL     OW 8929   2.539   4.873   1.521
 2677SOL    HW1 8930   2.561   4.846   1.614
 2677SOL    HW2 8931   2.617   4.922   1.481
 2678SOL     OW 8932   6.923   2.200   1.681
 2678SOL    HW1 8933   6.891   2.263   1.752
 2678SOL    HW2 8934   6.970   2.123   1.723
 2679SOL     OW 8935   1.729   4.704   2.556
 2679SOL    HW1 8936   1.655   4.747   2.608
 2679SOL    HW2 8937   1.731   4.741   2.463
 2680SOL     OW 8938   1.311   2.458   6.905
 2680SOL    HW1 8939   1.372   2.494   6.976
 2680SOL    HW2 8940   1.315   2.517   6.825
 2681SOL     OW 8941   1.166   2.922   4.940
 2681SOL    HW1 8942   1.266   2.924   4.937
 2681SOL    HW2 8943   1.136   2.856   5.009
 2682SOL     OW 8944   4.977   3.921   3.125
 2682SOL    HW1 8945   4.913   3.862   3.172
 2682SOL    HW2 8946   5.069   3.882   3.132
 2683SOL     OW 8947   2.302   4.577   2.313
 2683SOL    HW1 8948   2.294   4.492   2.365
 2683SOL    HW2 8949   2.399   4.596   2.296
 2684SOL     OW 8950   4.669   0.041   1.539
 2684SOL    HW1 8951   4.604   0.115   1.559
 2684SOL    HW2 8952   4.657   6.992   1.606
 2685SOL     OW 8953   6.202   4.931   5.229
 2685SOL    HW1 8954   6.117   4.983   5.223
 2685SOL    HW2 8955   6.193   4.847   5.176
 2686SOL     OW 8956   1.100   1.587   5.531
 2686SOL    HW1 8957   1.196   1.612   5.523
 2686SOL    HW2 8958   1.079   1.511   5.469
 2687SOL     OW 8959   3.512   6.146   0.843
 2687SOL    HW1 8960   3.544   6.053   0.858
 2687SOL    HW2 8961   3.415   6.146   0.822
 2688SOL     OW 8962   2.775   2.087   0.710
 2688SOL    HW1 8963   2.847   2.147   0.743
 2688SOL    HW2 8964   2.738   2.123   0.624
 2689SOL     OW 8965   0.095   3.949   2.435
 2689SOL    HW1 8966   7.020   3.961   2.426
 2689SOL    HW2 8967   0.141   3.990   2.357
 2690SOL     OW 8968   3.024   3.296   6.958
 2690SOL    HW1 8969   3.009   3.297   6.859
 2690SOL    HW2 8970   3.081   3.374   6.984
 2691SOL     OW 8971   7.002   4.529   3.820
 2691SOL    HW1 8972   0.001   4.623   3.795
 2691SOL    HW2 8973   6.908   4.527   3.854
 2692SOL     OW 8974   2.383   6.905   2.693
 2692SOL    HW1 8975   2.414   6.823   2.742
 2692SOL    HW2 8976   2.291   6.930   2.725
 2693SOL     OW 8977   2.210   4.797   4.193
 2693SOL    HW1 8978   2.180   4.739   4.116
 2693SOL    HW2 8979   2.294   4.760   4.232
 2694SOL     OW 8980   4.038   6.648   3.264
 2694SOL    HW1 8981   4.079   6.738   3.278
 2694SOL    HW2 8982   4.100   6.578   3.300
 2695SOL     OW 8983   5.577   0.010   2.760
 2695SOL    HW1 8984   5.498   0.065   2.788
 2695SOL    HW2 8985   5.658   0.068   2.756
 2696SOL     OW 8986   4.840   4.150   5.546
 2696SOL    HW1 8987   4.912   4.172   5.612
 2696SOL    HW2 8988   4.751   4.152   5.591
 2697SOL     OW 8989   4.264   1.815   2.703
 2697SOL    HW1 8990   4.208   1.869   2.640
 2697SOL    HW2 8991   4.355   1.857   2.710
 2698SOL     OW 8992   1.893   4.917   6.769
 2698SOL    HW1 8993   1.838   4.840   6.739
 2698SOL    HW2 8994   1.989   4.888   6.777
 2699SOL     OW 8995   2.736   6.228   1.095
 2699SOL    HW1 8996   2.665   6.193   1.033
 2699SOL    HW2 8997   2.819   6.173   1.086
 2700SOL     OW 8998   2.644   1.477   1.193
 2700SOL    HW1 8999   2.585   1.532   1.252
 2700SOL    HW2 9000   2.739   1.496   1.215
 2701SOL     OW 9001   5.460   2.167   5.511
 2701SOL    HW1 9002   5.386   2.223   5.474
 2701SOL    HW2 9003   5.475   2.191   5.607
 2702SOL     OW 9004   1.089   2.177   2.948
 2702SOL    HW1 9005   1.044   2.210   3.031
 2702SOL    HW2 9006   1.096   2.077   2.952
 2703SOL     OW 9007   1.349   5.766   1.433
 2703SOL    HW1 9008   1.373   5.678   1.390
 2703SOL    HW2 9009   1.373   5.763   1.530
 2704SOL     OW 9010   6.871   5.619   2.035
 2704SOL    HW1 9011   6.904   5.650   1.946
 2704SOL    HW2 9012   6.928   5.544   2.068
 2705SOL     OW 9013   6.667   0.785   5.049
 2705SOL    HW1 9014   6.736   0.773   4.978
 2705SOL    HW2 9015   6.596   0.715   5.040
 2706SOL     OW 9016   6.358   4.597   4.066
 2706SOL    HW1 9017   6.451   4.634   4.070
 2706SOL    HW2 9018   6.318   4.597   4.157
 2707SOL     OW 9019   4.192   0.034   4.376
 2707SOL    HW1 9020   4.144   0.032   4.288
 2707SOL    HW2 9021   4.236   6.970   4.391
 2708SOL     OW 9022   6.552   2.842   0.887
 2708SOL    HW1 9023   6.465   2.863   0.842
 2708SOL    HW2 9024   6.538   2.843   0.986
 2709SOL     OW 9025   5.122   0.025   6.525
 2709SOL    HW1 9026   5.179   6.967   6.528
 2709SOL    HW2 9027   5.114   0.062   6.618
 2710SOL     OW 9028   2.000   2.732   3.911
 2710SOL    HW1 9029   2.007   2.719   3.812
 2710SOL    HW2 9030   2.080   2.690   3.955
 2711SOL     OW 9031   2.933   0.857   3.459
 2711SOL    HW1 9032   3.008   0.801   3.423
 2711SOL    HW2 9033   2.878   0.892   3.384
 2712SOL     OW 9034   2.456   5.475   2.519
 2712SOL    HW1 9035   2.484   5.571   2.514
 2712SOL    HW2 9036   2.533   5.416   2.493
 2713SOL     OW 9037   3.864   3.922   6.426
 2713SOL    HW1 9038   3.893   3.885   6.338
 2713SOL    HW2 9039   3.896   3.861   6.499
 2714SOL     OW 9040   3.665   3.593   0.088
 2714SOL    HW1 9041   3.693   3.654   0.014
 2714SOL    HW2 9042   3.705   3.625   0.174
 2715SOL     OW 9043   5.574   2.191   0.989
 2715SOL    HW1 9044   5.634   2.112   0.999
 2715SOL    HW2 9045   5.480   2.160   0.978
 2716SOL     OW 9046   5.118   3.293   3.745
 2716SOL    HW1 9047   5.177   3.372   3.766
 2716SOL    HW2 9048   5.167   3.209   3.766
 2717SOL     OW 9049   1.050   6.914   2.031
 2717SOL    HW1 9050   1.107   6.992   2.004
 2717SOL    HW2 9051   1.078   6.883   2.122
 2718SOL     OW 9052   0.413   1.516   5.263
 2718SOL    HW1 9053   0.424   1.597   5.320
 2718SOL    HW2 9054   0.395   1.543   5.168
 2719SOL     OW 9055   1.041   4.333   1.743
 2719SOL    HW1 9056   1.085   4.420   1.768
 2719SOL    HW2 9057   1.076   4.303   1.654
 2720SOL     OW 9058   1.039   0.417   3.406
 2720SOL    HW1 9059   1.098   0.495   3.386
 2720SOL    HW2 9060   1.035   0.357   3.325
 2721SOL     OW 9061   3.423   6.513   3.085
 2721SOL    HW1 9062   3.521   6.495   3.095
 2721SOL    HW2 9063   3.395   6.492   2.992
 2722SOL     OW 9064   4.878   5.276   6.630
 2722SOL    HW1 9065   4.848   5.370   6.644
 2722SOL    HW2 9066   4.854   5.247   6.537
 2723SOL     OW 9067   2.157   6.634   6.592
 2723SOL    HW1 9068   2.161   6.694   6.512
 2723SOL    HW2 9069   2.097   6.556   6.572
 2724SOL     OW 9070   1.362   5.962   6.606
 2724SOL    HW1 9071   1.427   5.966   6.529
 2724SOL    HW2 9072   1.412   5.968   6.692
 2725SOL     OW 9073   5.534   3.832   4.636
 2725SOL    HW1 9074   5.467   3.820   4.710
 2725SOL    HW2 9075   5.551   3.929   4.622
 2726SOL     OW 9076   0.738   1.982   1.775
 2726SOL    HW1 9077   0.791   2.049   1.723
 2726SOL    HW2 9078   0.763   1.988   1.871
 2727SOL     OW 9079   1.528   3.703   4.210
 2727SOL    HW1 9080   1.515   3.642   4.288
 2727SOL    HW2 9081   1.528   3.650   4.126
 2728SOL     OW 9082   5.433   6.245   6.012
 2728SOL    HW1 9083   5.484   6.229   6.096
 2728SOL    HW2 9084   5.476   6.318   5.960
 2729SOL     OW 9085   6.738   6.458   0.424
 2729SOL    HW1 9086   6.773   6.504   0.342
 2729SOL    HW2 9087   6.678   6.383   0.397
 2730SOL     OW 9088   1.111   6.112   2.015
 2730SOL    HW1 9089   1.048   6.049   2.062
 2730SOL    HW2 9090   1.114   6.090   1.918
 2731SOL     OW 9091   3.240   3.604   3.257
 2731SOL    HW1 9092   3.250   3.622   3.160
 2731SOL    HW2 9093   3.326   3.568   3.294
 2732SOL     OW 9094   6.039   2.298   1.126
 2732SOL    HW1 9095   5.989   2.293   1.212
 2732SOL    HW2 9096   6.081   2.209   1.106
 2733SOL     OW 9097   0.276   1.458   5.004
 2733SOL    HW1 9098   0.279   1.388   4.933
 2733SOL    HW2 9099   0.210   1.433   5.074
 2734SOL     OW 9100   3.671   5.795   1.700
 2734SOL    HW1 9101   3.679   5.762   1.794
 2734SOL    HW2 9102   3.657   5.718   1.638
 2735SOL     OW 9103   1.506   2.128   1.416
 2735SOL    HW1 9104   1.419   2.165   1.448
 2735SOL    HW2 9105   1.555   2.197   1.363
 2736SOL     OW 9106   6.214   6.342   5.076
 2736SOL    HW1 9107   6.211   6.369   5.172
 2736SOL    HW2 9108   6.243   6.419   5.020
 2737SOL     OW 9109   2.629   3.467   6.135
 2737SOL    HW1 9110   2.619   3.543   6.199
 2737SOL    HW2 9111   2.545   3.411   6.137
 2738SOL     OW 9112   6.020   6.244   2.344
 2738SOL    HW1 9113   5.957   6.221   2.419
 2738SOL    HW2 9114   5.980   6.215   2.257
 2739SOL     OW 9115   0.542   4.890   0.753
 2739SOL    HW1 9116   0.599   4.909   0.833
 2739SOL    HW2 9117   0.600   4.874   0.673
 2740SOL     OW 9118   6.795   5.122   1.806
 2740SOL    HW1 9119   6.861   5.105   1.879
 2740SOL    HW2 9120   6.843   5.152   1.724
 2741SOL     OW 9121   0.025   1.834   5.087
 2741SOL    HW1 9122   0.109   1.887   5.095
 2741SOL    HW2 9123   6.978   1.891   5.047
 2742SOL     OW 9124   1.866   5.268   1.020
 2742SOL    HW1 9125   1.805   5.346   1.004
 2742SOL    HW2 9126   1.958   5.301   1.040
 2743SOL     OW 9127   6.585   4.719   2.520
 2743SOL    HW1 9128   6.556   4.733   2.425
 2743SOL    HW2 9129   6.504   4.708   2.578
 2744SOL     OW 9130   4.249   2.905   1.630
 2744SOL    HW1 9131   4.185   2.968   1.585
 2744SOL    HW2 9132   4.207   2.815   1.637
 2745SOL     OW 9133   6.807   1.546   5.344
 2745SOL    HW1 9134   6.811   1.584   5.436
 2745SOL    HW2 9135   6.783   1.449   5.349
 2746SOL     OW 9136   0.821   2.296   4.166
 2746SOL    HW1 9137   0.833   2.326   4.261
 2746SOL    HW2 9138   0.796   2.199   4.165
 2747SOL     OW 9139   4.738   5.474   6.811
 2747SOL    HW1 9140   4.823   5.434   6.845
 2747SOL    HW2 9141   4.751   5.571   6.794
 2748SOL     OW 9142   4.247   0.905   1.842
 2748SOL    HW1 9143   4.214   0.887   1.935
 2748SOL    HW2 9144   4.173   0.941   1.786
 2749SOL     OW 9145   0.424   4.589   1.038
 2749SOL    HW1 9146   0.449   4.684   1.059
 2749SOL    HW2 9147   0.488   4.528   1.084
 2750SOL     OW 9148   2.303   4.287   2.293
 2750SOL    HW1 9149   2.328   4.191   2.284
 2750SOL    HW2 9150   2.242   4.298   2.372
 2751SOL     OW 9151   1.291   2.269   1.508
 2751SOL    HW1 9152   1.212   2.312   1.465
 2751SOL    HW2 9153   1.313   2.317   1.593
 2752SOL     OW 9154   3.363   4.316   5.976
 2752SOL    HW1 9155   3.392   4.326   6.072
 2752SOL    HW2 9156   3.382   4.401   5.927
 2753SOL     OW 9157   0.012   6.089   5.112
 2753SOL    HW1 9158   6.986   6.007   5.140
 2753SOL    HW2 9159   0.055   6.072   5.023
 2754SOL     OW 9160   0.179   0.030   7.019
 2754SOL    HW1 9161   0.100   7.017   6.970
 2754SOL    HW2 9162   0.156   0.121   0.030
 2755SOL     OW 9163   3.702   0.128   3.083
 2755SOL    HW1 9164   3.625   0.191   3.082
 2755SOL    HW2 9165   3.731   0.112   3.177
 2756SOL     OW 9166   4.171   6.167   0.269
 2756SOL    HW1 9167   4.175   6.267   0.275
 2756SOL    HW2 9168   4.097   6.134   0.328
 2757SOL     OW 9169   2.330   6.963   0.995
 2757SOL    HW1 9170   2.250   7.021   0.977
 2757SOL    HW2 9171   2.312   6.906   1.076
 2758SOL     OW 9172   4.634   0.310   4.292
 2758SOL    HW1 9173   4.622   0.400   4.334
 2758SOL    HW2 9174   4.600   0.239   4.355
 2759SOL     OW 9175   5.463   6.565   5.206
 2759SOL    HW1 9176   5.429   6.645   5.255
 2759SOL    HW2 9177   5.386   6.510   5.173
 2760SOL     OW 9178   1.090   5.792   1.472
 2760SOL    HW1 9179   1.183   5.789   1.435
 2760SOL    HW2 9180   1.073   5.709   1.526
 2761SOL     OW 9181   2.124   4.641   4.457
 2761SOL    HW1 9182   2.221   4.653   4.436
 2761SOL    HW2 9183   2.088   4.563   4.405
 2762SOL     OW 9184   0.976   0.945   5.256
 2762SOL    HW1 9185   1.029   0.955   5.172
 2762SOL    HW2 9186   0.914   0.867   5.248
 2763SOL     OW 9187   5.456   1.273   3.915
 2763SOL    HW1 9188   5.499   1.193   3.957
 2763SOL    HW2 9189   5.380   1.243   3.858
 2764SOL     OW 9190   6.526   0.244   1.260
 2764SOL    HW1 9191   6.454   0.298   1.216
 2764SOL    HW2 9192   6.486   0.181   1.325
 2765SOL     OW 9193   5.500   0.256   0.781
 2765SOL    HW1 9194   5.540   0.168   0.755
 2765SOL    HW2 9195   5.421   0.240   0.840
 2766SOL     OW 9196   5.135   2.575   0.469
 2766SOL    HW1 9197   5.103   2.624   0.388
 2766SOL    HW2 9198   5.231   2.551   0.458
 2767SOL     OW 9199   6.680   4.830   6.898
 2767SOL    HW1 9200   6.749   4.858   6.831
 2767SOL    HW2 9201   6.725   4.789   6.977
 2768SOL     OW 9202   4.989   0.957   0.367
 2768SOL    HW1 9203   4.909   1.001   0.407
 2768SOL    HW2 9204   5.007   0.996   0.276
 2769SOL     OW 9205   0.351   4.095   3.734
 2769SOL    HW1 9206   0.277   4.117   3.798
 2769SOL    HW2 9207   0.425   4.161   3.745
 2770SOL     OW 9208   2.337   5.669   6.439
 2770SOL    HW1 9209   2.431   5.636   6.430
 2770SOL    HW2 9210   2.284   5.604   6.494
 2771SOL     OW 9211   6.070   1.175   2.270
 2771SOL    HW1 9212   6.169   1.167   2.270
 2771SOL    HW2 9213   6.044   1.268   2.296
 2772SOL     OW 9214   4.759   1.444   0.915
 2772SOL    HW1 9215   4.697   1.502   0.862
 2772SOL    HW2 9216   4.705   1.381   0.972
 2773SOL     OW 9217   5.953   2.718   5.354
 2773SOL    HW1 9218   5.904   2.781   5.293
 2773SOL    HW2 9219   5.904   2.712   5.441
 2774SOL     OW 9220   6.348   3.569   2.978
 2774SOL    HW1 9221   6.292   3.498   3.019
 2774SOL    HW2 9222   6.431   3.583   3.033
 2775SOL     OW 9223   0.239   5.267   6.629
 2775SOL    HW1 9224   0.221   5.286   6.532
 2775SOL    HW2 9225   0.299   5.188   6.637
 2776SOL     OW 9226   5.475   5.231   5.493
 2776SOL    HW1 9227   5.406   5.231   5.566
 2776SOL    HW2 9228   5.564   5.255   5.531
 2777SOL     OW 9229   2.818   1.066   1.926
 2777SOL    HW1 9230   2.800   0.968   1.920
 2777SOL    HW2 9231   2.873   1.086   2.007
 2778SOL     OW 9232   1.301   0.480   4.924
 2778SOL    HW1 9233   1.227   0.508   4.985
 2778SOL    HW2 9234   1.381   0.453   4.978
 2779SOL     OW 9235   5.151   6.467   1.091
 2779SOL    HW1 9236   5.238   6.516   1.082
 2779SOL    HW2 9237   5.111   6.487   1.180
 2780SOL     OW 9238   0.029   5.929   6.666
 2780SOL    HW1 9239   0.106   5.975   6.622
 2780SOL    HW2 9240   6.971   5.942   6.612
 2781SOL     OW 9241   6.212   5.319   1.405
 2781SOL    HW1 9242   6.226   5.340   1.502
 2781SOL    HW2 9243   6.185   5.401   1.357
 2782SOL     OW 9244   3.042   2.127   5.721
 2782SOL    HW1 9245   2.955   2.174   5.734
 2782SOL    HW2 9246   3.118   2.188   5.745
 2783SOL     OW 9247   5.921   3.291   4.797
 2783SOL    HW1 9248   6.010   3.279   4.753
 2783SOL    HW2 9249   5.905   3.216   4.861
 2784SOL     OW 9250   2.994   2.038   1.048
 2784SOL    HW1 9251   3.080   2.031   0.999
 2784SOL    HW2 9252   2.954   2.128   1.032
 2785SOL     OW 9253   5.948   1.685   0.605
 2785SOL    HW1 9254   5.922   1.761   0.665
 2785SOL    HW2 9255   6.047   1.688   0.588
 2786SOL     OW 9256   4.137   5.624   2.143
 2786SOL    HW1 9257   4.144   5.584   2.052
 2786SOL    HW2 9258   4.094   5.714   2.136
 2787SOL     OW 9259   2.990   2.627   6.672
 2787SOL    HW1 9260   2.978   2.624   6.573
 2787SOL    HW2 9261   2.997   2.534   6.708
 2788SOL     OW 9262   2.650   4.506   6.503
 2788SOL    HW1 9263   2.733   4.459   6.534
 2788SOL    HW2 9264   2.590   4.522   6.581
 2789SOL     OW 9265   2.107   3.079   3.344
 2789SOL    HW1 9266   2.032   3.127   3.390
 2789SOL    HW2 9267   2.129   2.996   3.396
 2790SOL     OW 9268   2.690   5.344   2.750
 2790SOL    HW1 9269   2.773   5.387   2.714
 2790SOL    HW2 9270   2.705   5.246   2.758
 2791SOL     OW 9271   1.142   4.019   3.994
 2791SOL    HW1 9272   1.237   4.044   3.977
 2791SOL    HW2 9273   1.086   4.101   4.004
 2792SOL     OW 9274   0.747   6.932   4.769
 2792SOL    HW1 9275   0.777   6.918   4.674
 2792SOL    HW2 9276   0.798   6.870   4.829
 2793SOL     OW 9277   4.794   3.087   2.856
 2793SOL    HW1 9278   4.881   3.137   2.851
 2793SOL    HW2 9279   4.758   3.092   2.949
 2794SOL     OW 9280   7.002   2.715   0.979
 2794SOL    HW1 9281   0.051   2.695   0.914
 2794SOL    HW2 9282   6.931   2.767   0.933
 2795SOL     OW 9283   1.998   2.876   0.522
 2795SOL    HW1 9284   2.049   2.930   0.455
 2795SOL    HW2 9285   1.990   2.927   0.607
 2796SOL     OW 9286   6.092   4.916   2.677
 2796SOL    HW1 9287   6.023   4.972   2.632
 2796SOL    HW2 9288   6.168   4.898   2.614
 2797SOL     OW 9289   4.614   5.108   4.216
 2797SOL    HW1 9290   4.659   5.171   4.153
 2797SOL    HW2 9291   4.579   5.159   4.295
 2798SOL     OW 9292   1.302   4.678   1.530
 2798SOL    HW1 9293   1.354   4.599   1.497
 2798SOL    HW2 9294   1.267   4.730   1.451
 2799SOL     OW 9295   0.143   6.633   0.084
 2799SOL    HW1 9296   0.231   6.586   0.092
 2799SOL    HW2 9297   0.138   6.705   0.153
 2800SOL     OW 9298   4.562   4.952   0.020
 2800SOL    HW1 9299   4.574   5.010   0.100
 2800SOL    HW2 9300   4.474   4.904   0.026
 2801SOL     OW 9301   5.011   5.366   4.893
 2801SOL    HW1 9302   4.942   5.437   4.908
 2801SOL    HW2 9303   4.971   5.276   4.908
 2802SOL     OW 9304   4.569   2.944   6.249
 2802SOL    HW1 9305   4.522   3.030   6.232
 2802SOL    HW2 9306   4.649   2.937   6.190
 2803SOL     OW 9307   3.356   6.074   6.351
 2803SOL    HW1 9308   3.388   6.006   6.417
 2803SOL    HW2 9309   3.282   6.035   6.296
 2804SOL     OW 9310   6.845   4.756   5.070
 2804SOL    HW1 9311   6.826   4.854   5.071
 2804SOL    HW2 9312   6.769   4.708   5.025
 2805SOL     OW 9313   5.044   2.656   2.083
 2805SOL    HW1 9314   4.946   2.669   2.070
 2805SOL    HW2 9315   5.080   2.729   2.141
 2806SOL     OW 9316   0.089   5.283   4.156
 2806SOL    HW1 9317   0.020   5.211   4.154
 2806SOL    HW2 9318   0.049   5.366   4.195
 2807SOL     OW 9319   5.983   5.415   3.768
 2807SOL    HW1 9320   6.020   5.322   3.758
 2807SOL    HW2 9321   6.040   5.479   3.716
 2808SOL     OW 9322   5.249   2.788   2.764
 2808SOL    HW1 9323   5.181   2.749   2.701
 2808SOL    HW2 9324   5.255   2.887   2.750
 2809SOL     OW 9325   5.688   2.820   1.858
 2809SOL    HW1 9326   5.766   2.766   1.889
 2809SOL    HW2 9327   5.638   2.769   1.788
 2810SOL     OW 9328   3.343   6.263   3.672
 2810SOL    HW1 9329   3.267   6.222   3.723
 2810SOL    HW2 9330   3.321   6.262   3.574
 2811SOL     OW 9331   0.533   1.098   3.348
 2811SOL    HW1 9332   0.560   1.007   3.315
 2811SOL    HW2 9333   0.436   1.097   3.372
 2812SOL     OW 9334   5.319   3.281   0.231
 2812SOL    HW1 9335   5.388   3.347   0.200
 2812SOL    HW2 9336   5.266   3.320   0.306
 2813SOL     OW 9337   6.333   0.277   5.772
 2813SOL    HW1 9338   6.235   0.298   5.772
 2813SOL    HW2 9339   6.346   0.179   5.786
 2814SOL     OW 9340   4.897   3.261   6.880
 2814SOL    HW1 9341   4.973   3.215   6.926
 2814SOL    HW2 9342   4.822   3.196   6.866
 2815SOL     OW 9343   6.701   1.289   5.406
 2815SOL    HW1 9344   6.619   1.326   5.451
 2815SOL    HW2 9345   6.729   1.205   5.452
 2816SOL     OW 9346   6.680   6.040   3.477
 2816SOL    HW1 9347   6.742   6.072   3.405
 2816SOL    HW2 9348   6.591   6.021   3.437
 2817SOL     OW 9349   2.728   6.968   1.157
 2817SOL    HW1 9350   2.717   6.886   1.101
 2817SOL    HW2 9351   2.794   6.951   1.230
 2818SOL     OW 9352   0.421   0.215   6.810
 2818SOL    HW1 9353   0.474   0.210   6.895
 2818SOL    HW2 9354   0.473   0.173   6.736
 2819SOL     OW 9355   0.463   1.163   1.499
 2819SOL    HW1 9356   0.441   1.260   1.509
 2819SOL    HW2 9357   0.539   1.152   1.436
 2820SOL     OW 9358   1.330   1.814   3.143
 2820SOL    HW1 9359   1.381   1.894   3.109
 2820SOL    HW2 9360   1.379   1.775   3.221
 2821SOL     OW 9361   4.105   3.465   0.358
 2821SOL    HW1 9362   4.024   3.408   0.345
 2821SOL    HW2 9363   4.127   3.512   0.273
 2822SOL     OW 9364   4.535   2.271   6.822
 2822SOL    HW1 9365   4.565   2.344   6.884
 2822SOL    HW2 9366   4.526   2.186   6.874
 2823SOL     OW 9367   3.554   6.432   0.846
 2823SOL    HW1 9368   3.547   6.333   0.829
 2823SOL    HW2 9369   3.496   6.481   0.781
 2824SOL     OW 9370   2.862   1.042   3.967
 2824SOL    HW1 9371   2.801   1.027   4.045
 2824SOL    HW2 9372   2.946   0.989   3.980
 2825SOL     OW 9373   6.440   0.488   6.663
 2825SOL    HW1 9374   6.352   0.482   6.711
 2825SOL    HW2 9375   6.452   0.407   6.606
 2826SOL     OW 9376   5.048   1.924   0.004
 2826SOL    HW1 9377   4.977   1.990   0.029
 2826SOL    HW2 9378   5.024   1.834   0.040
 2827SOL     OW 9379   6.295   0.866   5.102
 2827SOL    HW1 9380   6.376   0.924   5.114
 2827SOL    HW2 9381   6.323   0.779   5.061
 2828SOL     OW 9382   2.625   1.225   0.475
 2828SOL    HW1 9383   2.650   1.199   0.382
 2828SOL    HW2 9384   2.646   1.321   0.490
 2829SOL     OW 9385   3.688   4.035   6.061
 2829SOL    HW1 9386   3.767   4.036   6.000
 2829SOL    HW2 9387   3.604   4.046   6.008
 2830SOL     OW 9388   0.894   3.532   6.484
 2830SOL    HW1 9389   0.866   3.438   6.504
 2830SOL    HW2 9390   0.813   3.591   6.484
 2831SOL     OW 9391   0.686   6.110   3.494
 2831SOL    HW1 9392   0.715   6.199   3.460
 2831SOL    HW2 9393   0.724   6.095   3.585
 2832SOL     OW 9394   0.905   1.001   2.210
 2832SOL    HW1 9395   0.937   1.039   2.297
 2832SOL    HW2 9396   0.920   1.067   2.137
 2833SOL     OW 9397   4.619   2.588   2.587
 2833SOL    HW1 9398   4.536   2.554   2.629
 2833SOL    HW2 9399   4.680   2.625   2.657
 2834SOL     OW 9400   2.481   6.496   5.840
 2834SOL    HW1 9401   2.432   6.424   5.889
 2834SOL    HW2 9402   2.495   6.574   5.901
 2835SOL     OW 9403   6.860   0.372   1.955
 2835SOL    HW1 9404   6.929   0.374   1.882
 2835SOL    HW2 9405   6.888   0.432   2.029
 2836SOL     OW 9406   6.047   6.903   2.140
 2836SOL    HW1 9407   6.119   6.933   2.077
 2836SOL    HW2 9408   6.006   6.819   2.105
 2837SOL     OW 9409   5.358   4.004   3.422
 2837SOL    HW1 9410   5.441   3.990   3.368
 2837SOL    HW2 9411   5.343   4.102   3.436
 2838SOL     OW 9412   1.769   4.518   0.958
 2838SOL    HW1 9413   1.783   4.504   1.056
 2838SOL    HW2 9414   1.789   4.613   0.935
 2839SOL     OW 9415   5.797   1.945   1.692
 2839SOL    HW1 9416   5.794   1.875   1.762
 2839SOL    HW2 9417   5.720   1.933   1.629
 2840SOL     OW 9418   1.444   0.724   3.637
 2840SOL    HW1 9419   1.447   0.749   3.733
 2840SOL    HW2 9420   1.400   0.796   3.585
 2841SOL     OW 9421   0.566   0.903   6.330
 2841SOL    HW1 9422   0.615   0.939   6.410
 2841SOL    HW2 9423   0.630   0.854   6.271
 2842SOL     OW 9424   6.884   3.896   4.372
 2842SOL    HW1 9425   6.940   3.909   4.454
 2842SOL    HW2 9426   6.865   3.984   4.330
 2843SOL     OW 9427   2.720   1.407   2.695
 2843SOL    HW1 9428   2.675   1.319   2.678
 2843SOL    HW2 9429   2.711   1.465   2.614
 2844SOL     OW 9430   0.830   5.654   0.698
 2844SOL    HW1 9431   0.744   5.705   0.696
 2844SOL    HW2 9432   0.879   5.675   0.782
 2845SOL     OW 9433   0.509   2.629   1.035
 2845SOL    HW1 9434   0.494   2.641   1.133
 2845SOL    HW2 9435   0.469   2.541   1.006
 2846SOL     OW 9436   4.535   0.950   6.534
 2846SOL    HW1 9437   4.630   0.930   6.559
 2846SOL    HW2 9438   4.477   0.873   6.560
 2847SOL     OW 9439   5.382   3.309   3.375
 2847SOL    HW1 9440   5.463   3.258   3.345
 2847SOL    HW2 9441   5.303   3.247   3.379
 2848SOL     OW 9442   1.476   3.239   6.404
 2848SOL    HW1 9443   1.386   3.199   6.386
 2848SOL    HW2 9444   1.547   3.184   6.359
 2849SOL     OW 9445   3.513   6.814   0.823
 2849SOL    HW1 9446   3.551   6.877   0.890
 2849SOL    HW2 9447   3.517   6.856   0.732
 2850SOL     OW 9448   3.290   6.882   2.547
 2850SOL    HW1 9449   3.353   6.811   2.518
 2850SOL    HW2 9450   3.259   6.934   2.468
 2851SOL     OW 9451   6.987   2.605   5.780
 2851SOL    HW1 9452   6.938   2.594   5.693
 2851SOL    HW2 9453   0.016   2.689   5.777
 2852SOL     OW 9454   5.906   4.151   0.148
 2852SOL    HW1 9455   5.846   4.110   0.216
 2852SOL    HW2 9456   5.995   4.105   0.149
 2853SOL     OW 9457   1.853   2.689   0.410
 2853SOL    HW1 9458   1.917   2.751   0.456
 2853SOL    HW2 9459   1.771   2.740   0.383
 2854SOL     OW 9460   4.056   1.067   5.287
 2854SOL    HW1 9461   4.068   1.166   5.279
 2854SOL    HW2 9462   4.088   1.023   5.203
 2855SOL     OW 9463   2.939   0.785   6.498
 2855SOL    HW1 9464   2.846   0.768   6.464
 2855SOL    HW2 9465   2.933   0.828   6.589
 2856SOL     OW 9466   1.818   2.644   5.858
 2856SOL    HW1 9467   1.801   2.577   5.785
 2856SOL    HW2 9468   1.859   2.597   5.936
 2857SOL     OW 9469   3.297   1.742   2.209
 2857SOL    HW1 9470   3.305   1.689   2.293
 2857SOL    HW2 9471   3.200   1.755   2.186
 2858SOL     OW 9472   5.412   3.798   2.337
 2858SOL    HW1 9473   5.355   3.867   2.291
 2858SOL    HW2 9474   5.488   3.772   2.277
 2859SOL     OW 9475   5.191   1.920   0.237
 2859SOL    HW1 9476   5.126   1.942   0.164
 2859SOL    HW2 9477   5.268   1.984   0.233
 2860SOL     OW 9478   3.695   2.092   1.311
 2860SOL    HW1 9479   3.608   2.138   1.294
 2860SOL    HW2 9480   3.727   2.113   1.403
 2861SOL     OW 9481   4.337   4.425   6.112
 2861SOL    HW1 9482   4.356   4.365   6.190
 2861SOL    HW2 9483   4.420   4.474   6.087
 2862SOL     OW 9484   5.204   1.931   3.418
 2862SOL    HW1 9485   5.197   2.017   3.369
 2862SOL    HW2 9486   5.295   1.922   3.458
 2863SOL     OW 9487   4.619   1.463   7.024
 2863SOL    HW1 9488   4.598   1.462   0.097
 2863SOL    HW2 9489   4.536   1.448   6.971
 2864SOL     OW 9490   4.273   1.526   1.216
 2864SOL    HW1 9491   4.248   1.561   1.307
 2864SOL    HW2 9492   4.372   1.529   1.205
 2865SOL     OW 9493   5.627   4.589   5.629
 2865SOL    HW1 9494   5.642   4.660   5.561
 2865SOL    HW2 9495   5.620   4.632   5.720
 2866SOL     OW 9496   6.327   6.179   6.968
 2866SOL    HW1 9497   6.284   6.231   0.018
 2866SOL    HW2 9498   6.423   6.205   6.960
 2867SOL     OW 9499   5.817   3.814   2.197
 2867SOL    HW1 9500   5.857   3.821   2.288
 2867SOL    HW2 9501   5.881   3.768   2.135
 2868SOL     OW 9502   0.096   2.690   5.494
 2868SOL    HW1 9503   0.018   2.749   5.517
 2868SOL    HW2 9504   0.172   2.747   5.464
 2869SOL     OW 9505   6.500   1.031   3.729
 2869SOL    HW1 9506   6.468   1.069   3.816
 2869SOL    HW2 9507   6.600   1.041   3.724
 2870SOL     OW 9508   0.629   1.900   4.375
 2870SOL    HW1 9509   0.643   1.999   4.377
 2870SOL    HW2 9510   0.551   1.876   4.433
 2871SOL     OW 9511   0.693   2.303   0.392
 2871SOL    HW1 9512   0.730   2.356   0.315
 2871SOL    HW2 9513   0.643   2.364   0.453
 2872SOL     OW 9514   2.786   1.479   2.965
 2872SOL    HW1 9515   2.738   1.486   2.877
 2872SOL    HW2 9516   2.880   1.510   2.954
 2873SOL     OW 9517   6.999   4.953   2.741
 2873SOL    HW1 9518   7.021   4.875   2.683
 2873SOL    HW2 9519   6.901   4.958   2.756
 2874SOL     OW 9520   3.893   6.132   3.459
 2874SOL    HW1 9521   3.904   6.222   3.501
 2874SOL    HW2 9522   3.970   6.114   3.397
 2875SOL     OW 9523   5.030   6.658   0.599
 2875SOL    HW1 9524   4.949   6.709   0.630
 2875SOL    HW2 9525   5.001   6.580   0.544
 2876SOL     OW 9526   0.859   0.260   1.991
 2876SOL    HW1 9527   0.817   0.339   1.948
 2876SOL    HW2 9528   0.817   0.176   1.956
 2877SOL     OW 9529   3.587   2.897   5.533
 2877SOL    HW1 9530   3.644   2.975   5.505
 2877SOL    HW2 9531   3.494   2.911   5.500
 2878SOL     OW 9532   4.026   4.950   4.629
 2878SOL    HW1 9533   3.962   4.959   4.706
 2878SOL    HW2 9534   4.052   5.041   4.596
 2879SOL     OW 9535   5.050   4.590   0.749
 2879SOL    HW1 9536   5.128   4.601   0.687
 2879SOL    HW2 9537   5.071   4.522   0.818
 2880SOL     OW 9538   6.318   0.020   1.261
 2880SOL    HW1 9539   6.340   0.077   1.182
 2880SOL    HW2 9540   6.225   0.039   1.291
 2881SOL     OW 9541   5.321   6.571   0.740
 2881SOL    HW1 9542   5.311   6.475   0.713
 2881SOL    HW2 9543   5.231   6.614   0.741
 2882SOL     OW 9544   0.609   4.339   2.509
 2882SOL    HW1 9545   0.578   4.336   2.604
 2882SOL    HW2 9546   0.671   4.262   2.492
 2883SOL     OW 9547   5.551   6.518   3.584
 2883SOL    HW1 9548   5.586   6.537   3.676
 2883SOL    HW2 9549   5.621   6.473   3.530
 2884SOL     OW 9550   0.573   5.430   3.354
 2884SOL    HW1 9551   0.615   5.506   3.404
 2884SOL    HW2 9552   0.548   5.461   3.262
 2885SOL     OW 9553   0.977   3.091   2.707
 2885SOL    HW1 9554   0.994   3.045   2.620
 2885SOL    HW2 9555   0.958   3.023   2.778
 2886SOL     OW 9556   2.798   4.137   6.295
 2886SOL    HW1 9557   2.754   4.109   6.209
 2886SOL    HW2 9558   2.897   4.134   6.283
 2887SOL     OW 9559   1.592   6.960   4.343
 2887SOL    HW1 9560   1.600   6.920   4.434
 2887SOL    HW2 9561   1.499   6.995   4.330
 2888SOL     OW 9562   0.773   4.456   0.278
 2888SOL    HW1 9563   0.856   4.442   0.333
 2888SOL    HW2 9564   0.798   4.472   0.183
 2889SOL     OW 9565   2.186   6.484   2.527
 2889SOL    HW1 9566   2.189   6.513   2.623
 2889SOL    HW2 9567   2.171   6.564   2.469
 2890SOL     OW 9568   2.746   7.024   0.844
 2890SOL    HW1 9569   2.766   0.048   0.759
 2890SOL    HW2 9570   2.809   0.030   0.915
 2891SOL     OW 9571   2.172   3.717   3.422
 2891SOL    HW1 9572   2.196   3.767   3.338
 2891SOL    HW2 9573   2.188   3.776   3.501
 2892SOL     OW 9574   5.422   3.642   6.877
 2892SOL    HW1 9575   5.336   3.679   6.912
 2892SOL    HW2 9576   5.473   3.715   6.829
 2893SOL     OW 9577   0.085   6.460   4.911
 2893SOL    HW1 9578   0.118   6.458   4.816
 2893SOL    HW2 9579   0.141   6.522   4.965
 2894SOL     OW 9580   3.257   3.122   0.476
 2894SOL    HW1 9581   3.178   3.176   0.446
 2894SOL    HW2 9582   3.246   3.027   0.446
 2895SOL     OW 9583   4.063   2.917   6.588
 2895SOL    HW1 9584   4.002   2.840   6.567
 2895SOL    HW2 9585   4.158   2.884   6.589
 2896SOL     OW 9586   3.464   5.225   6.873
 2896SOL    HW1 9587   3.512   5.194   6.791
 2896SOL    HW2 9588   3.504   5.181   6.954
 2897SOL     OW 9589   3.310   5.274   3.304
 2897SOL    HW1 9590   3.225   5.307   3.345
 2897SOL    HW2 9591   3.388   5.308   3.358
 2898SOL     OW 9592   4.101   5.360   3.941
 2898SOL    HW1 9593   4.024   5.415   3.971
 2898SOL    HW2 9594   4.148   5.407   3.866
 2899SOL     OW 9595   0.964   1.757   0.068
 2899SOL    HW1 9596   0.910   1.697   0.127
 2899SOL    HW2 9597   1.004   1.830   0.123
 2900SOL     OW 9598   2.140   4.915   5.611
 2900SOL    HW1 9599   2.144   4.966   5.525
 2900SOL    HW2 9600   2.214   4.945   5.671
 2901SOL     OW 9601   1.844   0.101   3.395
 2901SOL    HW1 9602   1.842   0.130   3.300
 2901SOL    HW2 9603   1.905   0.022   3.405
 2902SOL     OW 9604   5.670   6.462   1.609
 2902SOL    HW1 9605   5.585   6.498   1.648
 2902SOL    HW2 9606   5.734   6.441   1.683
 2903SOL     OW 9607   3.080   0.607   0.719
 2903SOL    HW1 9608   3.013   0.583   0.648
 2903SOL    HW2 9609   3.063   0.700   0.751
 2904SOL     OW 9610   2.032   3.489   5.481
 2904SOL    HW1 9611   1.947   3.530   5.447
 2904SOL    HW2 9612   2.080   3.555   5.539
 2905SOL     OW 9613   1.838   2.515   3.304
 2905SOL    HW1 9614   1.746   2.555   3.300
 2905SOL    HW2 9615   1.830   2.415   3.305
 2906SOL     OW 9616   5.169   5.513   2.366
 2906SOL    HW1 9617   5.172   5.610   2.341
 2906SOL    HW2 9618   5.245   5.492   2.426
 2907SOL     OW 9619   0.699   1.377   4.175
 2907SOL    HW1 9620   0.741   1.466   4.196
 2907SOL    HW2 9621   0.698   1.321   4.258
 2908SOL     OW 9622   4.497   6.764   4.329
 2908SOL    HW1 9623   4.397   6.754   4.332
 2908SOL    HW2 9624   4.531   6.734   4.240
 2909SOL     OW 9625   0.357   6.352   3.795
 2909SOL    HW1 9626   0.282   6.393   3.743
 2909SOL    HW2 9627   0.443   6.398   3.772
 2910SOL     OW 9628   4.773   6.131   4.636
 2910SOL    HW1 9629   4.863   6.087   4.648
 2910SOL    HW2 9630   4.766   6.167   4.543
 2911SOL     OW 9631   1.573   5.313   3.578
 2911SOL    HW1 9632   1.516   5.237   3.548
 2911SOL    HW2 9633   1.518   5.396   3.586
 2912SOL     OW 9634   4.270   0.022   6.476
 2912SOL    HW1 9635   4.284   0.006   6.379
 2912SOL    HW2 9636   4.178   0.060   6.491
 2913SOL     OW 9637   1.968   4.585   2.699
 2913SOL    HW1 9638   1.982   4.510   2.635
 2913SOL    HW2 9639   1.901   4.649   2.661
 2914SOL     OW 9640   5.835   6.567   5.773
 2914SOL    HW1 9641   5.925   6.523   5.776
 2914SOL    HW2 9642   5.823   6.624   5.854
 2915SOL     OW 9643   5.401   1.462   5.314
 2915SOL    HW1 9644   5.484   1.504   5.352
 2915SOL    HW2 9645   5.369   1.391   5.375
 2916SOL     OW 9646   6.583   5.957   6.337
 2916SOL    HW1 9647   6.529   5.883   6.377
 2916SOL    HW2 9648   6.611   5.931   6.244
 2917SOL     OW 9649   4.270   6.804   2.220
 2917SOL    HW1 9650   4.241   6.825   2.314
 2917SOL    HW2 9651   4.323   6.880   2.184
 2918SOL     OW 9652   6.587   3.935   3.695
 2918SOL    HW1 9653   6.650   3.858   3.706
 2918SOL    HW2 9654   6.627   4.002   3.632
 2919SOL     OW 9655   6.777   0.962   0.925
 2919SOL    HW1 9656   6.717   0.882   0.925
 2919SOL    HW2 9657   6.870   0.934   0.948
 2920SOL     OW 9658   3.049   1.896   2.426
 2920SOL    HW1 9659   3.079   1.956   2.351
 2920SOL    HW2 9660   3.078   1.936   2.513
 2921SOL     OW 9661   0.780   0.130   3.159
 2921SOL    HW1 9662   0.723   0.210   3.145
 2921SOL    HW2 9663   0.818   0.100   3.071
 2922SOL     OW 9664   5.728   0.181   0.030
 2922SOL    HW1 9665   5.734   0.211   0.125
 2922SOL    HW2 9666   5.738   0.081   0.026
 2923SOL     OW 9667   0.331   4.779   1.896
 2923SOL    HW1 9668   0.409   4.791   1.958
 2923SOL    HW2 9669   0.283   4.695   1.920
 2924SOL     OW 9670   0.775   1.548   6.899
 2924SOL    HW1 9671   0.710   1.476   6.925
 2924SOL    HW2 9672   0.833   1.571   6.977
 2925SOL     OW 9673   4.732   0.974   3.488
 2925SOL    HW1 9674   4.702   0.898   3.430
 2925SOL    HW2 9675   4.671   0.982   3.567
 2926SOL     OW 9676   0.337   1.299   4.565
 2926SOL    HW1 9677   0.386   1.212   4.576
 2926SOL    HW2 9678   0.402   1.373   4.550
 2927SOL     OW 9679   1.496   1.660   2.390
 2927SOL    HW1 9680   1.570   1.719   2.422
 2927SOL    HW2 9681   1.414   1.676   2.446
 2928SOL     OW 9682   6.920   2.161   6.278
 2928SOL    HW1 9683   6.897   2.186   6.184
 2928SOL    HW2 9684   7.019   2.169   6.291
 2929SOL     OW 9685   0.324   0.499   6.277
 2929SOL    HW1 9686   0.339   0.591   6.242
 2929SOL    HW2 9687   0.304   0.504   6.375
 2930SOL     OW 9688   3.975   6.290   4.982
 2930SOL    HW1 9689   3.887   6.333   4.961
 2930SOL    HW2 9690   4.014   6.250   4.899
 2931SOL     OW 9691   5.742   5.626   0.127
 2931SOL    HW1 9692   5.834   5.593   0.105
 2931SOL    HW2 9693   5.748   5.720   0.161
 2932SOL     OW 9694   1.667   5.378   1.833
 2932SOL    HW1 9695   1.757   5.344   1.860
 2932SOL    HW2 9696   1.596   5.321   1.875
 2933SOL     OW 9697   5.940   3.731   3.258
 2933SOL    HW1 9698   6.018   3.741   3.197
 2933SOL    HW2 9699   5.956   3.784   3.342
 2934SOL     OW 9700   4.311   1.422   0.465
 2934SOL    HW1 9701   4.273   1.371   0.388
 2934SOL    HW2 9702   4.272   1.387   0.550
 2935SOL     OW 9703   6.309   3.378   1.770
 2935SOL    HW1 9704   6.296   3.472   1.804
 2935SOL    HW2 9705   6.401   3.347   1.794
 2936SOL     OW 9706   4.385   4.994   2.267
 2936SOL    HW1 9707   4.299   4.942   2.261
 2936SOL    HW2 9708   4.389   5.040   2.356
 2937SOL     OW 9709   4.160   5.067   0.191
 2937SOL    HW1 9710   4.102   5.112   0.259
 2937SOL    HW2 9711   4.239   5.026   0.236
 2938SOL     OW 9712   5.440   4.794   5.904
 2938SOL    HW1 9713   5.448   4.762   5.998
 2938SOL    HW2 9714   5.508   4.865   5.887
 2939SOL     OW 9715   0.532   0.194   4.563
 2939SOL    HW1 9716   0.470   0.273   4.563
 2939SOL    HW2 9717   0.548   0.163   4.470
 2940SOL     OW 9718   5.959   6.507   6.556
 2940SOL    HW1 9719   5.872   6.555   6.554
 2940SOL    HW2 9720   6.031   6.566   6.520
 2941SOL     OW 9721   2.477   2.573   4.226
 2941SOL    HW1 9722   2.445   2.575   4.131
 2941SOL    HW2 9723   2.533   2.492   4.241
 2942SOL     OW 9724   2.697   2.234   1.405
 2942SOL    HW1 9725   2.793   2.249   1.429
 2942SOL    HW2 9726   2.675   2.283   1.321
 2943SOL     OW 9727   5.823   3.943   2.765
 2943SOL    HW1 9728   5.918   3.912   2.756
 2943SOL    HW2 9729   5.813   3.995   2.849
 2944SOL     OW 9730   2.593   5.912   5.295
 2944SOL    HW1 9731   2.691   5.921   5.283
 2944SOL    HW2 9732   2.547   5.994   5.261
 2945SOL     OW 9733   3.709   4.098   3.652
 2945SOL    HW1 9734   3.647   4.073   3.578
 2945SOL    HW2 9735   3.801   4.066   3.631
 2946SOL     OW 9736   1.208   5.749   6.883
 2946SOL    HW1 9737   1.149   5.713   6.955
 2946SOL    HW2 9738   1.303   5.727   6.905
 2947SOL     OW 9739   0.837   4.109   6.577
 2947SOL    HW1 9740   0.805   4.043   6.645
 2947SOL    HW2 9741   0.912   4.162   6.616
 2948SOL     OW 9742   6.894   4.901   5.464
 2948SOL    HW1 9743   6.933   4.825   5.412
 2948SOL    HW2 9744   6.948   4.915   5.547
 2949SOL     OW 9745   2.304   5.946   1.270
 2949SOL    HW1 9746   2.363   5.877   1.312
 2949SOL    HW2 9747   2.311   5.940   1.171
 2950SOL     OW 9748   4.898   3.648   4.762
 2950SOL    HW1 9749   4.839   3.728   4.750
 2950SOL    HW2 9750   4.879   3.606   4.852
 2951SOL     OW 9751   6.463   2.475   1.466
 2951SOL    HW1 9752   6.416   2.460   1.379
 2951SOL    HW2 9753   6.481   2.387   1.510
 2952SOL     OW 9754   0.845   6.145   5.429
 2952SOL    HW1 9755   0.767   6.084   5.447
 2952SOL    HW2 9756   0.812   6.229   5.387
 2953SOL     OW 9757   4.832   3.070   3.166
 2953SOL    HW1 9758   4.895   3.144   3.144
 2953SOL    HW2 9759   4.800   3.079   3.260
 2954SOL     OW 9760   1.013   5.446   1.866
 2954SOL    HW1 9761   1.083   5.396   1.814
 2954SOL    HW2 9762   1.021   5.423   1.963
 2955SOL     OW 9763   1.120   3.714   1.624
 2955SOL    HW1 9764   1.076   3.727   1.535
 2955SOL    HW2 9765   1.051   3.718   1.696
 2956SOL     OW 9766   6.107   6.292   3.012
 2956SOL    HW1 9767   6.024   6.344   2.991
 2956SOL    HW2 9768   6.171   6.350   3.062
 2957SOL     OW 9769   6.422   3.116   1.959
 2957SOL    HW1 9770   6.353   3.148   2.024
 2957SOL    HW2 9771   6.381   3.049   1.898
 2958SOL     OW 9772   2.454   4.454   4.651
 2958SOL    HW1 9773   2.444   4.464   4.750
 2958SOL    HW2 9774   2.492   4.537   4.612
 2959SOL     OW 9775   4.361   4.603   0.551
 2959SOL    HW1 9776   4.446   4.566   0.515
 2959SOL    HW2 9777   4.285   4.572   0.493
 2960SOL     OW 9778   3.743   6.978   6.438
 2960SOL    HW1 9779   3.690   7.001   6.520
 2960SOL    HW2 9780   3.776   0.037   6.395
 2961SOL     OW 9781   5.004   2.587   4.461
 2961SOL    HW1 9782   5.044   2.608   4.550
 2961SOL    HW2 9783   4.927   2.523   4.473
 2962SOL     OW 9784   4.556   0.474   3.858
 2962SOL    HW1 9785   4.559   0.407   3.932
 2962SOL    HW2 9786   4.462   0.482   3.825
 2963SOL     OW 9787   2.376   1.303   5.932
 2963SOL    HW1 9788   2.307   1.235   5.909
 2963SOL    HW2 9789   2.364   1.332   6.028
 2964SOL     OW 9790   0.368   0.383   2.191
 2964SOL    HW1 9791   0.419   0.468   2.184
 2964SOL    HW2 9792   0.327   0.376   2.283
 2965SOL     OW 9793   0.285   1.232   4.851
 2965SOL    HW1 9794   0.290   1.244   4.752
 2965SOL    HW2 9795   0.377   1.215   4.887
 2966SOL     OW 9796   5.550   5.310   4.678
 2966SOL    HW1 9797   5.566   5.349   4.588
 2966SOL    HW2 9798   5.529   5.384   4.743
 2967SOL     OW 9799   6.290   2.398   4.519
 2967SOL    HW1 9800   6.301   2.312   4.468
 2967SOL    HW2 9801   6.281   2.473   4.454
 2968SOL     OW 9802   1.149   3.744   6.437
 2968SOL    HW1 9803   1.226   3.692   6.401
 2968SOL    HW2 9804   1.082   3.680   6.476
 2969SOL     OW 9805   6.202   1.599   4.402
 2969SOL    HW1 9806   6.227   1.504   4.421
 2969SOL    HW2 9807   6.122   1.602   4.341
 2970SOL     OW 9808   1.166   3.925   6.656
 2970SOL    HW1 9809   1.067   3.915   6.669
 2970SOL    HW2 9810   1.195   3.871   6.577
 2971SOL     OW 9811   6.109   3.281   6.098
 2971SOL    HW1 9812   6.155   3.234   6.174
 2971SOL    HW2 9813   6.177   3.333   6.046
 2972SOL     OW 9814   6.707   4.806   6.147
 2972SOL    HW1 9815   6.729   4.823   6.243
 2972SOL    HW2 9816   6.742   4.717   6.119
 2973SOL     OW 9817   5.770   1.183   4.271
 2973SOL    HW1 9818   5.690   1.180   4.331
 2973SOL    HW2 9819   5.823   1.266   4.291
 2974SOL     OW 9820   0.837   3.869   2.655
 2974SOL    HW1 9821   0.850   3.945   2.591
 2974SOL    HW2 9822   0.903   3.797   2.634
 2975SOL     OW 9823   0.461   2.591   4.822
 2975SOL    HW1 9824   0.447   2.508   4.767
 2975SOL    HW2 9825   0.541   2.640   4.788
 2976SOL     OW 9826   4.377   1.626   3.084
 2976SOL    HW1 9827   4.433   1.554   3.042
 2976SOL    HW2 9828   4.290   1.633   3.035
 2977SOL     OW 9829   1.453   6.400   3.924
 2977SOL    HW1 9830   1.397   6.317   3.922
 2977SOL    HW2 9831   1.410   6.470   3.866
 2978SOL     OW 9832   4.246   4.962   6.513
 2978SOL    HW1 9833   4.344   4.970   6.527
 2978SOL    HW2 9834   4.226   4.873   6.471
 2979SOL     OW 9835   4.999   6.714   4.528
 2979SOL    HW1 9836   5.087   6.762   4.527
 2979SOL    HW2 9837   5.000   6.644   4.600
 2980SOL     OW 9838   0.838   5.837   3.642
 2980SOL    HW1 9839   0.900   5.797   3.710
 2980SOL    HW2 9840   0.824   5.934   3.662
 2981SOL     OW 9841   1.158   1.330   5.770
 2981SOL    HW1 9842   1.071   1.364   5.804
 2981SOL    HW2 9843   1.232   1.392   5.799
 2982SOL     OW 9844   4.964   5.807   3.079
 2982SOL    HW1 9845   4.965   5.754   3.164
 2982SOL    HW2 9846   5.047   5.862   3.073
 2983SOL     OW 9847   0.947   1.673   4.027
 2983SOL    HW1 9848   0.935   1.626   3.940
 2983SOL    HW2 9849   0.982   1.765   4.011
 2984SOL     OW 9850   5.084   5.550   1.650
 2984SOL    HW1 9851   5.152   5.595   1.592
 2984SOL    HW2 9852   5.085   5.451   1.632
 2985SOL     OW 9853   1.165   2.837   5.351
 2985SOL    HW1 9854   1.216   2.914   5.312
 2985SOL    HW2 9855   1.078   2.827   5.302
 2986SOL     OW 9856   2.242   3.904   6.037
 2986SOL    HW1 9857   2.273   3.809   6.039
 2986SOL    HW2 9858   2.195   3.923   5.951
 2987SOL     OW 9859   5.420   0.814   3.930
 2987SOL    HW1 9860   5.431   0.738   3.994
 2987SOL    HW2 9861   5.352   0.878   3.965
 2988SOL     OW 9862   0.716   6.426   2.888
 2988SOL    HW1 9863   0.655   6.442   2.966
 2988SOL    HW2 9864   0.808   6.456   2.910
 2989SOL     OW 9865   6.524   6.255   0.691
 2989SOL    HW1 9866   6.578   6.338   0.681
 2989SOL    HW2 9867   6.448   6.272   0.754
 2990SOL     OW 9868   4.432   1.190   3.707
 2990SOL    HW1 9869   4.413   1.200   3.804
 2990SOL    HW2 9870   4.347   1.175   3.657
 2991SOL     OW 9871   6.831   3.954   6.669
 2991SOL    HW1 9872   6.894   4.029   6.689
 2991SOL    HW2 9873   6.874   3.890   6.606
 2992SOL     OW 9874   2.099   4.875   6.014
 2992SOL    HW1 9875   2.103   4.967   6.054
 2992SOL    HW2 9876   2.191   4.849   5.984
 2993SOL     OW 9877   0.982   5.086   1.684
 2993SOL    HW1 9878   0.889   5.112   1.710
 2993SOL    HW2 9879   0.983   5.062   1.587
 2994SOL     OW 9880   3.805   0.261   0.444
 2994SOL    HW1 9881   3.829   0.356   0.468
 2994SOL    HW2 9882   3.866   0.199   0.493
 2995SOL     OW 9883   1.553   3.553   6.643
 2995SOL    HW1 9884   1.603   3.632   6.680
 2995SOL    HW2 9885   1.577   3.541   6.547
 2996SOL     OW 9886   2.432   6.723   3.470
 2996SOL    HW1 9887   2.378   6.705   3.552
 2996SOL    HW2 9888   2.389   6.796   3.417
 2997SOL     OW 9889   5.097   0.147   2.165
 2997SOL    HW1 9890   5.169   0.080   2.145
 2997SOL    HW2 9891   5.137   0.238   2.173
 2998SOL     OW 9892   5.593   6.360   4.909
 2998SOL    HW1 9893   5.637   6.419   4.977
 2998SOL    HW2 9894   5.494   6.377   4.910
 2999SOL     OW 9895   3.400   4.903   4.134
 2999SOL    HW1 9896   3.342   4.984   4.123
 2999SOL    HW2 9897   3.483   4.928   4.185
 3000SOL     OW 9898   2.043   4.056   6.609
 3000SOL    HW1 9899   1.958   4.071   6.661
 3000SOL    HW2 9900   2.039   4.108   6.524
 3001SOL     OW 9901   5.848   5.721   6.838
 3001SOL    HW1 9902   5.894   5.810   6.832
 3001SOL    HW2 9903   5.885   5.671   6.916
 3002SOL     OW 9904   4.137   0.365   6.047
 3002SOL    HW1 9905   4.153   0.295   5.977
 3002SOL    HW2 9906   4.039   0.385   6.052
 3003SOL     OW 9907   2.215   0.081   6.613
 3003SOL    HW1 9908   2.241   0.128   6.697
 3003SOL    HW2 9909   2.284   0.013   6.590
 3004SOL     OW 9910   1.220   5.440   3.872
 3004SOL    HW1 9911   1.176   5.426   3.961
 3004SOL    HW2 9912   1.175   5.383   3.804
 3005SOL     OW 9913   3.056   2.621   0.294
 3005SOL    HW1 9914   2.967   2.641   0.252
 3005SOL    HW2 9915   3.108   2.560   0.234
 3006SOL     OW 9916   5.669   2.166   6.694
 3006SOL    HW1 9917   5.737   2.098   6.722
 3006SOL    HW2 9918   5.595   2.168   6.761
 3007SOL     OW 9919   5.998   4.938   1.800
 3007SOL    HW1 9920   6.057   4.969   1.726
 3007SOL    HW2 9921   6.034   4.853   1.838
 3008SOL     OW 9922   3.424   0.707   6.578
 3008SOL    HW1 9923   3.466   0.639   6.638
 3008SOL    HW2 9924   3.325   0.697   6.581
 3009SOL     OW 9925   0.212   6.708   3.133
 3009SOL    HW1 9926   0.203   6.802   3.100
 3009SOL    HW2 9927   0.244   6.649   3.059
 3010SOL     OW 9928   3.366   6.687   3.483
 3010SOL    HW1 9929   3.302   6.669   3.557
 3010SOL    HW2 9930   3.460   6.672   3.515
 3011SOL     OW 9931   5.750   1.682   0.422
 3011SOL    HW1 9932   5.715   1.589   0.409
 3011SOL    HW2 9933   5.820   1.682   0.493
 3012SOL     OW 9934   0.940   3.636   5.185
 3012SOL    HW1 9935   0.876   3.702   5.221
 3012SOL    HW2 9936   0.936   3.637   5.085
 3013SOL     OW 9937   5.243   5.595   4.929
 3013SOL    HW1 9938   5.193   5.514   4.961
 3013SOL    HW2 9939   5.253   5.660   5.004
 3014SOL     OW 9940   5.064   3.200   4.409
 3014SOL    HW1 9941   5.085   3.273   4.344
 3014SOL    HW2 9942   5.058   3.238   4.501
 3015SOL     OW 9943   2.795   2.396   0.375
 3015SOL    HW1 9944   2.891   2.372   0.391
 3015SOL    HW2 9945   2.736   2.324   0.411
 3016SOL     OW 9946   2.849   5.709   3.865
 3016SOL    HW1 9947   2.859   5.781   3.933
 3016SOL    HW2 9948   2.775   5.647   3.892
 3017SOL     OW 9949   1.255   5.252   2.089
 3017SOL    HW1 9950   1.240   5.161   2.051
 3017SOL    HW2 9951   1.192   5.267   2.165
 3018SOL     OW 9952   2.050   6.963   5.109
 3018SOL    HW1 9953   2.103   6.885   5.075
 3018SOL    HW2 9954   1.957   6.933   5.131
 3019SOL     OW 9955   2.260   6.747   0.155
 3019SOL    HW1 9956   2.176   6.761   0.206
 3019SOL    HW2 9957   2.321   6.686   0.206
 3020SOL     OW 9958   3.655   3.901   1.690
 3020SOL    HW1 9959   3.683   3.831   1.624
 3020SOL    HW2 9960   3.629   3.857   1.776
 3021SOL     OW 9961   3.359   0.662   6.976
 3021SOL    HW1 9962   3.344   0.593   0.023
 3021SOL    HW2 9963   3.402   0.620   6.896
 3022SOL     OW 9964   4.163   5.555   3.746
 3022SOL    HW1 9965   4.147   5.549   3.647
 3022SOL    HW2 9966   4.079   5.585   3.791
 3023SOL     OW 9967   4.845   0.263   2.056
 3023SOL    HW1 9968   4.821   0.225   1.967
 3023SOL    HW2 9969   4.909   0.201   2.102
 3024SOL     OW 9970   3.729   6.723   5.807
 3024SOL    HW1 9971   3.780   6.642   5.837
 3024SOL    HW2 9972   3.656   6.742   5.873
 3025SOL     OW 9973   4.046   1.911   0.399
 3025SOL    HW1 9974   4.057   1.833   0.338
 3025SOL    HW2 9975   3.956   1.953   0.383
 3026SOL     OW 9976   1.923   1.575   0.707
 3026SOL    HW1 9977   1.964   1.665   0.727
 3026SOL    HW2 9978   1.995   1.510   0.683
 3027SOL     OW 9979   4.250   0.452   2.142
 3027SOL    HW1 9980   4.171   0.511   2.155
 3027SOL    HW2 9981   4.276   0.452   2.045
 3028SOL     OW 9982   1.969   3.762   5.879
 3028SOL    HW1 9983   1.946   3.856   5.903
 3028SOL    HW2 9984   2.054   3.761   5.828
 3029SOL     OW 9985   0.348   4.672   4.814
 3029SOL    HW1 9986   0.256   4.676   4.851
 3029SOL    HW2 9987   0.344   4.656   4.715
 3030SOL     OW 9988   0.978   2.656   5.930
 3030SOL    HW1 9989   1.076   2.659   5.910
 3030SOL    HW2 9990   0.932   2.594   5.865
 3031SOL     OW 9991   0.171   3.286   0.923
 3031SOL    HW1 9992   0.153   3.194   0.957
 3031SOL    HW2 9993   0.268   3.307   0.933
 3032SOL     OW 9994   4.749   6.659   1.594
 3032SOL    HW1 9995   4.695   6.585   1.635
 3032SOL    HW2 9996   4.794   6.711   1.666
 3033SOL     OW 9997   0.132   2.424   1.361
 3033SOL    HW1 9998   0.047   2.440   1.311
 3033SOL    HW2 9999   0.209   2.418   1.297
 3034SOL     OW10000   1.880   5.666   3.416
 3034SOL    HW110001   1.970   5.623   3.407
 3034SOL    HW210002   1.881   5.754   3.368
 3035SOL     OW10003   6.959   3.094   0.314
 3035SOL    HW110004   6.969   3.033   0.236
 3035SOL    HW210005   6.924   3.182   0.284
 3036SOL     OW10006   1.688   2.911   5.889
 3036SOL    HW110007   1.772   2.955   5.921
 3036SOL    HW210008   1.709   2.817   5.860
 3037SOL     OW10009   0.505   5.761   4.371
 3037SOL    HW110010   0.528   5.734   4.277
 3037SOL    HW210011   0.452   5.845   4.370
 3038SOL     OW10012   5.728   6.022   6.457
 3038SOL    HW110013   5.785   5.965   6.515
 3038SOL    HW210014   5.669   6.080   6.514
 3039SOL     OW10015   0.022   3.551   1.786
 3039SOL    HW110016   6.964   3.576   1.735
 3039SOL    HW210017   0.064   3.471   1.744
 3040SOL     OW10018   4.770   3.376   6.365
 3040SOL    HW110019   4.793   3.380   6.462
 3040SOL    HW210020   4.799   3.460   6.320
 3041SOL     OW10021   2.182   3.127   4.983
 3041SOL    HW110022   2.255   3.062   5.004
 3041SOL    HW210023   2.202   3.215   5.026
 3042SOL     OW10024   5.380   6.948   1.594
 3042SOL    HW110025   5.281   6.940   1.607
 3042SOL    HW210026   5.416   6.860   1.562
 3043SOL     OW10027   0.801   5.563   1.541
 3043SOL    HW110028   0.850   5.531   1.460
 3043SOL    HW210029   0.866   5.606   1.604
 3044SOL     OW10030   3.060   4.591   6.233
 3044SOL    HW110031   3.011   4.506   6.213
 3044SOL    HW210032   3.019   4.666   6.180
 3045SOL     OW10033   5.016   1.278   3.185
 3045SOL    HW110034   5.043   1.183   3.196
 3045SOL    HW210035   4.917   1.283   3.173
 3046SOL     OW10036   2.619   1.887   0.052
 3046SOL    HW110037   2.685   1.893   0.126
 3046SOL    HW210038   2.605   1.978   0.012
 3047SOL     OW10039   5.573   6.600   2.377
 3047SOL    HW110040   5.498   6.581   2.440
 3047SOL    HW210041   5.607   6.692   2.393
 3048SOL     OW10042   3.840   2.722   1.573
 3048SOL    HW110043   3.855   2.769   1.486
 3048SOL    HW210044   3.839   2.789   1.647
 3049SOL     OW10045   1.187   6.450   1.914
 3049SOL    HW110046   1.124   6.408   1.848
 3049SOL    HW210047   1.208   6.543   1.885
 3050SOL     OW10048   3.609   0.952   2.637
 3050SOL    HW110049   3.529   0.897   2.662
 3050SOL    HW210050   3.601   0.978   2.541
 3051SOL     OW10051   2.380   3.671   6.642
 3051SOL    HW110052   2.397   3.748   6.704
 3051SOL    HW210053   2.425   3.688   6.555
 3052SOL     OW10054   4.770   0.389   2.312
 3052SOL    HW110055   4.746   0.359   2.220
 3052SOL    HW210056   4.703   0.456   2.343
 3053SOL     OW10057   0.201   1.516   6.472
 3053SOL    HW110058   0.300   1.515   6.487
 3053SOL    HW210059   0.178   1.452   6.399
 3054SOL     OW10060   6.644   2.587   1.291
 3054SOL    HW110061   6.704   2.513   1.261
 3054SOL    HW210062   6.600   2.561   1.377
 3055SOL     OW10063   4.887   6.508   3.888
 3055SOL    HW110064   4.982   6.500   3.919
 3055SOL    HW210065   4.877   6.591   3.833
 3056SOL     OW10066   6.687   1.643   5.736
 3056SOL    HW110067   6.609   1.629   5.798
 3056SOL    HW210068   6.758   1.576   5.757
 3057SOL     OW10069   4.107   5.858   3.913
 3057SOL    HW110070   4.111   5.885   3.817
 3057SOL    HW210071   4.036   5.788   3.926
 3058SOL     OW10072   6.829   5.793   1.175
 3058SOL    HW110073   6.841   5.855   1.253
 3058SOL    HW210074   6.804   5.702   1.208
 3059SOL     OW10075   2.281   2.333   4.128
 3059SOL    HW110076   2.273   2.239   4.160
 3059SOL    HW210077   2.354   2.339   4.059
 3060SOL     OW10078   1.039   6.111   0.539
 3060SOL    HW110079   1.005   6.170   0.466
 3060SOL    HW210080   0.990   6.131   0.624
 3061SOL     OW10081   5.827   0.625   5.261
 3061SOL    HW110082   5.826   0.714   5.214
 3061SOL    HW210083   5.908   0.619   5.319
 3062SOL     OW10084   1.682   6.919   6.871
 3062SOL    HW110085   1.778   6.893   6.881
 3062SOL    HW210086   1.637   6.858   6.806
 3063SOL     OW10087   2.654   5.458   2.157
 3063SOL    HW110088   2.666   5.422   2.249
 3063SOL    HW210089   2.713   5.409   2.093
 3064SOL     OW10090   5.417   3.579   4.098
 3064SOL    HW110091   5.331   3.528   4.107
 3064SOL    HW210092   5.398   3.668   4.058
 3065SOL     OW10093   2.222   0.628   6.808
 3065SOL    HW110094   2.296   0.614   6.872
 3065SOL    HW210095   2.180   0.718   6.824
 3066SOL     OW10096   4.798   5.185   0.522
 3066SOL    HW110097   4.768   5.091   0.537
 3066SOL    HW210098   4.887   5.199   0.566
 3067SOL     OW10099   3.967   2.133   4.518
 3067SOL    HW110100   3.908   2.158   4.441
 3067SOL    HW210101   3.932   2.174   4.602
 3068SOL     OW10102   5.279   6.103   0.878
 3068SOL    HW110103   5.205   6.038   0.861
 3068SOL    HW210104   5.277   6.132   0.974
 3069SOL     OW10105   6.548   6.296   1.903
 3069SOL    HW110106   6.550   6.370   1.971
 3069SOL    HW210107   6.462   6.245   1.912
 3070SOL     OW10108   1.032   1.025   2.484
 3070SOL    HW110109   0.962   0.965   2.521
 3070SOL    HW210110   1.007   1.120   2.501
 3071SOL     OW10111   5.702   5.971   3.614
 3071SOL    HW110112   5.713   6.061   3.656
 3071SOL    HW210113   5.775   5.911   3.644
 3072SOL     OW10114   1.459   6.548   0.706
 3072SOL    HW110115   1.441   6.591   0.618
 3072SOL    HW210116   1.533   6.596   0.753
 3073SOL     OW10117   0.078   3.533   5.369
 3073SOL    HW110118   0.006   3.471   5.399
 3073SOL    HW210119   0.038   3.608   5.316
 3074SOL     OW10120   5.135   3.036   0.544
 3074SOL    HW110121   5.035   3.025   0.540
 3074SOL    HW210122   5.165   3.028   0.639
 3075SOL     OW10123   2.008   6.035   1.644
 3075SOL    HW110124   1.991   6.116   1.701
 3075SOL    HW210125   2.032   5.958   1.702
 3076SOL     OW10126   0.079   1.205   4.591
 3076SOL    HW110127   0.163   1.253   4.566
 3076SOL    HW210128   0.008   1.223   4.523
 3077SOL     OW10129   5.073   5.636   2.654
 3077SOL    HW110130   5.100   5.685   2.571
 3077SOL    HW210131   5.014   5.695   2.709
 3078SOL     OW10132   1.281   3.273   1.292
 3078SOL    HW110133   1.376   3.300   1.309
 3078SOL    HW210134   1.230   3.275   1.377
 3079SOL     OW10135   2.491   2.129   4.720
 3079SOL    HW110136   2.437   2.173   4.792
 3079SOL    HW210137   2.430   2.076   4.661
 3080SOL     OW10138   4.993   4.411   3.529
 3080SOL    HW110139   5.031   4.336   3.582
 3080SOL    HW210140   4.904   4.383   3.491
 3081SOL     OW10141   0.186   2.320   6.086
 3081SOL    HW110142   0.115   2.371   6.135
 3081SOL    HW210143   0.276   2.359   6.108
 3082SOL     OW10144   3.432   7.022   3.716
 3082SOL    HW110145   3.511   0.053   3.743
 3082SOL    HW210146   3.373   0.050   3.656
 3083SOL     OW10147   4.344   6.014   3.606
 3083SOL    HW110148   4.415   5.968   3.553
 3083SOL    HW210149   4.385   6.057   3.687
 3084SOL     OW10150   4.802   4.048   4.609
 3084SOL    HW110151   4.878   4.062   4.546
 3084SOL    HW210152   4.746   4.131   4.613
 3085SOL     OW10153   0.663   4.717   1.888
 3085SOL    HW110154   0.635   4.751   1.799
 3085SOL    HW210155   0.745   4.660   1.878
 3086SOL     OW10156   3.960   1.835   1.838
 3086SOL    HW110157   4.025   1.892   1.788
 3086SOL    HW210158   3.875   1.885   1.851
 3087SOL     OW10159   1.198   5.082   3.935
 3087SOL    HW110160   1.229   5.061   3.842
 3087SOL    HW210161   1.244   5.165   3.967
 3088SOL     OW10162   2.434   4.955   5.807
 3088SOL    HW110163   2.364   5.022   5.783
 3088SOL    HW210164   2.405   4.902   5.887
 3089SOL     OW10165   1.076   3.063   0.644
 3089SOL    HW110166   1.120   3.123   0.578
 3089SOL    HW210167   1.138   2.988   0.668
 3090SOL     OW10168   1.932   2.076   1.936
 3090SOL    HW110169   1.952   2.057   2.032
 3090SOL    HW210170   1.844   2.123   1.929
 3091SOL     OW10171   1.438   0.047   0.174
 3091SOL    HW110172   1.498   7.015   0.231
 3091SOL    HW210173   1.488   0.078   0.093
 3092SOL     OW10174   4.915   6.758   0.256
 3092SOL    HW110175   4.863   6.718   0.180
 3092SOL    HW210176   4.995   6.807   0.220
 3093SOL     OW10177   5.318   5.732   5.756
 3093SOL    HW110178   5.224   5.752   5.729
 3093SOL    HW210179   5.354   5.806   5.812
 3094SOL     OW10180   2.947   6.716   4.329
 3094SOL    HW110181   2.867   6.667   4.295
 3094SOL    HW210182   2.918   6.795   4.383
 3095SOL     OW10183   2.271   5.911   4.315
 3095SOL    HW110184   2.331   5.978   4.360
 3095SOL    HW210185   2.176   5.927   4.341
 3096SOL     OW10186   0.937   0.224   4.719
 3096SOL    HW110187   0.846   0.194   4.748
 3096SOL    HW210188   0.940   0.324   4.718
 3097SOL     OW10189   0.439   2.163   1.065
 3097SOL    HW110190   0.532   2.134   1.043
 3097SOL    HW210191   0.385   2.085   1.094
 3098SOL     OW10192   2.399   3.332   0.992
 3098SOL    HW110193   2.465   3.334   0.917
 3098SOL    HW210194   2.367   3.425   1.010
 3099SOL     OW10195   0.347   5.938   4.522
 3099SOL    HW110196   0.332   6.029   4.483
 3099SOL    HW210197   0.269   5.914   4.579
 3100SOL     OW10198   6.730   7.000   4.621
 3100SOL    HW110199   6.721   6.982   4.719
 3100SOL    HW210200   6.804   6.944   4.583
 3101SOL     OW10201   5.377   6.009   5.853
 3101SOL    HW110202   5.381   6.061   5.768
 3101SOL    HW210203   5.420   6.061   5.927
 3102SOL     OW10204   0.607   5.065   2.853
 3102SOL    HW110205   0.518   5.034   2.888
 3102SOL    HW210206   0.600   5.083   2.755
 3103SOL     OW10207   3.474   0.868   1.624
 3103SOL    HW110208   3.398   0.933   1.621
 3103SOL    HW210209   3.530   0.878   1.542
 3104SOL     OW10210   4.924   6.513   5.306
 3104SOL    HW110211   4.968   6.602   5.306
 3104SOL    HW210212   4.881   6.496   5.394
 3105SOL     OW10213   6.148   4.623   2.124
 3105SOL    HW110214   6.134   4.524   2.132
 3105SOL    HW210215   6.096   4.658   2.046
 3106SOL     OW10216   6.032   0.765   2.923
 3106SOL    HW110217   5.995   0.676   2.948
 3106SOL    HW210218   5.958   0.832   2.917
 3107SOL     OW10219   4.280   0.729   4.152
 3107SOL    HW110220   4.216   0.718   4.228
 3107SOL    HW210221   4.229   0.727   4.066
 3108SOL     OW10222   1.488   0.325   4.434
 3108SOL    HW110223   1.473   0.227   4.443
 3108SOL    HW210224   1.499   0.365   4.525
 3109SOL     OW10225   5.607   5.590   2.485
 3109SOL    HW110226   5.707   5.599   2.483
 3109SOL    HW210227   5.577   5.530   2.412
 3110SOL     OW10228   1.423   1.715   3.403
 3110SOL    HW110229   1.373   1.801   3.412
 3110SOL    HW210230   1.519   1.734   3.382
 3111SOL     OW10231   6.523   5.842   3.994
 3111SOL    HW110232   6.582   5.822   4.072
 3111SOL    HW210233   6.468   5.923   4.013
 3112SOL     OW10234   5.031   2.462   6.228
 3112SOL    HW110235   5.100   2.533   6.227
 3112SOL    HW210236   5.010   2.437   6.323
 3113SOL     OW10237   1.723   6.408   3.973
 3113SOL    HW110238   1.771   6.468   4.037
 3113SOL    HW210239   1.626   6.433   3.970
 3114SOL     OW10240   4.122   2.077   6.697
 3114SOL    HW110241   4.090   2.018   6.623
 3114SOL    HW210242   4.152   2.165   6.660
 3115SOL     OW10243   4.723   3.496   6.926
 3115SOL    HW110244   4.658   3.425   6.900
 3115SOL    HW210245   4.803   3.454   6.969
 3116SOL     OW10246   7.022   3.599   0.112
 3116SOL    HW110247   0.051   3.682   0.128
 3116SOL    HW210248   6.977   3.571   0.197
 3117SOL     OW10249   4.652   3.799   5.368
 3117SOL    HW110250   4.660   3.893   5.336
 3117SOL    HW210251   4.675   3.736   5.294
 3118SOL     OW10252   0.311   4.822   0.185
 3118SOL    HW110253   0.322   4.755   0.257
 3118SOL    HW210254   0.383   4.891   0.192
 3119SOL     OW10255   1.886   3.374   5.679
 3119SOL    HW110256   1.948   3.385   5.602
 3119SOL    HW210257   1.792   3.387   5.648
 3120SOL     OW10258   3.051   6.947   4.196
 3120SOL    HW110259   3.016   6.860   4.231
 3120SOL    HW210260   3.143   6.932   4.158
 3121SOL     OW10261   0.347   1.738   2.507
 3121SOL    HW110262   0.274   1.801   2.532
 3121SOL    HW210263   0.412   1.730   2.583
 3122SOL     OW10264   2.867   6.093   5.759
 3122SOL    HW110265   2.773   6.082   5.726
 3122SOL    HW210266   2.898   6.186   5.741
 3123SOL     OW10267   2.980   0.450   4.197
 3123SOL    HW110268   2.977   0.428   4.100
 3123SOL    HW210269   3.040   0.385   4.244
 3124SOL     OW10270   4.138   6.609   4.590
 3124SOL    HW110271   4.058   6.557   4.559
 3124SOL    HW210272   4.221   6.554   4.578
 3125SOL     OW10273   6.398   2.010   5.199
 3125SOL    HW110274   6.444   1.932   5.241
 3125SOL    HW210275   6.455   2.046   5.125
 3126SOL     OW10276   4.854   5.206   6.339
 3126SOL    HW110277   4.900   5.164   6.261
 3126SOL    HW210278   4.755   5.202   6.325
 3127SOL     OW10279   0.872   2.242   3.092
 3127SOL    HW110280   0.809   2.293   3.034
 3127SOL    HW210281   0.820   2.198   3.166
 3128SOL     OW10282   1.971   6.985   6.527
 3128SOL    HW110283   1.896   7.010   6.588
 3128SOL    HW210284   2.058   7.014   6.566
 3129SOL     OW10285   1.064   4.274   6.681
 3129SOL    HW110286   1.150   4.248   6.637
 3129SOL    HW210287   1.067   4.249   6.778
 3130SOL     OW10288   1.968   4.212   1.822
 3130SOL    HW110289   2.043   4.211   1.888
 3130SOL    HW210290   1.904   4.138   1.844
 3131SOL     OW10291   0.518   2.716   1.908
 3131SOL    HW110292   0.611   2.754   1.907
 3131SOL    HW210293   0.522   2.617   1.897
 3132SOL     OW10294   4.806   4.891   5.981
 3132SOL    HW110295   4.906   4.892   5.974
 3132SOL    HW210296   4.766   4.874   5.891
 3133SOL     OW10297   3.251   2.021   3.144
 3133SOL    HW110298   3.346   1.999   3.167
 3133SOL    HW210299   3.247   2.052   3.049
 3134SOL     OW10300   4.661   4.881   1.480
 3134SOL    HW110301   4.712   4.808   1.526
 3134SOL    HW210302   4.661   4.864   1.381
 3135SOL     OW10303   5.100   0.877   5.161
 3135SOL    HW110304   5.091   0.869   5.062
 3135SOL    HW210305   5.129   0.970   5.184
 3136SOL     OW10306   5.356   0.313   6.662
 3136SOL    HW110307   5.380   0.310   6.759
 3136SOL    HW210308   5.272   0.366   6.650
 3137SOL     OW10309   6.113   0.722   3.500
 3137SOL    HW110310   6.203   0.750   3.465
 3137SOL    HW210311   6.099   0.625   3.482
 3138SOL     OW10312   6.547   2.151   3.770
 3138SOL    HW110313   6.536   2.249   3.753
 3138SOL    HW210314   6.641   2.124   3.747
 3139SOL     OW10315   4.655   6.947   0.480
 3139SOL    HW110316   4.624   6.852   0.476
 3139SOL    HW210317   4.648   6.988   0.388
 3140SOL     OW10318   5.999   6.901   6.735
 3140SOL    HW110319   6.030   6.833   6.668
 3140SOL    HW210320   5.949   6.856   6.808
 3141SOL     OW10321   0.818   6.320   6.070
 3141SOL    HW110322   0.770   6.265   6.138
 3141SOL    HW210323   0.792   6.290   5.979
 3142SOL     OW10324   4.537   6.410   1.560
 3142SOL    HW110325   4.502   6.485   1.504
 3142SOL    HW210326   4.616   6.369   1.515
 3143SOL     OW10327   0.498   2.624   6.553
 3143SOL    HW110328   0.592   2.645   6.528
 3143SOL    HW210329   0.467   2.691   6.621
 3144SOL     OW10330   2.913   4.040   0.824
 3144SOL    HW110331   2.952   3.958   0.782
 3144SOL    HW210332   2.985   4.093   0.868
 3145SOL     OW10333   1.509   4.818   2.737
 3145SOL    HW110334   1.533   4.911   2.709
 3145SOL    HW210335   1.428   4.788   2.686
 3146SOL     OW10336   1.396   6.903   3.100
 3146SOL    HW110337   1.302   6.898   3.065
 3146SOL    HW210338   1.420   6.998   3.118
 3147SOL     OW10339   3.973   5.238   0.046
 3147SOL    HW110340   4.006   5.205   0.135
 3147SOL    HW210341   3.977   5.164   7.004
 3148SOL     OW10342   5.241   5.567   4.639
 3148SOL    HW110343   5.216   5.576   4.735
 3148SOL    HW210344   5.337   5.595   4.627
 3149SOL     OW10345   3.210   0.682   5.346
 3149SOL    HW110346   3.258   0.656   5.430
 3149SOL    HW210347   3.276   0.689   5.272
 3150SOL     OW10348   6.200   5.541   4.105
 3150SOL    HW110349   6.273   5.493   4.153
 3150SOL    HW210350   6.239   5.614   4.049
 3151SOL     OW10351   3.749   0.622   6.575
 3151SOL    HW110352   3.700   0.629   6.488
 3151SOL    HW210353   3.846   0.609   6.558
 3152SOL     OW10354   1.491   5.099   1.646
 3152SOL    HW110355   1.575   5.086   1.593
 3152SOL    HW210356   1.445   5.011   1.658
 3153SOL     OW10357   6.574   4.407   1.620
 3153SOL    HW110358   6.665   4.445   1.637
 3153SOL    HW210359   6.577   4.349   1.538
 3154SOL     OW10360   6.166   1.676   0.212
 3154SOL    HW110361   6.145   1.592   0.162
 3154SOL    HW210362   6.247   1.661   0.269
 3155SOL     OW10363   6.748   5.208   1.278
 3155SOL    HW110364   6.725   5.115   1.250
 3155SOL    HW210365   6.696   5.231   1.361
 3156SOL     OW10366   3.567   2.901   3.703
 3156SOL    HW110367   3.584   2.879   3.607
 3156SOL    HW210368   3.514   2.827   3.744
 3157SOL     OW10369   1.878   3.055   4.754
 3157SOL    HW110370   1.944   3.126   4.734
 3157SOL    HW210371   1.919   2.965   4.738
 3158SOL     OW10372   4.550   0.319   1.561
 3158SOL    HW110373   4.522   0.330   1.656
 3158SOL    HW210374   4.649   0.330   1.554
 3159SOL     OW10375   5.529   1.048   6.967
 3159SOL    HW110376   5.571   1.043   0.034
 3159SOL    HW210377   5.595   1.019   6.898
 3160SOL     OW10378   6.708   5.873   5.579
 3160SOL    HW110379   6.797   5.894   5.619
 3160SOL    HW210380   6.658   5.809   5.638
 3161SOL     OW10381   1.289   1.148   2.863
 3161SOL    HW110382   1.202   1.148   2.912
 3161SOL    HW210383   1.359   1.193   2.919
 3162SOL     OW10384   0.913   5.958   0.780
 3162SOL    HW110385   0.849   6.034   0.768
 3162SOL    HW210386   0.879   5.896   0.850
 3163SOL     OW10387   3.762   2.573   0.211
 3163SOL    HW110388   3.779   2.561   0.113
 3163SOL    HW210389   3.712   2.659   0.226
 3164SOL     OW10390   4.227   4.608   1.402
 3164SOL    HW110391   4.224   4.705   1.379
 3164SOL    HW210392   4.218   4.597   1.501
 3165SOL     OW10393   1.101   6.007   1.721
 3165SOL    HW110394   1.023   6.061   1.689
 3165SOL    HW210395   1.128   5.942   1.650
 3166SOL     OW10396   4.996   2.047   6.389
 3166SOL    HW110397   4.914   2.099   6.367
 3166SOL    HW210398   5.048   2.028   6.306
 3167SOL     OW10399   0.163   4.488   1.638
 3167SOL    HW110400   0.244   4.547   1.638
 3167SOL    HW210401   0.149   4.452   1.730
 3168SOL     OW10402   5.363   3.058   0.373
 3168SOL    HW110403   5.320   3.129   0.318
 3168SOL    HW210404   5.297   3.023   0.439
 3169SOL     OW10405   0.819   3.051   5.607
 3169SOL    HW110406   0.857   3.124   5.549
 3169SOL    HW210407   0.889   3.019   5.671
 3170SOL     OW10408   4.134   0.681   0.874
 3170SOL    HW110409   4.107   0.775   0.891
 3170SOL    HW210410   4.131   0.629   0.960
 3171SOL     OW10411   6.931   6.695   1.319
 3171SOL    HW110412   6.874   6.631   1.269
 3171SOL    HW210413   0.001   6.661   1.322
 3172SOL     OW10414   0.732   5.598   5.621
 3172SOL    HW110415   0.685   5.683   5.646
 3172SOL    HW210416   0.673   5.545   5.560
 3173SOL     OW10417   2.818   1.834   1.159
 3173SOL    HW110418   2.812   1.848   1.258
 3173SOL    HW210419   2.854   1.917   1.116
 3174SOL     OW10420   2.510   2.710   6.858
 3174SOL    HW110421   2.527   2.628   6.803
 3174SOL    HW210422   2.457   2.684   6.939
 3175SOL     OW10423   6.815   6.467   0.705
 3175SOL    HW110424   6.783   6.466   0.610
 3175SOL    HW210425   6.844   6.560   0.729
 3176SOL     OW10426   2.180   5.075   4.947
 3176SOL    HW110427   2.266   5.103   4.990
 3176SOL    HW210428   2.200   5.025   4.863
 3177SOL     OW10429   4.863   5.516   5.592
 3177SOL    HW110430   4.875   5.558   5.682
 3177SOL    HW210431   4.828   5.585   5.529
 3178SOL     OW10432   6.610   2.980   1.353
 3178SOL    HW110433   6.593   3.044   1.428
 3178SOL    HW210434   6.696   2.932   1.369
 3179SOL     OW10435   1.967   2.915   1.747
 3179SOL    HW110436   1.979   3.003   1.702
 3179SOL    HW210437   1.880   2.875   1.720
 3180SOL     OW10438   4.348   0.463   6.692
 3180SOL    HW110439   4.384   0.370   6.700
 3180SOL    HW210440   4.320   0.496   6.782
 3181SOL     OW10441   0.597   0.180   2.821
 3181SOL    HW110442   0.600   0.272   2.782
 3181SOL    HW210443   0.593   0.185   2.921
 3182SOL     OW10444   1.237   1.087   5.898
 3182SOL    HW110445   1.219   1.009   5.839
 3182SOL    HW210446   1.198   1.170   5.857
 3183SOL     OW10447   4.855   4.026   1.622
 3183SOL    HW110448   4.889   4.072   1.540
 3183SOL    HW210449   4.781   3.963   1.598
 3184SOL     OW10450   2.680   1.782   2.755
 3184SOL    HW110451   2.743   1.777   2.677
 3184SOL    HW210452   2.590   1.810   2.723
 3185SOL     OW10453   6.159   0.579   6.506
 3185SOL    HW110454   6.109   0.666   6.511
 3185SOL    HW210455   6.098   0.505   6.534
 3186SOL     OW10456   3.152   0.832   2.736
 3186SOL    HW110457   3.237   0.787   2.764
 3186SOL    HW210458   3.102   0.862   2.817
 3187SOL     OW10459   4.619   4.210   6.910
 3187SOL    HW110460   4.666   4.150   6.974
 3187SOL    HW210461   4.572   4.283   6.960
 3188SOL     OW10462   3.645   5.876   3.062
 3188SOL    HW110463   3.654   5.843   3.156
 3188SOL    HW210464   3.733   5.910   3.030
 3189SOL     OW10465   2.200   1.016   2.919
 3189SOL    HW110466   2.246   0.995   2.833
 3189SOL    HW210467   2.163   0.932   2.958
 3190SOL     OW10468   0.945   6.553   1.538
 3190SOL    HW110469   0.902   6.643   1.523
 3190SOL    HW210470   0.986   6.522   1.453
 3191SOL     OW10471   3.571   6.645   1.038
 3191SOL    HW110472   3.563   6.560   0.985
 3191SOL    HW210473   3.527   6.719   0.988
 3192SOL     OW10474   0.697   2.364   1.226
 3192SOL    HW110475   0.719   2.368   1.129
 3192SOL    HW210476   0.694   2.268   1.255
 3193SOL     OW10477   4.265   1.958   6.439
 3193SOL    HW110478   4.299   1.909   6.519
 3193SOL    HW210479   4.165   1.952   6.437
 3194SOL     OW10480   1.033   2.759   6.302
 3194SOL    HW110481   0.984   2.804   6.227
 3194SOL    HW210482   1.052   2.664   6.277
 3195SOL     OW10483   1.757   2.199   2.757
 3195SOL    HW110484   1.679   2.260   2.747
 3195SOL    HW210485   1.832   2.247   2.803
 3196SOL     OW10486   6.265   0.235   5.038
 3196SOL    HW110487   6.329   0.307   5.063
 3196SOL    HW210488   6.315   0.155   5.006
 3197SOL     OW10489   1.749   5.711   3.664
 3197SOL    HW110490   1.819   5.649   3.628
 3197SOL    HW210491   1.662   5.695   3.616
 3198SOL     OW10492   6.393   2.197   6.987
 3198SOL    HW110493   6.296   2.213   7.004
 3198SOL    HW210494   6.407   2.105   6.951
 3199SOL     OW10495   4.627   2.544   2.150
 3199SOL    HW110496   4.574   2.535   2.066
 3199SOL    HW210497   4.689   2.622   2.142
 3200SOL     OW10498   0.103   1.702   1.439
 3200SOL    HW110499   0.176   1.648   1.397
 3200SOL    HW210500   0.025   1.708   1.377
 3201SOL     OW10501   5.402   4.303   4.173
 3201SOL    HW110502   5.313   4.291   4.131
 3201SOL    HW210503   5.404   4.389   4.225
 3202SOL     OW10504   1.369   4.350   1.735
 3202SOL    HW110505   1.304   4.423   1.715
 3202SOL    HW210506   1.435   4.343   1.661
 3203SOL     OW10507   5.997   1.121   1.166
 3203SOL    HW110508   6.043   1.141   1.252
 3203SOL    HW210509   5.979   1.023   1.160
 3204SOL     OW10510   5.592   6.191   1.426
 3204SOL    HW110511   5.584   6.096   1.396
 3204SOL    HW210512   5.672   6.233   1.381
 3205SOL     OW10513   6.980   4.194   6.801
 3205SOL    HW110514   6.979   4.150   6.891
 3205SOL    HW210515   0.040   4.245   6.790
 3206SOL     OW10516   6.725   6.936   5.967
 3206SOL    HW110517   6.758   6.915   6.059
 3206SOL    HW210518   6.627   6.919   5.963
 3207SOL     OW10519   0.659   1.226   6.725
 3207SOL    HW110520   0.723   1.300   6.705
 3207SOL    HW210521   0.666   1.156   6.654
 3208SOL     OW10522   4.356   6.068   5.580
 3208SOL    HW110523   4.304   6.062   5.665
 3208SOL    HW210524   4.339   6.157   5.537
 3209SOL     OW10525   2.888   6.040   3.652
 3209SOL    HW110526   2.837   5.987   3.585
 3209SOL    HW210527   2.918   5.980   3.726
 3210SOL     OW10528   0.766   3.411   1.938
 3210SOL    HW110529   0.737   3.328   1.985
 3210SOL    HW210530   0.858   3.397   1.901
 3211SOL     OW10531   2.292   4.627   0.307
 3211SOL    HW110532   2.358   4.693   0.344
 3211SOL    HW210533   2.324   4.593   0.220
 3212SOL     OW10534   4.047   1.363   6.903
 3212SOL    HW110535   4.107   1.296   6.860
 3212SOL    HW210536   3.952   1.337   6.887
 3213SOL     OW10537   5.741   4.505   2.746
 3213SOL    HW110538   5.646   4.489   2.772
 3213SOL    HW210539   5.781   4.420   2.711
 3214SOL     OW10540   4.503   6.239   0.257
 3214SOL    HW110541   4.447   6.226   0.339
 3214SOL    HW210542   4.458   6.303   0.196
 3215SOL     OW10543   6.408   3.453   0.803
 3215SOL    HW110544   6.332   3.477   0.863
 3215SOL    HW210545   6.454   3.536   0.772
 3216SOL     OW10546   5.793   5.382   2.359
 3216SOL    HW110547   5.722   5.314   2.340
 3216SOL    HW210548   5.838   5.360   2.445
 3217SOL     OW10549   1.116   4.347   3.239
 3217SOL    HW110550   1.132   4.333   3.141
 3217SOL    HW210551   1.077   4.437   3.254
 3218SOL     OW10552   4.346   6.290   3.488
 3218SOL    HW110553   4.345   6.192   3.510
 3218SOL    HW210554   4.402   6.339   3.554
 3219SOL     OW10555   0.194   0.303   3.805
 3219SOL    HW110556   0.162   0.239   3.735
 3219SOL    HW210557   0.179   0.263   3.896
 3220SOL     OW10558   6.389   4.905   5.790
 3220SOL    HW110559   6.421   4.895   5.884
 3220SOL    HW210560   6.458   4.868   5.727
 3221SOL     OW10561   2.897   6.106   2.558
 3221SOL    HW110562   2.816   6.127   2.504
 3221SOL    HW210563   2.944   6.028   2.517
 3222SOL     OW10564   4.619   1.692   3.475
 3222SOL    HW110565   4.617   1.748   3.392
 3222SOL    HW210566   4.673   1.740   3.545
 3223SOL     OW10567   1.783   5.372   0.011
 3223SOL    HW110568   1.814   5.357   6.941
 3223SOL    HW210569   1.811   5.295   0.068
 3224SOL     OW10570   4.583   5.180   6.240
 3224SOL    HW110571   4.488   5.187   6.269
 3224SOL    HW210572   4.611   5.266   6.196
 3225SOL     OW10573   4.295   2.258   6.055
 3225SOL    HW110574   4.218   2.282   5.996
 3225SOL    HW210575   4.376   2.310   6.027
 3226SOL     OW10576   2.286   1.620   4.323
 3226SOL    HW110577   2.245   1.541   4.368
 3226SOL    HW210578   2.216   1.670   4.272
 3227SOL     OW10579   3.366   2.121   6.760
 3227SOL    HW110580   3.271   2.100   6.738
 3227SOL    HW210581   3.381   2.220   6.752
 3228SOL     OW10582   5.345   3.233   4.214
 3228SOL    HW110583   5.441   3.253   4.194
 3228SOL    HW210584   5.326   3.138   4.190
 3229SOL     OW10585   3.218   1.676   5.631
 3229SOL    HW110586   3.123   1.688   5.601
 3229SOL    HW210587   3.279   1.699   5.555
 3230SOL     OW10588   0.461   2.185   3.375
 3230SOL    HW110589   0.423   2.205   3.285
 3230SOL    HW210590   0.518   2.103   3.370
 3231SOL     OW10591   4.503   5.610   1.871
 3231SOL    HW110592   4.431   5.627   1.804
 3231SOL    HW210593   4.499   5.515   1.902
 3232SOL     OW10594   4.461   5.276   4.364
 3232SOL    HW110595   4.483   5.286   4.461
 3232SOL    HW210596   4.470   5.364   4.318
 3233SOL     OW10597   1.019   4.103   0.753
 3233SOL    HW110598   0.949   4.031   0.747
 3233SOL    HW210599   1.022   4.139   0.846
 3234SOL     OW10600   6.715   2.361   0.596
 3234SOL    HW110601   6.641   2.333   0.535
 3234SOL    HW210602   6.684   2.437   0.653
 3235SOL     OW10603   5.713   5.828   2.098
 3235SOL    HW110604   5.697   5.861   2.191
 3235SOL    HW210605   5.721   5.728   2.099
 3236SOL     OW10606   1.816   3.390   1.427
 3236SOL    HW110607   1.765   3.431   1.503
 3236SOL    HW210608   1.913   3.385   1.450
 3237SOL     OW10609   4.878   0.365   3.872
 3237SOL    HW110610   4.923   0.308   3.803
 3237SOL    HW210611   4.819   0.432   3.827
 3238SOL     OW10612   0.446   5.610   6.729
 3238SOL    HW110613   0.504   5.531   6.707
 3238SOL    HW210614   0.503   5.693   6.730
 3239SOL     OW10615   5.852   1.110   0.546
 3239SOL    HW110616   5.893   1.148   0.464
 3239SOL    HW210617   5.819   1.184   0.604
 3240SOL     OW10618   0.163   6.887   5.096
 3240SOL    HW110619   0.117   6.858   5.180
 3240SOL    HW210620   0.108   6.859   5.017
 3241SOL     OW10621   5.047   1.403   4.150
 3241SOL    HW110622   4.952   1.388   4.125
 3241SOL    HW210623   5.098   1.441   4.072
 3242SOL     OW10624   3.367   4.861   1.067
 3242SOL    HW110625   3.367   4.857   0.967
 3242SOL    HW210626   3.365   4.768   1.104
 3243SOL     OW10627   5.741   5.228   0.090
 3243SOL    HW110628   5.687   5.309   0.065
 3243SOL    HW210629   5.688   5.146   0.074
 3244SOL     OW10630   4.953   5.606   6.332
 3244SOL    HW110631   5.021   5.561   6.274
 3244SOL    HW210632   4.862   5.593   6.294
 3245SOL     OW10633   4.334   2.757   6.229
 3245SOL    HW110634   4.412   2.805   6.269
 3245SOL    HW210635   4.362   2.664   6.204
 3246SOL     OW10636   5.986   0.486   3.080
 3246SOL    HW110637   5.916   0.543   3.123
 3246SOL    HW210638   5.958   0.462   2.987
 3247SOL     OW10639   0.104   4.698   2.608
 3247SOL    HW110640   0.058   4.672   2.693
 3247SOL    HW210641   0.089   4.627   2.539
 3248SOL     OW10642   5.796   3.475   2.149
 3248SOL    HW110643   5.830   3.456   2.057
 3248SOL    HW210644   5.696   3.471   2.149
 3249SOL     OW10645   4.064   4.556   5.742
 3249SOL    HW110646   4.015   4.618   5.680
 3249SOL    HW210647   4.106   4.483   5.689
 3250SOL     OW10648   5.615   6.974   3.233
 3250SOL    HW110649   5.657   6.909   3.169
 3250SOL    HW210650   5.585   6.925   3.315
 3251SOL     OW10651   3.711   1.463   2.833
 3251SOL    HW110652   3.685   1.371   2.803
 3251SOL    HW210653   3.655   1.490   2.912
 3252SOL     OW10654   3.688   1.032   2.073
 3252SOL    HW110655   3.612   1.096   2.066
 3252SOL    HW210656   3.692   0.976   1.990
 3253SOL     OW10657   5.194   2.299   2.358
 3253SOL    HW110658   5.228   2.324   2.268
 3253SOL    HW210659   5.099   2.329   2.367
 3254SOL     OW10660   3.768   5.100   3.883
 3254SOL    HW110661   3.673   5.067   3.879
 3254SOL    HW210662   3.824   5.036   3.936
 3255SOL     OW10663   4.254   5.243   0.900
 3255SOL    HW110664   4.246   5.276   0.807
 3255SOL    HW210665   4.283   5.147   0.899
 3256SOL     OW10666   5.682   0.093   6.454
 3256SOL    HW110667   5.654   0.171   6.399
 3256SOL    HW210668   5.608   0.068   6.516
 3257SOL     OW10669   1.435   2.255   1.055
 3257SOL    HW110670   1.528   2.221   1.044
 3257SOL    HW210671   1.370   2.180   1.046
 3258SOL     OW10672   4.603   6.549   1.879
 3258SOL    HW110673   4.694   6.529   1.915
 3258SOL    HW210674   4.561   6.465   1.846
 3259SOL     OW10675   4.270   5.962   4.304
 3259SOL    HW110676   4.175   5.958   4.335
 3259SOL    HW210677   4.303   5.870   4.283
 3260SOL     OW10678   2.042   2.227   0.977
 3260SOL    HW110679   1.950   2.265   0.990
 3260SOL    HW210680   2.067   2.235   0.880
 3261SOL     OW10681   4.070   6.287   0.652
 3261SOL    HW110682   4.125   6.341   0.587
 3261SOL    HW210683   4.030   6.209   0.604
 3262SOL     OW10684   3.664   1.724   3.207
 3262SOL    HW110685   3.600   1.790   3.246
 3262SOL    HW210686   3.721   1.769   3.138
 3263SOL     OW10687   5.145   0.022   3.174
 3263SOL    HW110688   5.139   0.102   3.113
 3263SOL    HW210689   5.172   6.966   3.120
 3264SOL     OW10690   0.671   5.423   6.720
 3264SOL    HW110691   0.658   5.330   6.755
 3264SOL    HW210692   0.752   5.463   6.763
 3265SOL     OW10693   3.998   1.923   6.489
 3265SOL    HW110694   3.981   1.839   6.540
 3265SOL    HW210695   3.930   1.932   6.416
 3266SOL     OW10696   0.008   2.399   0.571
 3266SOL    HW110697   6.946   2.410   0.621
 3266SOL    HW210698   0.072   2.346   0.627
 3267SOL     OW10699   3.418   2.538   1.322
 3267SOL    HW110700   3.345   2.584   1.271
 3267SOL    HW210701   3.473   2.606   1.371
 3268SOL     OW10702   1.179   3.753   6.882
 3268SOL    HW110703   1.226   3.666   6.870
 3268SOL    HW210704   1.176   3.802   6.795
 3269SOL     OW10705   4.379   4.669   1.857
 3269SOL    HW110706   4.454   4.734   1.846
 3269SOL    HW210707   4.388   4.622   1.945
 3270SOL     OW10708   0.618   5.389   4.182
 3270SOL    HW110709   0.676   5.374   4.262
 3270SOL    HW210710   0.577   5.480   4.187
 3271SOL     OW10711   5.283   1.911   2.932
 3271SOL    HW110712   5.188   1.896   2.958
 3271SOL    HW210713   5.308   1.848   2.859
 3272SOL     OW10714   3.629   5.893   0.863
 3272SOL    HW110715   3.627   5.869   0.960
 3272SOL    HW210716   3.611   5.811   0.808
 3273SOL     OW10717   1.010   6.356   1.718
 3273SOL    HW110718   0.932   6.295   1.704
 3273SOL    HW210719   1.003   6.434   1.656
 3274SOL     OW10720   3.831   2.290   0.011
 3274SOL    HW110721   3.787   2.219   6.980
 3274SOL    HW210722   3.910   2.326   6.986
 3275SOL     OW10723   1.655   0.328   0.150
 3275SOL    HW110724   1.683   0.262   0.219
 3275SOL    HW210725   1.644   0.282   0.062
 3276SOL     OW10726   3.268   4.771   6.831
 3276SOL    HW110727   3.278   4.679   6.794
 3276SOL    HW210728   3.310   4.837   6.768
 3277SOL     OW10729   6.183   7.004   6.442
 3277SOL    HW110730   6.122   0.058   6.454
 3277SOL    HW210731   6.252   0.001   6.373
 3278SOL     OW10732   6.904   1.215   5.222
 3278SOL    HW110733   6.819   1.222   5.274
 3278SOL    HW210734   6.915   1.121   5.188
 3279SOL     OW10735   0.075   0.482   0.717
 3279SOL    HW110736   0.064   0.520   0.625
 3279SOL    HW210737   0.142   0.408   0.715
 3280SOL     OW10738   2.507   5.166   6.638
 3280SOL    HW110739   2.596   5.133   6.606
 3280SOL    HW210740   2.516   5.261   6.668
 3281SOL     OW10741   1.895   6.023   1.129
 3281SOL    HW110742   1.900   6.001   1.227
 3281SOL    HW210743   1.896   6.123   1.118
 3282SOL     OW10744   2.955   6.308   4.416
 3282SOL    HW110745   3.052   6.285   4.414
 3282SOL    HW210746   2.944   6.407   4.424
 3283SOL     OW10747   3.152   1.363   2.831
 3283SOL    HW110748   3.213   1.292   2.796
 3283SOL    HW210749   3.076   1.376   2.767
 3284SOL     OW10750   6.747   6.545   0.151
 3284SOL    HW110751   6.752   6.582   0.058
 3284SOL    HW210752   6.769   6.447   0.149
 3285SOL     OW10753   6.997   2.653   3.170
 3285SOL    HW110754   0.021   2.665   3.083
 3285SOL    HW210755   0.040   2.641   3.243
 3286SOL     OW10756   4.020   3.373   3.750
 3286SOL    HW110757   3.978   3.327   3.829
 3286SOL    HW210758   4.048   3.465   3.776
 3287SOL     OW10759   0.737   5.661   0.057
 3287SOL    HW110760   0.687   5.745   0.077
 3287SOL    HW210761   0.728   5.598   0.135
 3288SOL     OW10762   0.278   6.219   6.843
 3288SOL    HW110763   0.255   6.314   6.822
 3288SOL    HW210764   0.235   6.159   6.776
 3289SOL     OW10765   1.291   6.740   5.196
 3289SOL    HW110766   1.239   6.693   5.268
 3289SOL    HW210767   1.382   6.762   5.231
 3290SOL     OW10768   0.685   6.088   1.978
 3290SOL    HW110769   0.655   6.183   1.985
 3290SOL    HW210770   0.624   6.038   1.917
 3291SOL     OW10771   1.498   6.269   6.494
 3291SOL    HW110772   1.433   6.282   6.419
 3291SOL    HW210773   1.589   6.254   6.456
 3292SOL     OW10774   0.579   1.129   0.200
 3292SOL    HW110775   0.585   1.030   0.212
 3292SOL    HW210776   0.483   1.156   0.194
 3293SOL     OW10777   6.899   1.551   3.321
 3293SOL    HW110778   6.864   1.640   3.293
 3293SOL    HW210779   6.971   1.563   3.389
 3294SOL     OW10780   6.554   0.277   6.448
 3294SOL    HW110781   6.517   0.301   6.358
 3294SOL    HW210782   6.643   0.233   6.437
 3295SOL     OW10783   2.528   2.248   1.031
 3295SOL    HW110784   2.478   2.280   0.951
 3295SOL    HW210785   2.551   2.151   1.019
 3296SOL     OW10786   2.706   6.635   1.356
 3296SOL    HW110787   2.797   6.604   1.383
 3296SOL    HW210788   2.664   6.686   1.431
 3297SOL     OW10789   3.021   2.058   5.172
 3297SOL    HW110790   2.929   2.057   5.134
 3297SOL    HW210791   3.065   2.146   5.154
 3298SOL     OW10792   6.436   3.125   2.642
 3298SOL    HW110793   6.399   3.147   2.552
 3298SOL    HW210794   6.473   3.208   2.684
 3299SOL     OW10795   2.035   0.322   3.614
 3299SOL    HW110796   2.020   0.419   3.634
 3299SOL    HW210797   2.036   0.308   3.515
 3300SOL     OW10798   6.940   0.602   6.042
 3300SOL    HW110799   6.926   0.506   6.020
 3300SOL    HW210800   7.001   0.644   5.974
 3301SOL     OW10801   1.441   3.935   3.876
 3301SOL    HW110802   1.513   3.866   3.881
 3301SOL    HW210803   1.480   4.023   3.849
 3302SOL     OW10804   1.309   4.884   4.639
 3302SOL    HW110805   1.224   4.839   4.667
 3302SOL    HW210806   1.337   4.949   4.709
 3303SOL     OW10807   3.507   3.198   2.383
 3303SOL    HW110808   3.587   3.210   2.324
 3303SOL    HW210809   3.424   3.200   2.328
 3304SOL     OW10810   0.929   5.007   3.531
 3304SOL    HW110811   0.850   5.062   3.505
 3304SOL    HW210812   0.904   4.910   3.528
 3305SOL     OW10813   2.288   1.567   2.237
 3305SOL    HW110814   2.331   1.534   2.321
 3305SOL    HW210815   2.328   1.521   2.158
 3306SOL     OW10816   2.069   3.921   2.777
 3306SOL    HW110817   2.122   3.859   2.719
 3306SOL    HW210818   1.994   3.959   2.724
 3307SOL     OW10819   0.222   5.784   0.122
 3307SOL    HW110820   0.291   5.835   0.172
 3307SOL    HW210821   0.132   5.823   0.140
 3308SOL     OW10822   4.542   5.514   0.271
 3308SOL    HW110823   4.445   5.518   0.295
 3308SOL    HW210824   4.553   5.476   0.179
 3309SOL     OW10825   0.909   5.184   2.486
 3309SOL    HW110826   0.928   5.276   2.520
 3309SOL    HW210827   0.981   5.157   2.421
 3310SOL     OW10828   0.419   3.336   2.725
 3310SOL    HW110829   0.452   3.386   2.645
 3310SOL    HW210830   0.494   3.321   2.789
 3311SOL     OW10831   2.497   5.565   0.746
 3311SOL    HW110832   2.566   5.629   0.713
 3311SOL    HW210833   2.405   5.601   0.727
 3312SOL     OW10834   3.070   4.114   6.216
 3312SOL    HW110835   3.097   4.182   6.148
 3312SOL    HW210836   3.080   4.022   6.177
 3313SOL     OW10837   1.138   5.241   3.649
 3313SOL    HW110838   1.143   5.148   3.613
 3313SOL    HW210839   1.081   5.297   3.589
 3314SOL     OW10840   2.054   2.855   4.676
 3314SOL    HW110841   2.084   2.794   4.602
 3314SOL    HW210842   2.097   2.827   4.762
 3315SOL     OW10843   0.032   2.919   4.109
 3315SOL    HW110844   0.065   3.004   4.149
 3315SOL    HW210845   6.957   2.916   4.113
 3316SOL     OW10846   3.938   1.707   6.040
 3316SOL    HW110847   4.027   1.751   6.055
 3316SOL    HW210848   3.933   1.674   5.946
 3317SOL     OW10849   4.544   2.582   1.885
 3317SOL    HW110850   4.511   2.674   1.861
 3317SOL    HW210851   4.626   2.561   1.832
 3318SOL     OW10852   2.731   6.647   6.616
 3318SOL    HW110853   2.788   6.701   6.677
 3318SOL    HW210854   2.735   6.686   6.524
 3319SOL     OW10855   6.877   6.606   3.558
 3319SOL    HW110856   6.793   6.556   3.576
 3319SOL    HW210857   6.880   6.689   3.614
 3320SOL     OW10858   5.694   1.178   5.332
 3320SOL    HW110859   5.755   1.229   5.272
 3320SOL    HW210860   5.706   1.210   5.426
 3321SOL     OW10861   3.300   2.888   2.592
 3321SOL    HW110862   3.265   2.814   2.535
 3321SOL    HW210863   3.390   2.863   2.627
 3322SOL     OW10864   5.043   2.259   1.449
 3322SOL    HW110865   4.965   2.209   1.487
 3322SOL    HW210866   5.118   2.260   1.514
 3323SOL     OW10867   2.369   4.162   6.928
 3323SOL    HW110868   2.406   4.121   7.011
 3323SOL    HW210869   2.270   4.177   6.939
 3324SOL     OW10870   1.241   4.214   0.238
 3324SOL    HW110871   1.336   4.245   0.235
 3324SOL    HW210872   1.238   4.124   0.282
 3325SOL     OW10873   2.534   2.984   0.283
 3325SOL    HW110874   2.485   3.014   0.366
 3325SOL    HW210875   2.632   2.993   0.298
 3326SOL     OW10876   5.585   1.905   1.541
 3326SOL    HW110877   5.574   1.869   1.448
 3326SOL    HW210878   5.530   1.851   1.605
 3327SOL     OW10879   2.300   6.419   1.399
 3327SOL    HW110880   2.396   6.392   1.391
 3327SOL    HW210881   2.295   6.517   1.420
 3328SOL     OW10882   4.460   1.661   1.929
 3328SOL    HW110883   4.365   1.657   1.961
 3328SOL    HW210884   4.462   1.693   1.835
 3329SOL     OW10885   3.954   0.450   4.939
 3329SOL    HW110886   4.002   0.467   5.025
 3329SOL    HW210887   4.007   0.487   4.863
 3330SOL     OW10888   5.943   6.593   2.161
 3330SOL    HW110889   6.020   6.549   2.115
 3330SOL    HW210890   5.896   6.527   2.220
 3331SOL     OW10891   1.349   3.462   3.203
 3331SOL    HW110892   1.406   3.474   3.122
 3331SOL    HW210893   1.400   3.488   3.284
 3332SOL     OW10894   5.440   4.578   0.422
 3332SOL    HW110895   5.469   4.541   0.334
 3332SOL    HW210896   5.345   4.607   0.417
 3333SOL     OW10897   3.512   3.723   0.690
 3333SOL    HW110898   3.510   3.656   0.763
 3333SOL    HW210899   3.541   3.812   0.726
 3334SOL     OW10900   1.732   2.535   2.160
 3334SOL    HW110901   1.759   2.494   2.073
 3334SOL    HW210902   1.759   2.474   2.235
 3335SOL     OW10903   3.586   4.762   5.688
 3335SOL    HW110904   3.664   4.701   5.703
 3335SOL    HW210905   3.605   4.850   5.731
 3336SOL     OW10906   2.333   0.044   4.103
 3336SOL    HW110907   2.372   0.077   4.189
 3336SOL    HW210908   2.386   6.991   4.069
 3337SOL     OW10909   3.990   3.102   2.378
 3337SOL    HW110910   4.068   3.044   2.352
 3337SOL    HW210911   4.024   3.183   2.426
 3338SOL     OW10912   0.910   2.192   1.690
 3338SOL    HW110913   0.938   2.218   1.782
 3338SOL    HW210914   0.982   2.214   1.625
 3339SOL     OW10915   1.749   0.076   5.745
 3339SOL    HW110916   1.755   7.012   5.791
 3339SOL    HW210917   1.788   0.070   5.653
 3340SOL     OW10918   4.876   0.750   4.145
 3340SOL    HW110919   4.976   0.748   4.136
 3340SOL    HW210920   4.846   0.670   4.197
 3341SOL     OW10921   2.337   4.267   2.999
 3341SOL    HW110922   2.285   4.181   3.000
 3341SOL    HW210923   2.434   4.247   3.014
 3342SOL     OW10924   6.442   0.336   3.081
 3342SOL    HW110925   6.431   0.380   2.991
 3342SOL    HW210926   6.358   0.346   3.133
 3343SOL     OW10927   4.990   5.847   6.468
 3343SOL    HW110928   4.970   5.768   6.409
 3343SOL    HW210929   5.089   5.859   6.475
 3344SOL     OW10930   6.372   2.869   2.699
 3344SOL    HW110931   6.379   2.966   2.673
 3344SOL    HW210932   6.436   2.851   2.774
 3345SOL     OW10933   0.618   3.639   6.774
 3345SOL    HW110934   0.525   3.675   6.784
 3345SOL    HW210935   0.667   3.648   6.861
 3346SOL     OW10936   2.106   0.926   0.282
 3346SOL    HW110937   2.156   0.955   0.364
 3346SOL    HW210938   2.104   1.001   0.216
 3347SOL     OW10939   1.210   2.987   5.943
 3347SOL    HW110940   1.305   3.017   5.944
 3347SOL    HW210941   1.164   3.025   5.863
 3348SOL     OW10942   3.829   4.194   6.331
 3348SOL    HW110943   3.864   4.103   6.353
 3348SOL    HW210944   3.733   4.200   6.359
 3349SOL     OW10945   2.149   3.975   3.560
 3349SOL    HW110946   2.083   3.976   3.635
 3349SOL    HW210947   2.205   4.058   3.564
 3350SOL     OW10948   0.903   4.145   5.716
 3350SOL    HW110949   0.992   4.166   5.674
 3350SOL    HW210950   0.866   4.062   5.674
 3351SOL     OW10951   5.675   0.873   1.362
 3351SOL    HW110952   5.676   0.893   1.460
 3351SOL    HW210953   5.639   0.952   1.312
 3352SOL     OW10954   5.569   2.853   0.995
 3352SOL    HW110955   5.622   2.921   0.944
 3352SOL    HW210956   5.583   2.763   0.953
 3353SOL     OW10957   1.872   0.069   1.000
 3353SOL    HW110958   1.969   0.089   1.013
 3353SOL    HW210959   1.818   0.149   1.028
 3354SOL     OW10960   4.292   3.341   5.610
 3354SOL    HW110961   4.300   3.421   5.551
 3354SOL    HW210962   4.384   3.304   5.627
 3355SOL     OW10963   2.155   1.464   5.664
 3355SOL    HW110964   2.241   1.414   5.654
 3355SOL    HW210965   2.095   1.441   5.588
 3356SOL     OW10966   1.019   6.896   6.019
 3356SOL    HW110967   0.950   6.959   6.055
 3356SOL    HW210968   1.096   6.949   5.983
 3357SOL     OW10969   3.030   3.856   1.706
 3357SOL    HW110970   2.995   3.779   1.759
 3357SOL    HW210971   3.106   3.825   1.649
 3358SOL     OW10972   5.650   1.112   3.714
 3358SOL    HW110973   5.571   1.127   3.774
 3358SOL    HW210974   5.625   1.134   3.620
 3359SOL     OW10975   0.818   5.037   4.330
 3359SOL    HW110976   0.795   5.134   4.345
 3359SOL    HW210977   0.858   5.027   4.239
 3360SOL     OW10978   0.932   2.161   6.715
 3360SOL    HW110979   1.031   2.177   6.723
 3360SOL    HW210980   0.901   2.193   6.626
 3361SOL     OW10981   1.014   0.300   4.104
 3361SOL    HW110982   1.058   0.219   4.143
 3361SOL    HW210983   0.962   0.347   4.175
 3362SOL     OW10984   3.835   1.661   3.881
 3362SOL    HW110985   3.791   1.751   3.886
 3362SOL    HW210986   3.933   1.672   3.868
 3363SOL     OW10987   6.641   2.886   1.623
 3363SOL    HW110988   6.679   2.849   1.539
 3363SOL    HW210989   6.684   2.842   1.702
 3364SOL     OW10990   1.096   4.245   2.292
 3364SOL    HW110991   1.127   4.160   2.248
 3364SOL    HW210992   1.089   4.231   2.391
 3365SOL     OW10993   1.871   2.866   4.392
 3365SOL    HW110994   1.889   2.799   4.320
 3365SOL    HW210995   1.956   2.886   4.441
 3366SOL     OW10996   6.868   4.137   4.191
 3366SOL    HW110997   6.897   4.233   4.199
 3366SOL    HW210998   6.830   4.122   4.100
 3367SOL     OW10999   3.390   3.652   4.262
 3367SOL    HW111000   3.436   3.660   4.350
 3367SOL    HW211001   3.312   3.715   4.258
 3368SOL     OW11002   1.286   6.318   6.647
 3368SOL    HW111003   1.371   6.305   6.596
 3368SOL    HW211004   1.267   6.416   6.656
 3369SOL     OW11005   4.728   1.936   1.766
 3369SOL    HW111006   4.642   1.887   1.749
 3369SOL    HW211007   4.707   2.030   1.795
 3370SOL     OW11008   6.198   6.639   2.010
 3370SOL    HW111009   6.175   6.685   2.096
 3370SOL    HW211010   6.167   6.695   1.933
 3371SOL     OW11011   2.077   3.416   2.189
 3371SOL    HW111012   2.098   3.513   2.202
 3371SOL    HW211013   2.130   3.381   2.111
 3372SOL     OW11014   6.586   2.480   1.004
 3372SOL    HW111015   6.632   2.551   1.057
 3372SOL    HW211016   6.589   2.504   0.907
 3373SOL     OW11017   0.758   1.519   2.017
 3373SOL    HW111018   0.715   1.561   2.097
 3373SOL    HW211019   0.853   1.549   2.011
 3374SOL     OW11020   0.730   0.439   3.776
 3374SOL    HW111021   0.758   0.369   3.842
 3374SOL    HW211022   0.760   0.412   3.685
 3375SOL     OW11023   6.982   4.708   0.168
 3375SOL    HW111024   6.915   4.780   0.157
 3375SOL    HW211025   6.960   4.632   0.107
 3376SOL     OW11026   2.824   3.523   5.263
 3376SOL    HW111027   2.738   3.472   5.276
 3376SOL    HW211028   2.891   3.492   5.330
 3377SOL     OW11029   6.465   5.461   4.193
 3377SOL    HW111030   6.518   5.414   4.123
 3377SOL    HW211031   6.517   5.539   4.227
 3378SOL     OW11032   1.096   6.738   6.757
 3378SOL    HW111033   1.182   6.765   6.714
 3378SOL    HW211034   1.074   6.644   6.731
 3379SOL     OW11035   0.948   3.040   4.843
 3379SOL    HW111036   0.878   3.080   4.902
 3379SOL    HW211037   1.019   2.997   4.899
 3380SOL     OW11038   3.862   4.716   5.591
 3380SOL    HW111039   3.890   4.812   5.595
 3380SOL    HW211040   3.780   4.707   5.536
 3381SOL     OW11041   0.321   2.825   1.683
 3381SOL    HW111042   0.419   2.808   1.678
 3381SOL    HW211043   0.303   2.894   1.753
 3382SOL     OW11044   6.919   3.238   1.019
 3382SOL    HW111045   6.858   3.260   0.942
 3382SOL    HW211046   6.937   3.321   1.072
 3383SOL     OW11047   3.526   4.978   0.457
 3383SOL    HW111048   3.429   4.966   0.480
 3383SOL    HW211049   3.564   5.054   0.511
 3384SOL     OW11050   2.687   4.724   0.870
 3384SOL    HW111051   2.671   4.716   0.969
 3384SOL    HW211052   2.614   4.781   0.830
 3385SOL     OW11053   6.897   2.771   3.474
 3385SOL    HW111054   6.937   2.779   3.566
 3385SOL    HW211055   6.966   2.735   3.411
 3386SOL     OW11056   6.688   4.776   0.236
 3386SOL    HW111057   6.594   4.752   0.209
 3386SOL    HW211058   6.714   4.724   0.317
 3387SOL     OW11059   5.218   0.934   3.440
 3387SOL    HW111060   5.225   1.033   3.453
 3387SOL    HW211061   5.279   0.887   3.504
 3388SOL     OW11062   5.144   4.614   1.398
 3388SOL    HW111063   5.242   4.623   1.417
 3388SOL    HW211064   5.098   4.581   1.480
 3389SOL     OW11065   6.066   6.064   0.091
 3389SOL    HW111066   6.085   6.074   7.017
 3389SOL    HW211067   6.041   6.153   0.129
 3390SOL     OW11068   4.099   6.288   6.061
 3390SOL    HW111069   4.044   6.365   6.092
 3390SOL    HW211070   4.041   6.223   6.012
 3391SOL     OW11071   5.660   2.316   3.418
 3391SOL    HW111072   5.581   2.264   3.386
 3391SOL    HW211073   5.629   2.402   3.458
 3392SOL     OW11074   3.458   6.971   4.731
 3392SOL    HW111075   3.402   6.889   4.714
 3392SOL    HW211076   3.427   0.020   4.671
 3393SOL     OW11077   5.439   6.961   0.452
 3393SOL    HW111078   5.470   6.924   0.364
 3393SOL    HW211079   5.381   6.894   0.498
 3394SOL     OW11080   3.563   5.165   1.509
 3394SOL    HW111081   3.626   5.088   1.494
 3394SOL    HW211082   3.534   5.202   1.420
 3395SOL     OW11083   3.962   0.972   3.299
 3395SOL    HW111084   4.052   0.981   3.256
 3395SOL    HW211085   3.931   1.062   3.329
 3396SOL     OW11086   5.228   0.550   3.963
 3396SOL    HW111087   5.307   0.560   4.023
 3396SOL    HW211088   5.180   0.465   3.984
 3397SOL     OW11089   2.166   6.181   6.237
 3397SOL    HW111090   2.229   6.201   6.312
 3397SOL    HW211091   2.172   6.083   6.215
 3398SOL     OW11092   0.814   1.315   5.440
 3398SOL    HW111093   0.718   1.326   5.416
 3398SOL    HW211094   0.870   1.376   5.383
 3399SOL     OW11095   6.857   5.005   3.051
 3399SOL    HW111096   6.768   4.962   3.036
 3399SOL    HW211097   6.929   4.936   3.042
 3400SOL     OW11098   5.872   3.395   6.066
 3400SOL    HW111099   5.872   3.451   6.149
 3400SOL    HW211100   5.955   3.340   6.063
 3401SOL     OW11101   6.761   3.721   6.171
 3401SOL    HW111102   6.773   3.638   6.116
 3401SOL    HW211103   6.849   3.766   6.184
 3402SOL     OW11104   6.544   5.578   0.958
 3402SOL    HW111105   6.512   5.507   1.020
 3402SOL    HW211106   6.640   5.561   0.935
 3403SOL     OW11107   4.671   5.906   6.268
 3403SOL    HW111108   4.671   5.980   6.201
 3403SOL    HW211109   4.577   5.881   6.290
 3404SOL     OW11110   5.305   3.182   6.335
 3404SOL    HW111111   5.233   3.189   6.405
 3404SOL    HW211112   5.263   3.181   6.244
 3405SOL     OW11113   5.661   5.466   5.950
 3405SOL    HW111114   5.747   5.437   5.909
 3405SOL    HW211115   5.597   5.493   5.879
 3406SOL     OW11116   1.992   3.329   2.468
 3406SOL    HW111117   2.009   3.407   2.529
 3406SOL    HW211118   2.015   3.355   2.374
 3407SOL     OW11119   2.788   4.389   1.093
 3407SOL    HW111120   2.835   4.452   1.031
 3407SOL    HW211121   2.845   4.371   1.173
 3408SOL     OW11122   4.412   2.385   3.930
 3408SOL    HW111123   4.346   2.360   4.000
 3408SOL    HW211124   4.496   2.331   3.942
 3409SOL     OW11125   3.920   6.502   0.523
 3409SOL    HW111126   3.939   6.566   0.448
 3409SOL    HW211127   4.004   6.486   0.575
 3410SOL     OW11128   5.712   6.746   3.073
 3410SOL    HW111129   5.700   6.732   2.975
 3410SOL    HW211130   5.715   6.657   3.119
 3411SOL     OW11131   0.200   2.886   0.779
 3411SOL    HW111132   0.139   2.944   0.832
 3411SOL    HW211133   0.229   2.934   0.696
 3412SOL     OW11134   5.027   3.756   1.588
 3412SOL    HW111135   5.074   3.669   1.573
 3412SOL    HW211136   4.987   3.787   1.502
 3413SOL     OW11137   6.301   1.670   6.732
 3413SOL    HW111138   6.310   1.753   6.676
 3413SOL    HW211139   6.235   1.686   6.805
 3414SOL     OW11140   3.576   2.581   6.328
 3414SOL    HW111141   3.501   2.561   6.264
 3414SOL    HW211142   3.538   2.624   6.410
 3415SOL     OW11143   1.832   2.281   4.363
 3415SOL    HW111144   1.844   2.232   4.449
 3415SOL    HW211145   1.918   2.327   4.339
 3416SOL     OW11146   6.177   0.003   0.214
 3416SOL    HW111147   6.182   0.103   0.216
 3416SOL    HW211148   6.175   6.992   0.307
 3417SOL     OW11149   0.324   0.008   2.405
 3417SOL    HW111150   0.236   0.021   2.359
 3417SOL    HW211151   0.308   7.003   2.500
 3418SOL     OW11152   3.993   5.745   3.212
 3418SOL    HW111153   3.904   5.748   3.258
 3418SOL    HW211154   4.021   5.650   3.199
 3419SOL     OW11155   3.775   5.489   5.698
 3419SOL    HW111156   3.807   5.580   5.726
 3419SOL    HW211157   3.719   5.497   5.616
 3420SOL     OW11158   4.728   2.963   3.730
 3420SOL    HW111159   4.691   2.890   3.788
 3420SOL    HW211160   4.755   3.041   3.787
 3421SOL     OW11161   5.420   1.686   3.334
 3421SOL    HW111162   5.478   1.767   3.327
 3421SOL    HW211163   5.397   1.652   3.243
 3422SOL     OW11164   2.259   0.231   7.009
 3422SOL    HW111165   2.358   0.237   7.022
 3422SOL    HW211166   2.220   0.164   0.048
 3423SOL     OW11167   0.750   4.376   5.715
 3423SOL    HW111168   0.797   4.292   5.688
 3423SOL    HW211169   0.745   4.438   5.636
 3424SOL     OW11170   3.806   0.005   1.640
 3424SOL    HW111171   3.900   0.025   1.613
 3424SOL    HW211172   3.783   6.935   1.615
 3425SOL     OW11173   4.895   4.870   1.877
 3425SOL    HW111174   4.967   4.801   1.887
 3425SOL    HW211175   4.878   4.886   1.780
 3426SOL     OW11176   4.982   3.820   0.862
 3426SOL    HW111177   4.991   3.899   0.923
 3426SOL    HW211178   5.066   3.765   0.866
 3427SOL     OW11179   1.407   2.532   1.740
 3427SOL    HW111180   1.459   2.471   1.681
 3427SOL    HW211181   1.338   2.580   1.685
 3428SOL     OW11182   5.109   4.781   5.909
 3428SOL    HW111183   5.161   4.865   5.926
 3428SOL    HW211184   5.165   4.716   5.858
 3429SOL     OW11185   0.634   1.138   1.275
 3429SOL    HW111186   0.675   1.052   1.305
 3429SOL    HW211187   0.638   1.144   1.176
 3430SOL     OW11188   2.197   4.376   5.673
 3430SOL    HW111189   2.201   4.474   5.651
 3430SOL    HW211190   2.276   4.330   5.634
 3431SOL     OW11191   2.220   6.702   2.115
 3431SOL    HW111192   2.177   6.730   2.029
 3431SOL    HW211193   2.213   6.603   2.125
 3432SOL     OW11194   2.296   4.507   6.790
 3432SOL    HW111195   2.394   4.496   6.776
 3432SOL    HW211196   2.257   4.422   6.826
 3433SOL     OW11197   1.871   0.799   6.149
 3433SOL    HW111198   1.935   0.840   6.084
 3433SOL    HW211199   1.886   0.838   6.240
 3434SOL     OW11200   2.788   2.154   1.884
 3434SOL    HW111201   2.719   2.180   1.816
 3434SOL    HW211202   2.823   2.236   1.929
 3435SOL     OW11203   2.416   0.811   0.379
 3435SOL    HW111204   2.464   0.825   0.293
 3435SOL    HW211205   2.388   0.899   0.417
 3436SOL     OW11206   4.135   5.272   6.783
 3436SOL    HW111207   4.209   5.336   6.763
 3436SOL    HW211208   4.056   5.322   6.820
 3437SOL     OW11209   1.723   6.493   5.835
 3437SOL    HW111210   1.758   6.467   5.925
 3437SOL    HW211211   1.627   6.520   5.843
 3438SOL     OW11212   0.512   3.542   1.556
 3438SOL    HW111213   0.521   3.458   1.611
 3438SOL    HW211214   0.465   3.612   1.609
 3439SOL     OW11215   2.721   6.147   3.263
 3439SOL    HW111216   2.647   6.211   3.285
 3439SOL    HW211217   2.752   6.164   3.169
 3440SOL     OW11218   3.882   2.979   4.855
 3440SOL    HW111219   3.966   2.971   4.908
 3440SOL    HW211220   3.803   2.978   4.917
 3441SOL     OW11221   6.947   6.151   6.379
 3441SOL    HW111222   6.958   6.128   6.282
 3441SOL    HW211223   6.880   6.091   6.421
 3442SOL     OW11224   3.146   3.882   1.013
 3442SOL    HW111225   3.087   3.953   1.051
 3442SOL    HW211226   3.156   3.809   1.080
 3443SOL     OW11227   3.430   5.810   2.647
 3443SOL    HW111228   3.395   5.894   2.608
 3443SOL    HW211229   3.407   5.806   2.744
 3444SOL     OW11230   5.415   4.731   1.255
 3444SOL    HW111231   5.481   4.681   1.200
 3444SOL    HW211232   5.412   4.692   1.347
 3445SOL     OW11233   6.728   4.857   4.007
 3445SOL    HW111234   6.809   4.814   3.966
 3445SOL    HW211235   6.699   4.803   4.086
 3446SOL     OW11236   5.848   0.619   1.687
 3446SOL    HW111237   5.941   0.604   1.655
 3446SOL    HW211238   5.788   0.634   1.609
 3447SOL     OW11239   5.233   0.489   0.147
 3447SOL    HW111240   5.314   0.532   0.187
 3447SOL    HW211241   5.165   0.475   0.219
 3448SOL     OW11242   1.859   6.487   5.334
 3448SOL    HW111243   1.944   6.438   5.315
 3448SOL    HW211244   1.879   6.583   5.350
 3449SOL     OW11245   5.805   5.323   5.188
 3449SOL    HW111246   5.799   5.405   5.132
 3449SOL    HW211247   5.731   5.260   5.163
 3450SOL     OW11248   1.382   0.601   6.490
 3450SOL    HW111249   1.320   0.562   6.422
 3450SOL    HW211250   1.443   0.529   6.524
 3451SOL     OW11251   1.397   5.817   0.626
 3451SOL    HW111252   1.414   5.719   0.617
 3451SOL    HW211253   1.480   5.867   0.599
 3452SOL     OW11254   5.686   0.686   5.998
 3452SOL    HW111255   5.635   0.700   5.914
 3452SOL    HW211256   5.622   0.668   6.073
 3453SOL     OW11257   5.070   6.556   6.150
 3453SOL    HW111258   5.043   6.595   6.062
 3453SOL    HW211259   5.101   6.462   6.138
 3454SOL     OW11260   1.639   2.918   3.160
 3454SOL    HW111261   1.737   2.907   3.172
 3454SOL    HW211262   1.614   3.014   3.170
 3455SOL     OW11263   2.006   2.365   4.731
 3455SOL    HW111264   2.010   2.389   4.828
 3455SOL    HW211265   2.084   2.405   4.683
 3456SOL     OW11266   4.367   4.550   2.113
 3456SOL    HW111267   4.391   4.591   2.201
 3456SOL    HW211268   4.416   4.463   2.103
 3457SOL     OW11269   3.726   5.277   4.903
 3457SOL    HW111270   3.782   5.347   4.858
 3457SOL    HW211271   3.753   5.186   4.870
 3458SOL     OW11272   4.275   2.334   2.349
 3458SOL    HW111273   4.362   2.383   2.356
 3458SOL    HW211274   4.269   2.290   2.260
 3459SOL     OW11275   4.691   1.537   3.197
 3459SOL    HW111276   4.663   1.535   3.101
 3459SOL    HW211277   4.612   1.558   3.255
 3460SOL     OW11278   3.656   1.792   5.702
 3460SOL    HW111279   3.622   1.798   5.608
 3460SOL    HW211280   3.657   1.696   5.731
 3461SOL     OW11281   5.179   4.890   0.036
 3461SOL    HW111282   5.156   4.966   0.097
 3461SOL    HW211283   5.269   4.906   7.020
 3462SOL     OW11284   1.804   3.671   6.173
 3462SOL    HW111285   1.841   3.608   6.105
 3462SOL    HW211286   1.874   3.692   6.241
 3463SOL     OW11287   0.185   3.952   0.904
 3463SOL    HW111288   0.268   3.901   0.882
 3463SOL    HW211289   0.185   4.038   0.853
 3464SOL     OW11290   0.260   4.902   6.539
 3464SOL    HW111291   0.296   4.810   6.528
 3464SOL    HW211292   0.253   4.946   6.450
 3465SOL     OW11293   2.205   1.794   1.417
 3465SOL    HW111294   2.168   1.702   1.409
 3465SOL    HW211295   2.228   1.829   1.326
 3466SOL     OW11296   6.671   5.186   6.159
 3466SOL    HW111297   6.689   5.104   6.213
 3466SOL    HW211298   6.710   5.175   6.068
 3467SOL     OW11299   2.491   1.850   6.667
 3467SOL    HW111300   2.547   1.816   6.743
 3467SOL    HW211301   2.459   1.772   6.612
 3468SOL     OW11302   2.938   5.711   3.403
 3468SOL    HW111303   2.893   5.797   3.379
 3468SOL    HW211304   2.988   5.677   3.323
 3469SOL     OW11305   6.578   2.606   4.230
 3469SOL    HW111306   6.577   2.560   4.141
 3469SOL    HW211307   6.607   2.541   4.301
 3470SOL     OW11308   0.731   5.198   1.300
 3470SOL    HW111309   0.659   5.162   1.241
 3470SOL    HW211310   0.821   5.172   1.265
 3471SOL     OW11311   4.085   5.423   5.237
 3471SOL    HW111312   4.029   5.490   5.188
 3471SOL    HW211313   4.051   5.413   5.330
 3472SOL     OW11314   2.144   0.912   4.192
 3472SOL    HW111315   2.213   0.908   4.264
 3472SOL    HW211316   2.139   1.005   4.155
 3473SOL     OW11317   5.402   1.685   5.683
 3473SOL    HW111318   5.374   1.592   5.709
 3473SOL    HW211319   5.449   1.729   5.759
 3474SOL     OW11320   3.029   4.972   2.031
 3474SOL    HW111321   3.091   4.917   2.087
 3474SOL    HW211322   2.971   4.911   1.977
 3475SOL     OW11323   0.953   6.731   3.869
 3475SOL    HW111324   0.862   6.729   3.826
 3475SOL    HW211325   0.973   6.642   3.909
 3476SOL     OW11326   4.088   0.504   5.157
 3476SOL    HW111327   4.138   0.587   5.181
 3476SOL    HW211328   4.001   0.503   5.206
 3477SOL     OW11329   3.422   5.294   1.305
 3477SOL    HW111330   3.395   5.379   1.350
 3477SOL    HW211331   3.349   5.265   1.243
 3478SOL     OW11332   2.401   6.158   5.791
 3478SOL    HW111333   2.327   6.224   5.799
 3478SOL    HW211334   2.448   6.150   5.879
 3479SOL     OW11335   0.917   0.369   2.578
 3479SOL    HW111336   0.878   0.459   2.558
 3479SOL    HW211337   0.978   0.342   2.504
 3480SOL     OW11338   6.981   1.389   4.165
 3480SOL    HW111339   0.044   1.340   4.159
 3480SOL    HW211340   6.978   1.460   4.094
 3481SOL     OW11341   3.814   6.696   6.387
 3481SOL    HW111342   3.803   6.700   6.287
 3481SOL    HW211343   3.802   6.787   6.426
 3482SOL     OW11344   6.111   1.412   1.268
 3482SOL    HW111345   6.208   1.424   1.288
 3482SOL    HW211346   6.097   1.402   1.170
 3483SOL     OW11347   2.566   0.288   0.978
 3483SOL    HW111348   2.547   0.215   1.043
 3483SOL    HW211349   2.480   0.323   0.941
 3484SOL     OW11350   3.031   3.064   3.097
 3484SOL    HW111351   3.042   3.035   3.192
 3484SOL    HW211352   3.093   3.013   3.038
 3485SOL     OW11353   2.144   1.367   4.832
 3485SOL    HW111354   2.175   1.431   4.901
 3485SOL    HW211355   2.061   1.403   4.788
 3486SOL     OW11356   3.957   1.422   1.574
 3486SOL    HW111357   3.902   1.400   1.655
 3486SOL    HW211358   4.047   1.454   1.603
 3487SOL     OW11359   5.896   1.895   6.471
 3487SOL    HW111360   5.895   1.881   6.372
 3487SOL    HW211361   5.829   1.836   6.514
 3488SOL     OW11362   6.957   3.363   3.932
 3488SOL    HW111363   6.983   3.420   3.855
 3488SOL    HW211364   6.946   3.268   3.901
 3489SOL     OW11365   3.165   6.623   0.461
 3489SOL    HW111366   3.134   6.656   0.550
 3489SOL    HW211367   3.219   6.541   0.473
 3490SOL     OW11368   4.884   4.118   0.449
 3490SOL    HW111369   4.810   4.065   0.492
 3490SOL    HW211370   4.924   4.064   0.375
 3491SOL     OW11371   6.925   2.881   5.453
 3491SOL    HW111372   6.865   2.816   5.501
 3491SOL    HW211373   6.876   2.922   5.377
 3492SOL     OW11374   0.880   5.858   6.885
 3492SOL    HW111375   0.967   5.840   6.839
 3492SOL    HW211376   0.874   5.955   6.909
 3493SOL     OW11377   6.037   4.947   0.784
 3493SOL    HW111378   5.961   4.999   0.745
 3493SOL    HW211379   6.090   4.905   0.710
 3494SOL     OW11380   3.881   6.977   1.049
 3494SOL    HW111381   3.881   6.877   1.043
 3494SOL    HW211382   3.969   7.013   1.019
 3495SOL     OW11383   4.058   4.976   2.013
 3495SOL    HW111384   4.081   4.947   1.920
 3495SOL    HW211385   4.097   5.067   2.030
 3496SOL     OW11386   1.493   3.027   1.591
 3496SOL    HW111387   1.476   2.977   1.676
 3496SOL    HW211388   1.485   3.125   1.607
 3497SOL     OW11389   4.623   0.690   3.399
 3497SOL    HW111390   4.692   0.618   3.395
 3497SOL    HW211391   4.583   0.693   3.490
 3498SOL     OW11392   2.898   1.562   1.261
 3498SOL    HW111393   2.984   1.519   1.234
 3498SOL    HW211394   2.893   1.653   1.222
 3499SOL     OW11395   6.547   3.630   4.301
 3499SOL    HW111396   6.599   3.593   4.224
 3499SOL    HW211397   6.512   3.720   4.277
 3500SOL     OW11398   6.568   4.082   5.865
 3500SOL    HW111399   6.588   4.180   5.864
 3500SOL    HW211400   6.496   4.064   5.932
 3501SOL     OW11401   1.162   4.605   5.264
 3501SOL    HW111402   1.065   4.580   5.253
 3501SOL    HW211403   1.186   4.598   5.361
 3502SOL     OW11404   0.298   2.304   1.720
 3502SOL    HW111405   0.230   2.377   1.711
 3502SOL    HW211406   0.285   2.257   1.807
 3503SOL     OW11407   4.705   5.955   5.709
 3503SOL    HW111408   4.702   5.857   5.694
 3503SOL    HW211409   4.800   5.983   5.725
 3504SOL     OW11410   2.785   3.691   1.154
 3504SOL    HW111411   2.790   3.781   1.111
 3504SOL    HW211412   2.855   3.683   1.225
 3505SOL     OW11413   4.934   5.948   5.054
 3505SOL    HW111414   4.879   6.009   4.996
 3505SOL    HW211415   5.015   5.918   5.004
 3506SOL     OW11416   4.230   5.667   4.300
 3506SOL    HW111417   4.265   5.579   4.266
 3506SOL    HW211418   4.134   5.657   4.324
 3507SOL     OW11419   1.220   0.902   6.301
 3507SOL    HW111420   1.210   0.845   6.382
 3507SOL    HW211421   1.227   0.998   6.328
 3508SOL     OW11422   5.118   2.320   0.085
 3508SOL    HW111423   5.138   2.258   0.161
 3508SOL    HW211424   5.204   2.348   0.042
 3509SOL     OW11425   6.100   6.360   6.815
 3509SOL    HW111426   6.101   6.425   6.739
 3509SOL    HW211427   6.187   6.311   6.818
 3510SOL     OW11428   1.725   2.084   1.598
 3510SOL    HW111429   1.657   2.060   1.528
 3510SOL    HW211430   1.806   2.121   1.553
 3511SOL     OW11431   1.832   3.275   6.896
 3511SOL    HW111432   1.747   3.283   6.845
 3511SOL    HW211433   1.847   3.179   6.921
 3512SOL     OW11434   1.049   3.700   0.193
 3512SOL    HW111435   1.048   3.739   0.285
 3512SOL    HW211436   1.079   3.770   0.128
 3513SOL     OW11437   6.559   4.007   1.081
 3513SOL    HW111438   6.465   4.002   1.047
 3513SOL    HW211439   6.621   4.023   1.005
 3514SOL     OW11440   0.557   6.523   1.114
 3514SOL    HW111441   0.532   6.609   1.159
 3514SOL    HW211442   0.551   6.533   1.015
 3515SOL     OW11443   3.150   6.064   2.705
 3515SOL    HW111444   3.095   5.985   2.732
 3515SOL    HW211445   3.170   6.058   2.607
 3516SOL     OW11446   3.688   0.694   0.771
 3516SOL    HW111447   3.720   0.778   0.813
 3516SOL    HW211448   3.608   0.659   0.821
 3517SOL     OW11449   0.847   1.592   0.241
 3517SOL    HW111450   0.786   1.517   0.216
 3517SOL    HW211451   0.857   1.595   0.341
 3518SOL     OW11452   4.717   3.675   6.467
 3518SOL    HW111453   4.797   3.719   6.507
 3518SOL    HW211454   4.738   3.646   6.373
 3519SOL     OW11455   1.012   6.470   6.769
 3519SOL    HW111456   1.083   6.441   6.834
 3519SOL    HW211457   0.925   6.479   6.818
 3520SOL     OW11458   3.886   4.518   1.043
 3520SOL    HW111459   3.887   4.513   0.943
 3520SOL    HW211460   3.977   4.495   1.078
 3521SOL     OW11461   5.369   2.951   1.655
 3521SOL    HW111462   5.304   2.927   1.727
 3521SOL    HW211463   5.444   2.885   1.654
 3522SOL     OW11464   2.471   5.238   1.973
 3522SOL    HW111465   2.417   5.289   2.040
 3522SOL    HW211466   2.567   5.237   2.002
 3523SOL     OW11467   3.127   4.658   5.315
 3523SOL    HW111468   3.057   4.616   5.257
 3523SOL    HW211469   3.117   4.758   5.313
 3524SOL     OW11470   2.817   0.375   0.864
 3524SOL    HW111471   2.745   0.339   0.923
 3524SOL    HW211472   2.896   0.400   0.919
 3525SOL     OW11473   0.276   2.793   2.012
 3525SOL    HW111474   0.355   2.791   1.951
 3525SOL    HW211475   0.280   2.875   2.069
 3526SOL     OW11476   0.641   0.920   2.986
 3526SOL    HW111477   0.738   0.896   2.985
 3526SOL    HW211478   0.627   1.003   2.931
 3527SOL     OW11479   5.231   2.796   6.544
 3527SOL    HW111480   5.218   2.842   6.457
 3527SOL    HW211481   5.176   2.841   6.614
 3528SOL     OW11482   0.655   5.973   3.032
 3528SOL    HW111483   0.674   5.976   3.130
 3528SOL    HW211484   0.676   5.882   2.997
 3529SOL     OW11485   4.538   6.888   5.634
 3529SOL    HW111486   4.527   6.793   5.605
 3529SOL    HW211487   4.451   6.921   5.671
 3530SOL     OW11488   2.740   5.644   2.604
 3530SOL    HW111489   2.730   5.743   2.602
 3530SOL    HW211490   2.720   5.610   2.696
 3531SOL     OW11491   5.236   4.171   0.189
 3531SOL    HW111492   5.263   4.189   0.094
 3531SOL    HW211493   5.306   4.116   0.234
 3532SOL     OW11494   2.448   0.635   6.962
 3532SOL    HW111495   2.495   0.625   0.026
 3532SOL    HW211496   2.515   0.629   6.888
 3533SOL     OW11497   0.954   1.607   3.103
 3533SOL    HW111498   1.014   1.619   3.024
 3533SOL    HW211499   1.007   1.576   3.181
 3534SOL     OW11500   5.891   1.407   5.262
 3534SOL    HW111501   5.845   1.463   5.331
 3534SOL    HW211502   5.849   1.424   5.172
 3535SOL     OW11503   6.514   5.379   6.254
 3535SOL    HW111504   6.507   5.376   6.354
 3535SOL    HW211505   6.579   5.310   6.223
 3536SOL     OW11506   1.865   3.108   2.995
 3536SOL    HW111507   1.936   3.178   2.996
 3536SOL    HW211508   1.881   3.043   3.070
 3537SOL     OW11509   2.221   5.618   0.784
 3537SOL    HW111510   2.203   5.521   0.765
 3537SOL    HW211511   2.160   5.650   0.856
 3538SOL     OW11512   3.116   6.896   3.310
 3538SOL    HW111513   3.192   6.857   3.259
 3538SOL    HW211514   3.080   6.828   3.373
 3539SOL     OW11515   5.546   4.311   5.666
 3539SOL    HW111516   5.468   4.301   5.728
 3539SOL    HW211517   5.561   4.407   5.646
 3540SOL     OW11518   2.207   3.033   6.958
 3540SOL    HW111519   2.225   2.962   0.001
 3540SOL    HW211520   2.201   2.991   6.867
 3541SOL     OW11521   2.641   3.377   0.810
 3541SOL    HW111522   2.714   3.398   0.875
 3541SOL    HW211523   2.601   3.463   0.777
 3542SOL     OW11524   5.728   2.924   6.941
 3542SOL    HW111525   5.679   2.846   6.981
 3542SOL    HW211526   5.826   2.917   6.963
 3543SOL     OW11527   1.816   3.552   3.302
 3543SOL    HW111528   1.825   3.649   3.327
 3543SOL    HW211529   1.734   3.514   3.346
 3544SOL     OW11530   3.243   4.107   6.678
 3544SOL    HW111531   3.148   4.074   6.682
 3544SOL    HW211532   3.301   4.050   6.736
 3545SOL     OW11533   3.728   5.541   0.560
 3545SOL    HW111534   3.803   5.607   0.547
 3545SOL    HW211535   3.722   5.517   0.657
 3546SOL     OW11536   6.561   3.634   3.210
 3546SOL    HW111537   6.592   3.727   3.229
 3546SOL    HW211538   6.637   3.570   3.224
 3547SOL     OW11539   6.924   3.495   5.025
 3547SOL    HW111540   6.991   3.421   5.023
 3547SOL    HW211541   6.942   3.558   4.950
 3548SOL     OW11542   4.707   1.901   6.174
 3548SOL    HW111543   4.800   1.909   6.138
 3548SOL    HW211544   4.649   1.856   6.105
 3549SOL     OW11545   1.991   5.935   6.378
 3549SOL    HW111546   2.074   5.916   6.431
 3549SOL    HW211547   1.915   5.881   6.415
 3550SOL     OW11548   4.929   2.099   4.916
 3550SOL    HW111549   4.914   2.128   4.822
 3550SOL    HW211550   4.896   2.006   4.928
 3551SOL     OW11551   3.764   2.135   5.538
 3551SOL    HW111552   3.696   2.062   5.550
 3551SOL    HW211553   3.719   2.224   5.545
 3552SOL     OW11554   6.727   5.546   1.249
 3552SOL    HW111555   6.653   5.598   1.291
 3552SOL    HW211556   6.692   5.458   1.216
 3553SOL     OW11557   3.695   6.274   5.984
 3553SOL    HW111558   3.772   6.316   5.935
 3553SOL    HW211559   3.672   6.329   6.064
 3554SOL     OW11560   4.006   3.690   1.115
 3554SOL    HW111561   4.092   3.687   1.064
 3554SOL    HW211562   3.932   3.717   1.053
 3555SOL     OW11563   1.587   2.186   4.343
 3555SOL    HW111564   1.526   2.245   4.395
 3555SOL    HW211565   1.681   2.221   4.350
 3556SOL     OW11566   3.730   1.139   4.983
 3556SOL    HW111567   3.703   1.049   5.014
 3556SOL    HW211568   3.650   1.199   4.980
 3557SOL     OW11569   0.185   0.613   2.729
 3557SOL    HW111570   0.109   0.606   2.795
 3557SOL    HW211571   0.162   0.680   2.658
 3558SOL     OW11572   2.737   6.215   0.636
 3558SOL    HW111573   2.664   6.170   0.585
 3558SOL    HW211574   2.740   6.312   0.612
 3559SOL     OW11575   3.595   6.508   4.587
 3559SOL    HW111576   3.496   6.497   4.593
 3559SOL    HW211577   3.640   6.429   4.629
 3560SOL     OW11578   1.946   5.006   4.822
 3560SOL    HW111579   2.008   5.042   4.892
 3560SOL    HW211580   1.869   4.960   4.866
 3561SOL     OW11581   5.399   4.336   4.939
 3561SOL    HW111582   5.438   4.262   4.994
 3561SOL    HW211583   5.317   4.303   4.893
 3562SOL     OW11584   2.569   1.672   4.541
 3562SOL    HW111585   2.639   1.610   4.577
 3562SOL    HW211586   2.490   1.619   4.511
 3563SOL     OW11587   6.135   2.312   5.744
 3563SOL    HW111588   6.065   2.303   5.674
 3563SOL    HW211589   6.196   2.233   5.741
 3564SOL     OW11590   0.432   4.620   2.880
 3564SOL    HW111591   0.393   4.642   2.969
 3564SOL    HW211592   0.388   4.676   2.810
 3565SOL     OW11593   3.121   4.910   3.151
 3565SOL    HW111594   3.022   4.904   3.162
 3565SOL    HW211595   3.146   5.003   3.124
 3566SOL     OW11596   6.730   1.328   5.028
 3566SOL    HW111597   6.817   1.321   5.076
 3566SOL    HW211598   6.729   1.263   4.951
 3567SOL     OW11599   0.483   3.854   6.445
 3567SOL    HW111600   0.449   3.873   6.537
 3567SOL    HW211601   0.519   3.938   6.405
 3568SOL     OW11602   6.732   4.155   5.637
 3568SOL    HW111603   6.760   4.103   5.556
 3568SOL    HW211604   6.704   4.092   5.709
 3569SOL     OW11605   2.578   1.697   6.006
 3569SOL    HW111606   2.617   1.609   5.979
 3569SOL    HW211607   2.643   1.747   6.062
 3570SOL     OW11608   5.539   0.273   4.964
 3570SOL    HW111609   5.517   0.194   5.020
 3570SOL    HW211610   5.629   0.262   4.923
 3571SOL     OW11611   6.884   5.846   0.098
 3571SOL    HW111612   6.903   5.759   0.052
 3571SOL    HW211613   6.819   5.899   0.044
 3572SOL     OW11614   5.548   3.793   3.770
 3572SOL    HW111615   5.507   3.779   3.680
 3572SOL    HW211616   5.629   3.852   3.761
 3573SOL     OW11617   0.876   4.001   4.359
 3573SOL    HW111618   0.954   4.062   4.364
 3573SOL    HW211619   0.793   4.050   4.387
 3574SOL     OW11620   0.657   4.875   0.144
 3574SOL    HW111621   0.631   4.968   0.119
 3574SOL    HW211622   0.643   4.815   0.066
 3575SOL     OW11623   6.287   5.148   3.313
 3575SOL    HW111624   6.329   5.083   3.249
 3575SOL    HW211625   6.211   5.195   3.268
 3576SOL     OW11626   1.765   1.572   6.051
 3576SOL    HW111627   1.851   1.557   6.099
 3576SOL    HW211628   1.757   1.508   5.975
 3577SOL     OW11629   1.323   2.652   6.691
 3577SOL    HW111630   1.224   2.642   6.698
 3577SOL    HW211631   1.346   2.698   6.605
 3578SOL     OW11632   4.264   3.506   6.683
 3578SOL    HW111633   4.362   3.521   6.667
 3578SOL    HW211634   4.226   3.584   6.731
 3579SOL     OW11635   6.825   3.907   5.133
 3579SOL    HW111636   6.755   3.920   5.062
 3579SOL    HW211637   6.820   3.814   5.169
 3580SOL     OW11638   5.843   2.263   1.334
 3580SOL    HW111639   5.871   2.167   1.344
 3580SOL    HW211640   5.812   2.297   1.423
 3581SOL     OW11641   6.857   0.418   3.315
 3581SOL    HW111642   6.797   0.455   3.386
 3581SOL    HW211643   6.928   0.362   3.357
 3582SOL     OW11644   0.616   2.015   5.941
 3582SOL    HW111645   0.654   2.071   6.015
 3582SOL    HW211646   0.516   2.022   5.942
 3583SOL     OW11647   0.884   4.232   6.949
 3583SOL    HW111648   0.970   4.187   6.974
 3583SOL    HW211649   0.812   4.164   6.940
 3584SOL     OW11650   6.249   6.331   6.481
 3584SOL    HW111651   6.217   6.357   6.389
 3584SOL    HW211652   6.238   6.233   6.494
 3585SOL     OW11653   3.440   5.214   4.930
 3585SOL    HW111654   3.428   5.269   5.013
 3585SOL    HW211655   3.537   5.202   4.911
 3586SOL     OW11656   6.186   2.943   5.397
 3586SOL    HW111657   6.184   3.004   5.476
 3586SOL    HW211658   6.137   2.858   5.419
 3587SOL     OW11659   2.945   6.052   1.035
 3587SOL    HW111660   2.933   6.033   0.938
 3587SOL    HW211661   3.031   6.102   1.049
 3588SOL     OW11662   1.537   2.351   5.540
 3588SOL    HW111663   1.514   2.270   5.485
 3588SOL    HW211664   1.468   2.421   5.526
 3589SOL     OW11665   3.026   0.774   4.419
 3589SOL    HW111666   3.051   0.679   4.436
 3589SOL    HW211667   3.100   0.820   4.370
 3590SOL     OW11668   0.446   4.497   6.667
 3590SOL    HW111669   0.522   4.457   6.616
 3590SOL    HW211670   0.370   4.517   6.605
 3591SOL     OW11671   5.611   3.011   6.715
 3591SOL    HW111672   5.673   2.967   6.780
 3591SOL    HW211673   5.633   3.108   6.708
 3592SOL     OW11674   5.159   3.134   3.353
 3592SOL    HW111675   5.140   3.130   3.255
 3592SOL    HW211676   5.147   3.042   3.392
 3593SOL     OW11677   2.787   6.472   4.217
 3593SOL    HW111678   2.722   6.525   4.163
 3593SOL    HW211679   2.826   6.399   4.161
 3594SOL     OW11680   3.694   0.895   3.183
 3594SOL    HW111681   3.622   0.826   3.179
 3594SOL    HW211682   3.783   0.849   3.188
 3595SOL     OW11683   2.529   6.279   5.413
 3595SOL    HW111684   2.434   6.250   5.399
 3595SOL    HW211685   2.583   6.202   5.449
 3596SOL     OW11686   6.263   1.261   2.609
 3596SOL    HW111687   6.228   1.353   2.626
 3596SOL    HW211688   6.187   1.199   2.589
 3597SOL     OW11689   3.322   6.001   4.466
 3597SOL    HW111690   3.310   5.948   4.381
 3597SOL    HW211691   3.311   6.098   4.446
 3598SOL     OW11692   0.910   0.647   5.592
 3598SOL    HW111693   0.888   0.593   5.673
 3598SOL    HW211694   0.869   0.604   5.512
 3599SOL     OW11695   1.187   2.252   5.579
 3599SOL    HW111696   1.151   2.161   5.599
 3599SOL    HW211697   1.229   2.290   5.661
 3600SOL     OW11698   0.025   3.324   0.510
 3600SOL    HW111699   7.023   3.235   0.473
 3600SOL    HW211700   0.025   3.321   0.609
 3601SOL     OW11701   6.860   4.115   0.605
 3601SOL    HW111702   6.872   4.189   0.671
 3601SOL    HW211703   6.820   4.152   0.521
 3602SOL     OW11704   2.248   1.041   0.800
 3602SOL    HW111705   2.289   1.096   0.873
 3602SOL    HW211706   2.173   1.093   0.758
 3603SOL     OW11707   3.743   5.731   4.135
 3603SOL    HW111708   3.774   5.647   4.092
 3603SOL    HW211709   3.801   5.807   4.106
 3604SOL     OW11710   0.068   3.665   3.176
 3604SOL    HW111711   0.153   3.626   3.212
 3604SOL    HW211712   0.064   3.650   3.077
 3605SOL     OW11713   6.214   4.437   5.674
 3605SOL    HW111714   6.120   4.402   5.678
 3605SOL    HW211715   6.276   4.367   5.710
 3606SOL     OW11716   0.007   4.797   6.065
 3606SOL    HW111717   7.005   4.749   5.982
 3606SOL    HW211718   0.003   4.735   6.143
 3607SOL     OW11719   5.115   6.989   0.638
 3607SOL    HW111720   5.204   6.945   0.636
 3607SOL    HW211721   5.072   6.983   0.548
 3608SOL     OW11722   6.486   1.939   2.057
 3608SOL    HW111723   6.565   1.949   2.118
 3608SOL    HW211724   6.406   1.910   2.110
 3609SOL     OW11725   6.681   0.820   4.306
 3609SOL    HW111726   6.594   0.863   4.329
 3609SOL    HW211727   6.703   0.750   4.373
 3610SOL     OW11728   0.828   0.716   5.145
 3610SOL    HW111729   0.755   0.650   5.163
 3610SOL    HW211730   0.790   0.796   5.098
 3611SOL     OW11731   3.761   5.010   5.096
 3611SOL    HW111732   3.825   5.045   5.165
 3611SOL    HW211733   3.668   5.010   5.134
 3612SOL     OW11734   0.409   6.526   6.062
 3612SOL    HW111735   0.320   6.546   6.103
 3612SOL    HW211736   0.407   6.435   6.021
 3613SOL     OW11737   5.432   4.858   0.939
 3613SOL    HW111738   5.433   4.768   0.895
 3613SOL    HW211739   5.352   4.864   0.999
 3614SOL     OW11740   3.830   3.294   3.921
 3614SOL    HW111741   3.805   3.215   3.977
 3614SOL    HW211742   3.752   3.357   3.916
 3615SOL     OW11743   5.737   6.422   6.131
 3615SOL    HW111744   5.816   6.483   6.130
 3615SOL    HW211745   5.668   6.456   6.067
 3616SOL     OW11746   6.281   2.194   6.567
 3616SOL    HW111747   6.185   2.201   6.541
 3616SOL    HW211748   6.288   2.166   6.663
 3617SOL     OW11749   5.510   1.743   6.114
 3617SOL    HW111750   5.507   1.687   6.197
 3617SOL    HW211751   5.549   1.833   6.136
 3618SOL     OW11752   1.835   1.903   5.127
 3618SOL    HW111753   1.817   1.807   5.105
 3618SOL    HW211754   1.804   1.922   5.220
 3619SOL     OW11755   6.372   2.031   3.592
 3619SOL    HW111756   6.403   2.086   3.670
 3619SOL    HW211757   6.344   2.091   3.517
 3620SOL     OW11758   6.011   6.103   6.021
 3620SOL    HW111759   5.914   6.093   6.046
 3620SOL    HW211760   6.019   6.171   5.948
 3621SOL     OW11761   2.638   2.329   6.504
 3621SOL    HW111762   2.700   2.399   6.468
 3621SOL    HW211763   2.661   2.241   6.464
 3622SOL     OW11764   2.014   1.917   3.334
 3622SOL    HW111765   1.960   1.966   3.266
 3622SOL    HW211766   2.091   1.872   3.288
 3623SOL     OW11767   5.855   5.438   4.054
 3623SOL    HW111768   5.943   5.466   4.092
 3623SOL    HW211769   5.862   5.430   3.954
 3624SOL     OW11770   2.222   5.969   2.648
 3624SOL    HW111771   2.138   5.914   2.650
 3624SOL    HW211772   2.251   5.981   2.553
 3625SOL     OW11773   5.981   3.188   6.893
 3625SOL    HW111774   5.966   3.151   6.802
 3625SOL    HW211775   5.928   3.272   6.905
 3626SOL     OW11776   1.860   4.049   5.522
 3626SOL    HW111777   1.907   4.031   5.436
 3626SOL    HW211778   1.778   4.104   5.503
 3627SOL     OW11779   4.092   3.517   3.265
 3627SOL    HW111780   4.125   3.426   3.292
 3627SOL    HW211781   4.071   3.571   3.346
 3628SOL     OW11782   2.121   6.605   1.642
 3628SOL    HW111783   2.088   6.517   1.608
 3628SOL    HW211784   2.196   6.637   1.586
 3629SOL     OW11785   6.251   2.330   5.027
 3629SOL    HW111786   6.202   2.243   5.036
 3629SOL    HW211787   6.221   2.377   4.944
 3630SOL     OW11788   5.663   2.778   3.786
 3630SOL    HW111789   5.696   2.852   3.728
 3630SOL    HW211790   5.736   2.712   3.801
 3631SOL     OW11791   1.998   0.230   3.876
 3631SOL    HW111792   1.904   0.194   3.872
 3631SOL    HW211793   2.021   0.272   3.788
 3632SOL     OW11794   5.333   0.622   0.722
 3632SOL    HW111795   5.411   0.653   0.776
 3632SOL    HW211796   5.365   0.587   0.634
 3633SOL     OW11797   2.838   2.342   6.045
 3633SOL    HW111798   2.869   2.247   6.048
 3633SOL    HW211799   2.743   2.345   6.014
 3634SOL     OW11800   0.701   5.592   5.145
 3634SOL    HW111801   0.728   5.517   5.206
 3634SOL    HW211802   0.782   5.633   5.105
 3635SOL     OW11803   2.959   0.429   5.488
 3635SOL    HW111804   2.985   0.464   5.578
 3635SOL    HW211805   2.976   0.500   5.419
 3636SOL     OW11806   1.022   6.130   6.026
 3636SOL    HW111807   1.008   6.110   6.122
 3636SOL    HW211808   0.985   6.221   6.005
 3637SOL     OW11809   6.350   2.106   1.217
 3637SOL    HW111810   6.339   2.088   1.314
 3637SOL    HW211811   6.262   2.094   1.170
 3638SOL     OW11812   7.007   5.061   4.354
 3638SOL    HW111813   6.931   5.022   4.406
 3638SOL    HW211814   0.069   5.027   4.391
 3639SOL     OW11815   4.220   3.776   0.976
 3639SOL    HW111816   4.291   3.762   0.908
 3639SOL    HW211817   4.239   3.860   1.028
 3640SOL     OW11818   3.471   6.826   6.751
 3640SOL    HW111819   3.533   6.893   6.710
 3640SOL    HW211820   3.386   6.871   6.778
 3641SOL     OW11821   4.558   2.452   4.867
 3641SOL    HW111822   4.533   2.405   4.951
 3641SOL    HW211823   4.476   2.475   4.815
 3642SOL     OW11824   4.987   1.587   5.979
 3642SOL    HW111825   5.047   1.636   6.041
 3642SOL    HW211826   4.967   1.644   5.900
 3643SOL     OW11827   2.697   5.869   4.853
 3643SOL    HW111828   2.604   5.857   4.818
 3643SOL    HW211829   2.723   5.789   4.907
 3644SOL     OW11830   6.987   1.596   1.665
 3644SOL    HW111831   0.018   1.620   1.586
 3644SOL    HW211832   6.908   1.657   1.671
 3645SOL     OW11833   5.625   1.074   4.042
 3645SOL    HW111834   5.681   1.006   3.994
 3645SOL    HW211835   5.673   1.103   4.125
 3646SOL     OW11836   6.735   4.989   6.371
 3646SOL    HW111837   6.673   5.010   6.446
 3646SOL    HW211838   6.829   5.008   6.398
 3647SOL     OW11839   2.050   3.999   0.588
 3647SOL    HW111840   2.032   4.032   0.495
 3647SOL    HW211841   2.148   3.982   0.599
 3648SOL     OW11842   3.379   5.713   2.922
 3648SOL    HW111843   3.356   5.636   2.982
 3648SOL    HW211844   3.438   5.777   2.971
 3649SOL     OW11845   4.481   2.956   1.246
 3649SOL    HW111846   4.555   3.010   1.286
 3649SOL    HW211847   4.394   2.984   1.287
 3650SOL     OW11848   0.040   5.509   0.607
 3650SOL    HW111849   6.989   5.575   0.608
 3650SOL    HW211850   0.004   5.418   0.588
 3651SOL     OW11851   0.557   5.520   2.926
 3651SOL    HW111852   0.497   5.581   2.874
 3651SOL    HW211853   0.503   5.475   2.998
 3652SOL     OW11854   5.489   5.921   3.107
 3652SOL    HW111855   5.454   6.003   3.150
 3652SOL    HW211856   5.468   5.922   3.009
 3653SOL     OW11857   6.505   0.791   3.928
 3653SOL    HW111858   6.596   0.827   3.948
 3653SOL    HW211859   6.503   0.751   3.837
 3654SOL     OW11860   2.167   0.058   0.188
 3654SOL    HW111861   2.124   6.998   0.221
 3654SOL    HW211862   2.260   0.065   0.225
 3655SOL     OW11863   1.142   6.889   3.793
 3655SOL    HW111864   1.227   6.854   3.832
 3655SOL    HW211865   1.064   6.853   3.844
 3656SOL     OW11866   1.431   2.969   2.051
 3656SOL    HW111867   1.426   2.922   1.962
 3656SOL    HW211868   1.491   2.917   2.112
 3657SOL     OW11869   4.811   5.793   6.059
 3657SOL    HW111870   4.893   5.772   6.112
 3657SOL    HW211871   4.745   5.843   6.116
 3658SOL     OW11872   0.987   5.800   3.428
 3658SOL    HW111873   0.962   5.722   3.370
 3658SOL    HW211874   0.912   5.819   3.491
 3659SOL     OW11875   3.242   3.443   5.951
 3659SOL    HW111876   3.143   3.441   5.936
 3659SOL    HW211877   3.289   3.411   5.868
 3660SOL     OW11878   4.853   6.493   1.977
 3660SOL    HW111879   4.827   6.407   2.021
 3660SOL    HW211880   4.953   6.499   1.971
 3661SOL     OW11881   4.545   1.852   6.404
 3661SOL    HW111882   4.475   1.922   6.417
 3661SOL    HW211883   4.599   1.874   6.323
 3662SOL     OW11884   3.853   0.851   3.809
 3662SOL    HW111885   3.801   0.936   3.799
 3662SOL    HW211886   3.791   0.773   3.804
 3663SOL     OW11887   1.784   1.293   0.368
 3663SOL    HW111888   1.693   1.334   0.375
 3663SOL    HW211889   1.854   1.362   0.390
 3664SOL     OW11890   4.732   2.596   1.399
 3664SOL    HW111891   4.760   2.692   1.391
 3664SOL    HW211892   4.793   2.538   1.345
 3665SOL     OW11893   0.323   5.626   5.446
 3665SOL    HW111894   0.287   5.652   5.535
 3665SOL    HW211895   0.384   5.548   5.456
 3666SOL     OW11896   1.734   3.870   2.752
 3666SOL    HW111897   1.760   3.946   2.812
 3666SOL    HW211898   1.775   3.882   2.662
 3667SOL     OW11899   6.221   0.270   0.653
 3667SOL    HW111900   6.239   0.172   0.652
 3667SOL    HW211901   6.308   0.320   0.657
 3668SOL     OW11902   1.663   0.373   1.854
 3668SOL    HW111903   1.685   0.330   1.767
 3668SOL    HW211904   1.569   0.348   1.880
 3669SOL     OW11905   6.466   0.898   4.790
 3669SOL    HW111906   6.385   0.956   4.781
 3669SOL    HW211907   6.443   0.818   4.846
 3670SOL     OW11908   2.096   4.473   0.463
 3670SOL    HW111909   2.170   4.536   0.440
 3670SOL    HW211910   2.117   4.428   0.550
 3671SOL     OW11911   6.390   0.337   4.003
 3671SOL    HW111912   6.329   0.417   4.000
 3671SOL    HW211913   6.396   0.304   4.097
 3672SOL     OW11914   5.776   1.549   1.228
 3672SOL    HW111915   5.716   1.474   1.199
 3672SOL    HW211916   5.825   1.523   1.311
 3673SOL     OW11917   3.489   0.678   6.017
 3673SOL    HW111918   3.536   0.765   6.034
 3673SOL    HW211919   3.409   0.696   5.959
 3674SOL     OW11920   0.537   0.476   5.542
 3674SOL    HW111921   0.496   0.561   5.508
 3674SOL    HW211922   0.472   0.401   5.532
 3675SOL     OW11923   2.038   3.178   5.263
 3675SOL    HW111924   2.056   3.252   5.198
 3675SOL    HW211925   2.124   3.149   5.305
 3676SOL     OW11926   4.381   4.960   4.499
 3676SOL    HW111927   4.479   4.948   4.518
 3676SOL    HW211928   4.332   4.879   4.531
 3677SOL     OW11929   1.181   6.230   2.920
 3677SOL    HW111930   1.085   6.216   2.896
 3677SOL    HW211931   1.224   6.291   2.853
 3678SOL     OW11932   0.936   3.091   3.871
 3678SOL    HW111933   0.853   3.040   3.893
 3678SOL    HW211934   0.971   3.135   3.953
 3679SOL     OW11935   1.227   0.631   3.176
 3679SOL    HW111936   1.200   0.691   3.252
 3679SOL    HW211937   1.153   0.628   3.108
 3680SOL     OW11938   5.653   2.791   3.422
 3680SOL    HW111939   5.580   2.809   3.356
 3680SOL    HW211940   5.735   2.762   3.373
 3681SOL     OW11941   0.681   0.440   5.125
 3681SOL    HW111942   0.709   0.484   5.040
 3681SOL    HW211943   0.655   0.345   5.107
 3682SOL     OW11944   6.248   2.491   6.310
 3682SOL    HW111945   6.176   2.422   6.314
 3682SOL    HW211946   6.247   2.545   6.394
 3683SOL     OW11947   0.135   0.072   4.502
 3683SOL    HW111948   0.126   7.005   4.462
 3683SOL    HW211949   0.045   0.112   4.516
 3684SOL     OW11950   1.686   3.510   6.990
 3684SOL    HW111951   1.752   3.452   6.943
 3684SOL    HW211952   1.602   3.458   7.007
 3685SOL     OW11953   6.421   6.353   6.239
 3685SOL    HW111954   6.501   6.311   6.196
 3685SOL    HW211955   6.441   6.375   6.334
 3686SOL     OW11956   6.291   5.429   3.497
 3686SOL    HW111957   6.282   5.361   3.570
 3686SOL    HW211958   6.382   5.423   3.456
 3687SOL     OW11959   3.197   5.941   5.503
 3687SOL    HW111960   3.222   6.031   5.538
 3687SOL    HW211961   3.134   5.897   5.566
 3688SOL     OW11962   1.524   3.713   6.970
 3688SOL    HW111963   1.448   3.675   6.917
 3688SOL    HW211964   1.595   3.643   6.979
 3689SOL     OW11965   1.172   0.538   6.302
 3689SOL    HW111966   1.108   0.504   6.233
 3689SOL    HW211967   1.124   0.601   6.363
 3690SOL     OW11968   4.048   7.013   6.779
 3690SOL    HW111969   4.101   6.929   6.775
 3690SOL    HW211970   4.073   0.048   6.702
 3691SOL     OW11971   2.427   2.601   0.111
 3691SOL    HW111972   2.464   2.603   0.204
 3691SOL    HW211973   2.337   2.557   0.111
 3692SOL     OW11974   1.129   6.271   4.992
 3692SOL    HW111975   1.097   6.349   4.938
 3692SOL    HW211976   1.187   6.303   5.067
 3693SOL     OW11977   2.166   2.576   2.566
 3693SOL    HW111978   2.107   2.654   2.586
 3693SOL    HW211979   2.260   2.598   2.593
 3694SOL     OW11980   1.013   5.763   2.717
 3694SOL    HW111981   1.096   5.708   2.708
 3694SOL    HW211982   0.934   5.702   2.726
 3695SOL     OW11983   6.861   2.709   2.409
 3695SOL    HW111984   6.830   2.751   2.324
 3695SOL    HW211985   6.949   2.663   2.394
 3696SOL     OW11986   3.322   5.590   4.991
 3696SOL    HW111987   3.229   5.607   4.959
 3696SOL    HW211988   3.386   5.603   4.916
 3697SOL     OW11989   0.312   5.902   3.539
 3697SOL    HW111990   0.388   5.845   3.572
 3697SOL    HW211991   0.236   5.895   3.603
 3698SOL     OW11992   3.142   6.359   4.717
 3698SOL    HW111993   3.090   6.273   4.715
 3698SOL    HW211994   3.078   6.436   4.713
 3699SOL     OW11995   6.730   3.653   2.760
 3699SOL    HW111996   6.746   3.711   2.679
 3699SOL    HW211997   6.638   3.614   2.755
 3700SOL     OW11998   6.993   0.467   4.413
 3700SOL    HW111999   6.942   0.381   4.411
 3700SOL    HW212000   6.990   0.509   4.322
 3701SOL     OW12001   0.778   0.936   3.580
 3701SOL    HW112002   0.737   0.965   3.494
 3701SOL    HW212003   0.805   0.840   3.573
 3702SOL     OW12004   4.378   0.324   2.357
 3702SOL    HW112005   4.359   0.384   2.279
 3702SOL    HW212006   4.305   0.256   2.364
 3703SOL     OW12007   4.614   2.842   6.512
 3703SOL    HW112008   4.577   2.749   6.506
 3703SOL    HW212009   4.612   2.885   6.422
 3704SOL     OW12010   2.983   0.268   1.131
 3704SOL    HW112011   3.048   0.192   1.138
 3704SOL    HW212012   2.899   0.243   1.179
 3705SOL     OW12013   5.090   6.099   3.711
 3705SOL    HW112014   5.014   6.132   3.767
 3705SOL    HW212015   5.066   6.109   3.614
 3706SOL     OW12016   0.641   3.462   4.515
 3706SOL    HW112017   0.561   3.494   4.465
 3706SOL    HW212018   0.717   3.449   4.450
 3707SOL     OW12019   5.921   3.923   5.120
 3707SOL    HW112020   5.987   3.993   5.095
 3707SOL    HW212021   5.945   3.837   5.076
 3708SOL     OW12022   6.420   0.725   6.513
 3708SOL    HW112023   6.409   0.640   6.565
 3708SOL    HW212024   6.339   0.740   6.456
 3709SOL     OW12025   3.875   0.828   0.463
 3709SOL    HW112026   3.902   0.885   0.386
 3709SOL    HW212027   3.956   0.801   0.515
 3710SOL     OW12028   6.518   5.926   0.531
 3710SOL    HW112029   6.583   5.978   0.477
 3710SOL    HW212030   6.480   5.851   0.476
 3711SOL     OW12031   0.008   6.329   1.857
 3711SOL    HW112032   0.013   6.229   1.856
 3711SOL    HW212033   0.097   6.366   1.884
 3712SOL     OW12034   6.594   6.236   7.019
 3712SOL    HW112035   6.569   6.322   6.974
 3712SOL    HW212036   6.692   6.235   0.014
 3713SOL     OW12037   1.422   6.261   4.477
 3713SOL    HW112038   1.367   6.312   4.543
 3713SOL    HW212039   1.370   6.182   4.444
 3714SOL     OW12040   4.719   5.530   5.308
 3714SOL    HW112041   4.622   5.536   5.282
 3714SOL    HW212042   4.761   5.620   5.298
 3715SOL     OW12043   5.977   4.050   3.942
 3715SOL    HW112044   6.001   4.146   3.930
 3715SOL    HW212045   5.878   4.041   3.949
 3716SOL     OW12046   6.284   0.086   5.322
 3716SOL    HW112047   6.305   0.150   5.247
 3716SOL    HW212048   6.346   0.008   5.317
 3717SOL     OW12049   6.003   5.350   6.363
 3717SOL    HW112050   6.024   5.294   6.443
 3717SOL    HW212051   6.087   5.391   6.329
 3718SOL     OW12052   2.431   0.147   5.526
 3718SOL    HW112053   2.450   0.189   5.437
 3718SOL    HW212054   2.342   0.179   5.559
 3719SOL     OW12055   5.382   4.367   0.645
 3719SOL    HW112056   5.383   4.441   0.578
 3719SOL    HW212057   5.295   4.318   0.641
 3720SOL     OW12058   5.683   2.426   5.668
 3720SOL    HW112059   5.624   2.478   5.730
 3720SOL    HW212060   5.652   2.438   5.573
 3721SOL     OW12061   5.105   4.277   0.589
 3721SOL    HW112062   5.061   4.249   0.674
 3721SOL    HW212063   5.052   4.244   0.511
 3722SOL     OW12064   6.799   0.138   2.753
 3722SOL    HW112065   6.721   0.099   2.801
 3722SOL    HW212066   6.878   0.077   2.761
 3723SOL     OW12067   6.207   6.153   1.637
 3723SOL    HW112068   6.187   6.074   1.695
 3723SOL    HW212069   6.281   6.132   1.574
 3724SOL     OW12070   2.319   5.018   6.782
 3724SOL    HW112071   2.330   5.036   6.880
 3724SOL    HW212072   2.403   5.045   6.734
 3725SOL     OW12073   5.107   6.179   7.021
 3725SOL    HW112074   5.098   6.215   6.928
 3725SOL    HW212075   5.201   6.149   0.013
 3726SOL     OW12076   6.421   4.795   0.487
 3726SOL    HW112077   6.451   4.738   0.563
 3726SOL    HW212078   6.445   4.751   0.400
 3727SOL     OW12079   6.605   2.832   5.772
 3727SOL    HW112080   6.586   2.753   5.829
 3727SOL    HW212081   6.608   2.915   5.828
 3728SOL     OW12082   1.856   3.911   0.123
 3728SOL    HW112083   1.894   3.819   0.136
 3728SOL    HW212084   1.777   3.907   0.062
 3729SOL     OW12085   1.732   2.493   3.721
 3729SOL    HW112086   1.765   2.564   3.783
 3729SOL    HW212087   1.810   2.447   3.679
 3730SOL     OW12088   2.791   5.445   6.522
 3730SOL    HW112089   2.836   5.404   6.442
 3730SOL    HW212090   2.854   5.509   6.566
 3731SOL     OW12091   4.580   6.986   0.737
 3731SOL    HW112092   4.609   6.962   0.644
 3731SOL    HW212093   4.655   0.006   0.785
 3732SOL     OW12094   1.621   2.726   0.036
 3732SOL    HW112095   1.531   2.759   0.007
 3732SOL    HW212096   1.612   2.633   0.072
 3733SOL     OW12097   1.402   3.533   1.443
 3733SOL    HW112098   1.324   3.491   1.489
 3733SOL    HW212099   1.392   3.632   1.442
 3734SOL     OW12100   4.184   1.664   1.895
 3734SOL    HW112101   4.112   1.733   1.895
 3734SOL    HW212102   4.174   1.607   1.813
 3735SOL     OW12103   1.505   1.485   3.746
 3735SOL    HW112104   1.591   1.437   3.766
 3735SOL    HW212105   1.440   1.468   3.820
 3736SOL     OW12106   0.052   3.031   0.967
 3736SOL    HW112107   6.998   3.089   0.948
 3736SOL    HW212108   0.099   3.062   1.049
 3737SOL     OW12109   5.542   0.214   3.343
 3737SOL    HW112110   5.451   0.196   3.381
 3737SOL    HW212111   5.585   0.128   3.317
 3738SOL     OW12112   6.573   6.354   2.943
 3738SOL    HW112113   6.479   6.359   2.977
 3738SOL    HW212114   6.610   6.447   2.935
 3739SOL     OW12115   2.337   4.812   1.767
 3739SOL    HW112116   2.374   4.904   1.754
 3739SOL    HW212117   2.345   4.786   1.863
 3740SOL     OW12118   4.505   0.375   0.217
 3740SOL    HW112119   4.569   0.312   0.174
 3740SOL    HW212120   4.514   0.369   0.317
 3741SOL     OW12121   4.476   3.046   1.600
 3741SOL    HW112122   4.388   3.001   1.594
 3741SOL    HW212123   4.514   3.034   1.692
 3742SOL     OW12124   2.437   1.973   5.840
 3742SOL    HW112125   2.405   1.880   5.822
 3742SOL    HW212126   2.361   2.030   5.870
 3743SOL     OW12127   5.547   4.569   1.080
 3743SOL    HW112128   5.531   4.478   1.119
 3743SOL    HW212129   5.535   4.564   0.980
 3744SOL     OW12130   0.737   5.742   2.932
 3744SOL    HW112131   0.727   5.752   2.833
 3744SOL    HW212132   0.693   5.658   2.962
 3745SOL     OW12133   3.445   5.661   1.948
 3745SOL    HW112134   3.425   5.706   2.034
 3745SOL    HW212135   3.541   5.675   1.924
 3746SOL     OW12136   4.439   1.622   2.496
 3746SOL    HW112137   4.440   1.714   2.456
 3746SOL    HW212138   4.357   1.573   2.464
 3747SOL     OW12139   3.509   0.423   5.901
 3747SOL    HW112140   3.438   0.372   5.852
 3747SOL    HW212141   3.466   0.498   5.951
 3748SOL     OW12142   4.844   0.809   1.796
 3748SOL    HW112143   4.932   0.796   1.749
 3748SOL    HW212144   4.777   0.746   1.759
 3749SOL     OW12145   1.365   6.719   3.969
 3749SOL    HW112146   1.457   6.696   4.002
 3749SOL    HW212147   1.361   6.706   3.870
 3750SOL     OW12148   2.023   4.334   0.215
 3750SOL    HW112149   2.046   4.398   0.288
 3750SOL    HW212150   2.067   4.364   0.130
 3751SOL     OW12151   6.440   3.581   2.143
 3751SOL    HW112152   6.438   3.633   2.058
 3751SOL    HW212153   6.352   3.590   2.190
 3752SOL     OW12154   5.183   0.561   5.419
 3752SOL    HW112155   5.235   0.565   5.504
 3752SOL    HW212156   5.245   0.566   5.341
 3753SOL     OW12157   6.407   0.025   4.921
 3753SOL    HW112158   6.390   0.058   4.828
 3753SOL    HW212159   6.415   6.950   4.920
 3754SOL     OW12160   2.428   0.812   1.919
 3754SOL    HW112161   2.430   0.833   2.017
 3754SOL    HW212162   2.363   0.873   1.873
 3755SOL     OW12163   3.503   5.658   4.785
 3755SOL    HW112164   3.485   5.754   4.764
 3755SOL    HW212165   3.601   5.646   4.803
 3756SOL     OW12166   3.149   5.422   6.485
 3756SOL    HW112167   3.087   5.347   6.509
 3756SOL    HW212168   3.212   5.439   6.561
 3757SOL     OW12169   6.506   5.215   1.921
 3757SOL    HW112170   6.595   5.169   1.916
 3757SOL    HW212171   6.488   5.243   2.015
 3758SOL     OW12172   1.693   1.099   5.051
 3758SOL    HW112173   1.774   1.078   4.996
 3758SOL    HW212174   1.695   1.195   5.078
 3759SOL     OW12175   4.407   0.928   4.974
 3759SOL    HW112176   4.442   0.858   5.037
 3759SOL    HW212177   4.416   1.018   5.016
 3760SOL     OW12178   0.079   0.328   3.367
 3760SOL    HW112179   0.123   0.357   3.452
 3760SOL    HW212180   0.086   0.401   3.299
 3761SOL     OW12181   6.790   1.079   4.552
 3761SOL    HW112182   6.769   1.119   4.641
 3761SOL    HW212183   6.778   1.147   4.481
 3762SOL     OW12184   1.481   4.157   2.131
 3762SOL    HW112185   1.451   4.227   2.066
 3762SOL    HW212186   1.402   4.116   2.175
 3763SOL     OW12187   6.284   3.870   0.504
 3763SOL    HW112188   6.273   3.958   0.459
 3763SOL    HW212189   6.345   3.881   0.583
 3764SOL     OW12190   2.156   0.304   2.647
 3764SOL    HW112191   2.197   0.348   2.727
 3764SOL    HW212192   2.078   0.249   2.676
 3765SOL     OW12193   6.185   1.809   1.374
 3765SOL    HW112194   6.115   1.758   1.424
 3765SOL    HW212195   6.173   1.794   1.276
 3766SOL     OW12196   1.916   2.159   4.586
 3766SOL    HW112197   1.982   2.084   4.576
 3766SOL    HW212198   1.959   2.234   4.638
 3767SOL     OW12199   3.376   4.296   6.245
 3767SOL    HW112200   3.340   4.205   6.267
 3767SOL    HW212201   3.355   4.359   6.319
 3768SOL     OW12202   0.992   0.759   4.548
 3768SOL    HW112203   0.921   0.780   4.616
 3768SOL    HW212204   1.052   0.837   4.538
 3769SOL     OW12205   5.722   5.887   5.339
 3769SOL    HW112206   5.631   5.923   5.317
 3769SOL    HW212207   5.736   5.801   5.291
 3770SOL     OW12208   1.377   1.045   6.652
 3770SOL    HW112209   1.349   1.126   6.704
 3770SOL    HW212210   1.371   1.065   6.554
 3771SOL     OW12211   5.812   4.462   6.609
 3771SOL    HW112212   5.813   4.460   6.509
 3771SOL    HW212213   5.842   4.552   6.641
 3772SOL     OW12214   0.941   6.953   0.471
 3772SOL    HW112215   0.948   6.873   0.532
 3772SOL    HW212216   1.030   6.999   0.468
 3773SOL     OW12217   6.007   3.397   5.496
 3773SOL    HW112218   6.040   3.356   5.411
 3773SOL    HW212219   5.979   3.326   5.559
 3774SOL     OW12220   5.785   4.906   1.650
 3774SOL    HW112221   5.871   4.910   1.700
 3774SOL    HW212222   5.721   4.845   1.696
 3775SOL     OW12223   3.828   4.846   3.570
 3775SOL    HW112224   3.729   4.856   3.562
 3775SOL    HW212225   3.869   4.936   3.586
 3776SOL     OW12226   3.724   2.976   6.161
 3776SOL    HW112227   3.655   2.986   6.090
 3776SOL    HW212228   3.815   2.972   6.119
 3777SOL     OW12229   2.588   5.903   3.614
 3777SOL    HW112230   2.521   5.878   3.544
 3777SOL    HW212231   2.569   5.852   3.698
 3778SOL     OW12232   1.963   6.254   3.323
 3778SOL    HW112233   1.963   6.249   3.423
 3778SOL    HW212234   2.057   6.259   3.290
 3779SOL     OW12235   0.295   4.933   0.807
 3779SOL    HW112236   0.299   4.895   0.900
 3779SOL    HW212237   0.383   4.917   0.761
 3780SOL     OW12238   0.324   2.906   3.732
 3780SOL    HW112239   0.360   2.887   3.823
 3780SOL    HW212240   0.392   2.878   3.663
 3781SOL     OW12241   0.710   6.872   4.492
 3781SOL    HW112242   0.647   6.803   4.528
 3781SOL    HW212243   0.773   6.829   4.428
 3782SOL     OW12244   3.656   6.498   2.321
 3782SOL    HW112245   3.674   6.596   2.324
 3782SOL    HW212246   3.614   6.469   2.407
 3783SOL     OW12247   6.217   5.415   4.711
 3783SOL    HW112248   6.246   5.368   4.794
 3783SOL    HW212249   6.296   5.458   4.667
 3784SOL     OW12250   5.589   2.515   2.484
 3784SOL    HW112251   5.512   2.495   2.546
 3784SOL    HW212252   5.603   2.613   2.478
 3785SOL     OW12253   0.662   3.324   5.230
 3785SOL    HW112254   0.760   3.325   5.208
 3785SOL    HW212255   0.636   3.413   5.267
 3786SOL     OW12256   2.068   3.159   2.775
 3786SOL    HW112257   2.031   3.251   2.781
 3786SOL    HW212258   2.168   3.163   2.777
 3787SOL     OW12259   5.388   0.205   2.865
 3787SOL    HW112260   5.358   0.217   2.771
 3787SOL    HW212261   5.310   0.179   2.922
 3788SOL     OW12262   5.985   4.895   5.006
 3788SOL    HW112263   6.021   4.807   4.974
 3788SOL    HW212264   5.942   4.882   5.096
 3789SOL     OW12265   6.976   3.661   2.483
 3789SOL    HW112266   6.906   3.723   2.447
 3789SOL    HW212267   6.972   3.574   2.433
 3790SOL     OW12268   1.422   5.583   6.621
 3790SOL    HW112269   1.395   5.489   6.600
 3790SOL    HW212270   1.342   5.635   6.649
 3791SOL     OW12271   5.266   1.999   6.875
 3791SOL    HW112272   5.232   1.987   6.782
 3791SOL    HW212273   5.198   1.965   6.940
 3792SOL     OW12274   1.287   1.563   4.342
 3792SOL    HW112275   1.211   1.571   4.278
 3792SOL    HW212276   1.300   1.650   4.389
 3793SOL     OW12277   5.937   6.672   1.482
 3793SOL    HW112278   5.844   6.687   1.448
 3793SOL    HW212279   5.991   6.755   1.470
 3794SOL     OW12280   2.056   3.157   1.656
 3794SOL    HW112281   2.081   3.172   1.752
 3794SOL    HW212282   2.064   3.242   1.605
 3795SOL     OW12283   3.080   5.218   1.166
 3795SOL    HW112284   3.119   5.132   1.199
 3795SOL    HW212285   2.987   5.228   1.201
 3796SOL     OW12286   4.082   2.138   1.039
 3796SOL    HW112287   4.141   2.158   1.118
 3796SOL    HW212288   4.139   2.112   0.961
 3797SOL     OW12289   0.799   4.088   3.416
 3797SOL    HW112290   0.892   4.076   3.383
 3797SOL    HW212291   0.734   4.075   3.341
 3798SOL     OW12292   3.106   6.277   2.417
 3798SOL    HW112293   3.197   6.236   2.410
 3798SOL    HW212294   3.046   6.216   2.469
 3799SOL     OW12295   6.872   2.655   3.830
 3799SOL    HW112296   6.856   2.557   3.824
 3799SOL    HW212297   6.786   2.702   3.849
 3800SOL     OW12298   5.261   2.133   3.795
 3800SOL    HW112299   5.312   2.127   3.881
 3800SOL    HW212300   5.246   2.229   3.773
 3801SOL     OW12301   5.449   0.067   1.804
 3801SOL    HW112302   5.413   0.006   1.734
 3801SOL    HW212303   5.396   0.056   1.888
 3802SOL     OW12304   6.986   1.638   2.668
 3802SOL    HW112305   7.010   1.705   2.597
 3802SOL    HW212306   0.028   1.644   2.743
 3803SOL     OW12307   4.127   3.641   3.822
 3803SOL    HW112308   4.169   3.609   3.907
 3803SOL    HW212309   4.142   3.739   3.812
 3804SOL     OW12310   3.270   1.896   4.119
 3804SOL    HW112311   3.349   1.851   4.160
 3804SOL    HW212312   3.288   1.994   4.111
 3805SOL     OW12313   2.006   2.593   1.673
 3805SOL    HW112314   1.938   2.666   1.681
 3805SOL    HW212315   2.097   2.633   1.667
 3806SOL     OW12316   3.792   3.567   6.384
 3806SOL    HW112317   3.836   3.635   6.326
 3806SOL    HW212318   3.693   3.572   6.373
 3807SOL     OW12319   1.840   4.265   3.999
 3807SOL    HW112320   1.836   4.358   4.034
 3807SOL    HW212321   1.894   4.263   3.915
 3808SOL     OW12322   4.599   0.703   6.372
 3808SOL    HW112323   4.697   0.700   6.351
 3808SOL    HW212324   4.553   0.763   6.308
 3809SOL     OW12325   5.683   2.142   2.159
 3809SOL    HW112326   5.686   2.237   2.128
 3809SOL    HW212327   5.593   2.123   2.199
 3810SOL     OW12328   0.073   2.540   3.428
 3810SOL    HW112329   0.103   2.598   3.504
 3810SOL    HW212330   0.046   2.451   3.464
 3811SOL     OW12331   0.141   6.021   4.134
 3811SOL    HW112332   0.107   6.102   4.087
 3811SOL    HW212333   0.085   5.942   4.110
 3812SOL     OW12334   3.313   5.000   6.098
 3812SOL    HW112335   3.291   4.981   6.002
 3812SOL    HW212336   3.246   4.955   6.157
 3813SOL     OW12337   5.830   4.286   1.140
 3813SOL    HW112338   5.731   4.277   1.134
 3813SOL    HW212339   5.853   4.360   1.204
 3814SOL     OW12340   0.461   0.268   3.774
 3814SOL    HW112341   0.466   0.308   3.683
 3814SOL    HW212342   0.366   0.261   3.803
 3815SOL     OW12343   4.410   2.406   0.984
 3815SOL    HW112344   4.470   2.327   0.989
 3815SOL    HW212345   4.343   2.402   1.058
 3816SOL     OW12346   1.074   5.714   5.286
 3816SOL    HW112347   1.138   5.666   5.225
 3816SOL    HW212348   1.037   5.649   5.352
 3817SOL     OW12349   5.183   3.127   1.787
 3817SOL    HW112350   5.232   3.132   1.700
 3817SOL    HW212351   5.186   3.033   1.822
 3818SOL     OW12352   6.867   0.538   0.863
 3818SOL    HW112353   6.951   0.592   0.863
 3818SOL    HW212354   6.814   0.558   0.780
 3819SOL     OW12355   6.298   4.575   2.476
 3819SOL    HW112356   6.254   4.511   2.414
 3819SOL    HW212357   6.284   4.545   2.571
 3820SOL     OW12358   6.132   6.385   3.591
 3820SOL    HW112359   6.101   6.363   3.499
 3820SOL    HW212360   6.056   6.422   3.644
 3821SOL     OW12361   0.997   1.332   1.255
 3821SOL    HW112362   0.925   1.312   1.189
 3821SOL    HW212363   0.961   1.390   1.327
 3822SOL     OW12364   2.418   6.972   6.236
 3822SOL    HW112365   2.336   6.929   6.199
 3822SOL    HW212366   2.413   6.973   6.336
 3823SOL     OW12367   4.226   4.053   6.542
 3823SOL    HW112368   4.271   3.973   6.503
 3823SOL    HW212369   4.139   4.026   6.584
 3824SOL     OW12370   0.486   2.377   0.896
 3824SOL    HW112371   0.438   2.299   0.937
 3824SOL    HW212372   0.583   2.372   0.920
 3825SOL     OW12373   0.808   3.918   0.773
 3825SOL    HW112374   0.726   3.925   0.830
 3825SOL    HW212375   0.823   3.822   0.749
 3826SOL     OW12376   0.103   3.349   1.618
 3826SOL    HW112377   0.035   3.276   1.622
 3826SOL    HW212378   0.195   3.309   1.610
 3827SOL     OW12379   0.549   0.324   1.446
 3827SOL    HW112380   0.614   0.332   1.370
 3827SOL    HW212381   0.546   0.228   1.476
 3828SOL     OW12382   3.806   3.527   4.512
 3828SOL    HW112383   3.835   3.596   4.446
 3828SOL    HW212384   3.880   3.461   4.525
 3829SOL     OW12385   0.737   5.026   2.007
 3829SOL    HW112386   0.675   4.955   2.041
 3829SOL    HW212387   0.705   5.059   1.918
 3830SOL     OW12388   0.606   1.224   5.955
 3830SOL    HW112389   0.643   1.135   5.929
 3830SOL    HW212390   0.523   1.211   6.009
 3831SOL     OW12391   4.454   2.399   2.740
 3831SOL    HW112392   4.449   2.414   2.838
 3831SOL    HW212393   4.369   2.359   2.707
 3832SOL     OW12394   6.638   0.596   2.693
 3832SOL    HW112395   6.688   0.609   2.779
 3832SOL    HW212396   6.625   0.685   2.649
 3833SOL     OW12397   0.940   6.478   6.486
 3833SOL    HW112398   0.964   6.442   6.576
 3833SOL    HW212399   0.849   6.445   6.461
 3834SOL     OW12400   3.688   4.406   1.200
 3834SOL    HW112401   3.611   4.468   1.212
 3834SOL    HW212402   3.761   4.453   1.149
 3835SOL     OW12403   3.925   6.087   5.481
 3835SOL    HW112404   4.006   6.032   5.463
 3835SOL    HW212405   3.892   6.127   5.396
 3836SOL     OW12406   0.095   5.014   5.937
 3836SOL    HW112407   0.069   4.939   5.998
 3836SOL    HW212408   0.067   5.101   5.977
 3837SOL     OW12409   4.675   5.304   5.556
 3837SOL    HW112410   4.741   5.374   5.583
 3837SOL    HW212411   4.603   5.346   5.500
 3838SOL     OW12412   1.223   2.307   3.564
 3838SOL    HW112413   1.312   2.342   3.537
 3838SOL    HW212414   1.191   2.354   3.647
 3839SOL     OW12415   4.821   1.427   2.840
 3839SOL    HW112416   4.787   1.477   2.761
 3839SOL    HW212417   4.886   1.357   2.811
 3840SOL     OW12418   3.441   1.902   6.904
 3840SOL    HW112419   3.427   1.814   6.858
 3840SOL    HW212420   3.421   1.976   6.841
 3841SOL     OW12421   1.238   3.986   4.314
 3841SOL    HW112422   1.191   4.074   4.315
 3841SOL    HW212423   1.241   3.951   4.220
 3842SOL     OW12424   2.634   2.388   3.594
 3842SOL    HW112425   2.605   2.477   3.631
 3842SOL    HW212426   2.713   2.355   3.646
 3843SOL     OW12427   5.376   3.055   2.091
 3843SOL    HW112428   5.470   3.025   2.075
 3843SOL    HW212429   5.315   3.009   2.027
 3844SOL     OW12430   1.318   3.530   6.508
 3844SOL    HW112431   1.340   3.527   6.410
 3844SOL    HW212432   1.402   3.525   6.561
 3845SOL     OW12433   2.537   5.440   6.117
 3845SOL    HW112434   2.618   5.498   6.118
 3845SOL    HW212435   2.548   5.366   6.183
 3846SOL     OW12436   1.036   4.020   3.723
 3846SOL    HW112437   1.050   4.064   3.812
 3846SOL    HW212438   1.059   3.923   3.730
 3847SOL     OW12439   5.193   2.962   4.359
 3847SOL    HW112440   5.285   2.971   4.398
 3847SOL    HW212441   5.139   3.044   4.381
 3848SOL     OW12442   4.926   3.611   2.618
 3848SOL    HW112443   4.940   3.619   2.717
 3848SOL    HW212444   5.013   3.591   2.574
 3849SOL     OW12445   1.506   1.025   6.000
 3849SOL    HW112446   1.427   1.087   5.995
 3849SOL    HW212447   1.474   0.930   5.998
 3850SOL     OW12448   2.993   3.075   1.878
 3850SOL    HW112449   2.917   3.019   1.845
 3850SOL    HW212450   3.065   3.015   1.914
 3851SOL     OW12451   6.917   4.645   3.482
 3851SOL    HW112452   6.839   4.708   3.480
 3851SOL    HW212453   7.000   4.695   3.504
 3852SOL     OW12454   3.450   5.924   3.719
 3852SOL    HW112455   3.522   5.931   3.649
 3852SOL    HW212456   3.481   5.969   3.803
 3853SOL     OW12457   1.104   3.055   3.249
 3853SOL    HW112458   1.087   3.150   3.276
 3853SOL    HW212459   1.019   3.004   3.252
 3854SOL     OW12460   1.182   2.341   2.743
 3854SOL    HW112461   1.148   2.300   2.658
 3854SOL    HW212462   1.155   2.284   2.820
 3855SOL     OW12463   4.426   5.909   6.667
 3855SOL    HW112464   4.496   5.838   6.657
 3855SOL    HW212465   4.364   5.884   6.742
 3856SOL     OW12466   0.360   0.498   5.860
 3856SOL    HW112467   0.267   0.463   5.872
 3856SOL    HW212468   0.398   0.460   5.775
 3857SOL     OW12469   0.668   6.104   6.737
 3857SOL    HW112470   0.728   6.115   6.816
 3857SOL    HW212471   0.621   6.190   6.717
 3858SOL     OW12472   3.244   1.398   6.173
 3858SOL    HW112473   3.172   1.461   6.144
 3858SOL    HW212474   3.208   1.334   6.241
 3859SOL     OW12475   6.472   1.063   1.875
 3859SOL    HW112476   6.377   1.070   1.903
 3859SOL    HW212477   6.511   1.155   1.870
 3860SOL     OW12478   1.838   1.248   4.732
 3860SOL    HW112479   1.757   1.197   4.760
 3860SOL    HW212480   1.900   1.187   4.682
 3861SOL     OW12481   4.420   5.056   3.667
 3861SOL    HW112482   4.368   4.992   3.724
 3861SOL    HW212483   4.498   5.008   3.627
 3862SOL     OW12484   0.458   1.056   4.644
 3862SOL    HW112485   0.439   0.977   4.701
 3862SOL    HW212486   0.557   1.069   4.636
 3863SOL     OW12487   5.925   2.099   6.924
 3863SOL    HW112488   5.894   2.122   7.016
 3863SOL    HW212489   5.878   2.017   6.892
 3864SOL     OW12490   1.995   0.504   5.705
 3864SOL    HW112491   2.088   0.481   5.674
 3864SOL    HW212492   1.948   0.421   5.734
 3865SOL     OW12493   4.258   0.948   1.212
 3865SOL    HW112494   4.208   1.035   1.221
 3865SOL    HW212495   4.209   0.876   1.262
 3866SOL     OW12496   4.042   0.563   0.657
 3866SOL    HW112497   4.096   0.596   0.735
 3866SOL    HW212498   4.104   0.535   0.584
 3867SOL     OW12499   0.700   5.075   3.101
 3867SOL    HW112500   0.612   5.074   3.148
 3867SOL    HW212501   0.687   5.056   3.004
 3868SOL     OW12502   3.221   0.556   0.460
 3868SOL    HW112503   3.321   0.551   0.456
 3868SOL    HW212504   3.194   0.604   0.543
 3869SOL     OW12505   6.108   2.841   4.633
 3869SOL    HW112506   6.182   2.847   4.700
 3869SOL    HW212507   6.034   2.785   4.671
 3870SOL     OW12508   6.938   6.698   0.753
 3870SOL    HW112509   6.918   6.789   0.788
 3870SOL    HW212510   6.974   6.705   0.660
 3871SOL     OW12511   3.677   0.841   3.461
 3871SOL    HW112512   3.666   0.883   3.371
 3871SOL    HW212513   3.773   0.848   3.490
 3872SOL     OW12514   2.950   3.332   4.439
 3872SOL    HW112515   2.898   3.276   4.375
 3872SOL    HW212516   2.977   3.276   4.518
 3873SOL     OW12517   5.998   4.086   1.058
 3873SOL    HW112518   6.009   4.034   1.143
 3873SOL    HW212519   5.917   4.145   1.065
 3874SOL     OW12520   4.368   5.920   0.460
 3874SOL    HW112521   4.371   6.020   0.461
 3874SOL    HW212522   4.371   5.885   0.553
 3875SOL     OW12523   2.161   3.107   2.474
 3875SOL    HW112524   2.136   3.204   2.485
 3875SOL    HW212525   2.085   3.050   2.503
 3876SOL     OW12526   3.631   5.186   1.164
 3876SOL    HW112527   3.549   5.222   1.208
 3876SOL    HW212528   3.687   5.261   1.131
 3877SOL     OW12529   5.772   2.586   1.608
 3877SOL    HW112530   5.870   2.605   1.595
 3877SOL    HW212531   5.718   2.652   1.556
 3878SOL     OW12532   4.050   6.548   4.890
 3878SOL    HW112533   4.132   6.557   4.834
 3878SOL    HW212534   4.031   6.451   4.906
 3879SOL     OW12535   5.877   5.362   0.694
 3879SOL    HW112536   5.864   5.263   0.686
 3879SOL    HW212537   5.907   5.399   0.606
 3880SOL     OW12538   5.356   4.514   4.351
 3880SOL    HW112539   5.370   4.591   4.413
 3880SOL    HW212540   5.273   4.529   4.298
 3881SOL     OW12541   1.186   3.418   1.612
 3881SOL    HW112542   1.116   3.348   1.624
 3881SOL    HW212543   1.149   3.507   1.638
 3882SOL     OW12544   1.000   2.009   5.913
 3882SOL    HW112545   1.087   1.983   5.955
 3882SOL    HW212546   0.976   1.944   5.841
 3883SOL     OW12547   4.180   1.166   2.449
 3883SOL    HW112548   4.092   1.173   2.495
 3883SOL    HW212549   4.251   1.145   2.517
 3884SOL     OW12550   1.142   5.787   2.246
 3884SOL    HW112551   1.125   5.821   2.339
 3884SOL    HW212552   1.083   5.835   2.182
 3885SOL     OW12553   5.872   5.670   2.478
 3885SOL    HW112554   5.885   5.761   2.439
 3885SOL    HW212555   5.915   5.602   2.420
 3886SOL     OW12556   5.445   5.304   5.120
 3886SOL    HW112557   5.520   5.246   5.090
 3886SOL    HW212558   5.361   5.249   5.125
 3887SOL     OW12559   0.930   0.586   6.994
 3887SOL    HW112560   0.990   0.506   7.000
 3887SOL    HW212561   0.983   0.668   7.016
 3888SOL     OW12562   0.059   0.648   4.591
 3888SOL    HW112563   0.054   0.747   4.576
 3888SOL    HW212564   0.014   0.600   4.515
 3889SOL     OW12565   0.276   4.409   0.146
 3889SOL    HW112566   0.343   4.467   0.099
 3889SOL    HW212567   0.324   4.339   0.199
 3890SOL     OW12568   6.520   4.762   3.335
 3890SOL    HW112569   6.595   4.823   3.361
 3890SOL    HW212570   6.538   4.670   3.371
 3891SOL     OW12571   5.409   3.840   3.995
 3891SOL    HW112572   5.435   3.932   4.024
 3891SOL    HW212573   5.444   3.824   3.902
 3892SOL     OW12574   0.440   1.722   1.064
 3892SOL    HW112575   0.352   1.683   1.039
 3892SOL    HW212576   0.482   1.666   1.135
 3893SOL     OW12577   4.397   4.023   0.378
 3893SOL    HW112578   4.495   4.007   0.363
 3893SOL    HW212579   4.385   4.092   0.449
 3894SOL     OW12580   4.632   1.021   0.891
 3894SOL    HW112581   4.626   1.087   0.817
 3894SOL    HW212582   4.657   0.931   0.854
 3895SOL     OW12583   1.535   0.940   5.191
 3895SOL    HW112584   1.590   1.017   5.158
 3895SOL    HW212585   1.555   0.858   5.137
 3896SOL     OW12586   0.549   1.320   5.404
 3896SOL    HW112587   0.504   1.389   5.348
 3896SOL    HW212588   0.485   1.288   5.475
 3897SOL     OW12589   3.626   5.602   2.777
 3897SOL    HW112590   3.577   5.517   2.797
 3897SOL    HW212591   3.577   5.679   2.818
 3898SOL     OW12592   2.653   3.597   5.608
 3898SOL    HW112593   2.651   3.512   5.662
 3898SOL    HW212594   2.746   3.634   5.608
 3899SOL     OW12595   4.691   6.601   5.049
 3899SOL    HW112596   4.708   6.638   5.140
 3899SOL    HW212597   4.691   6.675   4.982
 3900SOL     OW12598   5.178   2.874   3.670
 3900SOL    HW112599   5.276   2.857   3.659
 3900SOL    HW212600   5.131   2.788   3.688
 3901SOL     OW12601   2.499   0.346   5.308
 3901SOL    HW112602   2.522   0.321   5.214
 3901SOL    HW212603   2.544   0.432   5.332
 3902SOL     OW12604   5.638   3.390   1.591
 3902SOL    HW112605   5.566   3.406   1.658
 3902SOL    HW212606   5.714   3.342   1.634
 3903SOL     OW12607   3.632   5.961   6.242
 3903SOL    HW112608   3.620   5.958   6.143
 3903SOL    HW212609   3.545   5.986   6.286
 3904SOL     OW12610   2.981   1.623   5.460
 3904SOL    HW112611   2.924   1.630   5.541
 3904SOL    HW212612   2.959   1.699   5.398
 3905SOL     OW12613   0.583   0.062   6.274
 3905SOL    HW112614   0.538   7.016   6.219
 3905SOL    HW212615   0.535   0.149   6.263
 3906SOL     OW12616   5.100   5.494   6.125
 3906SOL    HW112617   5.158   5.485   6.044
 3906SOL    HW212618   5.008   5.462   6.105
 3907SOL     OW12619   6.043   0.464   4.383
 3907SOL    HW112620   6.140   0.480   4.405
 3907SOL    HW212621   6.029   0.478   4.285
 3908SOL     OW12622   1.634   2.225   0.401
 3908SOL    HW112623   1.541   2.226   0.437
 3908SOL    HW212624   1.663   2.130   0.386
 3909SOL     OW12625   7.022   5.457   5.114
 3909SOL    HW112626   6.978   5.470   5.025
 3909SOL    HW212627   0.096   5.444   5.100
 3910SOL     OW12628   2.957   3.351   1.822
 3910SOL    HW112629   2.973   3.255   1.846
 3910SOL    HW212630   2.859   3.367   1.813
 3911SOL     OW12631   5.041   1.452   6.584
 3911SOL    HW112632   5.067   1.462   6.680
 3911SOL    HW212633   4.942   1.464   6.575
 3912SOL     OW12634   4.212   0.538   5.515
 3912SOL    HW112635   4.276   0.615   5.511
 3912SOL    HW212636   4.189   0.509   5.422
 3913SOL     OW12637   1.652   0.055   6.068
 3913SOL    HW112638   1.732   0.018   6.115
 3913SOL    HW212639   1.640   0.008   5.981
 3914SOL     OW12640   3.672   0.933   1.081
 3914SOL    HW112641   3.690   0.939   0.982
 3914SOL    HW212642   3.692   1.021   1.123
 3915SOL     OW12643   3.704   5.197   2.155
 3915SOL    HW112644   3.767   5.247   2.215
 3915SOL    HW212645   3.737   5.103   2.143
 3916SOL     OW12646   1.934   6.214   3.603
 3916SOL    HW112647   1.972   6.284   3.664
 3916SOL    HW212648   1.864   6.162   3.652
 3917SOL     OW12649   6.752   5.489   0.381
 3917SOL    HW112650   6.657   5.520   0.384
 3917SOL    HW212651   6.808   5.550   0.437
 3918SOL     OW12652   5.035   6.550   1.682
 3918SOL    HW112653   5.057   6.619   1.613
 3918SOL    HW212654   4.996   6.469   1.638
 3919SOL     OW12655   2.130   6.785   6.370
 3919SOL    HW112656   2.034   6.756   6.372
 3919SOL    HW212657   2.169   6.766   6.280
 3920SOL     OW12658   3.371   3.072   0.975
 3920SOL    HW112659   3.328   3.121   0.900
 3920SOL    HW212660   3.419   2.992   0.940
 3921SOL     OW12661   6.985   3.065   1.543
 3921SOL    HW112662   6.962   3.079   1.446
 3921SOL    HW212663   7.018   2.972   1.556
 3922SOL     OW12664   5.654   4.152   1.924
 3922SOL    HW112665   5.611   4.108   1.845
 3922SOL    HW212666   5.629   4.103   2.007
 3923SOL     OW12667   0.135   2.113   6.685
 3923SOL    HW112668   0.062   2.046   6.700
 3923SOL    HW212669   0.108   2.178   6.614
 3924SOL     OW12670   0.418   5.155   3.144
 3924SOL    HW112671   0.435   5.121   3.236
 3924SOL    HW212672   0.400   5.079   3.082
 3925SOL     OW12673   3.028   5.103   0.497
 3925SOL    HW112674   3.108   5.163   0.487
 3925SOL    HW212675   3.007   5.091   0.594
 3926SOL     OW12676   6.717   5.971   2.784
 3926SOL    HW112677   6.727   6.009   2.876
 3926SOL    HW212678   6.740   5.874   2.786
 3927SOL     OW12679   6.618   2.810   3.387
 3927SOL    HW112680   6.614   2.789   3.290
 3927SOL    HW212681   6.712   2.827   3.415
 3928SOL     OW12682   3.242   6.185   5.621
 3928SOL    HW112683   3.167   6.234   5.577
 3928SOL    HW212684   3.273   6.237   5.702
 3929SOL     OW12685   6.882   1.409   5.799
 3929SOL    HW112686   6.958   1.384   5.739
 3929SOL    HW212687   6.813   1.336   5.797
 3930SOL     OW12688   2.280   1.920   3.821
 3930SOL    HW112689   2.299   1.955   3.730
 3930SOL    HW212690   2.346   1.849   3.844
 3931SOL     OW12691   1.633   1.472   1.950
 3931SOL    HW112692   1.608   1.536   2.022
 3931SOL    HW212693   1.709   1.414   1.981
 3932SOL     OW12694   1.331   4.338   2.446
 3932SOL    HW112695   1.261   4.355   2.377
 3932SOL    HW212696   1.331   4.241   2.471
 3933SOL     OW12697   1.633   6.621   0.144
 3933SOL    HW112698   1.671   6.552   0.083
 3933SOL    HW212699   1.549   6.658   0.105
 3934SOL     OW12700   0.044   0.885   0.911
 3934SOL    HW112701   0.089   0.867   0.998
 3934SOL    HW212702   0.101   0.850   0.836
 3935SOL     OW12703   2.725   0.015   6.463
 3935SOL    HW112704   2.783   0.085   6.421
 3935SOL    HW212705   2.641   0.058   6.497
 3936SOL     OW12706   6.656   4.995   5.350
 3936SOL    HW112707   6.715   4.945   5.414
 3936SOL    HW212708   6.565   4.954   5.349
 3937SOL     OW12709   6.665   0.870   2.563
 3937SOL    HW112710   6.699   0.896   2.654
 3937SOL    HW212711   6.715   0.920   2.493
 3938SOL     OW12712   0.405   1.403   3.808
 3938SOL    HW112713   0.430   1.310   3.781
 3938SOL    HW212714   0.430   1.466   3.735
 3939SOL     OW12715   2.793   1.661   2.036
 3939SOL    HW112716   2.798   1.625   1.943
 3939SOL    HW212717   2.772   1.759   2.033
 3940SOL     OW12718   4.231   5.175   2.084
 3940SOL    HW112719   4.312   5.119   2.103
 3940SOL    HW212720   4.231   5.255   2.144
 3941SOL     OW12721   4.781   2.380   6.492
 3941SOL    HW112722   4.793   2.323   6.411
 3941SOL    HW212723   4.803   2.328   6.574
 3942SOL     OW12724   0.166   0.311   6.763
 3942SOL    HW112725   0.250   0.259   6.746
 3942SOL    HW212726   0.143   0.306   6.860
 3943SOL     OW12727   0.578   3.817   3.023
 3943SOL    HW112728   0.638   3.883   3.068
 3943SOL    HW212729   0.518   3.775   3.091
 3944SOL     OW12730   5.395   3.367   4.706
 3944SOL    HW112731   5.421   3.310   4.628
 3944SOL    HW212732   5.312   3.418   4.684
 3945SOL     OW12733   0.861   1.935   1.444
 3945SOL    HW112734   0.952   1.955   1.481
 3945SOL    HW212735   0.844   1.837   1.449
 3946SOL     OW12736   5.488   6.124   6.318
 3946SOL    HW112737   5.422   6.090   6.385
 3946SOL    HW212738   5.561   6.056   6.306
 3947SOL     OW12739   5.953   5.481   0.456
 3947SOL    HW112740   5.930   5.567   0.411
 3947SOL    HW212741   6.052   5.474   0.467
 3948SOL     OW12742   0.961   5.674   1.737
 3948SOL    HW112743   0.984   5.598   1.798
 3948SOL    HW212744   0.957   5.759   1.791
 3949SOL     OW12745   5.633   0.298   2.963
 3949SOL    HW112746   5.631   0.309   3.062
 3949SOL    HW212747   5.540   0.279   2.929
 3950SOL     OW12748   1.919   4.143   1.580
 3950SOL    HW112749   1.954   4.223   1.531
 3950SOL    HW212750   1.931   4.157   1.679
 3951SOL     OW12751   6.322   6.574   0.418
 3951SOL    HW112752   6.300   6.666   0.383
 3951SOL    HW212753   6.332   6.511   0.341
 3952SOL     OW12754   6.241   3.582   2.699
 3952SOL    HW112755   6.267   3.571   2.795
 3952SOL    HW212756   6.286   3.663   2.662
 3953SOL     OW12757   3.889   4.713   1.328
 3953SOL    HW112758   3.921   4.808   1.331
 3953SOL    HW212759   3.954   4.658   1.275
 3954SOL     OW12760   4.899   5.122   5.010
 3954SOL    HW112761   4.995   5.129   5.037
 3954SOL    HW212762   4.843   5.099   5.090
 3955SOL     OW12763   2.694   5.196   6.398
 3955SOL    HW112764   2.702   5.100   6.369
 3955SOL    HW212765   2.603   5.230   6.377
 3956SOL     OW12766   6.970   0.993   3.348
 3956SOL    HW112767   0.009   0.924   3.382
 3956SOL    HW212768   6.876   0.964   3.365
 3957SOL     OW12769   4.722   6.061   3.612
 3957SOL    HW112770   4.665   6.049   3.694
 3957SOL    HW212771   4.798   5.995   3.615
 3958SOL     OW12772   5.703   0.313   5.503
 3958SOL    HW112773   5.772   0.297   5.574
 3958SOL    HW212774   5.665   0.405   5.514
 3959SOL     OW12775   4.075   6.446   1.040
 3959SOL    HW112776   3.977   6.433   1.026
 3959SOL    HW212777   4.126   6.374   0.993
 3960SOL     OW12778   4.373   1.465   6.818
 3960SOL    HW112779   4.311   1.543   6.827
 3960SOL    HW212780   4.356   1.400   6.891
 3961SOL     OW12781   5.174   2.029   2.542
 3961SOL    HW112782   5.252   2.064   2.593
 3961SOL    HW212783   5.093   2.029   2.601
 3962SOL     OW12784   2.535   4.754   6.941
 3962SOL    HW112785   2.622   4.725   6.982
 3962SOL    HW212786   2.460   4.723   6.999
 3963SOL     OW12787   4.608   4.776   3.869
 3963SOL    HW112788   4.695   4.741   3.902
 3963SOL    HW212789   4.574   4.846   3.932
 3964SOL     OW12790   3.789   5.138   3.173
 3964SOL    HW112791   3.753   5.053   3.135
 3964SOL    HW212792   3.714   5.201   3.193
 3965SOL     OW12793   5.144   3.185   6.131
 3965SOL    HW112794   5.051   3.152   6.142
 3965SOL    HW212795   5.142   3.284   6.113
 3966SOL     OW12796   5.251   5.747   0.601
 3966SOL    HW112797   5.152   5.759   0.586
 3966SOL    HW212798   5.266   5.705   0.690
 3967SOL     OW12799   1.652   3.861   2.110
 3967SOL    HW112800   1.703   3.946   2.097
 3967SOL    HW212801   1.635   3.845   2.207
 3968SOL     OW12802   5.411   0.683   1.455
 3968SOL    HW112803   5.419   0.698   1.554
 3968SOL    HW212804   5.430   0.768   1.407
 3969SOL     OW12805   1.533   3.781   2.348
 3969SOL    HW112806   1.577   3.692   2.338
 3969SOL    HW212807   1.444   3.769   2.393
 3970SOL     OW12808   6.013   6.201   4.056
 3970SOL    HW112809   6.052   6.171   3.969
 3970SOL    HW212810   6.054   6.148   4.130
 3971SOL     OW12811   2.540   4.805   2.040
 3971SOL    HW112812   2.485   4.721   2.038
 3971SOL    HW212813   2.619   4.792   2.099
 3972SOL     OW12814   1.011   5.152   0.709
 3972SOL    HW112815   1.004   5.067   0.761
 3972SOL    HW212816   1.107   5.168   0.686
 3973SOL     OW12817   1.375   5.321   6.542
 3973SOL    HW112818   1.326   5.250   6.492
 3973SOL    HW212819   1.463   5.339   6.499
 3974SOL     OW12820   1.846   1.021   4.282
 3974SOL    HW112821   1.768   1.008   4.219
 3974SOL    HW212822   1.898   0.936   4.287
 3975SOL     OW12823   6.059   0.662   5.092
 3975SOL    HW112824   6.084   0.593   5.024
 3975SOL    HW212825   6.090   0.633   5.183
 3976SOL     OW12826   1.428   6.555   1.704
 3976SOL    HW112827   1.371   6.477   1.681
 3976SOL    HW212828   1.373   6.623   1.752
 3977SOL     OW12829   2.475   4.366   5.571
 3977SOL    HW112830   2.494   4.304   5.495
 3977SOL    HW212831   2.495   4.319   5.657
 3978SOL     OW12832   5.781   5.678   5.177
 3978SOL    HW112833   5.691   5.635   5.172
 3978SOL    HW212834   5.842   5.636   5.110
 3979SOL     OW12835   3.211   5.939   0.614
 3979SOL    HW112836   3.256   5.879   0.680
 3979SOL    HW212837   3.158   5.884   0.549
 3980SOL     OW12838   0.118   5.711   0.447
 3980SOL    HW112839   0.202   5.756   0.476
 3980SOL    HW212840   0.113   5.620   0.487
 3981SOL     OW12841   2.240   0.603   0.306
 3981SOL    HW112842   2.326   0.651   0.326
 3981SOL    HW212843   2.181   0.663   0.252
 3982SOL     OW12844   2.085   0.208   4.231
 3982SOL    HW112845   2.005   0.150   4.243
 3982SOL    HW212846   2.057   0.296   4.193
 3983SOL     OW12847   5.401   5.260   4.209
 3983SOL    HW112848   5.448   5.201   4.275
 3983SOL    HW212849   5.353   5.333   4.257
 3984SOL     OW12850   6.683   1.285   2.761
 3984SOL    HW112851   6.675   1.318   2.855
 3984SOL    HW212852   6.685   1.363   2.698
 3985SOL     OW12853   3.428   4.311   6.622
 3985SOL    HW112854   3.512   4.289   6.574
 3985SOL    HW212855   3.374   4.228   6.637
 3986SOL     OW12856   6.319   1.964   3.251
 3986SOL    HW112857   6.342   2.045   3.306
 3986SOL    HW212858   6.225   1.938   3.269
 3987SOL     OW12859   3.211   5.439   3.678
 3987SOL    HW112860   3.253   5.530   3.677
 3987SOL    HW212861   3.242   5.388   3.758
 3988SOL     OW12862   4.374   4.105   0.013
 3988SOL    HW112863   4.441   4.102   6.963
 3988SOL    HW212864   4.372   4.197   0.053
 3989SOL     OW12865   6.783   2.933   6.912
 3989SOL    HW112866   6.724   2.895   6.983
 3989SOL    HW212867   6.764   2.889   6.824
 3990SOL     OW12868   5.196   2.491   3.149
 3990SOL    HW112869   5.277   2.446   3.112
 3990SOL    HW212870   5.116   2.433   3.134
 3991SOL     OW12871   5.742   0.898   2.393
 3991SOL    HW112872   5.642   0.892   2.394
 3991SOL    HW212873   5.778   0.862   2.478
 3992SOL     OW12874   3.796   2.575   6.948
 3992SOL    HW112875   3.789   2.675   6.955
 3992SOL    HW212876   3.893   2.549   6.943
 3993SOL     OW12877   1.390   1.546   2.656
 3993SOL    HW112878   1.364   1.454   2.627
 3993SOL    HW212879   1.483   1.544   2.692
 3994SOL     OW12880   0.826   0.529   5.838
 3994SOL    HW112881   0.745   0.556   5.890
 3994SOL    HW212882   0.908   0.548   5.893
 3995SOL     OW12883   1.818   3.613   5.393
 3995SOL    HW112884   1.788   3.592   5.299
 3995SOL    HW212885   1.749   3.670   5.438
 3996SOL     OW12886   1.186   0.565   3.726
 3996SOL    HW112887   1.276   0.581   3.766
 3996SOL    HW212888   1.177   0.469   3.699
 3997SOL     OW12889   4.979   1.088   3.853
 3997SOL    HW112890   5.026   1.012   3.808
 3997SOL    HW212891   4.975   1.166   3.790
 3998SOL     OW12892   4.208   1.161   4.193
 3998SOL    HW112893   4.174   1.110   4.115
 3998SOL    HW212894   4.282   1.110   4.237
 3999SOL     OW12895   5.994   3.207   3.815
 3999SOL    HW112896   6.050   3.273   3.765
 3999SOL    HW212897   5.899   3.238   3.814
 4000SOL     OW12898   3.404   5.986   3.044
 4000SOL    HW112899   3.400   6.041   3.126
 4000SOL    HW212900   3.489   5.933   3.043
 4001SOL     OW12901   2.517   2.115   4.104
 4001SOL    HW112902   2.431   2.090   4.060
 4001SOL    HW212903   2.564   2.032   4.136
 4002SOL     OW12904   2.935   3.509   0.821
 4002SOL    HW112905   3.035   3.518   0.821
 4002SOL    HW212906   2.910   3.421   0.861
 4003SOL     OW12907   3.190   6.289   4.035
 4003SOL    HW112908   3.270   6.333   3.996
 4003SOL    HW212909   3.209   6.192   4.049
 4004SOL     OW12910   4.982   1.633   4.644
 4004SOL    HW112911   5.015   1.691   4.718
 4004SOL    HW212912   5.056   1.615   4.579
 4005SOL     OW12913   4.630   5.526   0.553
 4005SOL    HW112914   4.625   5.483   0.463
 4005SOL    HW212915   4.546   5.509   0.603
 4006SOL     OW12916   3.516   5.294   3.059
 4006SOL    HW112917   3.429   5.244   3.055
 4006SOL    HW212918   3.511   5.364   3.130
 4007SOL     OW12919   0.545   2.487   0.645
 4007SOL    HW112920   0.515   2.473   0.739
 4007SOL    HW212921   0.471   2.463   0.582
 4008SOL     OW12922   2.997   2.130   3.697
 4008SOL    HW112923   2.957   2.165   3.613
 4008SOL    HW212924   3.088   2.095   3.679
 4009SOL     OW12925   5.441   3.448   1.240
 4009SOL    HW112926   5.402   3.360   1.267
 4009SOL    HW212927   5.535   3.434   1.206
 4010SOL     OW12928   2.726   3.415   1.540
 4010SOL    HW112929   2.666   3.462   1.475
 4010SOL    HW212930   2.764   3.333   1.496
 4011SOL     OW12931   0.480   0.792   2.482
 4011SOL    HW112932   0.535   0.808   2.400
 4011SOL    HW212933   0.410   0.723   2.463
 4012SOL     OW12934   4.640   5.569   1.637
 4012SOL    HW112935   4.599   5.575   1.728
 4012SOL    HW212936   4.698   5.648   1.621
 4013SOL     OW12937   2.459   0.636   5.557
 4013SOL    HW112938   2.487   0.637   5.461
 4013SOL    HW212939   2.401   0.556   5.574
 4014SOL     OW12940   4.530   6.482   2.382
 4014SOL    HW112941   4.503   6.530   2.299
 4014SOL    HW212942   4.609   6.527   2.424
 4015SOL     OW12943   5.248   4.955   6.081
 4015SOL    HW112944   5.301   5.012   6.018
 4015SOL    HW212945   5.158   4.995   6.095
 4016SOL     OW12946   2.300   6.290   6.465
 4016SOL    HW112947   2.291   6.244   6.553
 4016SOL    HW212948   2.331   6.384   6.479
 4017SOL     OW12949   0.378   5.796   0.554
 4017SOL    HW112950   0.444   5.776   0.626
 4017SOL    HW212951   0.377   5.894   0.536
 4018SOL     OW12952   4.883   6.347   2.956
 4018SOL    HW112953   4.856   6.431   3.005
 4018SOL    HW212954   4.831   6.341   2.871
 4019SOL     OW12955   5.655   3.379   2.970
 4019SOL    HW112956   5.746   3.338   2.977
 4019SOL    HW212957   5.664   3.475   2.944
 4020SOL     OW12958   4.630   2.106   5.523
 4020SOL    HW112959   4.625   2.176   5.452
 4020SOL    HW212960   4.683   2.028   5.489
 4021SOL     OW12961   3.612   4.467   6.240
 4021SOL    HW112962   3.689   4.452   6.178
 4021SOL    HW212963   3.551   4.388   6.235
 4022SOL     OW12964   4.357   0.528   6.978
 4022SOL    HW112965   4.346   0.584   0.036
 4022SOL    HW212966   4.372   0.433   7.004
 4023SOL     OW12967   6.148   1.878   4.709
 4023SOL    HW112968   6.070   1.902   4.768
 4023SOL    HW212969   6.217   1.830   4.764
 4024SOL     OW12970   3.751   6.200   3.180
 4024SOL    HW112971   3.762   6.142   3.261
 4024SOL    HW212972   3.791   6.154   3.101
 4025SOL     OW12973   0.718   6.164   4.104
 4025SOL    HW112974   0.713   6.093   4.033
 4025SOL    HW212975   0.626   6.196   4.126
 4026SOL     OW12976   5.959   5.116   4.401
 4026SOL    HW112977   5.996   5.204   4.369
 4026SOL    HW212978   5.890   5.133   4.471
 4027SOL     OW12979   3.597   4.203   1.752
 4027SOL    HW112980   3.690   4.176   1.775
 4027SOL    HW212981   3.597   4.297   1.716
 4028SOL     OW12982   1.167   2.243   4.165
 4028SOL    HW112983   1.088   2.195   4.126
 4028SOL    HW212984   1.223   2.178   4.217
 4029SOL     OW12985   2.182   4.550   6.518
 4029SOL    HW112986   2.246   4.576   6.590
 4029SOL    HW212987   2.221   4.475   6.464
 4030SOL     OW12988   1.427   2.483   5.992
 4030SOL    HW112989   1.394   2.577   5.984
 4030SOL    HW212990   1.471   2.471   6.081
 4031SOL     OW12991   5.262   5.732   3.413
 4031SOL    HW112992   5.351   5.691   3.433
 4031SOL    HW212993   5.189   5.664   3.430
 4032SOL     OW12994   6.413   7.008   3.189
 4032SOL    HW112995   6.368   0.050   3.249
 4032SOL    HW212996   6.510   0.008   3.181
 4033SOL     OW12997   3.387   3.092   3.573
 4033SOL    HW112998   3.352   3.045   3.491
 4033SOL    HW212999   3.449   3.030   3.622
 4034SOL     OW13000   5.463   1.043   5.275
 4034SOL    HW113001   5.421   1.103   5.207
 4034SOL    HW213002   5.542   1.089   5.315
 4035SOL     OW13003   6.959   3.445   1.200
 4035SOL    HW113004   6.947   3.535   1.159
 4035SOL    HW213005   0.030   3.417   1.191
 4036SOL     OW13006   5.804   6.434   2.335
 4036SOL    HW113007   5.743   6.513   2.337
 4036SOL    HW213008   5.761   6.360   2.283
 4037SOL     OW13009   2.173   2.493   0.137
 4037SOL    HW113010   2.125   2.507   0.223
 4037SOL    HW213011   2.112   2.446   0.072
 4038SOL     OW13012   4.813   4.969   2.348
 4038SOL    HW113013   4.890   4.988   2.287
 4038SOL    HW213014   4.745   4.914   2.299
 4039SOL     OW13015   4.809   5.405   1.059
 4039SOL    HW113016   4.879   5.456   1.111
 4039SOL    HW213017   4.741   5.469   1.023
 4040SOL     OW13018   2.866   6.517   0.229
 4040SOL    HW113019   2.805   6.592   0.202
 4040SOL    HW213020   2.961   6.542   0.209
 4041SOL     OW13021   1.759   5.896   2.633
 4041SOL    HW113022   1.681   5.878   2.573
 4041SOL    HW213023   1.756   5.992   2.663
 4042SOL     OW13024   6.290   4.845   2.517
 4042SOL    HW113025   6.317   4.755   2.485
 4042SOL    HW213026   6.369   4.893   2.555
 4043SOL     OW13027   5.651   1.949   3.634
 4043SOL    HW113028   5.554   1.942   3.657
 4043SOL    HW213029   5.687   2.036   3.668
 4044SOL     OW13030   6.374   0.372   4.675
 4044SOL    HW113031   6.340   0.296   4.730
 4044SOL    HW213032   6.331   0.457   4.706
 4045SOL     OW13033   2.760   4.397   5.957
 4045SOL    HW113034   2.679   4.341   5.974
 4045SOL    HW213035   2.736   4.471   5.894
 4046SOL     OW13036   0.913   1.418   2.834
 4046SOL    HW113037   0.958   1.492   2.784
 4046SOL    HW213038   0.829   1.452   2.876
 4047SOL     OW13039   2.716   3.657   0.788
 4047SOL    HW113040   2.804   3.609   0.789
 4047SOL    HW213041   2.714   3.725   0.861
 4048SOL     OW13042   5.610   0.894   1.652
 4048SOL    HW113043   5.608   0.813   1.710
 4048SOL    HW213044   5.530   0.951   1.671
 4049SOL     OW13045   6.718   6.349   6.654
 4049SOL    HW113046   6.690   6.265   6.607
 4049SOL    HW213047   6.811   6.337   6.689
 4050SOL     OW13048   1.714   6.533   6.865
 4050SOL    HW113049   1.776   6.612   6.866
 4050SOL    HW213050   1.686   6.514   6.771
 4051SOL     OW13051   2.792   4.009   0.119
 4051SOL    HW113052   2.795   3.995   0.218
 4051SOL    HW213053   2.711   3.963   0.082
 4052SOL     OW13054   1.323   0.406   1.306
 4052SOL    HW113055   1.283   0.329   1.255
 4052SOL    HW213056   1.330   0.382   1.402
 4053SOL     OW13057   3.037   4.924   3.829
 4053SOL    HW113058   3.068   4.924   3.734
 4053SOL    HW213059   3.026   5.018   3.861
 4054SOL     OW13060   2.780   2.898   0.618
 4054SOL    HW113061   2.743   2.983   0.656
 4054SOL    HW213062   2.879   2.895   0.631
 4055SOL     OW13063   2.662   3.052   5.942
 4055SOL    HW113064   2.588   2.984   5.950
 4055SOL    HW213065   2.631   3.128   5.885
 4056SOL     OW13066   4.351   2.944   6.920
 4056SOL    HW113067   4.351   3.041   6.895
 4056SOL    HW213068   4.356   2.935   7.019
 4057SOL     OW13069   5.445   3.791   0.995
 4057SOL    HW113070   5.507   3.788   0.917
 4057SOL    HW213071   5.488   3.842   1.070
 4058SOL     OW13072   2.335   1.205   4.469
 4058SOL    HW113073   2.401   1.189   4.396
 4058SOL    HW213074   2.273   1.280   4.443
 4059SOL     OW13075   2.016   1.649   3.516
 4059SOL    HW113076   1.993   1.721   3.582
 4059SOL    HW213077   2.079   1.685   3.448
 4060SOL     OW13078   3.740   5.202   4.593
 4060SOL    HW113079   3.695   5.290   4.578
 4060SOL    HW213080   3.687   5.148   4.658
 4061SOL     OW13081   3.326   4.570   1.718
 4061SOL    HW113082   3.318   4.471   1.707
 4061SOL    HW213083   3.421   4.593   1.741
 4062SOL     OW13084   4.539   1.456   2.940
 4062SOL    HW113085   4.494   1.492   2.858
 4062SOL    HW213086   4.632   1.427   2.917
 4063SOL     OW13087   4.171   6.669   6.226
 4063SOL    HW113088   4.098   6.602   6.242
 4063SOL    HW213089   4.252   6.622   6.191
 4064SOL     OW13090   2.171   6.953   2.431
 4064SOL    HW113091   2.250   7.013   2.425
 4064SOL    HW213092   2.152   6.931   2.527
 4065SOL     OW13093   0.498   0.137   0.765
 4065SOL    HW113094   0.472   0.151   0.860
 4065SOL    HW213095   0.560   0.059   0.759
 4066SOL     OW13096   5.494   4.567   1.778
 4066SOL    HW113097   5.546   4.492   1.736
 4066SOL    HW213098   5.427   4.529   1.843
 4067SOL     OW13099   5.086   1.691   3.471
 4067SOL    HW113100   5.148   1.763   3.442
 4067SOL    HW213101   5.050   1.644   3.390
 4068SOL     OW13102   4.572   0.205   5.167
 4068SOL    HW113103   4.578   0.280   5.101
 4068SOL    HW213104   4.504   0.138   5.136
 4069SOL     OW13105   4.520   4.459   0.856
 4069SOL    HW113106   4.459   4.442   0.779
 4069SOL    HW213107   4.593   4.521   0.827
 4070SOL     OW13108   1.798   3.181   2.630
 4070SOL    HW113109   1.830   3.147   2.718
 4070SOL    HW213110   1.869   3.238   2.589
 4071SOL     OW13111   1.235   0.943   5.120
 4071SOL    HW113112   1.330   0.959   5.148
 4071SOL    HW213113   1.210   0.848   5.138
 4072SOL     OW13114   2.087   6.671   4.440
 4072SOL    HW113115   2.015   6.613   4.401
 4072SOL    HW213116   2.045   6.747   4.489
 4073SOL     OW13117   1.890   5.542   6.152
 4073SOL    HW113118   1.957   5.615   6.138
 4073SOL    HW213119   1.925   5.457   6.115
 4074SOL     OW13120   0.177   2.564   1.651
 4074SOL    HW113121   0.229   2.640   1.690
 4074SOL    HW213122   0.197   2.556   1.554
 4075SOL     OW13123   4.406   1.858   2.349
 4075SOL    HW113124   4.404   1.924   2.425
 4075SOL    HW213125   4.488   1.874   2.294
 4076SOL     OW13126   2.186   4.063   5.283
 4076SOL    HW113127   2.169   3.979   5.335
 4076SOL    HW213128   2.269   4.053   5.228
 4077SOL     OW13129   2.748   6.810   0.678
 4077SOL    HW113130   2.655   6.795   0.644
 4077SOL    HW213131   2.745   6.872   0.757
 4078SOL     OW13132   6.422   4.662   2.213
 4078SOL    HW113133   6.339   4.627   2.169
 4078SOL    HW213134   6.434   4.758   2.189
 4079SOL     OW13135   0.821   0.683   3.444
 4079SOL    HW113136   0.881   0.668   3.366
 4079SOL    HW213137   0.738   0.627   3.433
 4080SOL     OW13138   2.738   3.977   0.409
 4080SOL    HW113139   2.737   4.042   0.485
 4080SOL    HW213140   2.717   3.885   0.443
 4081SOL     OW13141   2.459   1.173   5.268
 4081SOL    HW113142   2.383   1.151   5.328
 4081SOL    HW213143   2.429   1.170   5.173
 4082SOL     OW13144   0.993   2.275   5.902
 4082SOL    HW113145   0.998   2.175   5.896
 4082SOL    HW213146   0.925   2.309   5.838
 4083SOL     OW13147   6.027   4.573   3.027
 4083SOL    HW113148   6.026   4.474   3.046
 4083SOL    HW213149   5.994   4.622   3.107
 4084SOL     OW13150   4.821   2.821   3.098
 4084SOL    HW113151   4.913   2.786   3.113
 4084SOL    HW213152   4.815   2.916   3.128
 4085SOL     OW13153   2.261   5.586   1.238
 4085SOL    HW113154   2.267   5.642   1.321
 4085SOL    HW213155   2.351   5.581   1.194
 4086SOL     OW13156   0.065   5.530   0.161
 4086SOL    HW113157   0.128   5.465   0.118
 4086SOL    HW213158   0.110   5.572   0.239
 4087SOL     OW13159   2.899   0.144   2.513
 4087SOL    HW113160   2.953   0.077   2.564
 4087SOL    HW213161   2.805   0.112   2.503
 4088SOL     OW13162   6.481   0.804   5.375
 4088SOL    HW113163   6.388   0.806   5.410
 4088SOL    HW213164   6.486   0.857   5.290
 4089SOL     OW13165   7.017   5.952   4.459
 4089SOL    HW113166   6.971   6.013   4.395
 4089SOL    HW213167   0.018   5.868   4.412
 4090SOL     OW13168   2.244   6.851   4.731
 4090SOL    HW113169   2.167   6.791   4.753
 4090SOL    HW213170   2.212   6.926   4.673
 4091SOL     OW13171   0.984   4.905   0.896
 4091SOL    HW113172   0.994   4.817   0.943
 4091SOL    HW213173   1.028   4.977   0.950
 4092SOL     OW13174   4.765   2.818   4.584
 4092SOL    HW113175   4.680   2.816   4.637
 4092SOL    HW213176   4.802   2.725   4.578
 4093SOL     OW13177   6.019   5.760   2.159
 4093SOL    HW113178   5.929   5.802   2.147
 4093SOL    HW213179   6.089   5.817   2.115
 4094SOL     OW13180   0.494   5.084   6.965
 4094SOL    HW113181   0.439   5.064   6.884
 4094SOL    HW213182   0.591   5.089   6.939
 4095SOL     OW13183   0.338   3.548   6.807
 4095SOL    HW113184   0.262   3.566   6.745
 4095SOL    HW213185   0.360   3.451   6.806
 4096SOL     OW13186   2.240   1.141   6.575
 4096SOL    HW113187   2.215   1.044   6.570
 4096SOL    HW213188   2.193   1.184   6.652
 4097SOL     OW13189   6.925   4.247   5.304
 4097SOL    HW113190   6.862   4.186   5.353
 4097SOL    HW213191   7.014   4.202   5.294
 4098SOL     OW13192   2.090   3.394   1.486
 4098SOL    HW113193   2.100   3.458   1.562
 4098SOL    HW213194   2.163   3.409   1.419
 4099SOL     OW13195   4.197   4.998   6.857
 4099SOL    HW113196   4.214   5.088   6.816
 4099SOL    HW213197   4.267   4.934   6.827
 4100SOL     OW13198   1.120   0.683   3.493
 4100SOL    HW113199   1.176   0.662   3.573
 4100SOL    HW213200   1.023   0.670   3.516
 4101SOL     OW13201   6.684   0.636   6.398
 4101SOL    HW113202   6.595   0.668   6.430
 4101SOL    HW213203   6.751   0.644   6.471
 4102SOL     OW13204   1.659   0.561   0.453
 4102SOL    HW113205   1.747   0.528   0.420
 4102SOL    HW213206   1.637   0.648   0.410
 4103SOL     OW13207   0.090   6.574   2.393
 4103SOL    HW113208   0.023   6.523   2.448
 4103SOL    HW213209   0.153   6.510   2.349
 4104SOL     OW13210   0.321   5.842   3.006
 4104SOL    HW113211   0.340   5.813   3.100
 4104SOL    HW213212   0.251   5.914   3.006
 4105SOL     OW13213   4.858   1.463   1.501
 4105SOL    HW113214   4.811   1.427   1.581
 4105SOL    HW213215   4.857   1.395   1.428
 4106SOL     OW13216   7.007   1.935   3.864
 4106SOL    HW113217   6.987   1.962   3.770
 4106SOL    HW213218   6.936   1.970   3.925
 4107SOL     OW13219   0.347   6.035   6.262
 4107SOL    HW113220   0.285   6.109   6.236
 4107SOL    HW213221   0.408   6.066   6.335
 4108SOL     OW13222   0.403   5.340   4.019
 4108SOL    HW113223   0.323   5.386   4.058
 4108SOL    HW213224   0.483   5.357   4.076
 4109SOL     OW13225   6.068   5.585   3.559
 4109SOL    HW113226   6.139   5.544   3.501
 4109SOL    HW213227   5.980   5.577   3.514
 4110SOL     OW13228   4.662   2.786   6.866
 4110SOL    HW113229   4.581   2.768   6.809
 4110SOL    HW213230   4.635   2.789   6.962
 4111SOL     OW13231   6.609   5.554   6.595
 4111SOL    HW113232   6.553   5.485   6.640
 4111SOL    HW213233   6.657   5.609   6.665
 4112SOL     OW13234   4.514   6.321   4.842
 4112SOL    HW113235   4.447   6.271   4.787
 4112SOL    HW213236   4.487   6.318   4.938
 4113SOL     OW13237   3.844   5.035   4.835
 4113SOL    HW113238   3.755   5.002   4.804
 4113SOL    HW213239   3.847   5.036   4.935
 4114SOL     OW13240   6.194   1.839   3.495
 4114SOL    HW113241   6.278   1.883   3.527
 4114SOL    HW213242   6.138   1.814   3.575
 4115SOL     OW13243   2.558   4.840   3.325
 4115SOL    HW113244   2.598   4.857   3.415
 4115SOL    HW213245   2.518   4.749   3.323
 4116SOL     OW13246   5.434   2.152   3.378
 4116SOL    HW113247   5.476   2.066   3.349
 4116SOL    HW213248   5.384   2.139   3.463
 4117SOL     OW13249   1.376   2.063   2.621
 4117SOL    HW113250   1.373   2.136   2.690
 4117SOL    HW213251   1.356   1.975   2.664
 4118SOL     OW13252   6.513   6.489   6.962
 4118SOL    HW113253   6.558   6.578   6.959
 4118SOL    HW213254   6.483   6.463   6.871
 4119SOL     OW13255   2.512   0.734   3.303
 4119SOL    HW113256   2.602   0.730   3.347
 4119SOL    HW213257   2.448   0.676   3.354
 4120SOL     OW13258   3.534   1.511   6.549
 4120SOL    HW113259   3.603   1.464   6.494
 4120SOL    HW213260   3.466   1.553   6.489
 4121SOL     OW13261   6.594   6.307   2.675
 4121SOL    HW113262   6.586   6.310   2.775
 4121SOL    HW213263   6.599   6.401   2.640
 4122SOL     OW13264   0.513   5.847   4.735
 4122SOL    HW113265   0.444   5.854   4.662
 4122SOL    HW213266   0.496   5.763   4.787
 4123SOL     OW13267   3.803   5.254   4.308
 4123SOL    HW113268   3.888   5.240   4.258
 4123SOL    HW213269   3.820   5.245   4.406
 4124SOL     OW13270   6.334   6.184   1.179
 4124SOL    HW113271   6.280   6.247   1.235
 4124SOL    HW213272   6.398   6.135   1.238
 4125SOL     OW13273   5.018   2.633   2.661
 4125SOL    HW113274   4.977   2.638   2.570
 4125SOL    HW213275   4.954   2.669   2.729
 4126SOL     OW13276   1.735   2.823   2.243
 4126SOL    HW113277   1.742   2.725   2.228
 4126SOL    HW213278   1.724   2.842   2.340
 4127SOL     OW13279   3.903   1.880   4.130
 4127SOL    HW113280   3.989   1.838   4.157
 4127SOL    HW213281   3.834   1.866   4.202
 4128SOL     OW13282   0.692   3.171   2.047
 4128SOL    HW113283   0.646   3.107   1.984
 4128SOL    HW213284   0.658   3.157   2.140
 4129SOL     OW13285   3.487   2.931   0.763
 4129SOL    HW113286   3.411   2.874   0.730
 4129SOL    HW213287   3.507   3.002   0.695
 4130SOL     OW13288   6.015   2.791   0.873
 4130SOL    HW113289   6.012   2.697   0.838
 4130SOL    HW213290   6.092   2.800   0.936
 4131SOL     OW13291   6.046   0.689   2.422
 4131SOL    HW113292   5.996   0.692   2.335
 4131SOL    HW213293   5.982   0.695   2.498
 4132SOL     OW13294   6.122   4.255   4.163
 4132SOL    HW113295   6.077   4.344   4.175
 4132SOL    HW213296   6.151   4.246   4.068
 4133SOL     OW13297   5.609   6.367   1.135
 4133SOL    HW113298   5.648   6.300   1.072
 4133SOL    HW213299   5.681   6.405   1.192
 4134SOL     OW13300   2.229   3.816   1.066
 4134SOL    HW113301   2.222   3.733   1.121
 4134SOL    HW213302   2.180   3.803   0.979
 4135SOL     OW13303   0.773   2.028   2.620
 4135SOL    HW113304   0.724   2.011   2.534
 4135SOL    HW213305   0.844   1.958   2.631
 4136SOL     OW13306   0.708   3.584   1.379
 4136SOL    HW113307   0.630   3.569   1.440
 4136SOL    HW213308   0.716   3.681   1.358
 4137SOL     OW13309   1.491   2.758   0.442
 4137SOL    HW113310   1.509   2.664   0.412
 4137SOL    HW213311   1.421   2.798   0.383
 4138SOL     OW13312   4.119   5.374   1.090
 4138SOL    HW113313   4.188   5.417   1.148
 4138SOL    HW213314   4.164   5.316   1.022
 4139SOL     OW13315   1.479   2.407   3.563
 4139SOL    HW113316   1.553   2.386   3.627
 4139SOL    HW213317   1.469   2.506   3.556
 4140SOL     OW13318   2.852   1.911   3.767
 4140SOL    HW113319   2.866   1.848   3.690
 4140SOL    HW213320   2.901   1.996   3.750
 4141SOL     OW13321   4.679   6.779   6.745
 4141SOL    HW113322   4.662   6.782   6.647
 4141SOL    HW213323   4.752   6.843   6.768
 4142SOL     OW13324   6.695   3.558   1.843
 4142SOL    HW113325   6.746   3.564   1.929
 4142SOL    HW213326   6.647   3.470   1.840
 4143SOL     OW13327   5.838   3.267   0.826
 4143SOL    HW113328   5.904   3.192   0.832
 4143SOL    HW213329   5.887   3.355   0.831
 4144SOL     OW13330   5.416   1.446   0.829
 4144SOL    HW113331   5.376   1.360   0.859
 4144SOL    HW213332   5.475   1.430   0.750
 4145SOL     OW13333   1.261   6.102   0.698
 4145SOL    HW113334   1.322   6.043   0.646
 4145SOL    HW213335   1.174   6.111   0.649
 4146SOL     OW13336   6.205   6.826   3.762
 4146SOL    HW113337   6.267   6.834   3.684
 4146SOL    HW213338   6.113   6.853   3.735
 4147SOL     OW13339   5.850   4.407   5.921
 4147SOL    HW113340   5.804   4.318   5.920
 4147SOL    HW213341   5.801   4.469   5.983
 4148SOL     OW13342   3.133   6.890   5.803
 4148SOL    HW113343   3.070   6.856   5.873
 4148SOL    HW213344   3.203   6.821   5.785
 4149SOL     OW13345   1.227   2.916   1.148
 4149SOL    HW113346   1.270   2.865   1.073
 4149SOL    HW213347   1.221   3.013   1.124
 4150SOL     OW13348   6.486   2.957   5.512
 4150SOL    HW113349   6.472   3.039   5.567
 4150SOL    HW213350   6.519   2.883   5.572
 4151SOL     OW13351   2.308   0.115   5.046
 4151SOL    HW113352   2.298   0.142   4.950
 4151SOL    HW213353   2.250   0.174   5.103
 4152SOL     OW13354   3.712   5.730   1.959
 4152SOL    HW113355   3.761   5.815   1.982
 4152SOL    HW213356   3.749   5.655   2.014
 4153SOL     OW13357   6.413   4.800   1.164
 4153SOL    HW113358   6.492   4.756   1.205
 4153SOL    HW213359   6.343   4.816   1.234
 4154SOL     OW13360   0.002   5.671   3.479
 4154SOL    HW113361   0.001   5.573   3.501
 4154SOL    HW213362   6.934   5.699   3.451
 4155SOL     OW13363   6.762   2.067   1.456
 4155SOL    HW113364   6.770   2.144   1.519
 4155SOL    HW213365   6.745   1.983   1.508
 4156SOL     OW13366   6.490   4.862   5.084
 4156SOL    HW113367   6.570   4.913   5.052
 4156SOL    HW213368   6.408   4.895   5.037
 4157SOL     OW13369   6.301   6.198   2.294
 4157SOL    HW113370   6.286   6.118   2.351
 4157SOL    HW213371   6.229   6.265   2.310
 4158SOL     OW13372   1.874   2.557   1.214
 4158SOL    HW113373   1.845   2.511   1.297
 4158SOL    HW213374   1.970   2.583   1.222
 4159SOL     OW13375   2.881   1.988   2.872
 4159SOL    HW113376   2.808   1.919   2.881
 4159SOL    HW213377   2.855   2.070   2.923
 4160SOL     OW13378   6.249   0.080   6.703
 4160SOL    HW113379   6.195   0.038   6.631
 4160SOL    HW213380   6.204   0.066   6.791
 4161SOL     OW13381   1.980   2.090   1.381
 4161SOL    HW113382   2.034   2.080   1.298
 4161SOL    HW213383   2.015   2.165   1.436
 4162SOL     OW13384   6.224   5.414   1.040
 4162SOL    HW113385   6.197   5.509   1.054
 4162SOL    HW213386   6.310   5.397   1.088
 4163SOL     OW13387   5.612   0.794   2.916
 4163SOL    HW113388   5.547   0.859   2.876
 4163SOL    HW213389   5.574   0.702   2.911
 4164SOL     OW13390   0.182   6.621   5.648
 4164SOL    HW113391   0.178   6.693   5.718
 4164SOL    HW213392   0.141   6.537   5.684
 4165SOL     OW13393   4.307   6.977   5.771
 4165SOL    HW113394   4.251   6.960   5.852
 4165SOL    HW213395   4.308   0.051   5.752
 4166SOL     OW13396   6.778   0.954   1.675
 4166SOL    HW113397   6.801   1.031   1.735
 4166SOL    HW213398   6.718   0.986   1.602
 4167SOL     OW13399   2.359   4.792   6.021
 4167SOL    HW113400   2.407   4.858   6.079
 4167SOL    HW213401   2.335   4.712   6.075
 4168SOL     OW13402   0.265   4.292   0.459
 4168SOL    HW113403   0.341   4.355   0.475
 4168SOL    HW213404   0.178   4.338   0.476
 4169SOL     OW13405   6.082   4.156   5.063
 4169SOL    HW113406   6.051   4.201   5.146
 4169SOL    HW213407   6.174   4.188   5.041
 4170SOL     OW13408   4.972   2.970   4.671
 4170SOL    HW113409   4.891   2.921   4.638
 4170SOL    HW213410   4.957   3.068   4.664
 4171SOL     OW13411   1.230   4.825   1.322
 4171SOL    HW113412   1.202   4.753   1.259
 4171SOL    HW213413   1.285   4.893   1.274
 4172SOL     OW13414   2.679   3.144   0.671
 4172SOL    HW113415   2.597   3.125   0.617
 4172SOL    HW213416   2.660   3.218   0.735
 4173SOL     OW13417   4.690   2.783   5.631
 4173SOL    HW113418   4.725   2.704   5.581
 4173SOL    HW213419   4.663   2.755   5.723
 4174SOL     OW13420   4.759   1.075   2.871
 4174SOL    HW113421   4.768   1.158   2.927
 4174SOL    HW213422   4.770   0.995   2.930
 4175SOL     OW13423   1.637   4.662   5.615
 4175SOL    HW113424   1.696   4.609   5.554
 4175SOL    HW213425   1.628   4.614   5.703
 4176SOL     OW13426   4.724   6.408   0.933
 4176SOL    HW113427   4.733   6.482   0.866
 4176SOL    HW213428   4.708   6.447   1.024
 4177SOL     OW13429   5.615   4.850   4.767
 4177SOL    HW113430   5.538   4.910   4.743
 4177SOL    HW213431   5.698   4.905   4.776
 4178SOL     OW13432   4.367   0.101   2.689
 4178SOL    HW113433   4.307   0.171   2.727
 4178SOL    HW213434   4.341   0.011   2.725
 4179SOL     OW13435   5.827   4.075   3.645
 4179SOL    HW113436   5.841   4.172   3.628
 4179SOL    HW213437   5.774   4.035   3.571
 4180SOL     OW13438   5.170   3.326   1.250
 4180SOL    HW113439   5.204   3.420   1.240
 4180SOL    HW213440   5.085   3.316   1.199
 4181SOL     OW13441   5.443   0.990   6.539
 4181SOL    HW113442   5.349   0.965   6.564
 4181SOL    HW213443   5.489   0.911   6.499
 4182SOL     OW13444   0.120   5.335   3.684
 4182SOL    HW113445   0.204   5.325   3.631
 4182SOL    HW213446   0.139   5.391   3.765
 4183SOL     OW13447   2.780   0.371   0.597
 4183SOL    HW113448   2.823   0.378   0.687
 4183SOL    HW213449   2.681   0.387   0.606
 4184SOL     OW13450   3.990   0.203   2.289
 4184SOL    HW113451   3.946   0.282   2.331
 4184SOL    HW213452   4.000   0.218   2.191
 4185SOL     OW13453   0.782   4.074   2.832
 4185SOL    HW113454   0.844   4.051   2.907
 4185SOL    HW213455   0.803   4.015   2.754
 4186SOL     OW13456   2.403   5.678   6.063
 4186SOL    HW113457   2.313   5.692   6.103
 4186SOL    HW213458   2.432   5.584   6.078
 4187SOL     OW13459   2.572   3.387   0.346
 4187SOL    HW113460   2.486   3.341   0.323
 4187SOL    HW213461   2.622   3.332   0.413
 4188SOL     OW13462   5.319   0.088   5.330
 4188SOL    HW113463   5.222   0.107   5.319
 4188SOL    HW213464   5.372   0.171   5.315
 4189SOL     OW13465   3.584   4.911   3.922
 4189SOL    HW113466   3.676   4.877   3.938
 4189SOL    HW213467   3.525   4.885   3.998
 4190SOL     OW13468   0.315   6.538   0.922
 4190SOL    HW113469   0.219   6.565   0.928
 4190SOL    HW213470   0.373   6.619   0.924
 4191SOL     OW13471   5.456   3.918   5.534
 4191SOL    HW113472   5.425   3.979   5.607
 4191SOL    HW213473   5.535   3.866   5.565
 4192SOL     OW13474   1.698   1.325   1.702
 4192SOL    HW113475   1.612   1.281   1.674
 4192SOL    HW213476   1.686   1.366   1.792
 4193SOL     OW13477   5.416   0.647   0.253
 4193SOL    HW113478   5.510   0.681   0.255
 4193SOL    HW213479   5.353   0.719   0.280
 4194SOL     OW13480   5.020   0.289   4.329
 4194SOL    HW113481   4.999   0.195   4.356
 4194SOL    HW213482   4.955   0.351   4.373
 4195SOL     OW13483   4.308   5.568   1.666
 4195SOL    HW113484   4.265   5.580   1.576
 4195SOL    HW213485   4.318   5.471   1.685
 4196SOL     OW13486   6.858   2.373   2.853
 4196SOL    HW113487   6.758   2.376   2.848
 4196SOL    HW213488   6.887   2.285   2.890
 4197SOL     OW13489   4.278   5.026   5.355
 4197SOL    HW113490   4.351   4.964   5.383
 4197SOL    HW213491   4.253   5.085   5.431
 4198SOL     OW13492   6.872   1.748   2.082
 4198SOL    HW113493   6.874   1.648   2.085
 4198SOL    HW213494   6.956   1.781   2.039
 4199SOL     OW13495   1.460   2.620   5.432
 4199SOL    HW113496   1.405   2.642   5.352
 4199SOL    HW213497   1.552   2.657   5.420
 4200SOL     OW13498   2.881   0.583   5.830
 4200SOL    HW113499   2.786   0.573   5.803
 4200SOL    HW213500   2.941   0.549   5.758
 4201SOL     OW13501   6.273   6.944   2.970
 4201SOL    HW113502   6.327   6.974   3.048
 4201SOL    HW213503   6.178   6.973   2.981
 4202SOL     OW13504   2.846   5.411   6.885
 4202SOL    HW113505   2.755   5.370   6.880
 4202SOL    HW213506   2.915   5.342   6.862
 4203SOL     OW13507   5.163   4.415   0.339
 4203SOL    HW113508   5.160   4.374   0.430
 4203SOL    HW213509   5.189   4.345   0.272
 4204SOL     OW13510   4.063   3.663   5.268
 4204SOL    HW113511   4.121   3.647   5.188
 4204SOL    HW213512   3.979   3.609   5.259
 4205SOL     OW13513   3.926   5.818   4.676
 4205SOL    HW113514   3.870   5.882   4.728
 4205SOL    HW213515   3.977   5.758   4.738
 4206SOL     OW13516   6.418   1.790   4.917
 4206SOL    HW113517   6.355   1.810   4.992
 4206SOL    HW213518   6.502   1.844   4.928
 4207SOL     OW13519   2.256   2.984   1.591
 4207SOL    HW113520   2.319   3.035   1.532
 4207SOL    HW213521   2.173   3.038   1.605
 4208SOL     OW13522   0.382   3.985   5.952
 4208SOL    HW113523   0.437   4.040   5.888
 4208SOL    HW213524   0.313   4.044   5.995
 4209SOL     OW13525   0.131   6.027   3.056
 4209SOL    HW113526   0.097   6.111   3.014
 4209SOL    HW213527   0.083   6.011   3.142
 4210SOL     OW13528   4.061   3.436   2.880
 4210SOL    HW113529   4.075   3.508   2.949
 4210SOL    HW213530   4.101   3.351   2.913
 4211SOL     OW13531   3.382   1.433   5.565
 4211SOL    HW113532   3.398   1.452   5.662
 4211SOL    HW213533   3.461   1.462   5.511
 4212SOL     OW13534   6.871   1.932   3.494
 4212SOL    HW113535   6.868   1.908   3.397
 4212SOL    HW213536   6.844   1.852   3.548
 4213SOL     OW13537   3.036   6.943   2.655
 4213SOL    HW113538   2.967   6.870   2.663
 4213SOL    HW213539   3.118   6.905   2.613
 4214SOL     OW13540   0.443   5.988   5.057
 4214SOL    HW113541   0.528   5.987   5.004
 4214SOL    HW213542   0.441   5.909   5.118
 4215SOL     OW13543   4.789   0.045   5.028
 4215SOL    HW113544   4.781   0.142   5.048
 4215SOL    HW213545   4.708   7.021   5.060
 4216SOL     OW13546   1.288   1.027   2.096
 4216SOL    HW113547   1.235   1.092   2.042
 4216SOL    HW213548   1.324   0.956   2.036
 4217SOL     OW13549   1.454   0.738   2.322
 4217SOL    HW113550   1.436   0.662   2.258
 4217SOL    HW213551   1.377   0.802   2.319
 4218SOL     OW13552   3.648   0.292   1.261
 4218SOL    HW113553   3.586   0.326   1.332
 4218SOL    HW213554   3.673   0.198   1.282
 4219SOL     OW13555   4.771   6.191   4.373
 4219SOL    HW113556   4.816   6.110   4.336
 4219SOL    HW213557   4.828   6.272   4.355
 4220SOL     OW13558   5.995   3.440   2.335
 4220SOL    HW113559   5.909   3.457   2.286
 4220SOL    HW213560   5.975   3.417   2.430
 4221SOL     OW13561   6.203   4.708   5.767
 4221SOL    HW113562   6.254   4.778   5.716
 4221SOL    HW213563   6.233   4.617   5.739
 4222SOL     OW13564   6.470   1.254   3.228
 4222SOL    HW113565   6.449   1.225   3.321
 4222SOL    HW213566   6.548   1.202   3.193
 4223SOL     OW13567   4.260   3.491   0.872
 4223SOL    HW113568   4.229   3.583   0.896
 4223SOL    HW213569   4.336   3.497   0.808
 4224SOL     OW13570   5.453   5.050   4.717
 4224SOL    HW113571   5.369   5.046   4.772
 4224SOL    HW213572   5.476   5.145   4.700
 4225SOL     OW13573   1.746   2.789   5.129
 4225SOL    HW113574   1.803   2.860   5.087
 4225SOL    HW213575   1.805   2.719   5.170
 4226SOL     OW13576   0.647   5.703   3.315
 4226SOL    HW113577   0.731   5.650   3.304
 4226SOL    HW213578   0.669   5.799   3.332
 4227SOL     OW13579   4.481   6.041   1.850
 4227SOL    HW113580   4.564   5.992   1.878
 4227SOL    HW213581   4.405   6.015   1.910
 4228SOL     OW13582   6.907   6.506   5.716
 4228SOL    HW113583   6.974   6.435   5.739
 4228SOL    HW213584   6.940   6.561   5.640
 4229SOL     OW13585   4.498   5.632   5.531
 4229SOL    HW113586   4.558   5.709   5.511
 4229SOL    HW213587   4.475   5.584   5.447
 4230SOL     OW13588   1.825   6.440   3.011
 4230SOL    HW113589   1.891   6.382   2.962
 4230SOL    HW213590   1.743   6.387   3.032
 4231SOL     OW13591   5.320   0.047   5.904
 4231SOL    HW113592   5.301   0.021   5.810
 4231SOL    HW213593   5.239   0.092   5.943
 4232SOL     OW13594   1.778   4.538   3.609
 4232SOL    HW113595   1.818   4.624   3.577
 4232SOL    HW213596   1.739   4.551   3.700
 4233SOL     OW13597   0.128   1.262   5.276
 4233SOL    HW113598   0.030   1.258   5.260
 4233SOL    HW213599   0.152   1.351   5.316
 4234SOL     OW13600   2.229   5.192   5.311
 4234SOL    HW113601   2.269   5.270   5.358
 4234SOL    HW213602   2.300   5.124   5.292
 4235SOL     OW13603   6.961   4.337   5.994
 4235SOL    HW113604   6.975   4.348   5.896
 4235SOL    HW213605   6.926   4.245   6.012
 4236SOL     OW13606   6.382   4.365   2.269
 4236SOL    HW113607   6.389   4.462   2.291
 4236SOL    HW213608   6.334   4.353   2.183
 4237SOL     OW13609   6.839   4.866   3.700
 4237SOL    HW113610   6.754   4.823   3.730
 4237SOL    HW213611   6.907   4.859   3.773
 4238SOL     OW13612   1.486   6.825   2.611
 4238SOL    HW113613   1.416   6.850   2.544
 4238SOL    HW213614   1.570   6.875   2.591
 4239SOL     OW13615   4.560   1.820   2.972
 4239SOL    HW113616   4.494   1.758   3.013
 4239SOL    HW213617   4.514   1.879   2.906
 4240SOL     OW13618   1.865   5.671   0.700
 4240SOL    HW113619   1.920   5.590   0.678
 4240SOL    HW213620   1.860   5.681   0.799
 4241SOL     OW13621   5.621   1.027   0.196
 4241SOL    HW113622   5.689   1.100   0.191
 4241SOL    HW213623   5.592   1.014   0.291
 4242SOL     OW13624   2.921   2.222   3.956
 4242SOL    HW113625   2.901   2.133   3.995
 4242SOL    HW213626   2.980   2.211   3.876
 4243SOL     OW13627   5.533   1.936   3.038
 4243SOL    HW113628   5.441   1.933   2.998
 4243SOL    HW213629   5.585   2.011   2.996
 4244SOL     OW13630   4.088   4.444   1.208
 4244SOL    HW113631   4.147   4.503   1.264
 4244SOL    HW213632   4.127   4.352   1.203
 4245SOL     OW13633   6.420   2.059   6.354
 4245SOL    HW113634   6.361   2.003   6.297
 4245SOL    HW213635   6.365   2.126   6.404
 4246SOL     OW13636   6.375   4.009   3.158
 4246SOL    HW113637   6.296   3.953   3.184
 4246SOL    HW213638   6.342   4.096   3.121
 4247SOL     OW13639   2.258   6.311   3.556
 4247SOL    HW113640   2.268   6.221   3.600
 4247SOL    HW213641   2.264   6.300   3.457
 4248SOL     OW13642   3.156   1.556   4.349
 4248SOL    HW113643   3.136   1.648   4.317
 4248SOL    HW213644   3.175   1.497   4.271
 4249SOL     OW13645   6.562   2.894   5.132
 4249SOL    HW113646   6.519   2.811   5.095
 4249SOL    HW213647   6.630   2.928   5.067
 4250SOL     OW13648   0.103   4.528   3.077
 4250SOL    HW113649   0.056   4.458   3.022
 4250SOL    HW213650   0.185   4.489   3.118
 4251SOL     OW13651   5.460   4.578   0.815
 4251SOL    HW113652   5.417   4.494   0.781
 4251SOL    HW213653   5.537   4.603   0.756
 4252SOL     OW13654   5.875   6.919   5.171
 4252SOL    HW113655   5.881   6.896   5.268
 4252SOL    HW213656   5.938   6.994   5.150
 4253SOL     OW13657   3.080   6.725   1.247
 4253SOL    HW113658   3.030   6.666   1.310
 4253SOL    HW213659   3.177   6.704   1.252
 4254SOL     OW13660   1.469   2.648   2.321
 4254SOL    HW113661   1.512   2.697   2.245
 4254SOL    HW213662   1.394   2.592   2.286
 4255SOL     OW13663   5.419   3.014   3.503
 4255SOL    HW113664   5.382   3.090   3.555
 4255SOL    HW213665   5.417   2.931   3.559
 4256SOL     OW13666   1.450   6.724   1.075
 4256SOL    HW113667   1.418   6.794   1.138
 4256SOL    HW213668   1.384   6.648   1.073
 4257SOL     OW13669   3.399   0.564   4.591
 4257SOL    HW113670   3.390   0.664   4.594
 4257SOL    HW213671   3.450   0.538   4.510
 4258SOL     OW13672   6.172   6.824   1.475
 4258SOL    HW113673   6.228   6.743   1.492
 4258SOL    HW213674   6.183   6.888   1.550
 4259SOL     OW13675   2.597   0.763   0.168
 4259SOL    HW113676   2.625   0.687   0.226
 4259SOL    HW213677   2.678   0.806   0.128
 4260SOL     OW13678   4.941   6.843   5.718
 4260SOL    HW113679   4.858   6.878   5.762
 4260SOL    HW213680   4.988   6.917   5.671
 4261SOL     OW13681   1.963   0.563   1.791
 4261SOL    HW113682   1.976   0.467   1.767
 4261SOL    HW213683   1.905   0.607   1.722
 4262SOL     OW13684   0.173   4.566   6.234
 4262SOL    HW113685   0.114   4.490   6.262
 4262SOL    HW213686   0.203   4.552   6.140
 4263SOL     OW13687   2.972   6.715   3.442
 4263SOL    HW113688   2.877   6.745   3.447
 4263SOL    HW213689   2.986   6.659   3.361
 4264SOL     OW13690   0.193   2.057   2.555
 4264SOL    HW113691   0.266   2.051   2.488
 4264SOL    HW213692   0.187   2.151   2.590
 4265SOL     OW13693   5.660   1.413   0.429
 4265SOL    HW113694   5.582   1.406   0.367
 4265SOL    HW213695   5.651   1.345   0.501
 4266SOL     OW13696   1.966   5.423   0.599
 4266SOL    HW113697   1.946   5.347   0.662
 4266SOL    HW213698   1.896   5.424   0.527
 4267SOL     OW13699   1.530   3.371   5.114
 4267SOL    HW113700   1.543   3.303   5.041
 4267SOL    HW213701   1.589   3.450   5.096
 4268SOL     OW13702   1.408   6.558   5.958
 4268SOL    HW113703   1.433   6.462   5.953
 4268SOL    HW213704   1.325   6.568   6.013
 4269SOL     OW13705   2.205   0.904   1.744
 4269SOL    HW113706   2.139   0.879   1.814
 4269SOL    HW213707   2.158   0.928   1.659
 4270SOL     OW13708   3.232   2.957   4.868
 4270SOL    HW113709   3.143   2.915   4.853
 4270SOL    HW213710   3.260   2.943   4.963
 4271SOL     OW13711   0.518   0.550   6.695
 4271SOL    HW113712   0.458   0.471   6.691
 4271SOL    HW213713   0.466   0.630   6.726
 4272SOL     OW13714   0.955   3.915   5.002
 4272SOL    HW113715   0.996   3.894   4.913
 4272SOL    HW213716   0.864   3.874   5.007
 4273SOL     OW13717   4.719   6.056   4.902
 4273SOL    HW113718   4.719   6.125   4.830
 4273SOL    HW213719   4.629   6.054   4.946
 4274SOL     OW13720   1.826   6.750   2.148
 4274SOL    HW113721   1.842   6.847   2.161
 4274SOL    HW213722   1.908   6.698   2.171
 4275SOL     OW13723   6.729   1.735   5.183
 4275SOL    HW113724   6.747   1.647   5.227
 4275SOL    HW213725   6.719   1.722   5.085
 4276SOL     OW13726   1.595   4.624   3.832
 4276SOL    HW113727   1.552   4.714   3.836
 4276SOL    HW213728   1.536   4.557   3.876
 4277SOL     OW13729   6.051   4.579   4.046
 4277SOL    HW113730   6.140   4.615   4.016
 4277SOL    HW213731   5.987   4.655   4.056
 4278SOL     OW13732   0.527   0.622   4.649
 4278SOL    HW113733   0.609   0.566   4.662
 4278SOL    HW213734   0.445   0.565   4.662
 4279SOL     OW13735   3.560   6.930   5.413
 4279SOL    HW113736   3.653   6.909   5.442
 4279SOL    HW213737   3.514   6.982   5.484
 4280SOL     OW13738   5.307   0.731   5.264
 4280SOL    HW113739   5.381   0.760   5.202
 4280SOL    HW213740   5.219   0.758   5.225
 4281SOL     OW13741   1.889   5.035   4.573
 4281SOL    HW113742   1.934   5.023   4.662
 4281SOL    HW213743   1.790   5.026   4.584
 4282SOL     OW13744   3.666   2.758   0.434
 4282SOL    HW113745   3.751   2.708   0.414
 4282SOL    HW213746   3.603   2.697   0.482
 4283SOL     OW13747   2.179   1.164   4.091
 4283SOL    HW113748   2.117   1.241   4.079
 4283SOL    HW213749   2.272   1.198   4.107
 4284SOL     OW13750   4.933   6.037   1.911
 4284SOL    HW113751   4.901   6.107   1.975
 4284SOL    HW213752   4.921   5.947   1.952
 4285SOL     OW13753   0.750   0.338   5.666
 4285SOL    HW113754   0.676   0.381   5.613
 4285SOL    HW213755   0.781   0.402   5.737
 4286SOL     OW13756   5.136   5.483   6.835
 4286SOL    HW113757   5.219   5.428   6.833
 4286SOL    HW213758   5.057   5.425   6.857
 4287SOL     OW13759   5.775   1.263   6.701
 4287SOL    HW113760   5.796   1.169   6.674
 4287SOL    HW213761   5.807   1.325   6.630
 4288SOL     OW13762   0.938   6.070   3.121
 4288SOL    HW113763   0.990   6.010   3.061
 4288SOL    HW213764   0.992   6.092   3.202
 4289SOL     OW13765   6.095   3.293   1.130
 4289SOL    HW113766   6.150   3.249   1.059
 4289SOL    HW213767   6.018   3.235   1.154
 4290SOL     OW13768   2.856   6.702   2.458
 4290SOL    HW113769   2.890   6.610   2.440
 4290SOL    HW213770   2.836   6.712   2.556
 4291SOL     OW13771   4.478   3.880   1.701
 4291SOL    HW113772   4.432   3.968   1.715
 4291SOL    HW213773   4.417   3.819   1.650
 4292SOL     OW13774   6.329   4.589   6.225
 4292SOL    HW113775   6.285   4.597   6.136
 4292SOL    HW213776   6.262   4.562   6.293
 4293SOL     OW13777   0.319   2.814   0.478
 4293SOL    HW113778   0.415   2.842   0.478
 4293SOL    HW213779   0.310   2.723   0.439
 4294SOL     OW13780   3.407   2.755   6.782
 4294SOL    HW113781   3.494   2.790   6.817
 4294SOL    HW213782   3.335   2.772   6.849
 4295SOL     OW13783   3.642   6.242   4.716
 4295SOL    HW113784   3.681   6.155   4.748
 4295SOL    HW213785   3.543   6.232   4.706
 4296SOL     OW13786   3.706   1.323   0.420
 4296SOL    HW113787   3.726   1.384   0.343
 4296SOL    HW213788   3.685   1.232   0.386
 4297SOL     OW13789   5.559   0.598   6.209
 4297SOL    HW113790   5.524   0.517   6.257
 4297SOL    HW213791   5.562   0.675   6.273
 4298SOL     OW13792   2.603   5.612   6.446
 4298SOL    HW113793   2.620   5.642   6.352
 4298SOL    HW213794   2.663   5.535   6.468
 4299SOL     OW13795   0.371   2.946   0.148
 4299SOL    HW113796   0.329   3.032   0.120
 4299SOL    HW213797   0.307   2.894   0.205
 4300SOL     OW13798   3.631   1.056   0.342
 4300SOL    HW113799   3.603   1.001   0.420
 4300SOL    HW213800   3.550   1.094   0.296
 4301SOL     OW13801   3.132   1.460   1.167
 4301SOL    HW113802   3.154   1.362   1.166
 4301SOL    HW213803   3.211   1.511   1.201
 4302SOL     OW13804   1.015   6.495   5.252
 4302SOL    HW113805   1.082   6.474   5.324
 4302SOL    HW213806   0.938   6.432   5.259
 4303SOL     OW13807   5.964   4.848   4.057
 4303SOL    HW113808   5.975   4.946   4.073
 4303SOL    HW213809   5.869   4.829   4.033
 4304SOL     OW13810   2.972   3.595   4.069
 4304SOL    HW113811   2.875   3.619   4.066
 4304SOL    HW213812   3.004   3.594   4.164
 4305SOL     OW13813   6.172   0.963   4.074
 4305SOL    HW113814   6.171   0.937   4.171
 4305SOL    HW213815   6.081   0.995   4.047
 4306SOL     OW13816   6.425   3.786   6.689
 4306SOL    HW113817   6.486   3.805   6.765
 4306SOL    HW213818   6.334   3.824   6.708
 4307SOL     OW13819   5.073   3.576   6.462
 4307SOL    HW113820   5.146   3.556   6.396
 4307SOL    HW213821   5.058   3.496   6.521
 4308SOL     OW13822   5.590   5.820   6.337
 4308SOL    HW113823   5.627   5.727   6.344
 4308SOL    HW213824   5.654   5.884   6.378
 4309SOL     OW13825   1.366   1.126   0.451
 4309SOL    HW113826   1.351   1.047   0.511
 4309SOL    HW213827   1.432   1.102   0.380
 4310SOL     OW13828   2.230   2.606   3.040
 4310SOL    HW113829   2.200   2.627   3.133
 4310SOL    HW213830   2.151   2.601   2.979
 4311SOL     OW13831   1.600   5.604   3.158
 4311SOL    HW113832   1.650   5.690   3.147
 4311SOL    HW213833   1.650   5.545   3.221
 4312SOL     OW13834   1.363   5.307   0.854
 4312SOL    HW113835   1.316   5.242   0.794
 4312SOL    HW213836   1.449   5.267   0.885
 4313SOL     OW13837   5.386   1.335   1.565
 4313SOL    HW113838   5.480   1.333   1.532
 4313SOL    HW213839   5.376   1.407   1.634
 4314SOL     OW13840   5.835   1.876   4.409
 4314SOL    HW113841   5.746   1.894   4.450
 4314SOL    HW213842   5.849   1.778   4.399
 4315SOL     OW13843   2.647   0.371   1.717
 4315SOL    HW113844   2.565   0.428   1.727
 4315SOL    HW213845   2.727   0.429   1.707
 4316SOL     OW13846   5.218   0.363   1.093
 4316SOL    HW113847   5.258   0.399   1.177
 4316SOL    HW213848   5.146   0.426   1.061
 4317SOL     OW13849   3.936   1.445   4.829
 4317SOL    HW113850   4.009   1.513   4.817
 4317SOL    HW213851   3.944   1.376   4.757
 4318SOL     OW13852   1.329   2.946   3.671
 4318SOL    HW113853   1.241   2.915   3.705
 4318SOL    HW213854   1.401   2.922   3.736
 4319SOL     OW13855   2.199   3.004   0.388
 4319SOL    HW113856   2.239   2.953   0.312
 4319SOL    HW213857   2.207   3.102   0.371
 4320SOL     OW13858   0.262   6.171   1.886
 4320SOL    HW113859   0.336   6.214   1.834
 4320SOL    HW213860   0.223   6.095   1.833
 4321SOL     OW13861   0.227   0.144   4.042
 4321SOL    HW113862   0.265   0.052   4.029
 4321SOL    HW213863   0.274   0.189   4.118
 4322SOL     OW13864   6.015   2.137   6.525
 4322SOL    HW113865   5.955   2.191   6.584
 4322SOL    HW213866   5.975   2.046   6.513
 4323SOL     OW13867   4.850   4.283   1.332
 4323SOL    HW113868   4.882   4.316   1.421
 4323SOL    HW213869   4.751   4.297   1.325
 4324SOL     OW13870   5.867   3.969   6.531
 4324SOL    HW113871   5.812   3.887   6.516
 4324SOL    HW213872   5.845   4.038   6.462
 4325SOL     OW13873   1.966   0.532   0.619
 4325SOL    HW113874   2.062   0.550   0.640
 4325SOL    HW213875   1.954   0.520   0.521
 4326SOL     OW13876   5.506   2.963   4.717
 4326SOL    HW113877   5.440   2.946   4.644
 4326SOL    HW213878   5.592   2.918   4.696
 4327SOL     OW13879   6.134   5.220   2.218
 4327SOL    HW113880   6.227   5.186   2.208
 4327SOL    HW213881   6.080   5.155   2.272
 4328SOL     OW13882   4.331   3.796   5.911
 4328SOL    HW113883   4.346   3.708   5.864
 4328SOL    HW213884   4.265   3.850   5.859
 4329SOL     OW13885   3.934   1.532   6.492
 4329SOL    HW113886   3.867   1.593   6.449
 4329SOL    HW213887   3.959   1.567   6.581
 4330SOL     OW13888   2.988   0.312   4.875
 4330SOL    HW113889   2.975   0.344   4.969
 4330SOL    HW213890   2.952   0.380   4.811
 4331SOL     OW13891   4.902   2.941   1.024
 4331SOL    HW113892   4.959   2.915   0.947
 4331SOL    HW213893   4.903   2.868   1.092
 4332SOL     OW13894   5.197   4.865   2.195
 4332SOL    HW113895   5.218   4.821   2.282
 4332SOL    HW213896   5.163   4.797   2.131
 4333SOL     OW13897   4.328   0.927   5.330
 4333SOL    HW113898   4.402   0.874   5.373
 4333SOL    HW213899   4.351   1.024   5.333
 4334SOL     OW13900   1.784   2.157   2.468
 4334SOL    HW113901   1.770   2.183   2.563
 4334SOL    HW213902   1.878   2.127   2.455
 4335SOL     OW13903   2.953   3.886   3.603
 4335SOL    HW113904   3.022   3.955   3.623
 4335SOL    HW213905   2.964   3.855   3.508
 4336SOL     OW13906   1.466   6.669   5.683
 4336SOL    HW113907   1.487   6.755   5.636
 4336SOL    HW213908   1.411   6.688   5.764
 4337SOL     OW13909   1.035   4.359   0.396
 4337SOL    HW113910   1.120   4.354   0.343
 4337SOL    HW213911   1.056   4.389   0.489
 4338SOL     OW13912   5.181   5.567   4.058
 4338SOL    HW113913   5.229   5.580   3.972
 4338SOL    HW213914   5.209   5.637   4.124
 4339SOL     OW13915   6.294   3.905   4.904
 4339SOL    HW113916   6.213   3.885   4.848
 4339SOL    HW213917   6.361   3.956   4.849
 4340SOL     OW13918   6.010   4.370   2.144
 4340SOL    HW113919   5.953   4.448   2.119
 4340SOL    HW213920   6.014   4.362   2.244
 4341SOL     OW13921   0.703   5.646   2.202
 4341SOL    HW113922   0.717   5.652   2.103
 4341SOL    HW213923   0.716   5.551   2.231
 4342SOL     OW13924   6.648   4.124   3.951
 4342SOL    HW113925   6.562   4.148   3.996
 4342SOL    HW213926   6.642   4.148   3.854
 4343SOL     OW13927   2.444   6.491   6.166
 4343SOL    HW113928   2.476   6.508   6.259
 4343SOL    HW213929   2.446   6.392   6.148
 4344SOL     OW13930   1.796   5.338   3.105
 4344SOL    HW113931   1.722   5.274   3.083
 4344SOL    HW213932   1.773   5.389   3.188
 4345SOL     OW13933   1.914   2.843   5.657
 4345SOL    HW113934   1.917   2.935   5.697
 4345SOL    HW213935   1.904   2.775   5.729
 4346SOL     OW13936   1.899   3.113   2.222
 4346SOL    HW113937   1.811   3.158   2.213
 4346SOL    HW213938   1.952   3.159   2.294
 4347SOL     OW13939   5.856   6.755   2.650
 4347SOL    HW113940   5.769   6.781   2.606
 4347SOL    HW213941   5.920   6.831   2.645
 4348SOL     OW13942   0.052   3.516   2.754
 4348SOL    HW113943   0.140   3.503   2.708
 4348SOL    HW213944   7.017   3.571   2.696
 4349SOL     OW13945   6.465   2.032   2.497
 4349SOL    HW113946   6.532   2.031   2.572
 4349SOL    HW213947   6.373   2.043   2.534
 4350SOL     OW13948   5.019   2.398   3.793
 4350SOL    HW113949   4.985   2.320   3.740
 4350SOL    HW213950   4.942   2.449   3.831
 4351SOL     OW13951   1.821   6.938   1.230
 4351SOL    HW113952   1.769   6.858   1.198
 4351SOL    HW213953   1.863   6.983   1.151
 4352SOL     OW13954   1.112   2.207   2.508
 4352SOL    HW113955   1.200   2.183   2.467
 4352SOL    HW213956   1.043   2.216   2.436
 4353SOL     OW13957   3.399   4.370   0.144
 4353SOL    HW113958   3.473   4.425   0.184
 4353SOL    HW213959   3.326   4.431   0.113
 4354SOL     OW13960   2.569   6.673   5.316
 4354SOL    HW113961   2.581   6.607   5.389
 4354SOL    HW213962   2.474   6.703   5.313
 4355SOL     OW13963   3.428   0.824   2.071
 4355SOL    HW113964   3.408   0.913   2.028
 4355SOL    HW213965   3.343   0.780   2.099
 4356SOL     OW13966   4.646   4.471   1.581
 4356SOL    HW113967   4.663   4.382   1.623
 4356SOL    HW213968   4.552   4.473   1.546
 4357SOL     OW13969   6.334   0.761   6.798
 4357SOL    HW113970   6.391   0.706   6.738
 4357SOL    HW213971   6.260   0.802   6.745
 4358SOL     OW13972   6.928   5.879   0.408
 4358SOL    HW113973   7.012   5.832   0.434
 4358SOL    HW213974   6.902   5.852   0.315
 4359SOL     OW13975   1.675   2.242   6.160
 4359SOL    HW113976   1.736   2.297   6.104
 4359SOL    HW213977   1.706   2.147   6.159
 4360SOL     OW13978   1.278   2.590   3.050
 4360SOL    HW113979   1.215   2.536   3.107
 4360SOL    HW213980   1.331   2.652   3.109
 4361SOL     OW13981   2.804   2.692   1.682
 4361SOL    HW113982   2.807   2.789   1.705
 4361SOL    HW213983   2.894   2.652   1.695
 4362SOL     OW13984   6.114   3.966   3.699
 4362SOL    HW113985   6.086   4.036   3.633
 4362SOL    HW213986   6.061   3.975   3.783
 4363SOL     OW13987   5.604   2.591   6.696
 4363SOL    HW113988   5.692   2.637   6.708
 4363SOL    HW213989   5.610   2.524   6.622
 4364SOL     OW13990   3.505   3.639   5.527
 4364SOL    HW113991   3.571   3.705   5.563
 4364SOL    HW213992   3.446   3.685   5.460
 4365SOL     OW13993   2.178   2.477   2.049
 4365SOL    HW113994   2.157   2.412   1.975
 4365SOL    HW213995   2.268   2.518   2.032
 4366SOL     OW13996   5.650   6.364   0.457
 4366SOL    HW113997   5.735   6.321   0.426
 4366SOL    HW213998   5.580   6.294   0.470
 4367SOL     OW13999   2.018   5.028   5.174
 4367SOL    HW114000   1.994   5.099   5.240
 4367SOL    HW214001   2.109   5.046   5.137
 4368SOL     OW14002   3.902   5.413   1.414
 4368SOL    HW114003   3.987   5.464   1.422
 4368SOL    HW214004   3.922   5.319   1.387
 4369SOL     OW14005   3.805   5.442   3.440
 4369SOL    HW114006   3.809   5.542   3.446
 4369SOL    HW214007   3.895   5.407   3.414
 4370SOL     OW14008   4.589   4.792   2.885
 4370SOL    HW114009   4.621   4.760   2.796
 4370SOL    HW214010   4.554   4.715   2.938
 4371SOL     OW14011   0.093   1.041   1.231
 4371SOL    HW114012   0.104   1.134   1.196
 4371SOL    HW214013   0.172   1.017   1.288
 4372SOL     OW14014   4.268   0.898   3.482
 4372SOL    HW114015   4.332   0.868   3.553
 4372SOL    HW214016   4.292   0.855   3.395
 4373SOL     OW14017   0.488   2.085   6.233
 4373SOL    HW114018   0.446   2.060   6.145
 4373SOL    HW214019   0.504   2.184   6.234
 4374SOL     OW14020   1.089   1.772   1.743
 4374SOL    HW114021   1.140   1.735   1.666
 4374SOL    HW214022   0.991   1.770   1.723
 4375SOL     OW14023   3.540   0.902   3.721
 4375SOL    HW114024   3.450   0.944   3.713
 4375SOL    HW214025   3.571   0.872   3.631
 4376SOL     OW14026   6.516   6.658   3.267
 4376SOL    HW114027   6.417   6.673   3.260
 4376SOL    HW214028   6.563   6.716   3.201
 4377SOL     OW14029   5.491   4.037   0.107
 4377SOL    HW114030   5.492   3.956   0.048
 4377SOL    HW214031   5.506   4.119   0.052
 4378SOL     OW14032   1.936   1.721   2.484
 4378SOL    HW114033   1.858   1.774   2.449
 4378SOL    HW214034   2.021   1.763   2.452
 4379SOL     OW14035   2.163   1.048   2.440
 4379SOL    HW114036   2.105   1.036   2.360
 4379SOL    HW214037   2.249   1.000   2.427
 4380SOL     OW14038   1.712   0.457   2.282
 4380SOL    HW114039   1.761   0.387   2.231
 4380SOL    HW214040   1.710   0.433   2.379
 4381SOL     OW14041   0.429   6.279   5.382
 4381SOL    HW114042   0.421   6.379   5.391
 4381SOL    HW214043   0.361   6.246   5.316
 4382SOL     OW14044   0.675   3.579   5.401
 4382SOL    HW114045   0.702   3.538   5.488
 4382SOL    HW214046   0.706   3.674   5.399
 4383SOL     OW14047   0.315   3.635   6.509
 4383SOL    HW114048   0.378   3.557   6.509
 4383SOL    HW214049   0.363   3.715   6.472
 4384SOL     OW14050   6.323   0.496   4.411
 4384SOL    HW114051   6.349   0.452   4.497
 4384SOL    HW214052   6.360   0.589   4.408
 4385SOL     OW14053   4.824   2.711   5.236
 4385SOL    HW114054   4.789   2.649   5.166
 4385SOL    HW214055   4.802   2.805   5.212
 4386SOL     OW14056   1.694   3.637   5.119
 4386SOL    HW114057   1.746   3.693   5.054
 4386SOL    HW214058   1.599   3.667   5.120
 4387SOL     OW14059   6.618   2.046   1.782
 4387SOL    HW114060   6.621   2.073   1.878
 4387SOL    HW214061   6.678   1.968   1.767
 4388SOL     OW14062   3.608   2.199   5.937
 4388SOL    HW114063   3.511   2.181   5.924
 4388SOL    HW214064   3.660   2.114   5.926
 4389SOL     OW14065   6.960   3.838   0.919
 4389SOL    HW114066   0.033   3.862   0.913
 4389SOL    HW214067   6.943   3.787   1.003
 4390SOL     OW14068   4.089   0.076   1.614
 4390SOL    HW114069   4.145   0.019   1.554
 4390SOL    HW214070   4.116   0.062   1.709
 4391SOL     OW14071   2.869   5.063   0.097
 4391SOL    HW114072   2.946   5.102   0.048
 4391SOL    HW214073   2.894   4.973   0.133
 4392SOL     OW14074   1.258   2.342   5.177
 4392SOL    HW114075   1.313   2.310   5.254
 4392SOL    HW214076   1.296   2.428   5.143
 4393SOL     OW14077   6.404   0.708   1.492
 4393SOL    HW114078   6.354   0.634   1.537
 4393SOL    HW214079   6.474   0.743   1.555
 4394SOL     OW14080   6.827   5.924   2.375
 4394SOL    HW114081   6.785   6.000   2.424
 4394SOL    HW214082   6.925   5.924   2.392
 4395SOL     OW14083   1.956   0.863   1.835
 4395SOL    HW114084   1.952   0.764   1.820
 4395SOL    HW214085   1.893   0.888   1.909
 4396SOL     OW14086   1.769   1.797   3.910
 4396SOL    HW114087   1.726   1.785   3.821
 4396SOL    HW214088   1.710   1.761   3.981
 4397SOL     OW14089   1.667   2.670   4.700
 4397SOL    HW114090   1.641   2.744   4.637
 4397SOL    HW214091   1.658   2.582   4.653
 4398SOL     OW14092   1.635   3.478   6.365
 4398SOL    HW114093   1.578   3.395   6.368
 4398SOL    HW214094   1.675   3.488   6.274
 4399SOL     OW14095   3.630   6.178   2.321
 4399SOL    HW114096   3.672   6.259   2.280
 4399SOL    HW214097   3.654   6.173   2.418
 4400SOL     OW14098   2.129   6.767   4.017
 4400SOL    HW114099   2.194   6.735   3.948
 4400SOL    HW214100   2.173   6.764   4.107
 4401SOL     OW14101   3.358   6.726   5.392
 4401SOL    HW114102   3.269   6.758   5.360
 4401SOL    HW214103   3.419   6.804   5.403
 4402SOL     OW14104   1.125   6.897   2.862
 4402SOL    HW114105   1.087   6.838   2.932
 4402SOL    HW214106   1.164   6.841   2.788
 4403SOL     OW14107   1.457   6.382   0.143
 4403SOL    HW114108   1.376   6.439   0.152
 4403SOL    HW214109   1.519   6.398   0.220
 4404SOL     OW14110   0.756   6.386   5.297
 4404SOL    HW114111   0.718   6.354   5.211
 4404SOL    HW214112   0.691   6.448   5.342
 4405SOL     OW14113   1.728   4.593   2.171
 4405SOL    HW114114   1.640   4.594   2.218
 4405SOL    HW214115   1.713   4.584   2.073
 4406SOL     OW14116   6.878   3.053   0.612
 4406SOL    HW114117   6.844   2.976   0.559
 4406SOL    HW214118   6.975   3.066   0.595
 4407SOL     OW14119   0.436   5.105   1.629
 4407SOL    HW114120   0.350   5.067   1.665
 4407SOL    HW214121   0.476   5.165   1.698
 4408SOL     OW14122   1.929   0.041   6.992
 4408SOL    HW114123   1.891   6.992   0.023
 4408SOL    HW214124   1.992   0.095   0.023
 4409SOL     OW14125   4.280   1.534   1.633
 4409SOL    HW114126   4.339   1.457   1.656
 4409SOL    HW214127   4.332   1.619   1.640
 4410SOL     OW14128   0.599   5.893   0.144
 4410SOL    HW114129   0.527   5.884   0.212
 4410SOL    HW214130   0.566   5.945   0.065
 4411SOL     OW14131   3.672   4.724   5.353
 4411SOL    HW114132   3.736   4.652   5.325
 4411SOL    HW214133   3.588   4.717   5.300
 4412SOL     OW14134   4.482   6.229   4.440
 4412SOL    HW114135   4.573   6.191   4.419
 4412SOL    HW214136   4.436   6.253   4.355
 4413SOL     OW14137   5.525   5.392   3.856
 4413SOL    HW114138   5.555   5.402   3.761
 4413SOL    HW214139   5.576   5.319   3.900
 4414SOL     OW14140   3.309   6.064   1.229
 4414SOL    HW114141   3.312   6.148   1.284
 4414SOL    HW214142   3.396   6.055   1.179
 4415SOL     OW14143   4.432   3.223   0.201
 4415SOL    HW114144   4.406   3.312   0.162
 4415SOL    HW214145   4.403   3.219   0.297
 4416SOL     OW14146   4.324   1.593   3.689
 4416SOL    HW114147   4.378   1.677   3.692
 4416SOL    HW214148   4.372   1.525   3.634
 4417SOL     OW14149   5.745   3.648   3.553
 4417SOL    HW114150   5.735   3.570   3.492
 4417SOL    HW214151   5.700   3.629   3.640
 4418SOL     OW14152   6.293   1.872   3.000
 4418SOL    HW114153   6.203   1.829   3.001
 4418SOL    HW214154   6.307   1.921   3.086
 4419SOL     OW14155   6.532   0.041   5.750
 4419SOL    HW114156   6.581   7.020   5.676
 4419SOL    HW214157   6.597   0.085   5.811
 4420SOL     OW14158   3.915   1.640   1.401
 4420SOL    HW114159   3.965   1.579   1.462
 4420SOL    HW214160   3.938   1.735   1.422
 4421SOL     OW14161   2.006   1.649   5.219
 4421SOL    HW114162   1.929   1.628   5.160
 4421SOL    HW214163   2.081   1.585   5.199
 4422SOL     OW14164   1.296   4.646   6.774
 4422SOL    HW114165   1.250   4.728   6.810
 4422SOL    HW214166   1.257   4.624   6.684
 4423SOL     OW14167   0.162   4.130   6.063
 4423SOL    HW114168   0.184   4.159   6.156
 4423SOL    HW214169   0.157   4.210   6.004
 4424SOL     OW14170   5.253   6.728   4.559
 4424SOL    HW114171   5.217   6.635   4.560
 4424SOL    HW214172   5.344   6.729   4.519
 4425SOL     OW14173   1.808   4.975   0.609
 4425SOL    HW114174   1.724   4.959   0.557
 4425SOL    HW214175   1.859   4.889   0.618
 4426SOL     OW14176   0.709   1.679   4.165
 4426SOL    HW114177   0.793   1.659   4.114
 4426SOL    HW214178   0.690   1.777   4.160
 4427SOL     OW14179   5.155   6.290   2.875
 4427SOL    HW114180   5.240   6.327   2.914
 4427SOL    HW214181   5.077   6.326   2.926
 4428SOL     OW14182   4.502   0.762   4.274
 4428SOL    HW114183   4.424   0.736   4.218
 4428SOL    HW214184   4.536   0.852   4.245
 4429SOL     OW14185   2.832   6.752   2.722
 4429SOL    HW114186   2.780   6.837   2.732
 4429SOL    HW214187   2.803   6.687   2.792
 4430SOL     OW14188   4.785   4.583   5.014
 4430SOL    HW114189   4.778   4.503   5.073
 4430SOL    HW214190   4.865   4.637   5.040
 4431SOL     OW14191   2.799   0.859   3.206
 4431SOL    HW114192   2.845   0.851   3.118
 4431SOL    HW214193   2.766   0.953   3.219
 4432SOL     OW14194   2.540   3.568   6.393
 4432SOL    HW114195   2.493   3.483   6.414
 4432SOL    HW214196   2.586   3.602   6.475
 4433SOL     OW14197   7.004   2.681   4.476
 4433SOL    HW114198   6.989   2.586   4.451
 4433SOL    HW214199   0.067   2.713   4.438
 4434SOL     OW14200   5.271   1.634   3.091
 4434SOL    HW114201   5.222   1.582   3.021
 4434SOL    HW214202   5.246   1.731   3.084
 4435SOL     OW14203   4.629   3.401   1.201
 4435SOL    HW114204   4.612   3.376   1.296
 4435SOL    HW214205   4.589   3.332   1.140
 4436SOL     OW14206   4.191   1.244   1.180
 4436SOL    HW114207   4.241   1.327   1.204
 4436SOL    HW214208   4.117   1.229   1.246
 4437SOL     OW14209   0.940   2.905   2.917
 4437SOL    HW114210   0.922   2.994   2.959
 4437SOL    HW214211   0.916   2.832   2.980
 4438SOL     OW14212   4.776   6.817   6.072
 4438SOL    HW114213   4.751   6.857   5.984
 4438SOL    HW214214   4.866   6.851   6.100
 4439SOL     OW14215   0.442   5.071   2.365
 4439SOL    HW114216   0.392   5.060   2.279
 4439SOL    HW214217   0.450   4.982   2.411
 4440SOL     OW14218   2.558   5.275   0.659
 4440SOL    HW114219   2.655   5.276   0.634
 4440SOL    HW214220   2.528   5.367   0.683
 4441SOL     OW14221   0.158   1.161   0.880
 4441SOL    HW114222   0.118   1.071   0.860
 4441SOL    HW214223   0.254   1.149   0.905
 4442SOL     OW14224   1.557   5.697   4.708
 4442SOL    HW114225   1.604   5.610   4.694
 4442SOL    HW214226   1.489   5.686   4.780
 4443SOL     OW14227   1.067   3.656   5.958
 4443SOL    HW114228   1.081   3.603   6.041
 4443SOL    HW214229   1.015   3.739   5.980
 4444SOL     OW14230   4.417   3.465   0.112
 4444SOL    HW114231   4.457   3.533   0.050
 4444SOL    HW214232   4.338   3.505   0.158
 4445SOL     OW14233   1.594   6.189   7.020
 4445SOL    HW114234   1.550   6.262   0.048
 4445SOL    HW214235   1.533   6.110   7.016
 4446SOL     OW14236   5.755   2.053   0.155
 4446SOL    HW114237   5.816   1.975   0.169
 4446SOL    HW214238   5.677   2.024   0.100
 4447SOL     OW14239   5.934   4.081   4.843
 4447SOL    HW114240   5.972   3.995   4.810
 4447SOL    HW214241   5.991   4.117   4.917
 4448SOL     OW14242   2.952   6.028   0.757
 4448SOL    HW114243   2.872   6.088   0.760
 4448SOL    HW214244   3.018   6.063   0.690
 4449SOL     OW14245   5.094   0.684   5.797
 4449SOL    HW114246   5.172   0.669   5.737
 4449SOL    HW214247   5.027   0.610   5.784
 4450SOL     OW14248   2.992   1.909   0.039
 4450SOL    HW114249   2.988   1.943   6.969
 4450SOL    HW214250   3.056   1.966   0.092
 4451SOL     OW14251   4.598   4.945   4.943
 4451SOL    HW114252   4.652   4.903   4.869
 4451SOL    HW214253   4.652   5.018   4.985
 4452SOL     OW14254   6.148   5.332   4.433
 4452SOL    HW114255   6.241   5.348   4.399
 4452SOL    HW214256   6.139   5.373   4.524
 4453SOL     OW14257   1.051   2.779   2.083
 4453SOL    HW114258   1.042   2.862   2.138
 4453SOL    HW214259   1.102   2.799   2.000
 4454SOL     OW14260   1.362   1.612   0.160
 4454SOL    HW114261   1.432   1.568   0.104
 4454SOL    HW214262   1.319   1.543   0.219
 4455SOL     OW14263   5.339   6.073   5.545
 4455SOL    HW114264   5.257   6.026   5.514
 4455SOL    HW214265   5.411   6.006   5.566
 4456SOL     OW14266   2.485   5.764   2.856
 4456SOL    HW114267   2.560   5.744   2.920
 4456SOL    HW214268   2.482   5.862   2.838
 4457SOL     OW14269   2.737   1.638   3.897
 4457SOL    HW114270   2.777   1.636   3.989
 4457SOL    HW214271   2.746   1.729   3.858
 4458SOL     OW14272   2.518   3.814   1.514
 4458SOL    HW114273   2.487   3.752   1.586
 4458SOL    HW214274   2.616   3.831   1.525
 4459SOL     OW14275   3.708   1.843   4.336
 4459SOL    HW114276   3.745   1.935   4.351
 4459SOL    HW214277   3.638   1.824   4.404
 4460SOL     OW14278   1.012   2.896   6.527
 4460SOL    HW114279   1.052   2.870   6.439
 4460SOL    HW214280   1.039   2.990   6.548
 4461SOL     OW14281   2.044   0.789   0.817
 4461SOL    HW114282   2.048   0.855   0.891
 4461SOL    HW214283   2.132   0.740   0.811
 4462SOL     OW14284   5.725   4.389   1.728
 4462SOL    HW114285   5.689   4.316   1.787
 4462SOL    HW214286   5.758   4.350   1.642
 4463SOL     OW14287   4.947   1.274   1.290
 4463SOL    HW114288   4.908   1.195   1.337
 4463SOL    HW214289   5.047   1.268   1.291
 4464SOL     OW14290   0.151   6.475   0.482
 4464SOL    HW114291   0.122   6.539   0.411
 4464SOL    HW214292   0.233   6.427   0.452
 4465SOL     OW14293   2.379   5.213   0.339
 4465SOL    HW114294   2.334   5.256   0.417
 4465SOL    HW214295   2.478   5.221   0.349
 4466SOL     OW14296   1.037   1.616   2.670
 4466SOL    HW114297   1.089   1.635   2.587
 4466SOL    HW214298   1.100   1.594   2.744
 4467SOL     OW14299   2.450   5.104   3.556
 4467SOL    HW114300   2.481   5.068   3.644
 4467SOL    HW214301   2.414   5.029   3.500
 4468SOL     OW14302   1.522   4.370   1.100
 4468SOL    HW114303   1.458   4.361   1.177
 4468SOL    HW214304   1.470   4.384   1.016
 4469SOL     OW14305   3.313   0.914   0.800
 4469SOL    HW114306   3.216   0.919   0.779
 4469SOL    HW214307   3.326   0.902   0.899
 4470SOL     OW14308   0.953   1.697   2.250
 4470SOL    HW114309   0.974   1.680   2.154
 4470SOL    HW214310   0.862   1.662   2.272
 4471SOL     OW14311   1.696   2.863   6.757
 4471SOL    HW114312   1.606   2.876   6.797
 4471SOL    HW214313   1.728   2.770   6.777
 4472SOL     OW14314   0.777   1.929   0.750
 4472SOL    HW114315   0.750   1.966   0.661
 4472SOL    HW214316   0.713   1.857   0.777
 4473SOL     OW14317   5.457   2.662   4.074
 4473SOL    HW114318   5.369   2.699   4.102
 4473SOL    HW214319   5.528   2.732   4.085
 4474SOL     OW14320   3.242   6.560   1.624
 4474SOL    HW114321   3.263   6.652   1.593
 4474SOL    HW214322   3.143   6.545   1.620
 4475SOL     OW14323   1.307   3.671   1.815
 4475SOL    HW114324   1.256   3.652   1.899
 4475SOL    HW214325   1.244   3.671   1.737
 4476SOL     OW14326   6.530   0.580   4.123
 4476SOL    HW114327   6.564   0.659   4.071
 4476SOL    HW214328   6.443   0.550   4.083
 4477SOL     OW14329   1.652   0.631   5.422
 4477SOL    HW114330   1.669   0.533   5.435
 4477SOL    HW214331   1.658   0.677   5.511
 4478SOL     OW14332   2.315   0.086   2.115
 4478SOL    HW114333   2.337   7.023   2.072
 4478SOL    HW214334   2.216   0.096   2.121
 4479SOL     OW14335   1.133   1.991   1.519
 4479SOL    HW114336   1.189   2.071   1.542
 4479SOL    HW214337   1.185   1.929   1.460
 4480SOL     OW14338   0.563   4.552   4.936
 4480SOL    HW114339   0.614   4.526   4.854
 4480SOL    HW214340   0.475   4.591   4.910
 4481SOL     OW14341   2.417   5.156   5.043
 4481SOL    HW114342   2.460   5.184   5.129
 4481SOL    HW214343   2.429   5.228   4.975
 4482SOL     OW14344   2.121   2.744   5.536
 4482SOL    HW114345   2.175   2.797   5.472
 4482SOL    HW214346   2.050   2.802   5.577
 4483SOL     OW14347   0.058   2.590   2.014
 4483SOL    HW114348   0.056   2.537   1.929
 4483SOL    HW214349   0.129   2.660   2.008
 4484SOL     OW14350   2.555   2.409   6.966
 4484SOL    HW114351   2.518   2.477   0.005
 4484SOL    HW214352   2.618   2.453   6.902
 4485SOL     OW14353   5.184   2.782   5.222
 4485SOL    HW114354   5.182   2.878   5.192
 4485SOL    HW214355   5.126   2.728   5.162
 4486SOL     OW14356   6.298   5.300   4.937
 4486SOL    HW114357   6.227   5.351   4.985
 4486SOL    HW214358   6.316   5.214   4.985
 4487SOL     OW14359   3.050   3.302   0.424
 4487SOL    HW114360   3.016   3.394   0.443
 4487SOL    HW214361   2.977   3.247   0.383
 4488SOL     OW14362   0.986   3.517   4.655
 4488SOL    HW114363   0.949   3.508   4.562
 4488SOL    HW214364   1.029   3.432   4.682
 4489SOL     OW14365   4.873   5.578   4.960
 4489SOL    HW114366   4.874   5.662   4.905
 4489SOL    HW214367   4.832   5.598   5.049
 4490SOL     OW14368   5.341   1.532   1.796
 4490SOL    HW114369   5.293   1.616   1.823
 4490SOL    HW214370   5.435   1.536   1.828
 4491SOL     OW14371   0.545   3.514   3.407
 4491SOL    HW114372   0.525   3.432   3.354
 4491SOL    HW214373   0.607   3.490   3.482
 4492SOL     OW14374   6.120   3.284   1.600
 4492SOL    HW114375   6.160   3.245   1.516
 4492SOL    HW214376   6.194   3.319   1.658
 4493SOL     OW14377   4.852   6.355   4.990
 4493SOL    HW114378   4.891   6.388   5.075
 4493SOL    HW214379   4.767   6.405   4.970
 4494SOL     OW14380   1.050   0.843   6.089
 4494SOL    HW114381   1.110   0.877   6.162
 4494SOL    HW214382   1.103   0.835   6.005
 4495SOL     OW14383   4.570   6.837   3.093
 4495SOL    HW114384   4.640   6.810   3.160
 4495SOL    HW214385   4.534   6.756   3.047
 4496SOL     OW14386   5.289   6.298   0.651
 4496SOL    HW114387   5.191   6.286   0.636
 4496SOL    HW214388   5.318   6.243   0.730
 4497SOL     OW14389   4.188   2.315   6.537
 4497SOL    HW114390   4.208   2.413   6.546
 4497SOL    HW214391   4.242   2.277   6.462
 4498SOL     OW14392   6.707   4.630   6.438
 4498SOL    HW114393   6.665   4.539   6.447
 4498SOL    HW214394   6.636   4.699   6.427
 4499SOL     OW14395   6.389   2.679   3.618
 4499SOL    HW114396   6.368   2.749   3.687
 4499SOL    HW214397   6.486   2.655   3.623
 4500SOL     OW14398   3.984   4.036   6.698
 4500SOL    HW114399   4.027   4.124   6.715
 4500SOL    HW214400   3.898   4.050   6.649
 4501SOL     OW14401   6.550   3.240   2.900
 4501SOL    HW114402   6.560   3.332   2.862
 4501SOL    HW214403   6.641   3.202   2.918
 4502SOL     OW14404   1.422   3.768   0.203
 4502SOL    HW114405   1.463   3.734   0.118
 4502SOL    HW214406   1.489   3.823   0.252
 4503SOL     OW14407   3.337   6.904   1.881
 4503SOL    HW114408   3.406   6.977   1.879
 4503SOL    HW214409   3.368   6.831   1.942
 4504SOL     OW14410   6.301   2.063   4.531
 4504SOL    HW114411   6.242   2.018   4.598
 4504SOL    HW214412   6.393   2.024   4.536
 4505SOL     OW14413   6.736   4.769   1.622
 4505SOL    HW114414   6.792   4.696   1.662
 4505SOL    HW214415   6.793   4.825   1.562
 4506SOL     OW14416   5.078   2.594   3.582
 4506SOL    HW114417   4.996   2.647   3.599
 4506SOL    HW214418   5.061   2.497   3.602
 4507SOL     OW14419   0.301   3.352   3.667
 4507SOL    HW114420   0.385   3.388   3.707
 4507SOL    HW214421   0.261   3.284   3.729
 4508SOL     OW14422   1.209   4.566   0.320
 4508SOL    HW114423   1.132   4.601   0.372
 4508SOL    HW214424   1.290   4.622   0.338
 4509SOL     OW14425   4.911   1.834   3.171
 4509SOL    HW114426   4.812   1.829   3.183
 4509SOL    HW214427   4.952   1.744   3.188
 4510SOL     OW14428   4.644   0.994   4.793
 4510SOL    HW114429   4.734   0.993   4.838
 4510SOL    HW214430   4.574   0.963   4.858
 4511SOL     OW14431   6.268   3.719   0.218
 4511SOL    HW114432   6.289   3.624   0.243
 4511SOL    HW214433   6.259   3.773   0.301
 4512SOL     OW14434   3.479   1.523   6.122
 4512SOL    HW114435   3.426   1.452   6.167
 4512SOL    HW214436   3.576   1.499   6.123
 4513SOL     OW14437   1.005   6.001   6.281
 4513SOL    HW114438   0.930   5.937   6.263
 4513SOL    HW214439   0.981   6.061   6.357
 4514SOL     OW14440   3.703   2.650   5.954
 4514SOL    HW114441   3.728   2.746   5.970
 4514SOL    HW214442   3.621   2.628   6.006
 4515SOL     OW14443   5.786   1.912   5.517
 4515SOL    HW114444   5.773   1.977   5.591
 4515SOL    HW214445   5.735   1.828   5.537
 4516SOL     OW14446   2.548   0.117   5.964
 4516SOL    HW114447   2.542   0.020   5.985
 4516SOL    HW214448   2.601   0.130   5.880
 4517SOL     OW14449   4.723   0.016   6.533
 4517SOL    HW114450   4.633   7.001   6.551
 4517SOL    HW214451   4.717   0.078   6.455
 4518SOL     OW14452   0.805   6.774   1.648
 4518SOL    HW114453   0.843   6.735   1.732
 4518SOL    HW214454   0.740   6.846   1.671
 4519SOL     OW14455   4.779   6.630   0.067
 4519SOL    HW114456   4.855   6.567   0.083
 4519SOL    HW214457   4.728   6.600   7.011
 4520SOL     OW14458   3.898   5.631   6.081
 4520SOL    HW114459   3.848   5.612   6.165
 4520SOL    HW214460   3.939   5.722   6.086
 4521SOL     OW14461   4.844   2.080   4.662
 4521SOL    HW114462   4.871   2.044   4.572
 4521SOL    HW214463   4.798   2.168   4.650
 4522SOL     OW14464   5.478   4.072   2.411
 4522SOL    HW114465   5.491   4.127   2.493
 4522SOL    HW214466   5.544   3.997   2.411
 4523SOL     OW14467   1.698   3.931   6.934
 4523SOL    HW114468   1.634   3.857   6.955
 4523SOL    HW214469   1.647   4.013   6.908
 4524SOL     OW14470   5.964   3.209   2.727
 4524SOL    HW114471   5.999   3.295   2.690
 4524SOL    HW214472   5.899   3.169   2.661
 4525SOL     OW14473   3.145   1.992   6.012
 4525SOL    HW114474   3.190   2.066   6.062
 4525SOL    HW214475   3.206   1.958   5.941
 4526SOL     OW14476   6.810   0.479   6.818
 4526SOL    HW114477   6.796   0.408   6.748
 4526SOL    HW214478   6.783   0.444   6.907
 4527SOL     OW14479   6.621   6.623   2.932
 4527SOL    HW114480   6.537   6.660   2.892
 4527SOL    HW214481   6.648   6.679   3.010
 4528SOL     OW14482   4.361   0.751   6.635
 4528SOL    HW114483   4.329   0.659   6.613
 4528SOL    HW214484   4.282   0.812   6.644
 4529SOL     OW14485   2.947   1.321   5.994
 4529SOL    HW114486   3.012   1.272   5.937
 4529SOL    HW214487   2.893   1.256   6.047
 4530SOL     OW14488   2.154   5.988   3.379
 4530SOL    HW114489   2.180   5.906   3.327
 4530SOL    HW214490   2.088   5.963   3.450
 4531SOL     OW14491   1.300   3.593   6.246
 4531SOL    HW114492   1.234   3.521   6.264
 4531SOL    HW214493   1.286   3.630   6.154
 4532SOL     OW14494   5.782   0.198   2.753
 4532SOL    HW114495   5.736   0.227   2.837
 4532SOL    HW214496   5.870   0.245   2.746
 4533SOL     OW14497   1.779   1.306   2.986
 4533SOL    HW114498   1.704   1.340   3.042
 4533SOL    HW214499   1.752   1.222   2.940
 4534SOL     OW14500   4.661   2.304   5.340
 4534SOL    HW114501   4.739   2.274   5.284
 4534SOL    HW214502   4.588   2.335   5.280
 4535SOL     OW14503   3.990   1.241   1.367
 4535SOL    HW114504   3.976   1.284   1.456
 4535SOL    HW214505   3.916   1.267   1.305
 4536SOL     OW14506   3.158   1.778   4.830
 4536SOL    HW114507   3.158   1.679   4.842
 4536SOL    HW214508   3.086   1.818   4.886
 4537SOL     OW14509   4.099   3.597   2.198
 4537SOL    HW114510   4.094   3.695   2.180
 4537SOL    HW214511   4.157   3.553   2.129
 4538SOL     OW14512   2.644   0.884   2.629
 4538SOL    HW114513   2.661   0.806   2.569
 4538SOL    HW214514   2.666   0.859   2.724
 4539SOL     OW14515   2.223   6.080   4.600
 4539SOL    HW114516   2.200   6.178   4.603
 4539SOL    HW214517   2.297   6.065   4.534
 4540SOL     OW14518   2.426   1.326   0.655
 4540SOL    HW114519   2.423   1.227   0.671
 4540SOL    HW214520   2.517   1.360   0.675
 4541SOL     OW14521   5.336   1.199   6.832
 4541SOL    HW114522   5.275   1.169   6.759
 4541SOL    HW214523   5.366   1.120   6.884
 4542SOL     OW14524   6.776   1.726   1.503
 4542SOL    HW114525   6.829   1.767   1.429
 4542SOL    HW214526   6.753   1.632   1.479
 4543SOL     OW14527   5.049   2.022   0.877
 4543SOL    HW114528   5.122   1.986   0.819
 4543SOL    HW214529   4.994   2.087   0.824
 4544SOL     OW14530   3.972   5.178   0.356
 4544SOL    HW114531   3.909   5.100   0.346
 4544SOL    HW214532   3.919   5.263   0.356
 4545SOL     OW14533   0.409   3.670   5.275
 4545SOL    HW114534   0.367   3.610   5.207
 4545SOL    HW214535   0.497   3.631   5.304
 4546SOL     OW14536   2.680   0.299   5.075
 4546SOL    HW114537   2.767   0.342   5.099
 4546SOL    HW214538   2.697   0.225   5.010
 4547SOL     OW14539   6.357   1.213   0.279
 4547SOL    HW114540   6.291   1.139   0.263
 4547SOL    HW214541   6.367   1.267   0.196
 4548SOL     OW14542   2.614   2.275   3.227
 4548SOL    HW114543   2.551   2.199   3.211
 4548SOL    HW214544   2.573   2.340   3.291
 4549SOL     OW14545   5.005   3.984   2.256
 4549SOL    HW114546   4.950   3.924   2.313
 4549SOL    HW214547   5.055   3.930   2.188
 4550SOL     OW14548   1.305   4.317   3.454
 4550SOL    HW114549   1.244   4.291   3.380
 4550SOL    HW214550   1.400   4.313   3.422
 4551SOL     OW14551   1.032   4.172   5.078
 4551SOL    HW114552   1.005   4.255   5.029
 4551SOL    HW214553   0.988   4.093   5.036
 4552SOL     OW14554   5.700   2.358   0.824
 4552SOL    HW114555   5.632   2.299   0.867
 4552SOL    HW214556   5.764   2.390   0.894
 4553SOL     OW14557   5.439   4.706   6.554
 4553SOL    HW114558   5.448   4.723   6.456
 4553SOL    HW214559   5.405   4.613   6.568
 4554SOL     OW14560   0.395   0.023   2.020
 4554SOL    HW114561   0.315   0.080   2.000
 4554SOL    HW214562   0.370   6.979   2.088
 4555SOL     OW14563   1.716   1.192   6.395
 4555SOL    HW114564   1.691   1.164   6.488
 4555SOL    HW214565   1.731   1.291   6.394
 4556SOL     OW14566   5.986   3.017   5.136
 4556SOL    HW114567   5.901   3.022   5.083
 4556SOL    HW214568   5.982   3.083   5.211
 4557SOL     OW14569   6.004   4.825   4.327
 4557SOL    HW114570   5.998   4.916   4.369
 4557SOL    HW214571   5.995   4.834   4.228
 4558SOL     OW14572   6.641   3.437   4.818
 4558SOL    HW114573   6.662   3.339   4.819
 4558SOL    HW214574   6.697   3.483   4.749
 4559SOL     OW14575   6.829   3.430   2.870
 4559SOL    HW114576   6.787   3.509   2.826
 4559SOL    HW214577   6.929   3.438   2.866
 4560SOL     OW14578   6.049   4.409   2.402
 4560SOL    HW114579   6.053   4.324   2.455
 4560SOL    HW214580   6.007   4.481   2.457
 4561SOL     OW14581   3.633   1.532   3.722
 4561SOL    HW114582   3.673   1.585   3.797
 4561SOL    HW214583   3.682   1.554   3.637
 4562SOL     OW14584   1.362   0.403   0.168
 4562SOL    HW114585   1.451   0.421   0.208
 4562SOL    HW214586   1.312   0.339   0.226
 4563SOL     OW14587   6.495   3.941   0.667
 4563SOL    HW114588   6.561   3.878   0.708
 4563SOL    HW214589   6.539   3.992   0.594
 4564SOL     OW14590   6.920   5.400   2.279
 4564SOL    HW114591   6.991   5.407   2.209
 4564SOL    HW214592   6.902   5.491   2.318
 4565SOL     OW14593   1.318   1.185   4.647
 4565SOL    HW114594   1.346   1.172   4.552
 4565SOL    HW214595   1.245   1.253   4.652
 4566SOL     OW14596   0.420   3.581   1.240
 4566SOL    HW114597   0.343   3.520   1.256
 4566SOL    HW214598   0.425   3.649   1.313
 4567SOL     OW14599   6.820   1.052   6.591
 4567SOL    HW114600   6.853   1.038   6.684
 4567SOL    HW214601   6.785   0.965   6.555
 4568SOL     OW14602   1.131   3.833   5.194
 4568SOL    HW114603   1.084   3.747   5.215
 4568SOL    HW214604   1.075   3.887   5.132
 4569SOL     OW14605   3.147   0.553   2.906
 4569SOL    HW114606   3.097   0.563   2.992
 4569SOL    HW214607   3.098   0.491   2.846
 4570SOL     OW14608   6.134   6.382   2.005
 4570SOL    HW114609   6.207   6.314   1.997
 4570SOL    HW214610   6.173   6.474   1.999
 4571SOL     OW14611   4.342   2.874   6.622
 4571SOL    HW114612   4.438   2.875   6.595
 4571SOL    HW214613   4.335   2.880   6.722
 4572SOL     OW14614   2.079   1.251   6.762
 4572SOL    HW114615   1.998   1.305   6.740
 4572SOL    HW214616   2.051   1.158   6.786
 4573SOL     OW14617   0.284   0.058   0.239
 4573SOL    HW114618   0.270   0.050   0.140
 4573SOL    HW214619   0.365   0.005   0.265
 4574SOL     OW14620   5.555   4.270   7.020
 4574SOL    HW114621   5.519   4.343   0.054
 4574SOL    HW214622   5.649   4.291   6.995
 4575SOL     OW14623   5.826   0.437   4.757
 4575SOL    HW114624   5.828   0.475   4.665
 4575SOL    HW214625   5.760   0.361   4.759
 4576SOL     OW14626   2.470   4.624   5.466
 4576SOL    HW114627   2.524   4.628   5.382
 4576SOL    HW214628   2.485   4.536   5.511
 4577SOL     OW14629   1.984   2.723   3.186
 4577SOL    HW114630   2.065   2.717   3.245
 4577SOL    HW214631   1.917   2.656   3.216
 4578SOL     OW14632   1.026   1.440   4.170
 4578SOL    HW114633   1.051   1.388   4.088
 4578SOL    HW214634   0.995   1.531   4.144
 4579SOL     OW14635   4.375   1.245   2.054
 4579SOL    HW114636   4.276   1.260   2.054
 4579SOL    HW214637   4.394   1.149   2.072
 4580SOL     OW14638   5.593   3.959   1.164
 4580SOL    HW114639   5.578   3.920   1.255
 4580SOL    HW214640   5.513   4.013   1.137
 4581SOL     OW14641   2.552   6.199   2.614
 4581SOL    HW114642   2.627   6.262   2.635
 4581SOL    HW214643   2.495   6.238   2.542
 4582SOL     OW14644   4.885   1.203   3.494
 4582SOL    HW114645   4.805   1.263   3.486
 4582SOL    HW214646   4.855   1.107   3.489
 4583SOL     OW14647   2.756   1.251   6.765
 4583SOL    HW114648   2.810   1.196   6.827
 4583SOL    HW214649   2.815   1.321   6.723
 4584SOL     OW14650   1.828   6.118   5.412
 4584SOL    HW114651   1.804   6.166   5.496
 4584SOL    HW214652   1.905   6.165   5.368
 4585SOL     OW14653   2.019   4.230   3.287
 4585SOL    HW114654   1.940   4.179   3.320
 4585SOL    HW214655   2.002   4.261   3.193
 4586SOL     OW14656   4.780   4.027   0.102
 4586SOL    HW114657   4.863   3.989   0.143
 4586SOL    HW214658   4.702   3.967   0.124
 4587SOL     OW14659   3.692   3.410   4.213
 4587SOL    HW114660   3.745   3.485   4.173
 4587SOL    HW214661   3.604   3.403   4.167
 4588SOL     OW14662   3.343   3.218   5.797
 4588SOL    HW114663   3.265   3.155   5.796
 4588SOL    HW214664   3.370   3.239   5.703
 4589SOL     OW14665   5.347   7.001   2.031
 4589SOL    HW114666   5.288   6.922   2.047
 4589SOL    HW214667   5.423   6.999   2.096
 4590SOL     OW14668   3.939   5.552   1.723
 4590SOL    HW114669   3.877   5.498   1.780
 4590SOL    HW214670   3.916   5.537   1.626
 4591SOL     OW14671   1.533   0.606   5.167
 4591SOL    HW114672   1.569   0.643   5.253
 4591SOL    HW214673   1.532   0.506   5.172
 4592SOL     OW14674   3.463   1.315   3.368
 4592SOL    HW114675   3.382   1.343   3.318
 4592SOL    HW214676   3.447   1.325   3.466
 4593SOL     OW14677   5.891   6.078   1.815
 4593SOL    HW114678   5.851   6.081   1.723
 4593SOL    HW214679   5.977   6.027   1.812
 4594SOL     OW14680   3.889   0.716   3.104
 4594SOL    HW114681   3.893   0.771   3.020
 4594SOL    HW214682   3.840   0.631   3.086
 4595SOL     OW14683   4.877   2.983   5.640
 4595SOL    HW114684   4.803   2.917   5.653
 4595SOL    HW214685   4.840   3.076   5.642
 4596SOL     OW14686   6.414   0.438   2.794
 4596SOL    HW114687   6.344   0.493   2.747
 4596SOL    HW214688   6.503   0.483   2.786
 4597SOL     OW14689   2.639   5.953   6.560
 4597SOL    HW114690   2.575   5.884   6.526
 4597SOL    HW214691   2.611   6.043   6.528
 4598SOL     OW14692   1.773   5.641   1.551
 4598SOL    HW114693   1.756   5.641   1.452
 4598SOL    HW214694   1.759   5.733   1.587
 4599SOL     OW14695   1.506   4.494   1.475
 4599SOL    HW114696   1.562   4.414   1.496
 4599SOL    HW214697   1.558   4.577   1.496
 4600SOL     OW14698   0.421   6.925   5.331
 4600SOL    HW114699   0.329   6.886   5.343
 4600SOL    HW214700   0.454   6.905   5.239
 4601SOL     OW14701   0.750   1.647   5.266
 4601SOL    HW114702   0.747   1.700   5.350
 4601SOL    HW214703   0.826   1.582   5.272
 4602SOL     OW14704   3.183   6.866   6.688
 4602SOL    HW114705   3.118   6.942   6.696
 4602SOL    HW214706   3.136   6.786   6.653
 4603SOL     OW14707   3.378   5.734   0.697
 4603SOL    HW114708   3.347   5.719   0.791
 4603SOL    HW214709   3.327   5.675   0.635
 4604SOL     OW14710   5.009   6.951   6.134
 4604SOL    HW114711   5.060   6.887   6.191
 4604SOL    HW214712   4.958   7.014   6.192
 4605SOL     OW14713   2.652   0.115   1.843
 4605SOL    HW114714   2.686   0.030   1.802
 4605SOL    HW214715   2.646   0.186   1.773
 4606SOL     OW14716   6.630   0.264   2.592
 4606SOL    HW114717   6.559   0.211   2.638
 4606SOL    HW214718   6.714   0.261   2.647
 4607SOL     OW14719   2.051   3.571   2.909
 4607SOL    HW114720   2.001   3.649   2.947
 4607SOL    HW214721   1.993   3.489   2.913
 4608SOL     OW14722   6.993   3.899   3.257
 4608SOL    HW114723   0.016   3.812   3.239
 4608SOL    HW214724   6.932   3.920   3.181
 4609SOL     OW14725   4.964   4.918   0.349
 4609SOL    HW114726   4.878   4.962   0.371
 4609SOL    HW214727   5.040   4.976   0.379
 4610SOL     OW14728   4.632   2.017   6.889
 4610SOL    HW114729   4.544   1.972   6.881
 4610SOL    HW214730   4.699   1.972   6.830
 4611SOL     OW14731   0.613   0.643   5.932
 4611SOL    HW114732   0.537   0.614   5.990
 4611SOL    HW214733   0.578   0.695   5.854
 4612SOL     OW14734   2.968   6.841   1.754
 4612SOL    HW114735   2.979   6.923   1.697
 4612SOL    HW214736   3.018   6.854   1.840
 4613SOL     OW14737   1.329   5.754   2.704
 4613SOL    HW114738   1.419   5.733   2.742
 4613SOL    HW214739   1.327   5.727   2.608
 4614SOL     OW14740   6.213   3.202   3.535
 4614SOL    HW114741   6.236   3.261   3.613
 4614SOL    HW214742   6.288   3.204   3.468
 4615SOL     OW14743   1.637   0.728   1.027
 4615SOL    HW114744   1.579   0.662   1.075
 4615SOL    HW214745   1.691   0.680   0.958
 4616SOL     OW14746   5.688   2.089   4.261
 4616SOL    HW114747   5.699   2.167   4.198
 4616SOL    HW214748   5.727   2.007   4.219
 4617SOL     OW14749   1.689   2.229   1.972
 4617SOL    HW114750   1.610   2.193   1.922
 4617SOL    HW214751   1.679   2.209   2.069
 4618SOL     OW14752   2.202   2.877   5.844
 4618SOL    HW114753   2.236   2.946   5.908
 4618SOL    HW214754   2.177   2.920   5.758
 4619SOL     OW14755   3.422   6.552   3.993
 4619SOL    HW114756   3.406   6.578   4.089
 4619SOL    HW214757   3.347   6.587   3.936
 4620SOL     OW14758   0.611   4.200   1.183
 4620SOL    HW114759   0.540   4.204   1.253
 4620SOL    HW214760   0.628   4.291   1.146
 4621SOL     OW14761   5.122   0.939   2.914
 4621SOL    HW114762   5.154   0.977   2.828
 4621SOL    HW214763   5.052   0.870   2.897
 4622SOL     OW14764   3.613   4.909   1.202
 4622SOL    HW114765   3.542   4.880   1.138
 4622SOL    HW214766   3.636   5.005   1.185
 4623SOL     OW14767   3.876   5.157   0.892
 4623SOL    HW114768   3.783   5.125   0.879
 4623SOL    HW214769   3.888   5.191   0.985
 4624SOL     OW14770   3.383   1.039   3.269
 4624SOL    HW114771   3.288   1.051   3.298
 4624SOL    HW214772   3.437   1.118   3.299
 4625SOL     OW14773   2.209   5.426   2.092
 4625SOL    HW114774   2.217   5.337   2.137
 4625SOL    HW214775   2.273   5.490   2.135
 4626SOL     OW14776   3.921   4.608   1.579
 4626SOL    HW114777   4.018   4.620   1.601
 4626SOL    HW214778   3.901   4.654   1.492
 4627SOL     OW14779   1.052   6.032   5.060
 4627SOL    HW114780   1.057   6.011   5.157
 4627SOL    HW214781   1.089   6.123   5.043
 4628SOL     OW14782   4.457   4.589   4.692
 4628SOL    HW114783   4.382   4.613   4.630
 4628SOL    HW214784   4.422   4.585   4.785
 4629SOL     OW14785   2.415   4.968   6.221
 4629SOL    HW114786   2.358   4.971   6.303
 4629SOL    HW214787   2.501   4.921   6.242
 4630SOL     OW14788   2.129   4.884   2.606
 4630SOL    HW114789   2.074   4.835   2.673
 4630SOL    HW214790   2.074   4.954   2.561
 4631SOL     OW14791   0.897   6.544   3.618
 4631SOL    HW114792   0.923   6.450   3.594
 4631SOL    HW214793   0.969   6.585   3.674
 4632SOL     OW14794   2.257   4.893   3.505
 4632SOL    HW114795   2.250   4.911   3.407
 4632SOL    HW214796   2.212   4.967   3.555
 4633SOL     OW14797   5.682   1.109   4.556
 4633SOL    HW114798   5.598   1.160   4.574
 4633SOL    HW214799   5.690   1.034   4.622
 4634SOL     OW14800   2.350   3.856   5.383
 4634SOL    HW114801   2.394   3.766   5.378
 4634SOL    HW214802   2.376   3.910   5.303
 4635SOL     OW14803   4.370   4.433   1.697
 4635SOL    HW114804   4.396   4.349   1.743
 4635SOL    HW214805   4.380   4.510   1.760
 4636SOL     OW14806   2.013   4.961   0.309
 4636SOL    HW114807   2.032   5.008   0.396
 4636SOL    HW214808   2.094   4.907   0.283
 4637SOL     OW14809   0.960   6.678   0.590
 4637SOL    HW114810   1.052   6.648   0.618
 4637SOL    HW214811   0.893   6.649   0.658
 4638SOL     OW14812   3.635   6.097   6.883
 4638SOL    HW114813   3.585   6.174   6.842
 4638SOL    HW214814   3.717   6.131   6.929
 4639SOL     OW14815   2.823   2.542   6.451
 4639SOL    HW114816   2.862   2.533   6.359
 4639SOL    HW214817   2.786   2.634   6.464
 4640SOL     OW14818   6.153   3.064   4.479
 4640SOL    HW114819   6.168   2.972   4.515
 4640SOL    HW214820   6.109   3.121   4.548
 4641SOL     OW14821   2.342   0.368   3.980
 4641SOL    HW114822   2.425   0.338   3.934
 4641SOL    HW214823   2.324   0.464   3.957
 4642SOL     OW14824   1.476   0.027   2.809
 4642SOL    HW114825   1.380   0.052   2.813
 4642SOL    HW214826   1.488   6.972   2.750
 4643SOL     OW14827   6.641   2.576   0.735
 4643SOL    HW114828   6.694   2.659   0.714
 4643SOL    HW214829   6.547   2.602   0.756
 4644SOL     OW14830   0.495   0.798   5.726
 4644SOL    HW114831   0.439   0.773   5.647
 4644SOL    HW214832   0.584   0.831   5.694
 4645SOL     OW14833   1.432   1.176   4.415
 4645SOL    HW114834   1.484   1.093   4.394
 4645SOL    HW214835   1.407   1.222   4.330
 4646SOL     OW14836   2.606   5.118   3.958
 4646SOL    HW114837   2.653   5.079   3.879
 4646SOL    HW214838   2.517   5.072   3.971
 4647SOL     OW14839   1.219   0.270   2.953
 4647SOL    HW114840   1.130   0.271   2.908
 4647SOL    HW214841   1.255   0.364   2.959
 4648SOL     OW14842   2.510   0.790   4.340
 4648SOL    HW114843   2.586   0.744   4.385
 4648SOL    HW214844   2.424   0.750   4.372
 4649SOL     OW14845   6.106   0.871   0.829
 4649SOL    HW114846   6.086   0.872   0.732
 4649SOL    HW214847   6.033   0.825   0.879
 4650SOL     OW14848   4.548   5.334   1.944
 4650SOL    HW114849   4.495   5.303   2.024
 4650SOL    HW214850   4.645   5.335   1.967
 4651SOL     OW14851   5.845   3.641   6.476
 4651SOL    HW114852   5.758   3.654   6.524
 4651SOL    HW214853   5.920   3.644   6.542
 4652SOL     OW14854   5.996   6.681   5.177
 4652SOL    HW114855   6.081   6.725   5.207
 4652SOL    HW214856   5.921   6.748   5.179
 4653SOL     OW14857   4.981   5.862   0.582
 4653SOL    HW114858   4.921   5.788   0.551
 4653SOL    HW214859   4.953   5.948   0.539
 4654SOL     OW14860   0.686   6.232   5.796
 4654SOL    HW114861   0.726   6.140   5.796
 4654SOL    HW214862   0.612   6.236   5.729
 4655SOL     OW14863   5.098   4.231   1.959
 4655SOL    HW114864   5.056   4.318   1.984
 4655SOL    HW214865   5.030   4.158   1.963
 4656SOL     OW14866   0.886   0.558   1.666
 4656SOL    HW114867   0.935   0.511   1.739
 4656SOL    HW214868   0.949   0.618   1.616
 4657SOL     OW14869   4.863   5.559   2.164
 4657SOL    HW114870   4.782   5.608   2.197
 4657SOL    HW214871   4.900   5.503   2.239
 4658SOL     OW14872   2.781   2.145   5.414
 4658SOL    HW114873   2.811   2.218   5.353
 4658SOL    HW214874   2.830   2.061   5.392
 4659SOL     OW14875   2.380   4.552   0.071
 4659SOL    HW114876   2.450   4.490   0.104
 4659SOL    HW214877   2.297   4.501   0.050
 4660SOL     OW14878   1.238   6.586   4.181
 4660SOL    HW114879   1.299   6.611   4.105
 4660SOL    HW214880   1.290   6.583   4.266
 4661SOL     OW14881   2.204   4.642   5.589
 4661SOL    HW114882   2.299   4.624   5.563
 4661SOL    HW214883   2.193   4.738   5.613
 4662SOL     OW14884   3.178   0.115   5.717
 4662SOL    HW114885   3.123   0.114   5.633
 4662SOL    HW214886   3.179   0.023   5.757
 4663SOL     OW14887   0.566   0.560   0.524
 4663SOL    HW114888   0.641   0.497   0.543
 4663SOL    HW214889   0.530   0.543   0.432
 4664SOL     OW14890   0.266   0.707   0.366
 4664SOL    HW114891   0.326   0.629   0.380
 4664SOL    HW214892   0.312   0.791   0.394
 4665SOL     OW14893   2.701   6.881   5.824
 4665SOL    HW114894   2.799   6.888   5.839
 4665SOL    HW214895   2.672   6.953   5.761
 4666SOL     OW14896   2.355   2.059   6.774
 4666SOL    HW114897   2.399   1.990   6.716
 4666SOL    HW214898   2.346   2.144   6.724
 4667SOL     OW14899   6.675   4.042   1.908
 4667SOL    HW114900   6.618   4.095   1.971
 4667SOL    HW214901   6.711   4.102   1.837
 4668SOL     OW14902   5.126   1.371   4.852
 4668SOL    HW114903   5.221   1.398   4.868
 4668SOL    HW214904   5.066   1.443   4.887
 4669SOL     OW14905   5.628   0.324   6.322
 4669SOL    HW114906   5.572   0.291   6.246
 4669SOL    HW214907   5.704   0.378   6.287
 4670SOL     OW14908   0.982   3.055   6.885
 4670SOL    HW114909   0.997   3.113   6.965
 4670SOL    HW214910   0.884   3.041   6.871
 4671SOL     OW14911   0.910   3.235   0.073
 4671SOL    HW114912   0.961   3.206   0.154
 4671SOL    HW214913   0.934   3.330   0.050
 4672SOL     OW14914   3.867   4.886   6.226
 4672SOL    HW114915   3.925   4.844   6.156
 4672SOL    HW214916   3.858   4.824   6.304
 4673SOL     OW14917   4.982   6.987   0.384
 4673SOL    HW114918   5.067   7.013   0.339
 4673SOL    HW214919   4.960   6.892   0.361
 4674SOL     OW14920   5.507   1.625   0.580
 4674SOL    HW114921   5.478   1.718   0.602
 4674SOL    HW214922   5.606   1.618   0.591
 4675SOL     OW14923   3.522   0.550   6.785
 4675SOL    HW114924   3.454   0.483   6.755
 4675SOL    HW214925   3.611   0.505   6.795
 4676SOL     OW14926   0.387   0.031   5.011
 4676SOL    HW114927   0.294   0.004   5.038
 4676SOL    HW214928   0.383   0.082   4.926
 4677SOL     OW14929   2.901   0.309   0.086
 4677SOL    HW114930   2.949   0.379   0.138
 4677SOL    HW214931   2.850   0.352   0.012
 4678SOL     OW14932   2.048   5.118   2.282
 4678SOL    HW114933   2.144   5.144   2.279
 4678SOL    HW214934   2.024   5.068   2.199
 4679SOL     OW14935   3.806   1.325   6.737
 4679SOL    HW114936   3.769   1.418   6.737
 4679SOL    HW214937   3.769   1.274   6.815
 4680SOL     OW14938   2.333   6.446   1.843
 4680SOL    HW114939   2.360   6.454   1.939
 4680SOL    HW214940   2.369   6.524   1.791
 4681SOL     OW14941   6.346   6.213   4.785
 4681SOL    HW114942   6.357   6.178   4.692
 4681SOL    HW214943   6.356   6.137   4.850
 4682SOL     OW14944   4.411   4.822   6.800
 4682SOL    HW114945   4.453   4.860   6.718
 4682SOL    HW214946   4.478   4.818   6.873
 4683SOL     OW14947   4.934   4.501   2.277
 4683SOL    HW114948   4.940   4.408   2.314
 4683SOL    HW214949   4.962   4.566   2.348
 4684SOL     OW14950   6.964   2.443   4.330
 4684SOL    HW114951   0.008   2.371   4.319
 4684SOL    HW214952   6.979   2.515   4.262
 4685SOL     OW14953   0.517   5.494   4.504
 4685SOL    HW114954   0.429   5.455   4.476
 4685SOL    HW214955   0.537   5.575   4.449
 4686SOL     OW14956   5.095   5.949   0.273
 4686SOL    HW114957   5.014   5.926   0.328
 4686SOL    HW214958   5.136   5.865   0.237
 4687SOL     OW14959   6.462   4.758   5.334
 4687SOL    HW114960   6.470   4.799   5.243
 4687SOL    HW214961   6.384   4.797   5.382
 4688SOL     OW14962   0.012   2.479   6.258
 4688SOL    HW114963   6.957   2.504   6.201
 4688SOL    HW214964   0.018   2.542   6.335
 4689SOL     OW14965   5.502   0.451   6.503
 4689SOL    HW114966   5.437   0.399   6.558
 4689SOL    HW214967   5.539   0.392   6.431
 4690SOL     OW14968   1.056   1.772   6.854
 4690SOL    HW114969   1.009   1.762   6.942
 4690SOL    HW214970   0.993   1.812   6.788
 4691SOL     OW14971   3.132   3.946   2.151
 4691SOL    HW114972   3.087   3.857   2.145
 4691SOL    HW214973   3.135   3.988   2.060
 4692SOL     OW14974   6.673   5.166   2.502
 4692SOL    HW114975   6.699   5.202   2.592
 4692SOL    HW214976   6.662   5.242   2.438
 4693SOL     OW14977   0.905   1.023   4.160
 4693SOL    HW114978   0.949   1.075   4.234
 4693SOL    HW214979   0.964   0.946   4.135
 4694SOL     OW14980   2.708   0.537   0.295
 4694SOL    HW114981   2.647   0.459   0.304
 4694SOL    HW214982   2.803   0.505   0.302
 4695SOL     OW14983   3.619   3.408   1.949
 4695SOL    HW114984   3.557   3.346   1.902
 4695SOL    HW214985   3.566   3.476   2.000
 4696SOL     OW14986   0.926   4.706   6.078
 4696SOL    HW114987   0.878   4.735   6.161
 4696SOL    HW214988   1.023   4.696   6.097
 4697SOL     OW14989   1.751   3.413   0.802
 4697SOL    HW114990   1.835   3.413   0.748
 4697SOL    HW214991   1.672   3.415   0.740
 4698SOL     OW14992   4.896   5.385   2.958
 4698SOL    HW114993   4.926   5.292   2.939
 4698SOL    HW214994   4.802   5.384   2.992
 4699SOL     OW14995   1.403   0.213   2.226
 4699SOL    HW114996   1.451   0.128   2.205
 4699SOL    HW214997   1.416   0.235   2.323
 4700SOL     OW14998   5.735   1.315   1.835
 4700SOL    HW114999   5.714   1.412   1.822
 4700SOL    HW215000   5.650   1.263   1.839
 4701SOL     OW15001   1.369   1.869   0.244
 4701SOL    HW115002   1.372   1.772   0.221
 4701SOL    HW215003   1.356   1.879   0.343
 4702SOL     OW15004   5.199   4.702   6.357
 4702SOL    HW115005   5.130   4.695   6.285
 4702SOL    HW215006   5.162   4.755   6.433
 4703SOL     OW15007   0.341   2.537   2.596
 4703SOL    HW115008   0.411   2.592   2.642
 4703SOL    HW215009   0.334   2.565   2.500
 4704SOL     OW15010   6.612   6.505   1.034
 4704SOL    HW115011   6.523   6.523   1.075
 4704SOL    HW215012   6.660   6.591   1.018
 4705SOL     OW15013   3.479   3.448   2.755
 4705SOL    HW115014   3.460   3.542   2.786
 4705SOL    HW215015   3.577   3.434   2.752
 4706SOL     OW15016   4.255   6.525   6.616
 4706SOL    HW115017   4.292   6.595   6.555
 4706SOL    HW215018   4.200   6.461   6.563
 4707SOL     OW15019   1.986   5.943   0.612
 4707SOL    HW115020   2.014   5.946   0.515
 4707SOL    HW215021   1.972   5.847   0.639
 4708SOL     OW15022   1.671   2.852   0.647
 4708SOL    HW115023   1.607   2.828   0.575
 4708SOL    HW215024   1.757   2.883   0.606
 4709SOL     OW15025   3.926   5.123   5.275
 4709SOL    HW115026   3.990   5.117   5.198
 4709SOL    HW215027   3.905   5.218   5.294
 4710SOL     OW15028   4.186   1.440   5.906
 4710SOL    HW115029   4.123   1.498   5.855
 4710SOL    HW215030   4.143   1.411   5.992
 4711SOL     OW15031   4.889   0.751   2.818
 4711SOL    HW115032   4.958   0.680   2.832
 4711SOL    HW215033   4.798   0.713   2.840
 4712SOL     OW15034   2.435   4.852   0.766
 4712SOL    HW115035   2.492   4.910   0.709
 4712SOL    HW215036   2.339   4.876   0.752
 4713SOL     OW15037   2.587   4.064   1.152
 4713SOL    HW115038   2.499   4.036   1.191
 4713SOL    HW215039   2.609   4.156   1.183
 4714SOL     OW15040   2.453   1.726   0.206
 4714SOL    HW115041   2.450   1.788   0.284
 4714SOL    HW215042   2.530   1.750   0.147
 4715SOL     OW15043   6.823   3.577   1.611
 4715SOL    HW115044   6.765   3.591   1.691
 4715SOL    HW215045   6.798   3.491   1.566
 4716SOL     OW15046   3.647   5.514   6.192
 4716SOL    HW115047   3.636   5.606   6.228
 4716SOL    HW215048   3.584   5.452   6.239
 4717SOL     OW15049   1.329   5.929   3.063
 4717SOL    HW115050   1.340   6.027   3.049
 4717SOL    HW215051   1.415   5.882   3.042
 4718SOL     OW15052   5.526   1.506   6.285
 4718SOL    HW115053   5.574   1.421   6.266
 4718SOL    HW215054   5.481   1.499   6.375
 4719SOL     OW15055   4.812   3.044   2.574
 4719SOL    HW115056   4.790   3.059   2.671
 4719SOL    HW215057   4.784   3.123   2.521
 4720SOL     OW15058   3.011   6.328   5.551
 4720SOL    HW115059   3.020   6.422   5.585
 4720SOL    HW215060   2.949   6.327   5.473
 4721SOL     OW15061   6.116   2.029   2.128
 4721SOL    HW115062   6.127   2.113   2.075
 4721SOL    HW215063   6.084   1.956   2.068
 4722SOL     OW15064   1.435   5.917   0.043
 4722SOL    HW115065   1.453   5.852   6.993
 4722SOL    HW215066   1.460   5.874   0.131
 4723SOL     OW15067   1.756   5.324   5.720
 4723SOL    HW115068   1.836   5.263   5.723
 4723SOL    HW215069   1.787   5.417   5.700
 4724SOL     OW15070   4.716   6.291   2.744
 4724SOL    HW115071   4.637   6.311   2.802
 4724SOL    HW215072   4.687   6.241   2.663
 4725SOL     OW15073   5.396   6.395   2.941
 4725SOL    HW115074   5.472   6.340   2.976
 4725SOL    HW215075   5.424   6.443   2.859
 4726SOL     OW15076   1.999   3.748   6.363
 4726SOL    HW115077   2.048   3.667   6.396
 4726SOL    HW215078   2.065   3.820   6.341
 4727SOL     OW15079   6.904   6.092   6.877
 4727SOL    HW115080   6.977   6.026   6.862
 4727SOL    HW215081   6.931   6.181   6.841
 4728SOL     OW15082   4.779   1.873   1.416
 4728SOL    HW115083   4.846   1.877   1.491
 4728SOL    HW215084   4.827   1.875   1.328
 4729SOL     OW15085   2.504   1.103   2.653
 4729SOL    HW115086   2.487   1.137   2.560
 4729SOL    HW215087   2.566   1.025   2.649
 4730SOL     OW15088   2.242   5.908   5.331
 4730SOL    HW115089   2.205   5.918   5.238
 4730SOL    HW215090   2.323   5.966   5.341
 4731SOL     OW15091   5.064   0.145   5.942
 4731SOL    HW115092   5.078   0.203   6.022
 4731SOL    HW215093   5.049   0.050   5.972
 4732SOL     OW15094   6.882   3.130   6.535
 4732SOL    HW115095   6.974   3.099   6.511
 4732SOL    HW215096   6.818   3.055   6.521
 4733SOL     OW15097   0.978   4.110   3.025
 4733SOL    HW115098   0.923   4.177   3.076
 4733SOL    HW215099   1.063   4.154   2.995
 4734SOL     OW15100   5.241   3.406   6.724
 4734SOL    HW115101   5.199   3.467   6.791
 4734SOL    HW215102   5.292   3.334   6.771
 4735SOL     OW15103   0.567   5.241   3.681
 4735SOL    HW115104   0.472   5.248   3.650
 4735SOL    HW215105   0.625   5.211   3.606
 4736SOL     OW15106   0.449   1.430   6.752
 4736SOL    HW115107   0.517   1.371   6.796
 4736SOL    HW215108   0.474   1.444   6.656
 4737SOL     OW15109   1.467   5.402   2.377
 4737SOL    HW115110   1.541   5.367   2.320
 4737SOL    HW215111   1.436   5.490   2.340
 4738SOL     OW15112   0.097   5.926   2.721
 4738SOL    HW115113   0.102   5.847   2.783
 4738SOL    HW215114   0.088   5.894   2.627
 4739SOL     OW15115   4.028   6.651   2.452
 4739SOL    HW115116   4.115   6.695   2.475
 4739SOL    HW215117   4.041   6.592   2.372
 4740SOL     OW15118   6.950   1.454   2.094
 4740SOL    HW115119   7.007   1.455   2.012
 4740SOL    HW215120   6.995   1.402   2.166
 4741SOL     OW15121   3.313   2.467   1.565
 4741SOL    HW115122   3.325   2.480   1.467
 4741SOL    HW215123   3.384   2.405   1.599
 4742SOL     OW15124   1.871   6.736   6.443
 4742SOL    HW115125   1.867   6.832   6.470
 4742SOL    HW215126   1.781   6.708   6.408
 4743SOL     OW15127   2.069   3.516   2.644
 4743SOL    HW115128   2.095   3.603   2.603
 4743SOL    HW215129   2.097   3.514   2.740
 4744SOL     OW15130   2.150   5.014   0.959
 4744SOL    HW115131   2.071   4.994   1.017
 4744SOL    HW215132   2.233   5.009   1.014
 4745SOL     OW15133   3.267   4.115   0.167
 4745SOL    HW115134   3.306   4.203   0.194
 4745SOL    HW215135   3.241   4.063   0.249
 4746SOL     OW15136   4.638   6.187   4.030
 4746SOL    HW115137   4.567   6.238   4.079
 4746SOL    HW215138   4.725   6.234   4.040
 4747SOL     OW15139   1.466   3.399   0.664
 4747SOL    HW115140   1.403   3.454   0.720
 4747SOL    HW215141   1.492   3.451   0.583
 4748SOL     OW15142   1.236   6.710   1.844
 4748SOL    HW115143   1.313   6.761   1.881
 4748SOL    HW215144   1.155   6.768   1.844
 4749SOL     OW15145   1.877   6.676   6.099
 4749SOL    HW115146   1.975   6.668   6.080
 4749SOL    HW215147   1.835   6.586   6.091
 4750SOL     OW15148   6.466   4.088   5.119
 4750SOL    HW115149   6.452   4.071   5.021
 4750SOL    HW215150   6.444   4.183   5.140
 4751SOL     OW15151   4.621   2.652   3.122
 4751SOL    HW115152   4.681   2.732   3.120
 4751SOL    HW215153   4.643   2.595   3.202
 4752SOL     OW15154   4.778   0.571   0.300
 4752SOL    HW115155   4.747   0.619   0.218
 4752SOL    HW215156   4.849   0.624   0.346
 4753SOL     OW15157   1.126   0.096   4.238
 4753SOL    HW115158   1.116   0.067   4.333
 4753SOL    HW215159   1.108   0.018   4.178
 4754SOL     OW15160   4.907   3.810   5.143
 4754SOL    HW115161   4.866   3.726   5.107
 4754SOL    HW215162   4.964   3.787   5.222
 4755SOL     OW15163   2.320   0.450   0.971
 4755SOL    HW115164   2.226   0.465   1.000
 4755SOL    HW215165   2.322   0.389   0.891
 4756SOL     OW15166   0.027   3.907   5.973
 4756SOL    HW115167   0.027   3.838   6.045
 4756SOL    HW215168   0.076   3.989   6.005
 4757SOL     OW15169   1.329   2.752   1.406
 4757SOL    HW115170   1.409   2.803   1.436
 4757SOL    HW215171   1.297   2.787   1.318
 4758SOL     OW15172   1.196   6.630   3.115
 4758SOL    HW115173   1.184   6.714   3.167
 4758SOL    HW215174   1.293   6.613   3.100
 4759SOL     OW15175   0.492   6.117   6.978
 4759SOL    HW115176   0.397   6.138   6.958
 4759SOL    HW215177   0.538   6.087   6.894
 4760SOL     OW15178   0.746   0.361   0.486
 4760SOL    HW115179   0.813   0.305   0.534
 4760SOL    HW215180   0.786   0.398   0.402
 4761SOL     OW15181   1.166   0.366   0.590
 4761SOL    HW115182   1.240   0.421   0.628
 4761SOL    HW215183   1.201   0.312   0.513
 4762SOL     OW15184   1.608   5.637   2.523
 4762SOL    HW115185   1.624   5.712   2.458
 4762SOL    HW215186   1.513   5.605   2.513
 4763SOL     OW15187   5.070   0.210   2.444
 4763SOL    HW115188   5.013   0.148   2.389
 4763SOL    HW215189   5.112   0.278   2.384
 4764SOL     OW15190   4.540   3.406   5.331
 4764SOL    HW115191   4.587   3.479   5.282
 4764SOL    HW215192   4.441   3.424   5.331
 4765SOL     OW15193   3.721   0.698   6.274
 4765SOL    HW115194   3.649   0.767   6.288
 4765SOL    HW215195   3.731   0.681   6.176
 4766SOL     OW15196   6.050   6.063   4.605
 4766SOL    HW115197   6.128   6.116   4.571
 4766SOL    HW215198   5.990   6.039   4.528
 4767SOL     OW15199   2.552   5.320   5.238
 4767SOL    HW115200   2.560   5.417   5.215
 4767SOL    HW215201   2.597   5.303   5.326
 4768SOL     OW15202   4.457   3.620   6.199
 4768SOL    HW115203   4.361   3.646   6.185
 4768SOL    HW215204   4.463   3.559   6.279
 4769SOL     OW15205   3.093   5.946   0.312
 4769SOL    HW115206   3.031   6.008   0.360
 4769SOL    HW215207   3.048   5.912   0.229
 4770SOL     OW15208   6.872   1.958   4.683
 4770SOL    HW115209   6.944   2.026   4.670
 4770SOL    HW215210   6.785   1.995   4.650
 4771SOL     OW15211   2.589   6.508   5.543
 4771SOL    HW115212   2.527   6.501   5.621
 4771SOL    HW215213   2.598   6.418   5.500
 4772SOL     OW15214   2.837   5.285   0.666
 4772SOL    HW115215   2.892   5.208   0.697
 4772SOL    HW215216   2.875   5.370   0.703
 4773SOL     OW15217   1.254   6.042   4.434
 4773SOL    HW115218   1.173   6.088   4.398
 4773SOL    HW215219   1.242   6.027   4.533
 4774SOL     OW15220   1.465   3.968   1.181
 4774SOL    HW115221   1.476   3.975   1.082
 4774SOL    HW215222   1.442   3.874   1.206
 4775SOL     OW15223   4.584   0.071   4.480
 4775SOL    HW115224   4.673   0.062   4.525
 4775SOL    HW215225   4.560   7.009   4.437
 4776SOL     OW15226   1.236   0.933   4.820
 4776SOL    HW115227   1.255   0.962   4.914
 4776SOL    HW215228   1.264   1.004   4.756
 4777SOL     OW15229   1.474   5.626   0.916
 4777SOL    HW115230   1.501   5.680   0.996
 4777SOL    HW215231   1.392   5.667   0.875
 4778SOL     OW15232   0.664   2.708   4.691
 4778SOL    HW115233   0.741   2.772   4.703
 4778SOL    HW215234   0.633   2.711   4.597
 4779SOL     OW15235   5.914   6.475   4.054
 4779SOL    HW115236   5.828   6.494   4.101
 4779SOL    HW215237   5.946   6.383   4.076
 4780SOL     OW15238   5.917   2.679   5.933
 4780SOL    HW115239   6.009   2.641   5.933
 4780SOL    HW215240   5.854   2.614   5.976
 4781SOL     OW15241   2.837   5.485   2.951
 4781SOL    HW115242   2.916   5.432   2.982
 4781SOL    HW215243   2.761   5.423   2.931
 4782SOL     OW15244   6.138   5.875   6.001
 4782SOL    HW115245   6.094   5.965   6.003
 4782SOL    HW215246   6.187   5.860   6.087
 4783SOL     OW15247   5.969   3.824   0.099
 4783SOL    HW115248   6.020   3.904   0.130
 4783SOL    HW215249   5.917   3.848   0.018
 4784SOL     OW15250   6.050   1.986   5.795
 4784SOL    HW115251   6.099   2.045   5.732
 4784SOL    HW215252   6.103   1.903   5.813
 4785SOL     OW15253   0.351   6.637   2.668
 4785SOL    HW115254   0.396   6.672   2.586
 4785SOL    HW215255   0.335   6.539   2.658
 4786SOL     OW15256   2.899   7.011   0.264
 4786SOL    HW115257   2.902   6.974   0.172
 4786SOL    HW215258   2.910   6.937   0.331
 4787SOL     OW15259   3.760   2.099   4.023
 4787SOL    HW115260   3.816   2.158   3.965
 4787SOL    HW215261   3.814   2.019   4.050
 4788SOL     OW15262   6.074   6.151   0.491
 4788SOL    HW115263   6.156   6.097   0.508
 4788SOL    HW215264   6.073   6.230   0.552
 4789SOL     OW15265   5.213   1.398   2.021
 4789SOL    HW115266   5.124   1.434   2.048
 4789SOL    HW215267   5.248   1.450   1.942
 4790SOL     OW15268   4.998   1.774   5.753
 4790SOL    HW115269   5.041   1.785   5.663
 4790SOL    HW215270   5.063   1.798   5.824
 4791SOL     OW15271   0.491   2.613   1.303
 4791SOL    HW115272   0.452   2.653   1.386
 4791SOL    HW215273   0.551   2.537   1.328
 4792SOL     OW15274   2.075   4.390   4.359
 4792SOL    HW115275   2.006   4.330   4.400
 4792SOL    HW215276   2.165   4.370   4.399
 4793SOL     OW15277   1.266   3.683   5.489
 4793SOL    HW115278   1.249   3.629   5.406
 4793SOL    HW215279   1.201   3.656   5.560
 4794SOL     OW15280   4.628   6.837   3.803
 4794SOL    HW115281   4.536   6.863   3.773
 4794SOL    HW215282   4.696   6.888   3.751
 4795SOL     OW15283   0.236   1.742   4.760
 4795SOL    HW115284   0.199   1.651   4.740
 4795SOL    HW215285   0.168   1.812   4.737
 4796SOL     OW15286   3.792   0.694   6.006
 4796SOL    HW115287   3.734   0.660   5.931
 4796SOL    HW215288   3.885   0.657   5.995
 4797SOL     OW15289   0.600   5.366   4.740
 4797SOL    HW115290   0.561   5.401   4.655
 4797SOL    HW215291   0.637   5.274   4.725
 4798SOL     OW15292   5.647   4.979   5.868
 4798SOL    HW115293   5.578   5.052   5.872
 4798SOL    HW215294   5.733   5.013   5.907
 4799SOL     OW15295   4.020   1.557   0.063
 4799SOL    HW115296   4.045   1.475   0.011
 4799SOL    HW215297   3.940   1.600   0.021
 4800SOL     OW15298   1.853   4.442   6.830
 4800SOL    HW115299   1.900   4.514   6.881
 4800SOL    HW215300   1.888   4.441   6.736
 4801SOL     OW15301   3.932   2.708   0.419
 4801SOL    HW115302   3.987   2.779   0.464
 4801SOL    HW215303   3.972   2.687   0.330
 4802SOL     OW15304   6.896   6.556   1.957
 4802SOL    HW115305   6.889   6.612   1.875
 4802SOL    HW215306   6.946   6.472   1.937
 4803SOL     OW15307   5.804   4.888   0.939
 4803SOL    HW115308   5.875   4.904   0.870
 4803SOL    HW215309   5.727   4.950   0.923
 4804SOL     OW15310   5.798   1.234   1.011
 4804SOL    HW115311   5.761   1.145   0.981
 4804SOL    HW215312   5.885   1.219   1.058
 4805SOL     OW15313   6.792   1.177   2.001
 4805SOL    HW115314   6.735   1.255   2.029
 4805SOL    HW215315   6.839   1.200   1.915
 4806SOL     OW15316   1.192   3.910   3.044
 4806SOL    HW115317   1.170   3.831   3.100
 4806SOL    HW215318   1.113   3.970   3.038
 4807SOL     OW15319   2.033   3.483   6.492
 4807SOL    HW115320   2.017   3.476   6.590
 4807SOL    HW215321   1.976   3.415   6.444
 4808SOL     OW15322   3.670   5.423   0.854
 4808SOL    HW115323   3.733   5.460   0.922
 4808SOL    HW215324   3.685   5.324   0.845
 4809SOL     OW15325   3.662   4.450   1.644
 4809SOL    HW115326   3.661   4.515   1.569
 4809SOL    HW215327   3.625   4.493   1.727
 4810SOL     OW15328   1.386   4.423   3.881
 4810SOL    HW115329   1.327   4.426   3.801
 4810SOL    HW215330   1.356   4.492   3.947
 4811SOL     OW15331   3.700   3.858   4.594
 4811SOL    HW115332   3.721   3.820   4.684
 4811SOL    HW215333   3.786   3.881   4.547
 4812SOL     OW15334   0.768   7.016   2.004
 4812SOL    HW115335   0.860   6.983   1.981
 4812SOL    HW215336   0.717   6.943   2.050
 4813SOL     OW15337   5.762   2.004   5.774
 4813SOL    HW115338   5.861   2.012   5.787
 4813SOL    HW215339   5.715   2.070   5.833
 4814SOL     OW15340   0.222   3.440   2.311
 4814SOL    HW115341   0.217   3.488   2.399
 4814SOL    HW215342   0.150   3.475   2.250
 4815SOL     OW15343   5.388   4.608   2.642
 4815SOL    HW115344   5.345   4.655   2.720
 4815SOL    HW215345   5.465   4.663   2.610
 4816SOL     OW15346   2.072   6.966   1.365
 4816SOL    HW115347   2.096   6.967   1.462
 4816SOL    HW215348   1.976   6.940   1.354
 4817SOL     OW15349   3.545   1.257   1.955
 4817SOL    HW115350   3.604   1.321   2.005
 4817SOL    HW215351   3.541   1.283   1.859
 4818SOL     OW15352   1.583   0.959   4.295
 4818SOL    HW115353   1.567   0.928   4.202
 4818SOL    HW215354   1.601   0.880   4.354
 4819SOL     OW15355   3.109   2.064   1.628
 4819SOL    HW115356   3.125   2.148   1.679
 4819SOL    HW215357   3.153   2.070   1.538
 4820SOL     OW15358   6.189   2.823   1.082
 4820SOL    HW115359   6.167   2.852   1.175
 4820SOL    HW215360   6.253   2.746   1.085
 4821SOL     OW15361   6.541   5.683   1.379
 4821SOL    HW115362   6.533   5.683   1.478
 4821SOL    HW215363   6.533   5.777   1.345
 4822SOL     OW15364   1.841   3.090   3.581
 4822SOL    HW115365   1.848   3.073   3.679
 4822SOL    HW215366   1.745   3.086   3.553
 4823SOL     OW15367   0.180   0.448   3.584
 4823SOL    HW115368   0.161   0.388   3.663
 4823SOL    HW215369   0.234   0.526   3.614
 4824SOL     OW15370   5.493   1.907   4.047
 4824SOL    HW115371   5.441   1.862   3.974
 4824SOL    HW215372   5.490   1.852   4.130
 4825SOL     OW15373   2.190   2.650   4.091
 4825SOL    HW115374   2.267   2.587   4.075
 4825SOL    HW215375   2.226   2.742   4.104
 4826SOL     OW15376   0.120   6.857   0.962
 4826SOL    HW115377   0.077   6.773   0.993
 4826SOL    HW215378   0.220   6.846   0.963
 4827SOL     OW15379   5.728   0.943   1.964
 4827SOL    HW115380   5.734   0.976   2.058
 4827SOL    HW215381   5.801   0.983   1.909
 4828SOL     OW15382   6.164   3.731   1.683
 4828SOL    HW115383   6.209   3.699   1.767
 4828SOL    HW215384   6.066   3.742   1.700
 4829SOL     OW15385   3.304   6.699   6.128
 4829SOL    HW115386   3.244   6.643   6.186
 4829SOL    HW215387   3.268   6.792   6.122
 4830SOL     OW15388   5.291   5.051   3.908
 4830SOL    HW115389   5.234   5.127   3.942
 4830SOL    HW215390   5.243   5.006   3.833
 4831SOL     OW15391   6.677   5.484   5.787
 4831SOL    HW115392   6.688   5.527   5.877
 4831SOL    HW215393   6.699   5.387   5.794
 4832SOL     OW15394   3.262   2.439   6.546
 4832SOL    HW115395   3.299   2.435   6.639
 4832SOL    HW215396   3.256   2.534   6.517
 4833SOL     OW15397   4.642   1.860   3.244
 4833SOL    HW115398   4.640   1.959   3.228
 4833SOL    HW215399   4.635   1.812   3.157
 4834SOL     OW15400   3.471   0.473   0.217
 4834SOL    HW115401   3.469   0.505   0.312
 4834SOL    HW215402   3.395   0.409   0.202
 4835SOL     OW15403   1.858   0.261   6.782
 4835SOL    HW115404   1.871   0.169   6.820
 4835SOL    HW215405   1.936   0.319   6.807
 4836SOL     OW15406   4.337   2.406   3.464
 4836SOL    HW115407   4.249   2.407   3.511
 4836SOL    HW215408   4.401   2.467   3.511
 4837SOL     OW15409   3.798   2.873   1.793
 4837SOL    HW115410   3.734   2.845   1.865
 4837SOL    HW215411   3.863   2.940   1.829
 4838SOL     OW15412   2.391   4.949   2.451
 4838SOL    HW115413   2.469   4.938   2.513
 4838SOL    HW215414   2.309   4.911   2.495
 4839SOL     OW15415   0.775   3.534   5.673
 4839SOL    HW115416   0.724   3.611   5.711
 4839SOL    HW215417   0.753   3.451   5.724
 4840SOL     OW15418   6.832   0.326   5.936
 4840SOL    HW115419   6.897   0.276   5.993
 4840SOL    HW215420   6.739   0.311   5.970
 4841SOL     OW15421   3.258   5.608   1.747
 4841SOL    HW115422   3.329   5.633   1.813
 4841SOL    HW215423   3.253   5.508   1.739
 4842SOL     OW15424   3.317   4.823   1.915
 4842SOL    HW115425   3.304   4.834   2.014
 4842SOL    HW215426   3.299   4.728   1.889
 4843SOL     OW15427   6.201   4.113   0.412
 4843SOL    HW115428   6.164   4.151   0.497
 4843SOL    HW215429   6.271   4.174   0.375
 4844SOL     OW15430   6.950   3.903   6.262
 4844SOL    HW115431   6.910   3.991   6.288
 4844SOL    HW215432   6.928   3.835   6.332
 4845SOL     OW15433   6.562   5.647   4.364
 4845SOL    HW115434   6.633   5.692   4.418
 4845SOL    HW215435   6.500   5.598   4.425
 4846SOL     OW15436   6.572   3.287   1.808
 4846SOL    HW115437   6.532   3.226   1.876
 4846SOL    HW215438   6.660   3.249   1.778
 4847SOL     OW15439   3.281   1.853   5.847
 4847SOL    HW115440   3.349   1.801   5.898
 4847SOL    HW215441   3.255   1.802   5.765
 4848SOL     OW15442   1.549   1.006   4.763
 4848SOL    HW115443   1.491   1.080   4.730
 4848SOL    HW215444   1.544   1.002   4.863
 4849SOL     OW15445   0.923   0.256   0.158
 4849SOL    HW115446   0.874   0.341   0.178
 4849SOL    HW215447   0.968   0.265   0.069
 4850SOL     OW15448   4.201   0.895   2.147
 4850SOL    HW115449   4.123   0.953   2.170
 4850SOL    HW215450   4.268   0.897   2.222
 4851SOL     OW15451   3.746   5.385   5.197
 4851SOL    HW115452   3.751   5.372   5.098
 4851SOL    HW215453   3.651   5.383   5.226
 4852SOL     OW15454   0.854   0.027   6.229
 4852SOL    HW115455   0.902   0.030   6.316
 4852SOL    HW215456   0.756   0.016   6.245
 4853SOL     OW15457   3.283   1.040   2.298
 4853SOL    HW115458   3.305   1.103   2.224
 4853SOL    HW215459   3.220   1.084   2.362
 4854SOL     OW15460   5.307   6.258   2.652
 4854SOL    HW115461   5.397   6.285   2.686
 4854SOL    HW215462   5.240   6.268   2.725
 4855SOL     OW15463   6.095   2.728   2.468
 4855SOL    HW115464   6.007   2.681   2.466
 4855SOL    HW215465   6.159   2.682   2.406
 4856SOL     OW15466   1.716   4.228   2.551
 4856SOL    HW115467   1.704   4.256   2.456
 4856SOL    HW215468   1.717   4.128   2.557
 4857SOL     OW15469   1.729   2.049   5.330
 4857SOL    HW115470   1.737   2.089   5.421
 4857SOL    HW215471   1.758   2.117   5.262
 4858SOL     OW15472   2.009   1.091   4.545
 4858SOL    HW115473   2.106   1.096   4.518
 4858SOL    HW215474   1.952   1.081   4.464
 4859SOL     OW15475   0.911   0.680   3.735
 4859SOL    HW115476   0.835   0.620   3.710
 4859SOL    HW215477   0.970   0.633   3.800
 4860SOL     OW15478   3.461   4.900   2.209
 4860SOL    HW115479   3.500   4.867   2.123
 4860SOL    HW215480   3.524   4.879   2.284
 4861SOL     OW15481   5.072   5.454   0.172
 4861SOL    HW115482   4.992   5.494   0.129
 4861SOL    HW215483   5.043   5.397   0.249
 4862SOL     OW15484   2.489   5.127   4.302
 4862SOL    HW115485   2.430   5.191   4.253
 4862SOL    HW215486   2.526   5.060   4.238
 4863SOL     OW15487   5.643   4.616   0.629
 4863SOL    HW115488   5.677   4.708   0.647
 4863SOL    HW215489   5.566   4.620   0.565
 4864SOL     OW15490   3.275   1.403   4.073
 4864SOL    HW115491   3.373   1.417   4.079
 4864SOL    HW215492   3.256   1.308   4.047
 4865SOL     OW15493   1.695   0.845   5.623
 4865SOL    HW115494   1.702   0.941   5.649
 4865SOL    HW215495   1.748   0.789   5.687
 4866SOL     OW15496   6.192   3.550   0.954
 4866SOL    HW115497   6.218   3.646   0.944
 4866SOL    HW215498   6.161   3.534   1.048
 4867SOL     OW15499   4.430   5.779   2.688
 4867SOL    HW115500   4.421   5.789   2.589
 4867SOL    HW215501   4.429   5.682   2.713
 4868SOL     OW15502   6.446   4.733   2.987
 4868SOL    HW115503   6.480   4.646   3.022
 4868SOL    HW215504   6.349   4.724   2.965
 4869SOL     OW15505   1.460   1.606   0.989
 4869SOL    HW115506   1.533   1.552   0.947
 4869SOL    HW215507   1.418   1.553   1.063
 4870SOL     OW15508   0.835   6.109   1.035
 4870SOL    HW115509   0.877   6.139   1.120
 4870SOL    HW215510   0.830   6.186   0.971
 4871SOL     OW15511   0.637   0.916   3.847
 4871SOL    HW115512   0.716   0.942   3.792
 4871SOL    HW215513   0.605   0.825   3.821
 4872SOL     OW15514   6.469   0.292   3.499
 4872SOL    HW115515   6.461   0.376   3.552
 4872SOL    HW215516   6.481   0.215   3.561
 4873SOL     OW15517   6.208   5.753   4.584
 4873SOL    HW115518   6.252   5.733   4.672
 4873SOL    HW215519   6.109   5.756   4.596
 4874SOL     OW15520   4.954   3.342   2.234
 4874SOL    HW115521   4.963   3.258   2.182
 4874SOL    HW215522   5.017   3.411   2.198
 4875SOL     OW15523   6.060   1.248   0.278
 4875SOL    HW115524   6.099   1.295   0.199
 4875SOL    HW215525   6.103   1.158   0.287
 4876SOL     OW15526   6.946   1.367   3.667
 4876SOL    HW115527   6.990   1.314   3.595
 4876SOL    HW215528   7.000   1.360   3.751
 4877SOL     OW15529   0.680   2.032   5.398
 4877SOL    HW115530   0.582   2.012   5.394
 4877SOL    HW215531   0.694   2.130   5.382
 4878SOL     OW15532   6.320   1.197   2.212
 4878SOL    HW115533   6.338   1.295   2.218
 4878SOL    HW215534   6.407   1.148   2.211
 4879SOL     OW15535   4.321   1.946   1.941
 4879SOL    HW115536   4.375   1.872   1.982
 4879SOL    HW215537   4.270   1.994   2.012
 4880SOL     OW15538   6.039   3.563   0.051
 4880SOL    HW115539   6.101   3.496   0.092
 4880SOL    HW215540   6.035   3.644   0.110
 4881SOL     OW15541   1.879   0.780   0.369
 4881SOL    HW115542   1.958   0.828   0.331
 4881SOL    HW215543   1.797   0.836   0.356
 4882SOL     OW15544   4.437   1.168   5.617
 4882SOL    HW115545   4.348   1.209   5.637
 4882SOL    HW215546   4.506   1.207   5.679
 4883SOL     OW15547   4.853   4.338   1.022
 4883SOL    HW115548   4.871   4.368   1.115
 4883SOL    HW215549   4.767   4.286   1.019
 4884SOL     OW15550   3.004   5.333   1.573
 4884SOL    HW115551   2.928   5.328   1.637
 4884SOL    HW215552   2.986   5.404   1.505
 4885SOL     OW15553   1.993   5.049   1.373
 4885SOL    HW115554   2.063   5.046   1.302
 4885SOL    HW215555   2.010   4.977   1.440
 4886SOL     OW15556   2.931   6.297   1.334
 4886SOL    HW115557   2.933   6.210   1.383
 4886SOL    HW215558   2.904   6.281   1.239
 4887SOL     OW15559   0.169   6.417   1.639
 4887SOL    HW115560   0.189   6.367   1.554
 4887SOL    HW215561   0.071   6.437   1.643
 4888SOL     OW15562   2.952   0.278   3.278
 4888SOL    HW115563   2.948   0.191   3.228
 4888SOL    HW215564   3.011   0.268   3.358
 4889SOL     OW15565   6.746   2.281   5.002
 4889SOL    HW115566   6.649   2.298   5.020
 4889SOL    HW215567   6.792   2.367   4.980
 4890SOL     OW15568   6.895   1.900   5.335
 4890SOL    HW115569   6.905   1.843   5.417
 4890SOL    HW215570   6.845   1.848   5.265
 4891SOL     OW15571   2.210   5.626   0.248
 4891SOL    HW115572   2.251   5.717   0.254
 4891SOL    HW215573   2.141   5.626   0.175
 4892SOL     OW15574   4.629   5.776   2.388
 4892SOL    HW115575   4.550   5.836   2.377
 4892SOL    HW215576   4.692   5.815   2.455
 4893SOL     OW15577   6.552   3.315   2.232
 4893SOL    HW115578   6.604   3.272   2.158
 4893SOL    HW215579   6.524   3.406   2.204
 4894SOL     OW15580   3.421   0.791   2.811
 4894SOL    HW115581   3.440   0.830   2.901
 4894SOL    HW215582   3.441   0.693   2.812
 4895SOL     OW15583   0.502   4.758   3.730
 4895SOL    HW115584   0.496   4.729   3.826
 4895SOL    HW215585   0.586   4.810   3.716
 4896SOL     OW15586   2.478   4.448   2.584
 4896SOL    HW115587   2.533   4.522   2.623
 4896SOL    HW215588   2.515   4.423   2.494
 4897SOL     OW15589   2.137   5.893   5.093
 4897SOL    HW115590   2.039   5.875   5.102
 4897SOL    HW215591   2.159   5.911   4.997
 4898SOL     OW15592   3.529   1.306   4.998
 4898SOL    HW115593   3.532   1.398   5.036
 4898SOL    HW215594   3.454   1.299   4.933
 4899SOL     OW15595   5.835   4.787   3.093
 4899SOL    HW115596   5.853   4.752   3.001
 4899SOL    HW215597   5.850   4.886   3.095
 4900SOL     OW15598   3.547   5.919   5.194
 4900SOL    HW115599   3.535   5.955   5.287
 4900SOL    HW215600   3.476   5.956   5.135
 4901SOL     OW15601   2.173   1.692   5.918
 4901SOL    HW115602   2.097   1.757   5.910
 4901SOL    HW215603   2.148   1.606   5.874
 4902SOL     OW15604   1.110   1.629   4.752
 4902SOL    HW115605   1.207   1.630   4.727
 4902SOL    HW215606   1.096   1.687   4.833
 4903SOL     OW15607   4.583   5.792   0.319
 4903SOL    HW115608   4.505   5.822   0.374
 4903SOL    HW215609   4.589   5.692   0.323
 4904SOL     OW15610   2.159   0.185   5.626
 4904SOL    HW115611   2.112   0.149   5.706
 4904SOL    HW215612   2.120   0.144   5.543
 4905SOL     OW15613   2.910   0.900   3.708
 4905SOL    HW115614   2.825   0.856   3.738
 4905SOL    HW215615   2.926   0.879   3.611
 4906SOL     OW15616   4.784   2.166   6.273
 4906SOL    HW115617   4.797   2.190   6.177
 4906SOL    HW215618   4.747   2.074   6.280
 4907SOL     OW15619   4.831   0.354   1.586
 4907SOL    HW115620   4.911   0.347   1.526
 4907SOL    HW215621   4.840   0.434   1.644
 4908SOL     OW15622   5.259   6.503   6.952
 4908SOL    HW115623   5.292   6.450   0.005
 4908SOL    HW215624   5.159   6.505   6.952
 4909SOL     OW15625   0.027   5.333   3.270
 4909SOL    HW115626   7.014   5.322   3.178
 4909SOL    HW215627   0.113   5.384   3.265
 4910SOL     OW15628   5.493   0.301   4.265
 4910SOL    HW115629   5.569   0.343   4.216
 4910SOL    HW215630   5.420   0.368   4.277
 4911SOL     OW15631   1.730   3.615   2.937
 4911SOL    HW115632   1.705   3.681   2.866
 4911SOL    HW215633   1.740   3.662   3.024
 4912SOL     OW15634   5.561   1.812   5.849
 4912SOL    HW115635   5.643   1.864   5.826
 4912SOL    HW215636   5.567   1.781   5.944
 4913SOL     OW15637   4.623   3.469   5.613
 4913SOL    HW115638   4.614   3.485   5.514
 4913SOL    HW215639   4.614   3.371   5.632
 4914SOL     OW15640   4.258   6.779   5.380
 4914SOL    HW115641   4.237   6.875   5.360
 4914SOL    HW215642   4.250   6.726   5.296
 4915SOL     OW15643   2.654   6.381   5.131
 4915SOL    HW115644   2.650   6.401   5.033
 4915SOL    HW215645   2.569   6.336   5.159
 4916SOL     OW15646   0.799   1.237   3.651
 4916SOL    HW115647   0.816   1.141   3.629
 4916SOL    HW215648   0.807   1.250   3.750
 4917SOL     OW15649   3.529   5.586   1.551
 4917SOL    HW115650   3.551   5.509   1.610
 4917SOL    HW215651   3.429   5.594   1.542
 4918SOL     OW15652   5.634   6.717   1.801
 4918SOL    HW115653   5.639   6.811   1.768
 4918SOL    HW215654   5.556   6.671   1.759
 4919SOL     OW15655   2.863   3.447   2.096
 4919SOL    HW115656   2.883   3.388   2.017
 4919SOL    HW215657   2.764   3.448   2.112
 4920SOL     OW15658   5.535   6.774   4.869
 4920SOL    HW115659   5.538   6.699   4.935
 4920SOL    HW215660   5.616   6.832   4.880
 4921SOL     OW15661   1.331   5.197   0.068
 4921SOL    HW115662   1.300   5.208   6.999
 4921SOL    HW215663   1.343   5.287   0.110
 4922SOL     OW15664   2.930   2.246   4.268
 4922SOL    HW115665   2.876   2.324   4.300
 4922SOL    HW215666   2.931   2.245   4.168
 4923SOL     OW15667   2.741   1.213   2.291
 4923SOL    HW115668   2.737   1.308   2.261
 4923SOL    HW215669   2.835   1.191   2.319
 4924SOL     OW15670   3.156   1.449   4.622
 4924SOL    HW115671   3.153   1.482   4.528
 4924SOL    HW215672   3.249   1.454   4.657
 4925SOL     OW15673   5.434   0.368   2.583
 4925SOL    HW115674   5.370   0.430   2.627
 4925SOL    HW215675   5.519   0.417   2.562
 4926SOL     OW15676   5.615   1.545   1.803
 4926SOL    HW115677   5.655   1.624   1.850
 4926SOL    HW215678   5.626   1.556   1.704
 4927SOL     OW15679   3.003   3.506   5.483
 4927SOL    HW115680   2.984   3.597   5.519
 4927SOL    HW215681   3.100   3.485   5.496
 4928SOL     OW15682   1.421   0.807   6.821
 4928SOL    HW115683   1.361   0.732   6.849
 4928SOL    HW215684   1.376   0.862   6.751
 4929SOL     OW15685   6.388   0.250   4.284
 4929SOL    HW115686   6.378   0.346   4.310
 4929SOL    HW215687   6.453   0.205   4.346
 4930SOL     OW15688   5.667   6.852   2.469
 4930SOL    HW115689   5.581   6.876   2.514
 4930SOL    HW215690   5.706   6.934   2.427
 4931SOL     OW15691   6.439   6.626   1.827
 4931SOL    HW115692   6.538   6.632   1.838
 4931SOL    HW215693   6.396   6.612   1.916
 4932SOL     OW15694   4.066   3.194   3.068
 4932SOL    HW115695   4.017   3.112   3.038
 4932SOL    HW215696   4.082   3.190   3.166
 4933SOL     OW15697   2.428   6.873   2.018
 4933SOL    HW115698   2.523   6.901   2.026
 4933SOL    HW215699   2.418   6.779   2.048
 4934SOL     OW15700   3.417   6.079   2.783
 4934SOL    HW115701   3.420   6.043   2.876
 4934SOL    HW215702   3.322   6.078   2.751
 4935SOL     OW15703   1.559   2.050   6.469
 4935SOL    HW115704   1.507   2.026   6.550
 4935SOL    HW215705   1.564   2.149   6.460
 4936SOL     OW15706   3.124   4.913   1.190
 4936SOL    HW115707   3.046   4.907   1.128
 4936SOL    HW215708   3.207   4.887   1.142
 4937SOL     OW15709   5.507   2.777   5.639
 4937SOL    HW115710   5.500   2.854   5.702
 4937SOL    HW215711   5.452   2.701   5.673
 4938SOL     OW15712   2.777   5.752   5.955
 4938SOL    HW115713   2.702   5.732   5.892
 4938SOL    HW215714   2.803   5.848   5.947
 4939SOL     OW15715   5.142   2.018   5.085
 4939SOL    HW115716   5.092   1.948   5.137
 4939SOL    HW215717   5.082   2.054   5.013
 4940SOL     OW15718   0.974   1.200   4.573
 4940SOL    HW115719   1.033   1.280   4.571
 4940SOL    HW215720   0.984   1.152   4.660
 4941SOL     OW15721   3.777   2.028   6.298
 4941SOL    HW115722   3.805   2.039   6.203
 4941SOL    HW215723   3.685   2.063   6.311
 4942SOL     OW15724   5.077   3.296   5.706
 4942SOL    HW115725   5.176   3.296   5.722
 4942SOL    HW215726   5.038   3.210   5.738
 4943SOL     OW15727   3.903   3.409   1.235
 4943SOL    HW115728   3.914   3.453   1.146
 4943SOL    HW215729   3.921   3.311   1.227
 4944SOL     OW15730   1.828   4.162   2.778
 4944SOL    HW115731   1.921   4.198   2.790
 4944SOL    HW215732   1.786   4.202   2.697
 4945SOL     OW15733   1.102   1.141   3.620
 4945SOL    HW115734   1.067   1.101   3.705
 4945SOL    HW215735   1.105   1.070   3.549
 4946SOL     OW15736   0.952   3.047   1.835
 4946SOL    HW115737   0.982   3.078   1.925
 4946SOL    HW215738   0.853   3.058   1.828
 4947SOL     OW15739   1.246   7.012   0.853
 4947SOL    HW115740   1.227   0.079   0.890
 4947SOL    HW215741   1.341   7.008   0.823
 4948SOL     OW15742   2.822   0.527   2.250
 4948SOL    HW115743   2.883   0.480   2.314
 4948SOL    HW215744   2.793   0.463   2.178
 4949SOL     OW15745   4.859   0.660   5.369
 4949SOL    HW115746   4.954   0.634   5.388
 4949SOL    HW215747   4.812   0.585   5.323
 4950SOL     OW15748   3.040   5.770   3.627
 4950SOL    HW115749   3.005   5.738   3.539
 4950SOL    HW215750   2.987   5.729   3.701
 4951SOL     OW15751   5.840   1.403   4.976
 4951SOL    HW115752   5.814   1.326   4.919
 4951SOL    HW215753   5.858   1.483   4.918
 4952SOL     OW15754   0.673   0.899   5.036
 4952SOL    HW115755   0.610   0.889   4.960
 4952SOL    HW215756   0.639   0.969   5.099
 4953SOL     OW15757   2.212   6.037   2.391
 4953SOL    HW115758   2.130   6.094   2.398
 4953SOL    HW215759   2.232   6.018   2.295
 4954SOL     OW15760   4.634   4.409   6.436
 4954SOL    HW115761   4.624   4.354   6.519
 4954SOL    HW215762   4.609   4.503   6.455
 4955SOL     OW15763   1.637   5.890   6.660
 4955SOL    HW115764   1.679   5.830   6.728
 4955SOL    HW215765   1.685   5.978   6.658
 4956SOL     OW15766   3.125   6.849   4.988
 4956SOL    HW115767   3.078   6.893   4.912
 4956SOL    HW215768   3.170   6.919   5.044
 4957SOL     OW15769   6.721   1.133   3.473
 4957SOL    HW115770   6.683   1.211   3.523
 4957SOL    HW215771   6.757   1.067   3.538
 4958SOL     OW15772   0.197   6.201   5.914
 4958SOL    HW115773   0.204   6.127   5.848
 4958SOL    HW215774   0.286   6.218   5.955
 4959SOL     OW15775   6.884   1.297   6.806
 4959SOL    HW115776   6.818   1.222   6.817
 4959SOL    HW215777   6.843   1.370   6.751
 4960SOL     OW15778   3.128   6.532   3.584
 4960SOL    HW115779   3.070   6.580   3.518
 4960SOL    HW215780   3.076   6.457   3.625
 4961SOL     OW15781   5.345   1.255   5.129
 4961SOL    HW115782   5.245   1.252   5.141
 4961SOL    HW215783   5.383   1.328   5.186
 4962SOL     OW15784   5.685   2.801   1.425
 4962SOL    HW115785   5.762   2.865   1.434
 4962SOL    HW215786   5.615   2.842   1.367
 4963SOL     OW15787   5.906   5.908   1.093
 4963SOL    HW115788   5.910   5.889   0.994
 4963SOL    HW215789   5.998   5.918   1.128
 4964SOL     OW15790   3.669   6.460   3.142
 4964SOL    HW115791   3.729   6.512   3.203
 4964SOL    HW215792   3.690   6.362   3.149
 4965SOL     OW15793   0.324   6.920   3.997
 4965SOL    HW115794   0.298   6.871   3.914
 4965SOL    HW215795   0.404   6.877   4.039
 4966SOL     OW15796   2.481   6.814   4.599
 4966SOL    HW115797   2.490   6.716   4.582
 4966SOL    HW215798   2.391   6.833   4.639
 4967SOL     OW15799   4.569   3.301   6.814
 4967SOL    HW115800   4.476   3.267   6.806
 4967SOL    HW215801   4.633   3.224   6.812
 4968SOL     OW15802   5.079   2.854   3.405
 4968SOL    HW115803   4.994   2.886   3.446
 4968SOL    HW215804   5.129   2.798   3.471
 4969SOL     OW15805   1.595   1.019   2.528
 4969SOL    HW115806   1.652   0.948   2.488
 4969SOL    HW215807   1.526   1.048   2.462
 4970SOL     OW15808   1.605   2.582   4.964
 4970SOL    HW115809   1.612   2.661   5.025
 4970SOL    HW215810   1.640   2.606   4.874
 4971SOL     OW15811   6.245   5.894   3.790
 4971SOL    HW115812   6.342   5.914   3.776
 4971SOL    HW215813   6.193   5.980   3.794
 4972SOL     OW15814   2.169   3.491   0.913
 4972SOL    HW115815   2.120   3.498   0.826
 4972SOL    HW215816   2.115   3.436   0.977
 4973SOL     OW15817   0.079   6.779   1.744
 4973SOL    HW115818   0.048   6.871   1.767
 4973SOL    HW215819   0.012   6.735   1.684
 4974SOL     OW15820   6.864   4.469   0.702
 4974SOL    HW115821   6.959   4.483   0.675
 4974SOL    HW215822   6.861   4.425   0.792
 4975SOL     OW15823   6.104   5.809   0.642
 4975SOL    HW115824   6.160   5.731   0.669
 4975SOL    HW215825   6.154   5.894   0.658
 4976SOL     OW15826   2.772   0.346   4.488
 4976SOL    HW115827   2.713   0.311   4.415
 4976SOL    HW215828   2.813   0.432   4.458
 4977SOL     OW15829   5.271   3.991   0.735
 4977SOL    HW115830   5.215   3.984   0.818
 4977SOL    HW215831   5.356   4.038   0.756
 4978SOL     OW15832   6.877   3.398   5.416
 4978SOL    HW115833   6.871   3.346   5.331
 4978SOL    HW215834   6.804   3.369   5.478
 4979SOL     OW15835   0.337   1.872   5.030
 4979SOL    HW115836   0.332   1.852   4.933
 4979SOL    HW215837   0.424   1.838   5.067
 4980SOL     OW15838   4.746   6.752   3.279
 4980SOL    HW115839   4.826   6.811   3.283
 4980SOL    HW215840   4.736   6.704   3.367
 4981SOL     OW15841   5.015   5.804   5.702
 4981SOL    HW115842   4.965   5.730   5.747
 4981SOL    HW215843   5.028   5.880   5.766
 4982SOL     OW15844   2.580   1.496   6.775
 4982SOL    HW115845   2.487   1.491   6.810
 4982SOL    HW215846   2.614   1.403   6.757
 4983SOL     OW15847   4.831   2.986   4.290
 4983SOL    HW115848   4.913   3.042   4.306
 4983SOL    HW215849   4.799   2.948   4.377
 4984SOL     OW15850   5.560   3.472   4.354
 4984SOL    HW115851   5.486   3.498   4.416
 4984SOL    HW215852   5.531   3.488   4.259
 4985SOL     OW15853   6.682   6.432   3.494
 4985SOL    HW115854   6.721   6.410   3.404
 4985SOL    HW215855   6.583   6.418   3.491
 4986SOL     OW15856   6.605   4.490   3.081
 4986SOL    HW115857   6.671   4.550   3.126
 4986SOL    HW215858   6.574   4.420   3.146
 4987SOL     OW15859   0.719   2.110   1.278
 4987SOL    HW115860   0.661   2.041   1.233
 4987SOL    HW215861   0.776   2.065   1.347
 4988SOL     OW15862   6.731   1.436   3.919
 4988SOL    HW115863   6.666   1.383   3.974
 4988SOL    HW215864   6.725   1.407   3.824
 4989SOL     OW15865   6.208   1.192   1.654
 4989SOL    HW115866   6.136   1.257   1.678
 4989SOL    HW215867   6.241   1.146   1.736
 4990SOL     OW15868   0.976   1.875   6.192
 4990SOL    HW115869   0.917   1.953   6.168
 4990SOL    HW215870   1.059   1.878   6.136
 4991SOL     OW15871   0.704   3.336   4.009
 4991SOL    HW115872   0.650   3.420   4.003
 4991SOL    HW215873   0.664   3.267   3.948
 4992SOL     OW15874   4.591   1.122   4.131
 4992SOL    HW115875   4.679   1.083   4.104
 4992SOL    HW215876   4.577   1.110   4.229
 4993SOL     OW15877   2.578   4.588   3.829
 4993SOL    HW115878   2.624   4.665   3.874
 4993SOL    HW215879   2.510   4.624   3.764
 4994SOL     OW15880   1.798   0.141   2.369
 4994SOL    HW115881   1.738   0.061   2.368
 4994SOL    HW215882   1.772   0.201   2.444
 4995SOL     OW15883   6.864   3.365   5.766
 4995SOL    HW115884   6.864   3.272   5.729
 4995SOL    HW215885   6.898   3.429   5.697
 4996SOL     OW15886   1.054   0.360   2.289
 4996SOL    HW115887   0.988   0.425   2.253
 4996SOL    HW215888   1.115   0.407   2.354
 4997SOL     OW15889   6.414   2.162   2.957
 4997SOL    HW115890   6.357   2.100   2.903
 4997SOL    HW215891   6.358   2.208   3.025
 4998SOL     OW15892   1.915   4.212   4.829
 4998SOL    HW115893   1.901   4.279   4.901
 4998SOL    HW215894   1.991   4.242   4.770
 4999SOL     OW15895   4.884   5.668   1.460
 4999SOL    HW115896   4.928   5.629   1.541
 4999SOL    HW215897   4.857   5.762   1.479
 5000SOL     OW15898   1.757   0.522   3.911
 5000SOL    HW115899   1.732   0.580   3.989
 5000SOL    HW215900   1.789   0.580   3.836
 5001SOL     OW15901   2.050   4.143   6.078
 5001SOL    HW115902   2.086   4.051   6.059
 5001SOL    HW215903   2.051   4.197   5.994
 5002SOL     OW15904   1.217   2.831   2.902
 5002SOL    HW115905   1.125   2.870   2.909
 5002SOL    HW215906   1.215   2.736   2.933
 5003SOL     OW15907   1.010   6.455   3.294
 5003SOL    HW115908   0.930   6.515   3.297
 5003SOL    HW215909   1.036   6.439   3.198
 5004SOL     OW15910   2.417   5.827   5.839
 5004SOL    HW115911   2.451   5.770   5.913
 5004SOL    HW215912   2.353   5.895   5.876
 5005SOL     OW15913   3.821   2.231   0.662
 5005SOL    HW115914   3.796   2.139   0.633
 5005SOL    HW215915   3.919   2.246   0.646
 5006SOL     OW15916   5.686   6.779   6.257
 5006SOL    HW115917   5.616   6.810   6.192
 5006SOL    HW215918   5.756   6.849   6.268
 5007SOL     OW15919   2.768   0.443   6.236
 5007SOL    HW115920   2.701   0.373   6.214
 5007SOL    HW215921   2.845   0.437   6.172
 5008SOL     OW15922   6.567   0.419   3.788
 5008SOL    HW115923   6.541   0.364   3.867
 5008SOL    HW215924   6.657   0.390   3.755
 5009SOL     OW15925   1.764   5.915   1.650
 5009SOL    HW115926   1.731   5.957   1.735
 5009SOL    HW215927   1.854   5.953   1.627
 5010SOL     OW15928   3.893   3.597   4.060
 5010SOL    HW115929   3.817   3.609   3.996
 5010SOL    HW215930   3.970   3.555   4.012
 5011SOL     OW15931   2.142   3.192   1.928
 5011SOL    HW115932   2.092   3.160   2.008
 5011SOL    HW215933   2.177   3.284   1.945
 5012SOL     OW15934   5.901   2.822   6.639
 5012SOL    HW115935   5.815   2.851   6.598
 5012SOL    HW215936   5.963   2.901   6.646
 5013SOL     OW15937   5.133   0.692   6.776
 5013SOL    HW115938   5.064   0.747   6.823
 5013SOL    HW215939   5.222   0.705   6.819
 5014SOL     OW15940   6.432   5.325   0.703
 5014SOL    HW115941   6.469   5.373   0.623
 5014SOL    HW215942   6.364   5.383   0.748
 5015SOL     OW15943   3.893   1.804   3.511
 5015SOL    HW115944   3.965   1.836   3.449
 5015SOL    HW215945   3.856   1.882   3.562
 5016SOL     OW15946   2.083   1.026   2.146
 5016SOL    HW115947   2.182   1.034   2.158
 5016SOL    HW215948   2.057   1.067   2.058
 5017SOL     OW15949   2.425   2.354   0.820
 5017SOL    HW115950   2.512   2.401   0.808
 5017SOL    HW215951   2.359   2.387   0.752
 5018SOL     OW15952   0.830   4.457   1.593
 5018SOL    HW115953   0.892   4.401   1.537
 5018SOL    HW215954   0.770   4.510   1.534
 5019SOL     OW15955   2.489   4.606   0.672
 5019SOL    HW115956   2.469   4.695   0.712
 5019SOL    HW215957   2.472   4.609   0.574
 5020SOL     OW15958   5.716   6.578   5.047
 5020SOL    HW115959   5.794   6.531   5.090
 5020SOL    HW215960   5.641   6.585   5.112
 5021SOL     OW15961   1.053   3.492   6.206
 5021SOL    HW115962   0.993   3.528   6.278
 5021SOL    HW215963   1.004   3.423   6.153
 5022SOL     OW15964   1.666   0.242   0.848
 5022SOL    HW115965   1.756   0.245   0.806
 5022SOL    HW215966   1.596   0.237   0.777
 5023SOL     OW15967   6.407   3.197   0.761
 5023SOL    HW115968   6.346   3.165   0.833
 5023SOL    HW215969   6.406   3.297   0.758
 5024SOL     OW15970   0.253   4.386   2.469
 5024SOL    HW115971   0.310   4.373   2.387
 5024SOL    HW215972   0.312   4.385   2.550
 5025SOL     OW15973   4.622   2.211   2.187
 5025SOL    HW115974   4.708   2.238   2.145
 5025SOL    HW215975   4.606   2.266   2.269
 5026SOL     OW15976   6.148   6.154   6.267
 5026SOL    HW115977   6.125   6.158   6.170
 5026SOL    HW215978   6.069   6.184   6.321
 5027SOL     OW15979   0.997   6.494   2.903
 5027SOL    HW115980   1.057   6.546   2.964
 5027SOL    HW215981   1.004   6.531   2.810
 5028SOL     OW15982   0.217   5.954   1.713
 5028SOL    HW115983   0.161   5.893   1.770
 5028SOL    HW215984   0.177   5.960   1.622
 5029SOL     OW15985   6.782   3.102   2.905
 5029SOL    HW115986   6.838   3.150   2.837
 5029SOL    HW215987   6.741   3.021   2.863
 5030SOL     OW15988   6.672   0.740   6.932
 5030SOL    HW115989   6.699   0.646   6.910
 5030SOL    HW215990   6.588   0.738   6.987
 5031SOL     OW15991   6.210   1.309   4.334
 5031SOL    HW115992   6.133   1.258   4.372
 5031SOL    HW215993   6.202   1.311   4.235
 5032SOL     OW15994   1.145   4.397   1.035
 5032SOL    HW115995   1.113   4.333   0.965
 5032SOL    HW215996   1.233   4.435   1.008
 5033SOL     OW15997   2.162   5.136   6.108
 5033SOL    HW115998   2.070   5.176   6.109
 5033SOL    HW215999   2.226   5.204   6.073
 5034SOL     OW16000   6.783   3.116   1.741
 5034SOL    HW116001   6.717   3.067   1.685
 5034SOL    HW216002   6.868   3.128   1.689
 5035SOL     OW16003   5.839   4.551   1.351
 5035SOL    HW116004   5.939   4.561   1.352
 5035SOL    HW216005   5.801   4.597   1.271
 5036SOL     OW16006   0.646   5.696   6.506
 5036SOL    HW116007   0.617   5.722   6.597
 5036SOL    HW216008   0.575   5.641   6.462
 5037SOL     OW16009   4.728   2.379   3.029
 5037SOL    HW116010   4.689   2.462   3.069
 5037SOL    HW216011   4.692   2.366   2.937
 5038SOL     OW16012   2.033   5.921   5.550
 5038SOL    HW116013   2.099   5.903   5.476
 5038SOL    HW216014   1.952   5.865   5.536
 5039SOL     OW16015   1.824   3.755   4.879
 5039SOL    HW116016   1.907   3.755   4.936
 5039SOL    HW216017   1.805   3.848   4.848
 5040SOL     OW16018   2.686   3.573   6.634
 5040SOL    HW116019   2.768   3.538   6.590
 5040SOL    HW216020   2.681   3.540   6.728
 5041SOL     OW16021   0.819   3.315   1.001
 5041SOL    HW116022   0.892   3.246   1.005
 5041SOL    HW216023   0.790   3.339   1.093
 5042SOL     OW16024   6.777   3.181   6.807
 5042SOL    HW116025   6.831   3.174   6.723
 5042SOL    HW216026   6.778   3.094   6.856
 5043SOL     OW16027   3.390   1.150   5.582
 5043SOL    HW116028   3.420   1.117   5.492
 5043SOL    HW216029   3.384   1.250   5.580
 5044SOL     OW16030   6.134   6.351   3.317
 5044SOL    HW116031   6.218   6.400   3.295
 5044SOL    HW216032   6.157   6.262   3.356
 5045SOL     OW16033   4.850   3.385   0.523
 5045SOL    HW116034   4.866   3.323   0.446
 5045SOL    HW216035   4.805   3.468   0.491
 5046SOL     OW16036   3.610   2.935   5.068
 5046SOL    HW116037   3.573   3.013   5.118
 5046SOL    HW216038   3.688   2.897   5.118
 5047SOL     OW16039   6.036   1.580   2.511
 5047SOL    HW116040   5.992   1.655   2.561
 5047SOL    HW216041   6.107   1.538   2.568
 5048SOL     OW16042   6.411   2.269   1.919
 5048SOL    HW116043   6.501   2.243   1.955
 5048SOL    HW216044   6.418   2.360   1.877
 5049SOL     OW16045   6.410   1.119   2.779
 5049SOL    HW116046   6.353   1.177   2.720
 5049SOL    HW216047   6.502   1.158   2.786
 5050SOL     OW16048   0.473   1.879   1.799
 5050SOL    HW116049   0.566   1.912   1.781
 5050SOL    HW216050   0.407   1.951   1.775
 5051SOL     OW16051   3.754   3.272   0.664
 5051SOL    HW116052   3.787   3.188   0.619
 5051SOL    HW216053   3.745   3.255   0.763
 5052SOL     OW16054   2.783   4.646   6.989
 5052SOL    HW116055   2.858   4.699   6.950
 5052SOL    HW216056   2.820   4.575   0.025
 5053SOL     OW16057   2.104   3.683   2.255
 5053SOL    HW116058   2.137   3.761   2.201
 5053SOL    HW216059   2.025   3.710   2.310
 5054SOL     OW16060   3.836   6.095   5.742
 5054SOL    HW116061   3.876   6.073   5.654
 5054SOL    HW216062   3.816   6.193   5.747
 5055SOL     OW16063   0.528   1.596   4.899
 5055SOL    HW116064   0.429   1.583   4.902
 5055SOL    HW216065   0.553   1.672   4.959
 5056SOL     OW16066   6.853   4.251   6.505
 5056SOL    HW116067   6.905   4.250   6.591
 5056SOL    HW216068   6.905   4.299   6.435
 5057SOL     OW16069   0.948   5.346   3.463
 5057SOL    HW116070   0.923   5.390   3.550
 5057SOL    HW216071   0.945   5.414   3.390
 5058SOL     OW16072   3.905   3.710   6.593
 5058SOL    HW116073   3.975   3.670   6.534
 5058SOL    HW216074   3.815   3.675   6.567
 5059SOL     OW16075   4.739   2.548   5.031
 5059SOL    HW116076   4.684   2.503   4.961
 5059SOL    HW216077   4.822   2.586   4.989
 5060SOL     OW16078   7.013   3.224   4.724
 5060SOL    HW116079   0.052   3.150   4.701
 5060SOL    HW216080   7.009   3.288   4.648
 5061SOL     OW16081   3.170   3.303   4.117
 5061SOL    HW116082   3.135   3.225   4.170
 5061SOL    HW216083   3.104   3.378   4.123
 5062SOL     OW16084   5.062   1.442   2.487
 5062SOL    HW116085   5.058   1.420   2.584
 5062SOL    HW216086   5.155   1.428   2.453
 5063SOL     OW16087   1.271   6.348   1.618
 5063SOL    HW116088   1.180   6.336   1.658
 5063SOL    HW216089   1.334   6.281   1.659
 5064SOL     OW16090   4.550   5.224   0.691
 5064SOL    HW116091   4.649   5.238   0.693
 5064SOL    HW216092   4.522   5.175   0.774
 5065SOL     OW16093   1.828   0.676   2.832
 5065SOL    HW116094   1.833   0.776   2.831
 5065SOL    HW216095   1.833   0.642   2.738
 5066SOL     OW16096   2.402   4.012   1.712
 5066SOL    HW116097   2.437   3.919   1.707
 5066SOL    HW216098   2.340   4.029   1.635
 5067SOL     OW16099   4.129   2.007   1.718
 5067SOL    HW116100   4.194   1.995   1.793
 5067SOL    HW216101   4.126   2.103   1.691
 5068SOL     OW16102   3.042   5.566   0.069
 5068SOL    HW116103   3.096   5.571   7.010
 5068SOL    HW216104   2.996   5.477   0.074
 5069SOL     OW16105   2.175   3.096   5.622
 5069SOL    HW116106   2.108   3.152   5.670
 5069SOL    HW216107   2.186   3.130   5.528
 5070SOL     OW16108   6.160   4.288   3.895
 5070SOL    HW116109   6.219   4.235   3.833
 5070SOL    HW216110   6.163   4.384   3.870
 5071SOL     OW16111   3.494   1.784   3.467
 5071SOL    HW116112   3.571   1.733   3.504
 5071SOL    HW216113   3.422   1.791   3.537
 5072SOL     OW16114   2.121   1.012   1.209
 5072SOL    HW116115   2.056   0.982   1.279
 5072SOL    HW216116   2.139   0.936   1.146
 5073SOL     OW16117   1.674   6.236   1.615
 5073SOL    HW116118   1.586   6.190   1.624
 5073SOL    HW216119   1.727   6.223   1.699
 5074SOL     OW16120   3.743   1.672   1.702
 5074SOL    HW116121   3.692   1.748   1.743
 5074SOL    HW216122   3.678   1.609   1.657
 5075SOL     OW16123   1.615   2.446   0.144
 5075SOL    HW116124   1.617   2.390   0.226
 5075SOL    HW216125   1.565   2.398   0.072
 5076SOL     OW16126   5.472   0.264   6.914
 5076SOL    HW116127   5.561   0.267   6.959
 5076SOL    HW216128   5.402   0.236   6.980
 5077SOL     OW16129   1.586   3.804   6.218
 5077SOL    HW116130   1.670   3.753   6.195
 5077SOL    HW216131   1.510   3.768   6.165
 5078SOL     OW16132   0.709   0.999   4.498
 5078SOL    HW116133   0.686   1.078   4.441
 5078SOL    HW216134   0.673   0.916   4.456
 5079SOL     OW16135   2.266   2.269   5.926
 5079SOL    HW116136   2.302   2.318   5.847
 5079SOL    HW216137   2.241   2.334   5.998
 5080SOL     OW16138   6.026   5.765   5.636
 5080SOL    HW116139   5.978   5.689   5.591
 5080SOL    HW216140   5.961   5.838   5.657
 5081SOL     OW16141   2.586   4.913   5.085
 5081SOL    HW116142   2.508   4.936   5.143
 5081SOL    HW216143   2.670   4.943   5.129
 5082SOL     OW16144   4.617   6.895   0.168
 5082SOL    HW116145   4.526   6.854   0.178
 5082SOL    HW216146   4.685   6.823   0.154
 5083SOL     OW16147   3.631   0.642   1.258
 5083SOL    HW116148   3.556   0.639   1.324
 5083SOL    HW216149   3.597   0.614   1.168
 5084SOL     OW16150   0.843   4.668   4.757
 5084SOL    HW116151   0.806   4.755   4.724
 5084SOL    HW216152   0.771   4.599   4.756
 5085SOL     OW16153   0.979   2.916   5.761
 5085SOL    HW116154   0.999   2.849   5.690
 5085SOL    HW216155   0.902   2.884   5.817
 5086SOL     OW16156   0.420   4.200   2.059
 5086SOL    HW116157   0.520   4.210   2.054
 5086SOL    HW216158   0.386   4.168   1.970
 5087SOL     OW16159   6.775   5.204   2.195
 5087SOL    HW116160   6.801   5.273   2.262
 5087SOL    HW216161   6.848   5.137   2.186
 5088SOL     OW16162   4.443   6.646   2.957
 5088SOL    HW116163   4.467   6.573   2.893
 5088SOL    HW216164   4.362   6.620   3.010
 5089SOL     OW16165   5.726   3.982   3.869
 5089SOL    HW116166   5.769   4.010   3.783
 5089SOL    HW216167   5.629   4.009   3.869
 5090SOL     OW16168   1.987   1.181   2.776
 5090SOL    HW116169   2.070   1.178   2.832
 5090SOL    HW216170   1.914   1.226   2.827
 5091SOL     OW16171   6.523   0.400   0.647
 5091SOL    HW116172   6.606   0.452   0.626
 5091SOL    HW216173   6.539   0.344   0.728
 5092SOL     OW16174   3.788   2.921   3.856
 5092SOL    HW116175   3.699   2.929   3.813
 5092SOL    HW216176   3.856   2.896   3.787
 5093SOL     OW16177   2.779   1.695   1.732
 5093SOL    HW116178   2.819   1.632   1.666
 5093SOL    HW216179   2.821   1.785   1.722
 5094SOL     OW16180   2.020   5.861   6.817
 5094SOL    HW116181   2.049   5.932   6.754
 5094SOL    HW216182   2.097   5.800   6.836
 5095SOL     OW16183   0.382   1.573   2.925
 5095SOL    HW116184   0.402   1.650   2.864
 5095SOL    HW216185   0.358   1.493   2.871
 5096SOL     OW16186   5.661   4.611   6.102
 5096SOL    HW116187   5.684   4.654   6.015
 5096SOL    HW216188   5.564   4.626   6.122
 5097SOL     OW16189   6.437   0.361   0.022
 5097SOL    HW116190   6.535   0.366   0.002
 5097SOL    HW216191   6.393   0.296   6.983
 5098SOL     OW16192   3.711   2.410   1.412
 5098SOL    HW116193   3.649   2.366   1.347
 5098SOL    HW216194   3.796   2.435   1.365
 5099SOL     OW16195   0.191   6.265   1.409
 5099SOL    HW116196   0.191   6.165   1.409
 5099SOL    HW216197   0.234   6.299   1.325
 5100SOL     OW16198   3.089   5.342   3.448
 5100SOL    HW116199   3.134   5.358   3.535
 5100SOL    HW216200   2.996   5.378   3.451
 5101SOL     OW16201   3.881   0.452   4.440
 5101SOL    HW116202   3.863   0.354   4.453
 5101SOL    HW216203   3.841   0.503   4.515
 5102SOL     OW16204   5.011   5.779   4.539
 5102SOL    HW116205   4.928   5.724   4.547
 5102SOL    HW216206   5.089   5.726   4.573
 5103SOL     OW16207   0.720   1.550   4.481
 5103SOL    HW116208   0.621   1.560   4.476
 5103SOL    HW216209   0.763   1.610   4.414
 5104SOL     OW16210   3.207   5.937   1.767
 5104SOL    HW116211   3.282   5.980   1.717
 5104SOL    HW216212   3.220   5.837   1.766
 5105SOL     OW16213   3.299   3.081   6.264
 5105SOL    HW116214   3.311   3.085   6.363
 5105SOL    HW216215   3.315   3.171   6.224
 5106SOL     OW16216   3.989   1.802   1.095
 5106SOL    HW116217   3.986   1.825   1.193
 5106SOL    HW216218   4.026   1.880   1.044
 5107SOL     OW16219   5.304   2.072   1.050
 5107SOL    HW116220   5.236   2.043   0.982
 5107SOL    HW216221   5.258   2.091   1.137
 5108SOL     OW16222   4.395   4.122   5.318
 5108SOL    HW116223   4.306   4.145   5.277
 5108SOL    HW216224   4.384   4.045   5.380
 5109SOL     OW16225   1.122   2.633   0.976
 5109SOL    HW116226   1.059   2.564   0.940
 5109SOL    HW216227   1.069   2.705   1.022
 5110SOL     OW16228   7.013   0.371   6.310
 5110SOL    HW116229   0.060   0.357   6.379
 5110SOL    HW216230   7.012   0.468   6.282
 5111SOL     OW16231   1.352   6.952   4.159
 5111SOL    HW116232   1.410   0.004   4.130
 5111SOL    HW216233   1.334   6.892   4.081
 5112SOL     OW16234   0.346   0.397   2.765
 5112SOL    HW116235   0.287   0.476   2.755
 5112SOL    HW216236   0.290   0.314   2.765
 5113SOL     OW16237   1.382   6.045   1.381
 5113SOL    HW116238   1.380   5.948   1.403
 5113SOL    HW216239   1.474   6.071   1.352
 5114SOL     OW16240   3.962   6.733   0.355
 5114SOL    HW116241   4.010   6.794   0.292
 5114SOL    HW216242   3.930   6.786   0.434
 5115SOL     OW16243   1.827   4.067   2.122
 5115SOL    HW116244   1.806   4.101   2.031
 5115SOL    HW216245   1.813   4.140   2.189
 5116SOL     OW16246   2.167   6.705   6.920
 5116SOL    HW116247   2.225   6.713   6.839
 5116SOL    HW216248   2.223   6.716   7.002
 5117SOL     OW16249   1.084   3.745   3.770
 5117SOL    HW116250   1.156   3.743   3.839
 5117SOL    HW216251   1.023   3.667   3.782
 5118SOL     OW16252   5.521   6.888   0.213
 5118SOL    HW116253   5.492   6.861   0.122
 5118SOL    HW216254   5.616   6.919   0.210
 5119SOL     OW16255   4.659   1.635   1.470
 5119SOL    HW116256   4.728   1.566   1.493
 5119SOL    HW216257   4.704   1.719   1.439
 5120SOL     OW16258   4.529   6.721   5.300
 5120SOL    HW116259   4.431   6.730   5.316
 5120SOL    HW216260   4.575   6.706   5.387
 5121SOL     OW16261   3.596   3.309   0.332
 5121SOL    HW116262   3.516   3.364   0.309
 5121SOL    HW216263   3.593   3.285   0.429
 5122SOL     OW16264   3.906   5.961   3.005
 5122SOL    HW116265   3.964   5.975   2.924
 5122SOL    HW216266   3.943   5.884   3.058
 5123SOL     OW16267   5.548   2.418   3.768
 5123SOL    HW116268   5.458   2.379   3.789
 5123SOL    HW216269   5.541   2.475   3.685
 5124SOL     OW16270   1.926   6.532   3.574
 5124SOL    HW116271   1.968   6.471   3.642
 5124SOL    HW216272   1.907   6.620   3.616
 5125SOL     OW16273   0.241   2.048   2.982
 5125SOL    HW116274   0.304   1.980   3.020
 5125SOL    HW216275   0.264   2.138   3.018
 5126SOL     OW16276   1.009   6.470   0.053
 5126SOL    HW116277   0.997   6.372   0.066
 5126SOL    HW216278   1.106   6.494   0.059
 5127SOL     OW16279   0.843   5.546   6.859
 5127SOL    HW116280   0.839   5.606   6.779
 5127SOL    HW216281   0.811   5.595   6.940
 5128SOL     OW16282   6.468   6.678   0.822
 5128SOL    HW116283   6.503   6.661   0.730
 5128SOL    HW216284   6.523   6.749   0.866
 5129SOL     OW16285   4.913   6.410   2.473
 5129SOL    HW116286   4.819   6.382   2.493
 5129SOL    HW216287   4.959   6.339   2.420
 5130SOL     OW16288   0.013   5.409   2.532
 5130SOL    HW116289   6.985   5.378   2.611
 5130SOL    HW216290   7.015   5.352   2.453
 5131SOL     OW16291   1.910   3.288   3.923
 5131SOL    HW116292   1.890   3.193   3.898
 5131SOL    HW216293   2.009   3.300   3.932
 5132SOL     OW16294   4.320   2.675   5.818
 5132SOL    HW116295   4.399   2.669   5.879
 5132SOL    HW216296   4.328   2.606   5.746
 5133SOL     OW16297   2.747   4.788   0.388
 5133SOL    HW116298   2.802   4.795   0.304
 5133SOL    HW216299   2.759   4.871   0.442
 5134SOL     OW16300   6.797   2.591   2.091
 5134SOL    HW116301   6.784   2.684   2.125
 5134SOL    HW216302   6.889   2.582   2.052
 5135SOL     OW16303   6.288   2.179   5.396
 5135SOL    HW116304   6.199   2.211   5.364
 5135SOL    HW216305   6.323   2.109   5.333
 5136SOL     OW16306   4.653   0.198   5.904
 5136SOL    HW116307   4.560   0.175   5.931
 5136SOL    HW216308   4.693   0.261   5.971
 5137SOL     OW16309   6.033   3.071   6.386
 5137SOL    HW116310   6.123   3.095   6.350
 5137SOL    HW216311   5.962   3.096   6.319
 5138SOL     OW16312   3.131   3.053   5.763
 5138SOL    HW116313   3.142   2.964   5.807
 5138SOL    HW216314   3.043   3.055   5.714
 5139SOL     OW16315   1.448   6.990   3.546
 5139SOL    HW116316   1.492   6.901   3.555
 5139SOL    HW216317   1.508   0.027   3.494
 5140SOL     OW16318   3.028   1.692   0.213
 5140SOL    HW116319   2.982   1.611   0.176
 5140SOL    HW216320   3.022   1.766   0.146
 5141SOL     OW16321   6.872   3.871   0.316
 5141SOL    HW116322   6.889   3.773   0.329
 5141SOL    HW216323   6.779   3.892   0.344
 5142SOL     OW16324   6.189   1.170   3.809
 5142SOL    HW116325   6.108   1.195   3.756
 5142SOL    HW216326   6.218   1.077   3.785
 5143SOL     OW16327   0.586   4.246   3.693
 5143SOL    HW116328   0.640   4.163   3.677
 5143SOL    HW216329   0.592   4.305   3.612
 5144SOL     OW16330   0.863   6.066   6.548
 5144SOL    HW116331   0.811   6.111   6.621
 5144SOL    HW216332   0.926   6.000   6.588
 5145SOL     OW16333   1.905   5.268   6.091
 5145SOL    HW116334   1.808   5.266   6.115
 5145SOL    HW216335   1.921   5.211   6.010
 5146SOL     OW16336   4.395   3.896   5.464
 5146SOL    HW116337   4.486   3.854   5.466
 5146SOL    HW216338   4.378   3.941   5.552
 5147SOL     OW16339   0.044   4.525   2.371
 5147SOL    HW116340   0.039   4.496   2.276
 5147SOL    HW216341   0.103   4.462   2.422
 5148SOL     OW16342   1.038   6.321   0.927
 5148SOL    HW116343   1.084   6.256   0.987
 5148SOL    HW216344   1.103   6.392   0.898
 5149SOL     OW16345   5.917   5.858   4.747
 5149SOL    HW116346   5.905   5.887   4.842
 5149SOL    HW216347   5.958   5.933   4.694
 5150SOL     OW16348   2.340   4.526   3.072
 5150SOL    HW116349   2.336   4.430   3.044
 5150SOL    HW216350   2.254   4.572   3.047
 5151SOL     OW16351   5.447   1.382   0.238
 5151SOL    HW116352   5.362   1.408   0.284
 5151SOL    HW216353   5.431   1.302   0.181
 5152SOL     OW16354   1.960   5.204   6.414
 5152SOL    HW116355   1.928   5.110   6.416
 5152SOL    HW216356   1.981   5.231   6.320
 5153SOL     OW16357   2.002   1.215   6.067
 5153SOL    HW116358   1.903   1.199   6.071
 5153SOL    HW216359   2.029   1.280   6.138
 5154SOL     OW16360   2.086   2.910   6.394
 5154SOL    HW116361   2.184   2.927   6.391
 5154SOL    HW216362   2.070   2.813   6.412
 5155SOL     OW16363   3.443   6.405   2.155
 5155SOL    HW116364   3.470   6.347   2.079
 5155SOL    HW216365   3.524   6.451   2.192
 5156SOL     OW16366   6.973   3.116   5.643
 5156SOL    HW116367   0.028   3.162   5.602
 5156SOL    HW216368   6.953   3.033   5.592
 5157SOL     OW16369   4.497   2.520   3.694
 5157SOL    HW116370   4.475   2.460   3.771
 5157SOL    HW216371   4.595   2.513   3.673
 5158SOL     OW16372   3.067   1.834   1.318
 5158SOL    HW116373   3.081   1.843   1.219
 5158SOL    HW216374   3.002   1.903   1.348
 5159SOL     OW16375   0.303   3.420   4.482
 5159SOL    HW116376   0.278   3.506   4.526
 5159SOL    HW216377   0.356   3.364   4.546
 5160SOL     OW16378   0.458   3.893   3.939
 5160SOL    HW116379   0.437   3.805   3.896
 5160SOL    HW216380   0.463   3.964   3.869
 5161SOL     OW16381   1.557   3.495   4.565
 5161SOL    HW116382   1.616   3.456   4.636
 5161SOL    HW216383   1.615   3.533   4.492
 5162SOL     OW16384   1.028   5.065   4.148
 5162SOL    HW116385   1.076   5.107   4.071
 5162SOL    HW216386   1.066   4.974   4.166
 5163SOL     OW16387   3.962   5.173   1.315
 5163SOL    HW116388   3.964   5.116   1.233
 5163SOL    HW216389   4.045   5.160   1.368
 5164SOL     OW16390   6.091   2.287   6.302
 5164SOL    HW116391   6.086   2.250   6.210
 5164SOL    HW216392   6.040   2.228   6.365
 5165SOL     OW16393   5.898   3.613   5.331
 5165SOL    HW116394   5.930   3.542   5.393
 5165SOL    HW216395   5.930   3.594   5.239
 5166SOL     OW16396   1.349   5.290   1.504
 5166SOL    HW116397   1.416   5.227   1.542
 5166SOL    HW216398   1.387   5.382   1.501
 5167SOL     OW16399   6.107   0.438   5.648
 5167SOL    HW116400   6.123   0.502   5.724
 5167SOL    HW216401   6.044   0.367   5.678
 5168SOL     OW16402   4.886   2.785   3.617
 5168SOL    HW116403   4.844   2.867   3.655
 5168SOL    HW216404   4.827   2.746   3.546
 5169SOL     OW16405   3.328   2.526   5.841
 5169SOL    HW116406   3.260   2.471   5.889
 5169SOL    HW216407   3.335   2.495   5.746
 5170SOL     OW16408   6.928   4.004   5.751
 5170SOL    HW116409   6.964   3.960   5.833
 5170SOL    HW216410   6.917   4.102   5.767
 5171SOL     OW16411   2.442   5.370   4.847
 5171SOL    HW116412   2.517   5.435   4.835
 5171SOL    HW216413   2.435   5.312   4.766
 5172SOL     OW16414   0.284   3.035   2.167
 5172SOL    HW116415   0.255   2.951   2.214
 5172SOL    HW216416   0.240   3.114   2.211
 5173SOL     OW16417   5.801   4.751   6.280
 5173SOL    HW116418   5.765   4.830   6.330
 5173SOL    HW216419   5.729   4.710   6.225
 5174SOL     OW16420   1.831   4.738   4.464
 5174SOL    HW116421   1.828   4.836   4.484
 5174SOL    HW216422   1.906   4.719   4.401
 5175SOL     OW16423   2.427   4.192   6.650
 5175SOL    HW116424   2.398   4.191   6.746
 5175SOL    HW216425   2.527   4.197   6.646
 5176SOL     OW16426   4.351   3.338   1.408
 5176SOL    HW116427   4.259   3.375   1.397
 5176SOL    HW216428   4.348   3.239   1.401
 5177SOL     OW16429   4.720   6.962   5.826
 5177SOL    HW116430   4.699   0.031   5.853
 5177SOL    HW216431   4.670   6.939   5.742
 5178SOL     OW16432   2.087   2.264   1.582
 5178SOL    HW116433   2.165   2.202   1.575
 5178SOL    HW216434   2.097   2.322   1.663
 5179SOL     OW16435   4.085   5.794   5.689
 5179SOL    HW116436   4.006   5.739   5.714
 5179SOL    HW216437   4.166   5.759   5.736
 5180SOL     OW16438   2.976   2.856   6.379
 5180SOL    HW116439   3.065   2.812   6.375
 5180SOL    HW216440   2.904   2.786   6.368
 5181SOL     OW16441   4.952   1.251   2.684
 5181SOL    HW116442   4.963   1.234   2.586
 5181SOL    HW216443   4.881   1.189   2.720
 5182SOL     OW16444   5.020   5.319   1.378
 5182SOL    HW116445   5.041   5.223   1.358
 5182SOL    HW216446   5.042   5.339   1.473
 5183SOL     OW16447   4.438   0.407   2.625
 5183SOL    HW116448   4.391   0.385   2.710
 5183SOL    HW216449   4.421   0.335   2.558
 5184SOL     OW16450   0.685   1.741   3.686
 5184SOL    HW116451   0.591   1.770   3.699
 5184SOL    HW216452   0.724   1.713   3.774
 5185SOL     OW16453   4.725   6.946   2.869
 5185SOL    HW116454   4.734   0.016   2.900
 5185SOL    HW216455   4.677   6.893   2.939
 5186SOL     OW16456   5.962   3.559   0.801
 5186SOL    HW116457   6.052   3.549   0.842
 5186SOL    HW216458   5.969   3.608   0.714
 5187SOL     OW16459   6.423   1.158   3.462
 5187SOL    HW116460   6.323   1.167   3.468
 5187SOL    HW216461   6.458   1.119   3.547
 5188SOL     OW16462   0.821   5.199   0.482
 5188SOL    HW116463   0.849   5.160   0.570
 5188SOL    HW216464   0.835   5.132   0.409
 5189SOL     OW16465   4.392   5.654   1.040
 5189SOL    HW116466   4.482   5.660   1.083
 5189SOL    HW216467   4.399   5.678   0.943
 5190SOL     OW16468   0.801   2.334   4.493
 5190SOL    HW116469   0.779   2.281   4.575
 5190SOL    HW216470   0.901   2.342   4.485
 5191SOL     OW16471   3.697   0.514   1.813
 5191SOL    HW116472   3.760   0.586   1.784
 5191SOL    HW216473   3.738   0.425   1.792
 5192SOL     OW16474   4.136   5.705   2.406
 5192SOL    HW116475   4.128   5.656   2.319
 5192SOL    HW216476   4.184   5.646   2.472
 5193SOL     OW16477   4.691   4.649   3.632
 5193SOL    HW116478   4.674   4.721   3.699
 5193SOL    HW216479   4.731   4.569   3.679
 5194SOL     OW16480   4.579   6.862   6.240
 5194SOL    HW116481   4.582   6.790   6.310
 5194SOL    HW216482   4.658   6.852   6.179
 5195SOL     OW16483   6.338   6.229   4.496
 5195SOL    HW116484   6.297   6.303   4.444
 5195SOL    HW216485   6.316   6.141   4.454
 5196SOL     OW16486   1.267   3.517   0.842
 5196SOL    HW116487   1.340   3.560   0.895
 5196SOL    HW216488   1.204   3.588   0.809
 5197SOL     OW16489   1.951   6.122   4.135
 5197SOL    HW116490   1.963   6.221   4.142
 5197SOL    HW216491   1.858   6.098   4.164
 5198SOL     OW16492   3.390   0.138   4.554
 5198SOL    HW116493   3.461   0.206   4.536
 5198SOL    HW216494   3.331   0.171   4.628
 5199SOL     OW16495   2.092   6.249   0.938
 5199SOL    HW116496   2.013   6.251   0.877
 5199SOL    HW216497   2.066   6.287   1.027
 5200SOL     OW16498   0.970   2.092   4.971
 5200SOL    HW116499   0.969   2.074   5.069
 5200SOL    HW216500   0.972   2.190   4.954
 5201SOL     OW16501   5.297   5.739   4.232
 5201SOL    HW116502   5.247   5.820   4.262
 5201SOL    HW216503   5.391   5.764   4.211
 5202SOL     OW16504   5.471   3.672   6.308
 5202SOL    HW116505   5.428   3.583   6.317
 5202SOL    HW216506   5.402   3.740   6.284
 5203SOL     OW16507   1.633   0.703   6.427
 5203SOL    HW116508   1.700   0.735   6.495
 5203SOL    HW216509   1.543   0.700   6.470
 5204SOL     OW16510   3.312   6.355   6.992
 5204SOL    HW116511   3.342   6.447   7.017
 5204SOL    HW216512   3.306   6.348   6.892
 5205SOL     OW16513   6.980   5.651   6.960
 5205SOL    HW116514   0.016   5.672   6.883
 5205SOL    HW216515   0.008   5.607   0.009
 5206SOL     OW16516   0.345   5.391   5.831
 5206SOL    HW116517   0.330   5.294   5.814
 5206SOL    HW216518   0.443   5.411   5.827
 5207SOL     OW16519   0.341   0.661   3.654
 5207SOL    HW116520   0.415   0.683   3.717
 5207SOL    HW216521   0.367   0.686   3.561
 5208SOL     OW16522   4.957   2.341   0.498
 5208SOL    HW116523   5.014   2.394   0.436
 5208SOL    HW216524   4.861   2.370   0.488
 5209SOL     OW16525   5.235   0.404   2.264
 5209SOL    HW116526   5.254   0.489   2.314
 5209SOL    HW216527   5.312   0.384   2.204
 5210SOL     OW16528   5.421   4.120   1.014
 5210SOL    HW116529   5.454   4.125   0.920
 5210SOL    HW216530   5.327   4.084   1.015
 5211SOL     OW16531   5.469   1.688   4.605
 5211SOL    HW116532   5.514   1.600   4.617
 5211SOL    HW216533   5.372   1.673   4.582
 5212SOL     OW16534   1.013   2.435   0.832
 5212SOL    HW116535   1.106   2.427   0.798
 5212SOL    HW216536   0.954   2.370   0.782
 5213SOL     OW16537   4.046   3.930   1.875
 5213SOL    HW116538   3.962   3.955   1.827
 5213SOL    HW216539   4.125   3.967   1.826
 5214SOL     OW16540   4.915   4.131   5.962
 5214SOL    HW116541   4.905   4.101   6.057
 5214SOL    HW216542   5.005   4.103   5.928
 5215SOL     OW16543   0.174   3.818   3.918
 5215SOL    HW116544   0.092   3.804   3.973
 5215SOL    HW216545   0.239   3.875   3.968
 5216SOL     OW16546   4.726   5.614   1.243
 5216SOL    HW116547   4.733   5.704   1.200
 5216SOL    HW216548   4.780   5.612   1.327
 5217SOL     OW16549   3.985   5.682   4.444
 5217SOL    HW116550   3.963   5.714   4.537
 5217SOL    HW216551   3.900   5.665   4.395
 5218SOL     OW16552   0.344   1.491   0.898
 5218SOL    HW116553   0.273   1.519   0.834
 5218SOL    HW216554   0.304   1.481   0.989
 5219SOL     OW16555   3.407   1.492   4.727
 5219SOL    HW116556   3.505   1.491   4.705
 5219SOL    HW216557   3.383   1.582   4.762
 5220SOL     OW16558   1.636   4.763   3.216
 5220SOL    HW116559   1.591   4.712   3.143
 5220SOL    HW216560   1.727   4.725   3.231
 5221SOL     OW16561   0.220   0.265   1.969
 5221SOL    HW116562   0.282   0.277   1.892
 5221SOL    HW216563   0.266   0.295   2.053
 5222SOL     OW16564   3.901   5.652   2.526
 5222SOL    HW116565   3.842   5.649   2.446
 5222SOL    HW216566   3.994   5.677   2.499
 5223SOL     OW16567   6.916   2.502   1.160
 5223SOL    HW116568   6.952   2.577   1.105
 5223SOL    HW216569   6.912   2.418   1.106
 5224SOL     OW16570   0.360   2.164   4.478
 5224SOL    HW116571   0.357   2.100   4.555
 5224SOL    HW216572   0.268   2.191   4.452
 5225SOL     OW16573   0.249   1.109   4.375
 5225SOL    HW116574   0.290   1.021   4.400
 5225SOL    HW216575   0.221   1.157   4.458
 5226SOL     OW16576   0.036   6.049   3.344
 5226SOL    HW116577   0.045   6.146   3.324
 5226SOL    HW216578   0.080   6.029   3.432
 5227SOL     OW16579   0.224   3.434   5.867
 5227SOL    HW116580   0.146   3.498   5.869
 5227SOL    HW216581   0.289   3.457   5.939
 5228SOL     OW16582   0.808   2.505   6.756
 5228SOL    HW116583   0.711   2.478   6.762
 5228SOL    HW216584   0.862   2.451   6.820
 5229SOL     OW16585   2.975   6.179   6.479
 5229SOL    HW116586   2.914   6.116   6.528
 5229SOL    HW216587   3.048   6.209   6.540
 5230SOL     OW16588   6.385   0.174   2.753
 5230SOL    HW116589   6.386   0.274   2.758
 5230SOL    HW216590   6.421   0.136   2.838
 5231SOL     OW16591   4.813   2.061   3.431
 5231SOL    HW116592   4.777   2.079   3.340
 5231SOL    HW216593   4.843   1.966   3.437
 5232SOL     OW16594   1.788   4.216   6.111
 5232SOL    HW116595   1.715   4.180   6.169
 5232SOL    HW216596   1.874   4.171   6.135
 5233SOL     OW16597   3.282   1.067   1.645
 5233SOL    HW116598   3.233   1.043   1.729
 5233SOL    HW216599   3.311   1.163   1.648
 5234SOL     OW16600   3.274   3.077   6.528
 5234SOL    HW116601   3.263   3.176   6.534
 5234SOL    HW216602   3.251   3.036   6.615
 5235SOL     OW16603   1.919   2.022   0.648
 5235SOL    HW116604   1.922   2.112   0.691
 5235SOL    HW216605   1.990   1.964   0.686
 5236SOL     OW16606   3.169   5.079   1.830
 5236SOL    HW116607   3.104   5.043   1.897
 5236SOL    HW216608   3.262   5.054   1.857
 5237SOL     OW16609   2.429   1.431   4.622
 5237SOL    HW116610   2.369   1.350   4.617
 5237SOL    HW216611   2.469   1.436   4.714
 5238SOL     OW16612   1.037   4.966   1.447
 5238SOL    HW116613   1.107   4.904   1.410
 5238SOL    HW216614   1.037   5.051   1.394
 5239SOL     OW16615   3.262   3.481   1.131
 5239SOL    HW116616   3.239   3.574   1.161
 5239SOL    HW216617   3.268   3.421   1.211
 5240SOL     OW16618   2.628   2.529   5.566
 5240SOL    HW116619   2.624   2.476   5.482
 5240SOL    HW216620   2.721   2.528   5.602
 5241SOL     OW16621   0.610   5.849   2.404
 5241SOL    HW116622   0.664   5.795   2.339
 5241SOL    HW216623   0.638   5.944   2.399
 5242SOL     OW16624   4.755   0.213   1.809
 5242SOL    HW116625   4.782   0.243   1.717
 5242SOL    HW216626   4.717   0.121   1.804
 5243SOL     OW16627   2.080   6.160   2.097
 5243SOL    HW116628   2.012   6.166   2.023
 5243SOL    HW216629   2.131   6.075   2.089
 5244SOL     OW16630   5.181   3.319   0.503
 5244SOL    HW116631   5.122   3.260   0.559
 5244SOL    HW216632   5.250   3.362   0.561
 5245SOL     OW16633   4.039   4.272   0.503
 5245SOL    HW116634   4.024   4.176   0.526
 5245SOL    HW216635   3.952   4.319   0.496
 5246SOL     OW16636   5.945   2.394   2.197
 5246SOL    HW116637   5.852   2.402   2.161
 5246SOL    HW216638   6.004   2.353   2.128
 5247SOL     OW16639   3.797   0.966   5.736
 5247SOL    HW116640   3.751   1.001   5.819
 5247SOL    HW216641   3.750   1.001   5.655
 5248SOL     OW16642   0.181   1.660   3.175
 5248SOL    HW116643   0.189   1.719   3.255
 5248SOL    HW216644   0.267   1.663   3.123
 5249SOL     OW16645   1.709   5.513   6.699
 5249SOL    HW116646   1.620   5.531   6.657
 5249SOL    HW216647   1.721   5.572   6.778
 5250SOL     OW16648   1.239   5.675   0.321
 5250SOL    HW116649   1.182   5.755   0.338
 5250SOL    HW216650   1.332   5.704   0.297
 5251SOL     OW16651   0.735   4.669   0.906
 5251SOL    HW116652   0.744   4.764   0.876
 5251SOL    HW216653   0.788   4.610   0.845
 5252SOL     OW16654   3.056   6.684   2.050
 5252SOL    HW116655   3.086   6.646   2.138
 5252SOL    HW216656   3.082   6.780   2.045
 5253SOL     OW16657   6.468   4.072   4.781
 5253SOL    HW116658   6.551   4.031   4.818
 5253SOL    HW216659   6.482   4.095   4.685
 5254SOL     OW16660   6.302   0.440   3.702
 5254SOL    HW116661   6.307   0.540   3.711
 5254SOL    HW216662   6.383   0.399   3.742
 5255SOL     OW16663   5.350   2.242   4.908
 5255SOL    HW116664   5.443   2.278   4.901
 5255SOL    HW216665   5.287   2.317   4.929
 5256SOL     OW16666   5.059   1.782   3.960
 5256SOL    HW116667   5.021   1.745   3.875
 5256SOL    HW216668   5.016   1.737   4.038
 5257SOL     OW16669   4.940   6.814   1.240
 5257SOL    HW116670   5.024   6.794   1.291
 5257SOL    HW216671   4.962   6.866   1.158
 5258SOL     OW16672   5.163   2.128   3.227
 5258SOL    HW116673   5.088   2.104   3.166
 5258SOL    HW216674   5.220   2.198   3.185
 5259SOL     OW16675   4.763   5.502   2.647
 5259SOL    HW116676   4.719   5.573   2.592
 5259SOL    HW216677   4.846   5.539   2.689
 5260SOL     OW16678   3.848   5.646   0.292
 5260SOL    HW116679   3.948   5.649   0.292
 5260SOL    HW216680   3.818   5.552   0.309
 5261SOL     OW16681   0.476   4.202   6.734
 5261SOL    HW116682   0.522   4.210   6.645
 5261SOL    HW216683   0.531   4.247   6.804
 5262SOL     OW16684   2.719   0.671   3.491
 5262SOL    HW116685   2.797   0.734   3.490
 5262SOL    HW216686   2.660   0.693   3.569
 5263SOL     OW16687   1.724   1.326   2.509
 5263SOL    HW116688   1.786   1.373   2.446
 5263SOL    HW216689   1.758   1.233   2.525
 5264SOL     OW16690   6.714   2.408   1.739
 5264SOL    HW116691   6.716   2.351   1.821
 5264SOL    HW216692   6.641   2.377   1.678
 5265SOL     OW16693   6.175   3.242   4.705
 5265SOL    HW116694   6.212   3.189   4.781
 5265SOL    HW216695   6.239   3.314   4.680
 5266SOL     OW16696   3.024   5.763   0.781
 5266SOL    HW116697   3.021   5.862   0.771
 5266SOL    HW216698   3.035   5.739   0.877
 5267SOL     OW16699   4.674   2.308   4.669
 5267SOL    HW116700   4.628   2.339   4.752
 5267SOL    HW216701   4.606   2.269   4.606
 5268SOL     OW16702   5.100   0.459   6.608
 5268SOL    HW116703   5.016   0.405   6.602
 5268SOL    HW216704   5.081   0.545   6.655
 5269SOL     OW16705   0.850   6.312   2.230
 5269SOL    HW116706   0.794   6.239   2.268
 5269SOL    HW216707   0.913   6.274   2.163
 5270SOL     OW16708   5.702   1.576   1.559
 5270SOL    HW116709   5.629   1.621   1.507
 5270SOL    HW216710   5.771   1.542   1.496
 5271SOL     OW16711   5.911   4.858   5.290
 5271SOL    HW116712   5.934   4.859   5.388
 5271SOL    HW216713   5.819   4.897   5.277
 5272SOL     OW16714   3.280   5.505   1.406
 5272SOL    HW116715   3.254   5.582   1.347
 5272SOL    HW216716   3.202   5.445   1.419
 5273SOL     OW16717   0.593   3.497   2.534
 5273SOL    HW116718   0.585   3.516   2.437
 5273SOL    HW216719   0.579   3.580   2.587
 5274SOL     OW16720   5.209   6.893   2.883
 5274SOL    HW116721   5.263   6.869   2.963
 5274SOL    HW216722   5.182   6.809   2.835
 5275SOL     OW16723   3.534   1.517   0.707
 5275SOL    HW116724   3.484   1.503   0.792
 5275SOL    HW216725   3.472   1.551   0.636
 5276SOL     OW16726   2.079   0.410   1.424
 5276SOL    HW116727   2.129   0.389   1.507
 5276SOL    HW216728   2.138   0.460   1.360
 5277SOL     OW16729   2.647   0.839   2.908
 5277SOL    HW116730   2.586   0.918   2.919
 5277SOL    HW216731   2.607   0.760   2.955
 5278SOL     OW16732   4.937   5.301   3.838
 5278SOL    HW116733   5.016   5.305   3.899
 5278SOL    HW216734   4.903   5.207   3.833
 5279SOL     OW16735   2.730   5.900   1.043
 5279SOL    HW116736   2.807   5.962   1.058
 5279SOL    HW216737   2.707   5.853   1.128
 5280SOL     OW16738   3.029   6.094   4.698
 5280SOL    HW116739   3.073   6.009   4.724
 5280SOL    HW216740   2.930   6.081   4.694
 5281SOL     OW16741   6.051   2.117   2.409
 5281SOL    HW116742   6.057   2.027   2.452
 5281SOL    HW216743   6.035   2.107   2.311
 5282SOL     OW16744   2.910   1.484   3.738
 5282SOL    HW116745   2.930   1.556   3.672
 5282SOL    HW216746   2.849   1.519   3.809
 5283SOL     OW16747   4.840   6.817   1.783
 5283SOL    HW116748   4.888   6.901   1.809
 5283SOL    HW216749   4.865   6.744   1.847
 5284SOL     OW16750   5.379   4.274   3.045
 5284SOL    HW116751   5.340   4.183   3.036
 5284SOL    HW216752   5.319   4.332   3.100
 5285SOL     OW16753   3.091   4.836   4.099
 5285SOL    HW116754   3.084   4.869   4.005
 5285SOL    HW216755   3.168   4.773   4.107
 5286SOL     OW16756   2.324   4.013   1.264
 5286SOL    HW116757   2.302   3.925   1.221
 5286SOL    HW216758   2.285   4.087   1.211
 5287SOL     OW16759   2.519   1.426   0.955
 5287SOL    HW116760   2.559   1.472   1.034
 5287SOL    HW216761   2.566   1.455   0.872
 5288SOL     OW16762   4.043   0.325   1.567
 5288SOL    HW116763   4.024   0.346   1.470
 5288SOL    HW216764   4.063   0.227   1.576
 5289SOL     OW16765   1.408   4.733   0.367
 5289SOL    HW116766   1.385   4.810   0.308
 5289SOL    HW216767   1.505   4.712   0.358
 5290SOL     OW16768   2.931   5.623   6.730
 5290SOL    HW116769   2.902   5.558   6.800
 5290SOL    HW216770   3.024   5.654   6.749
 5291SOL     OW16771   2.315   5.402   5.464
 5291SOL    HW116772   2.290   5.495   5.437
 5291SOL    HW216773   2.379   5.406   5.541
 5292SOL     OW16774   6.110   3.249   0.150
 5292SOL    HW116775   6.119   3.233   0.051
 5292SOL    HW216776   6.056   3.175   0.190
 5293SOL     OW16777   0.555   1.128   5.192
 5293SOL    HW116778   0.533   1.159   5.099
 5293SOL    HW216779   0.576   1.208   5.249
 5294SOL     OW16780   5.728   3.276   6.692
 5294SOL    HW116781   5.641   3.324   6.678
 5294SOL    HW216782   5.768   3.306   6.779
 5295SOL     OW16783   5.517   1.269   3.156
 5295SOL    HW116784   5.472   1.185   3.126
 5295SOL    HW216785   5.519   1.335   3.081
 5296SOL     OW16786   1.696   4.978   0.000
 5296SOL    HW116787   1.771   5.011   6.968
 5296SOL    HW216788   1.619   4.952   6.967
 5297SOL     OW16789   2.354   1.838   0.855
 5297SOL    HW116790   2.439   1.863   0.902
 5297SOL    HW216791   2.325   1.913   0.797
 5298SOL     OW16792   6.488   5.258   2.187
 5298SOL    HW116793   6.435   5.332   2.228
 5298SOL    HW216794   6.585   5.273   2.202
 5299SOL     OW16795   2.672   0.837   1.603
 5299SOL    HW116796   2.595   0.896   1.626
 5299SOL    HW216797   2.641   0.761   1.546
 5300SOL     OW16798   0.357   5.403   3.065
 5300SOL    HW116799   0.393   5.317   3.102
 5300SOL    HW216800   0.293   5.383   2.991
 5301SOL     OW16801   4.158   1.623   6.850
 5301SOL    HW116802   4.121   1.531   6.863
 5301SOL    HW216803   4.158   1.672   6.938
 5302SOL     OW16804   6.438   3.962   2.435
 5302SOL    HW116805   6.408   3.929   2.346
 5302SOL    HW216806   6.457   4.060   2.430
 5303SOL     OW16807   6.297   5.405   3.805
 5303SOL    HW116808   6.213   5.377   3.850
 5303SOL    HW216809   6.300   5.505   3.798
 5304SOL     OW16810   5.231   2.225   6.171
 5304SOL    HW116811   5.327   2.251   6.171
 5304SOL    HW216812   5.190   2.248   6.260
 5305SOL     OW16813   1.845   0.625   4.182
 5305SOL    HW116814   1.751   0.626   4.214
 5305SOL    HW216815   1.863   0.707   4.127
 5306SOL     OW16816   2.480   5.832   5.585
 5306SOL    HW116817   2.392   5.841   5.537
 5306SOL    HW216818   2.464   5.832   5.684
 5307SOL     OW16819   4.497   6.313   6.089
 5307SOL    HW116820   4.420   6.377   6.092
 5307SOL    HW216821   4.568   6.344   6.152
 5308SOL     OW16822   0.425   0.547   4.058
 5308SOL    HW116823   0.433   0.478   4.130
 5308SOL    HW216824   0.333   0.543   4.019
 5309SOL     OW16825   3.811   3.907   3.290
 5309SOL    HW116826   3.796   3.808   3.295
 5309SOL    HW216827   3.741   3.948   3.231
 5310SOL     OW16828   4.992   2.516   1.647
 5310SOL    HW116829   5.033   2.575   1.716
 5310SOL    HW216830   5.044   2.523   1.562
 5311SOL     OW16831   1.535   5.442   6.951
 5311SOL    HW116832   1.514   5.375   6.880
 5311SOL    HW216833   1.620   5.416   6.998
 5312SOL     OW16834   0.947   4.726   2.254
 5312SOL    HW116835   0.936   4.801   2.190
 5312SOL    HW216836   0.938   4.760   2.348
 5313SOL     OW16837   0.840   6.134   6.926
 5313SOL    HW116838   0.798   6.197   6.991
 5313SOL    HW216839   0.930   6.168   6.899
 5314SOL     OW16840   4.395   5.175   0.326
 5314SOL    HW116841   4.383   5.236   0.247
 5314SOL    HW216842   4.462   5.104   0.304
 5315SOL     OW16843   4.752   4.237   2.016
 5315SOL    HW116844   4.791   4.234   1.924
 5315SOL    HW216845   4.654   4.259   2.009
 5316SOL     OW16846   6.938   5.439   4.824
 5316SOL    HW116847   6.885   5.519   4.797
 5316SOL    HW216848   6.982   5.399   4.743
 5317SOL     OW16849   5.787   1.172   3.227
 5317SOL    HW116850   5.709   1.229   3.203
 5317SOL    HW216851   5.847   1.163   3.147
 5318SOL     OW16852   6.900   2.758   5.040
 5318SOL    HW116853   6.895   2.730   5.136
 5318SOL    HW216854   6.865   2.684   4.982
 5319SOL     OW16855   5.439   6.826   6.924
 5319SOL    HW116856   5.523   6.804   6.874
 5319SOL    HW216857   5.361   6.785   6.877
 5320SOL     OW16858   6.153   4.022   6.527
 5320SOL    HW116859   6.136   4.117   6.499
 5320SOL    HW216860   6.066   3.978   6.550
 5321SOL     OW16861   1.508   5.085   4.407
 5321SOL    HW116862   1.420   5.049   4.378
 5321SOL    HW216863   1.550   5.022   4.472
 5322SOL     OW16864   3.913   6.437   6.713
 5322SOL    HW116865   3.968   6.354   6.724
 5322SOL    HW216866   3.945   6.507   6.777
 5323SOL     OW16867   4.357   2.233   0.604
 5323SOL    HW116868   4.271   2.248   0.557
 5323SOL    HW216869   4.408   2.319   0.610
 5324SOL     OW16870   3.907   2.425   1.685
 5324SOL    HW116871   3.876   2.479   1.608
 5324SOL    HW216872   3.832   2.413   1.750
 5325SOL     OW16873   4.753   6.629   2.468
 5325SOL    HW116874   4.819   6.555   2.465
 5325SOL    HW216875   4.796   6.714   2.435
 5326SOL     OW16876   6.905   5.573   1.691
 5326SOL    HW116877   6.983   5.520   1.725
 5326SOL    HW216878   6.903   5.568   1.591
 5327SOL     OW16879   0.451   6.877   4.709
 5327SOL    HW116880   0.415   6.968   4.727
 5327SOL    HW216881   0.544   6.869   4.746
 5328SOL     OW16882   4.135   3.372   6.474
 5328SOL    HW116883   4.188   3.403   6.553
 5328SOL    HW216884   4.063   3.309   6.505
 5329SOL     OW16885   0.616   4.688   6.998
 5329SOL    HW116886   0.644   4.610   0.029
 5329SOL    HW216887   0.534   4.664   6.945
 5330SOL     OW16888   3.694   3.550   0.585
 5330SOL    HW116889   3.604   3.590   0.605
 5330SOL    HW216890   3.692   3.452   0.608
 5331SOL     OW16891   4.777   2.026   0.565
 5331SOL    HW116892   4.809   2.089   0.636
 5331SOL    HW216893   4.855   1.974   0.530
 5332SOL     OW16894   6.365   4.959   0.246
 5332SOL    HW116895   6.335   4.955   0.342
 5332SOL    HW216896   6.370   4.867   0.209
 5333SOL     OW16897   2.214   1.414   3.618
 5333SOL    HW116898   2.297   1.457   3.583
 5333SOL    HW216899   2.134   1.467   3.588
 5334SOL     OW16900   4.330   4.985   3.332
 5334SOL    HW116901   4.280   5.004   3.417
 5334SOL    HW216902   4.279   4.919   3.277
 5335SOL     OW16903   6.755   4.413   2.451
 5335SOL    HW116904   6.827   4.423   2.519
 5335SOL    HW216905   6.742   4.499   2.403
 5336SOL     OW16906   1.990   1.850   4.044
 5336SOL    HW116907   1.919   1.809   3.988
 5336SOL    HW216908   1.979   1.819   4.139
 5337SOL     OW16909   6.155   4.270   1.538
 5337SOL    HW116910   6.160   4.221   1.451
 5337SOL    HW216911   6.206   4.356   1.531
 5338SOL     OW16912   6.201   2.746   7.002
 5338SOL    HW116913   6.238   2.657   0.003
 5338SOL    HW216914   6.258   2.786   6.930
 5339SOL     OW16915   5.822   2.273   2.519
 5339SOL    HW116916   5.770   2.255   2.435
 5339SOL    HW216917   5.914   2.235   2.511
 5340SOL     OW16918   5.594   2.900   2.099
 5340SOL    HW116919   5.666   2.876   2.164
 5340SOL    HW216920   5.622   2.873   2.007
 5341SOL     OW16921   4.552   4.805   3.279
 5341SOL    HW116922   4.506   4.731   3.328
 5341SOL    HW216923   4.493   4.885   3.274
 5342SOL     OW16924   5.832   7.017   5.848
 5342SOL    HW116925   5.737   7.021   5.817
 5342SOL    HW216926   5.845   6.935   5.904
 5343SOL     OW16927   3.816   3.546   5.775
 5343SOL    HW116928   3.762   3.621   5.737
 5343SOL    HW216929   3.786   3.460   5.735
 5344SOL     OW16930   0.689   1.375   0.116
 5344SOL    HW116931   0.657   1.281   0.130
 5344SOL    HW216932   0.785   1.375   0.089
 5345SOL     OW16933   4.790   1.605   6.503
 5345SOL    HW116934   4.713   1.670   6.507
 5345SOL    HW216935   4.824   1.601   6.409
 5346SOL     OW16936   2.930   5.164   3.915
 5346SOL    HW116937   2.849   5.143   3.969
 5346SOL    HW216938   2.929   5.261   3.888
 5347SOL     OW16939   6.503   2.433   3.779
 5347SOL    HW116940   6.409   2.444   3.746
 5347SOL    HW216941   6.561   2.503   3.738
 5348SOL     OW16942   5.537   1.826   4.346
 5348SOL    HW116943   5.488   1.908   4.377
 5348SOL    HW216944   5.514   1.749   4.405
 5349SOL     OW16945   0.805   2.776   1.953
 5349SOL    HW116946   0.890   2.767   2.004
 5349SOL    HW216947   0.825   2.811   1.861
 5350SOL     OW16948   1.796   6.701   5.657
 5350SOL    HW116949   1.766   6.612   5.688
 5350SOL    HW216950   1.793   6.766   5.733
 5351SOL     OW16951   0.324   5.338   1.410
 5351SOL    HW116952   0.341   5.243   1.384
 5351SOL    HW216953   0.411   5.383   1.431
 5352SOL     OW16954   1.841   4.163   3.534
 5352SOL    HW116955   1.761   4.222   3.531
 5352SOL    HW216956   1.815   4.070   3.508
 5353SOL     OW16957   4.436   5.431   3.452
 5353SOL    HW116958   4.445   5.358   3.385
 5353SOL    HW216959   4.477   5.403   3.538
 5354SOL     OW16960   3.580   5.174   0.880
 5354SOL    HW116961   3.526   5.162   0.963
 5354SOL    HW216962   3.597   5.085   0.837
 5355SOL     OW16963   5.294   5.466   5.423
 5355SOL    HW116964   5.221   5.437   5.360
 5355SOL    HW216965   5.370   5.401   5.417
 5356SOL     OW16966   0.164   4.343   1.866
 5356SOL    HW116967   0.231   4.272   1.846
 5356SOL    HW216968   0.107   4.315   1.943
 5357SOL     OW16969   4.610   4.883   2.180
 5357SOL    HW116970   4.534   4.945   2.198
 5357SOL    HW216971   4.605   4.851   2.085
 5358SOL     OW16972   4.270   1.782   0.032
 5358SOL    HW116973   4.335   1.810   6.986
 5358SOL    HW216974   4.309   1.798   0.123
 5359SOL     OW16975   2.001   1.471   0.345
 5359SOL    HW116976   1.959   1.554   0.309
 5359SOL    HW216977   2.048   1.423   0.270
 5360SOL     OW16978   5.683   5.206   4.080
 5360SOL    HW116979   5.609   5.151   4.119
 5360SOL    HW216980   5.681   5.298   4.119
 5361SOL     OW16981   3.505   6.423   2.574
 5361SOL    HW116982   3.436   6.442   2.644
 5361SOL    HW216983   3.566   6.351   2.607
 5362SOL     OW16984   5.148   6.537   2.244
 5362SOL    HW116985   5.050   6.550   2.256
 5362SOL    HW216986   5.164   6.468   2.174
 5363SOL     OW16987   5.615   6.086   4.892
 5363SOL    HW116988   5.686   6.038   4.943
 5363SOL    HW216989   5.617   6.184   4.915
 5364SOL     OW16990   5.320   0.577   2.791
 5364SOL    HW116991   5.221   0.578   2.804
 5364SOL    HW216992   5.366   0.582   2.880
 5365SOL     OW16993   3.101   3.039   3.411
 5365SOL    HW116994   3.091   3.103   3.487
 5365SOL    HW216995   3.064   2.950   3.436
 5366SOL     OW16996   6.953   0.246   1.603
 5366SOL    HW116997   0.014   0.298   1.605
 5366SOL    HW216998   6.884   0.295   1.550
 5367SOL     OW16999   6.328   0.016   0.684
 5367SOL    HW117000   6.238   6.999   0.698
 5367SOL    HW217001   6.365   7.009   0.597
 5368SOL     OW17002   6.568   5.914   2.160
 5368SOL    HW117003   6.572   5.955   2.069
 5368SOL    HW217004   6.640   5.953   2.218
 5369SOL     OW17005   2.661   5.075   2.087
 5369SOL    HW117006   2.754   5.041   2.100
 5369SOL    HW217007   2.601   5.000   2.058
 5370SOL     OW17008   3.699   4.002   1.391
 5370SOL    HW117009   3.772   4.070   1.379
 5370SOL    HW217010   3.663   4.008   1.484
 5371SOL     OW17011   6.858   5.043   5.182
 5371SOL    HW117012   6.786   5.036   5.251
 5371SOL    HW217013   6.939   5.085   5.222
 5372SOL     OW17014   1.662   0.252   2.791
 5372SOL    HW117015   1.665   0.302   2.877
 5372SOL    HW217016   1.617   0.164   2.805
 5373SOL     OW17017   4.123   6.612   5.886
 5373SOL    HW117018   4.175   6.539   5.931
 5373SOL    HW217019   4.161   6.628   5.795
 5374SOL     OW17020   2.618   5.298   1.497
 5374SOL    HW117021   2.605   5.393   1.466
 5374SOL    HW217022   2.701   5.261   1.454
 5375SOL     OW17023   0.528   6.614   4.940
 5375SOL    HW117024   0.617   6.576   4.915
 5375SOL    HW217025   0.491   6.562   5.017
 5376SOL     OW17026   1.080   1.968   0.596
 5376SOL    HW117027   1.027   2.026   0.534
 5376SOL    HW217028   1.103   2.020   0.678
 5377SOL     OW17029   2.154   0.844   2.633
 5377SOL    HW117030   2.064   0.885   2.649
 5377SOL    HW217031   2.187   0.872   2.543
 5378SOL     OW17032   5.936   0.871   1.164
 5378SOL    HW117033   5.880   0.875   1.246
 5378SOL    HW217034   6.005   0.799   1.173
 5379SOL     OW17035   1.195   2.987   5.585
 5379SOL    HW117036   1.208   2.924   5.508
 5379SOL    HW217037   1.114   2.960   5.636
 5380SOL     OW17038   3.934   0.372   1.303
 5380SOL    HW117039   3.836   0.356   1.295
 5380SOL    HW217040   3.982   0.323   1.230
 5381SOL     OW17041   5.277   6.588   3.098
 5381SOL    HW117042   5.177   6.586   3.093
 5381SOL    HW217043   5.315   6.526   3.029
 5382SOL     OW17044   4.159   1.687   2.925
 5382SOL    HW117045   4.164   1.738   2.839
 5382SOL    HW217046   4.103   1.605   2.911
 5383SOL     OW17047   1.283   3.046   3.967
 5383SOL    HW117048   1.243   2.964   3.928
 5383SOL    HW217049   1.338   3.021   4.048
 5384SOL     OW17050   4.595   6.052   5.419
 5384SOL    HW117051   4.598   6.084   5.324
 5384SOL    HW217052   4.500   6.054   5.452
 5385SOL     OW17053   6.614   2.587   5.958
 5385SOL    HW117054   6.626   2.493   5.923
 5385SOL    HW217055   6.561   2.585   6.042
 5386SOL     OW17056   6.204   3.113   4.010
 5386SOL    HW117057   6.151   3.142   3.930
 5386SOL    HW217058   6.297   3.149   4.003
 5387SOL     OW17059   2.744   0.302   2.107
 5387SOL    HW117060   2.723   0.267   2.015
 5387SOL    HW217061   2.691   0.252   2.175
 5388SOL     OW17062   0.727   6.161   2.843
 5388SOL    HW117063   0.720   6.257   2.872
 5388SOL    HW217064   0.707   6.101   2.921
 5389SOL     OW17065   4.317   1.804   4.715
 5389SOL    HW117066   4.380   1.783   4.640
 5389SOL    HW217067   4.243   1.861   4.681
 5390SOL     OW17068   6.535   3.490   4.069
 5390SOL    HW117069   6.528   3.558   3.997
 5390SOL    HW217070   6.471   3.415   4.051
 5391SOL     OW17071   2.342   1.990   0.131
 5391SOL    HW117072   2.385   2.071   0.091
 5391SOL    HW217073   2.386   1.907   0.096
 5392SOL     OW17074   4.369   2.018   3.422
 5392SOL    HW117075   4.281   2.061   3.402
 5392SOL    HW217076   4.355   1.922   3.444
 5393SOL     OW17077   4.143   0.745   5.254
 5393SOL    HW117078   4.132   0.794   5.167
 5393SOL    HW217079   4.214   0.790   5.308
 5394SOL     OW17080   1.759   6.977   0.777
 5394SOL    HW117081   1.814   7.006   0.699
 5394SOL    HW217082   1.800   7.014   0.861
 5395SOL     OW17083   5.341   1.659   1.497
 5395SOL    HW117084   5.363   1.711   1.580
 5395SOL    HW217085   5.257   1.607   1.512
 5396SOL     OW17086   6.036   5.386   2.700
 5396SOL    HW117087   6.054   5.428   2.789
 5396SOL    HW217088   6.087   5.435   2.629
 5397SOL     OW17089   6.067   1.452   2.979
 5397SOL    HW117090   6.023   1.363   2.974
 5397SOL    HW217091   6.127   1.456   3.059
 5398SOL     OW17092   4.654   2.191   3.937
 5398SOL    HW117093   4.639   2.108   3.883
 5398SOL    HW217094   4.739   2.182   3.990
 5399SOL     OW17095   1.838   0.121   5.398
 5399SOL    HW117096   1.932   0.085   5.402
 5399SOL    HW217097   1.812   0.131   5.302
 5400SOL     OW17098   3.366   3.079   1.262
 5400SOL    HW117099   3.449   3.029   1.286
 5400SOL    HW217100   3.356   3.081   1.162
 5401SOL     OW17101   5.177   4.420   2.695
 5401SOL    HW117102   5.196   4.485   2.769
 5401SOL    HW217103   5.109   4.354   2.726
 5402SOL     OW17104   2.301   0.007   0.553
 5402SOL    HW117105   2.362   0.039   0.481
 5402SOL    HW217106   2.353   7.020   0.638
 5403SOL     OW17107   5.098   3.201   0.100
 5403SOL    HW117108   5.119   3.110   0.066
 5403SOL    HW217109   5.170   3.231   0.163
 5404SOL     OW17110   0.209   0.773   1.123
 5404SOL    HW117111   0.227   0.829   1.203
 5404SOL    HW217112   0.236   0.678   1.142
 5405SOL     OW17113   5.284   5.494   0.440
 5405SOL    HW117114   5.227   5.416   0.465
 5405SOL    HW217115   5.268   5.569   0.504
 5406SOL     OW17116   2.487   0.759   4.812
 5406SOL    HW117117   2.448   0.833   4.757
 5406SOL    HW217118   2.558   0.712   4.760
 5407SOL     OW17119   2.663   0.560   1.366
 5407SOL    HW117120   2.759   0.561   1.396
 5407SOL    HW217121   2.656   0.600   1.275
 5408SOL     OW17122   2.633   2.274   4.527
 5408SOL    HW117123   2.727   2.270   4.562
 5408SOL    HW217124   2.576   2.209   4.576
 5409SOL     OW17125   6.805   2.782   1.426
 5409SOL    HW117126   6.903   2.769   1.439
 5409SOL    HW217127   6.768   2.709   1.369
 5410SOL     OW17128   0.681   2.267   1.579
 5410SOL    HW117129   0.710   2.337   1.514
 5410SOL    HW217130   0.759   2.238   1.634
 5411SOL     OW17131   4.768   4.983   6.629
 5411SOL    HW117132   4.851   5.032   6.602
 5411SOL    HW217133   4.773   4.961   6.727
 5412SOL     OW17134   0.933   1.625   6.274
 5412SOL    HW117135   0.911   1.718   6.245
 5412SOL    HW217136   1.016   1.594   6.228
 5413SOL     OW17137   6.570   6.972   5.387
 5413SOL    HW117138   6.496   6.943   5.326
 5413SOL    HW217139   6.573   0.047   5.391
 5414SOL     OW17140   6.840   4.704   5.816
 5414SOL    HW117141   6.793   4.678   5.732
 5414SOL    HW217142   6.815   4.640   5.889
 5415SOL     OW17143   3.156   0.077   0.355
 5415SOL    HW117144   3.164   0.059   0.453
 5415SOL    HW217145   3.063   0.057   0.325
 5416SOL     OW17146   2.897   5.013   5.620
 5416SOL    HW117147   2.880   5.079   5.546
 5416SOL    HW217148   2.988   4.972   5.608
 5417SOL     OW17149   4.970   5.628   3.392
 5417SOL    HW117150   4.882   5.645   3.347
 5417SOL    HW217151   4.958   5.635   3.491
 5418SOL     OW17152   6.028   4.468   4.357
 5418SOL    HW117153   5.935   4.476   4.392
 5418SOL    HW217154   6.043   4.537   4.286
 5419SOL     OW17155   4.188   0.056   0.025
 5419SOL    HW117156   4.227   7.011   6.989
 5419SOL    HW217157   4.096   0.081   7.017
 5420SOL     OW17158   1.523   1.553   1.293
 5420SOL    HW117159   1.469   1.482   1.339
 5420SOL    HW217160   1.612   1.516   1.267
 5421SOL     OW17161   3.467   5.329   2.068
 5421SOL    HW117162   3.561   5.308   2.094
 5421SOL    HW217163   3.464   5.418   2.022
 5422SOL     OW17164   1.802   5.879   3.865
 5422SOL    HW117165   1.760   5.829   3.789
 5422SOL    HW217166   1.824   5.815   3.938
 5423SOL     OW17167   6.324   6.138   1.968
 5423SOL    HW117168   6.295   6.062   1.910
 5423SOL    HW217169   6.295   6.121   2.062
 5424SOL     OW17170   4.767   4.037   5.059
 5424SOL    HW117171   4.826   3.961   5.088
 5424SOL    HW217172   4.705   4.061   5.133
 5425SOL     OW17173   0.373   3.549   5.676
 5425SOL    HW117174   0.341   3.643   5.690
 5425SOL    HW217175   0.313   3.485   5.725
 5426SOL     OW17176   5.383   5.165   1.938
 5426SOL    HW117177   5.478   5.192   1.923
 5426SOL    HW217178   5.330   5.243   1.972
 5427SOL     OW17179   4.873   2.417   6.949
 5427SOL    HW117180   4.958   2.410   7.002
 5427SOL    HW217181   4.882   2.364   6.864
 5428SOL     OW17182   6.554   5.266   3.090
 5428SOL    HW117183   6.512   5.198   3.031
 5428SOL    HW217184   6.551   5.355   3.045
 5429SOL     OW17185   2.776   0.449   3.811
 5429SOL    HW117186   2.727   0.532   3.783
 5429SOL    HW217187   2.728   0.404   3.886
 5430SOL     OW17188   2.595   3.813   6.222
 5430SOL    HW117189   2.522   3.754   6.187
 5430SOL    HW217190   2.608   3.890   6.159
 5431SOL     OW17191   2.977   5.198   6.550
 5431SOL    HW117192   2.883   5.227   6.529
 5431SOL    HW217193   3.003   5.122   6.490
 5432SOL     OW17194   5.568   5.570   1.190
 5432SOL    HW117195   5.524   5.518   1.264
 5432SOL    HW217196   5.648   5.617   1.226
 5433SOL     OW17197   1.462   0.158   1.031
 5433SOL    HW117198   1.504   0.074   0.996
 5433SOL    HW217199   1.526   0.234   1.020
 5434SOL     OW17200   4.971   1.532   5.039
 5434SOL    HW117201   4.883   1.537   4.991
 5434SOL    HW217202   4.959   1.488   5.127
 5435SOL     OW17203   6.320   3.978   0.940
 5435SOL    HW117204   6.247   3.911   0.948
 5435SOL    HW217205   6.356   3.977   0.846
 5436SOL     OW17206   1.422   5.238   2.598
 5436SOL    HW117207   1.506   5.183   2.599
 5436SOL    HW217208   1.434   5.316   2.537
 5437SOL     OW17209   3.681   5.387   0.055
 5437SOL    HW117210   3.767   5.339   0.042
 5437SOL    HW217211   3.637   5.355   0.139
 5438SOL     OW17212   4.784   4.108   2.514
 5438SOL    HW117213   4.790   4.008   2.508
 5438SOL    HW217214   4.787   4.147   2.422
 5439SOL     OW17215   0.868   4.099   1.304
 5439SOL    HW117216   0.949   4.082   1.249
 5439SOL    HW217217   0.790   4.117   1.243
 5440SOL     OW17218   5.755   6.126   3.165
 5440SOL    HW117219   5.779   6.054   3.099
 5440SOL    HW217220   5.666   6.106   3.206
 5441SOL     OW17221   4.652   2.739   3.895
 5441SOL    HW117222   4.737   2.695   3.923
 5441SOL    HW217223   4.587   2.670   3.862
 5442SOL     OW17224   5.169   6.959   4.398
 5442SOL    HW117225   5.185   0.007   4.466
 5442SOL    HW217226   5.256   6.921   4.369
 5443SOL     OW17227   4.487   6.429   5.107
 5443SOL    HW117228   4.556   6.489   5.069
 5443SOL    HW217229   4.503   6.417   5.205
 5444SOL     OW17230   0.192   1.080   3.881
 5444SOL    HW117231   0.287   1.077   3.849
 5444SOL    HW217232   0.161   0.987   3.903
 5445SOL     OW17233   5.122   5.444   5.832
 5445SOL    HW117234   5.065   5.519   5.868
 5445SOL    HW217235   5.063   5.376   5.788
 5446SOL     OW17236   0.223   4.659   5.531
 5446SOL    HW117237   0.142   4.619   5.572
 5446SOL    HW217238   0.200   4.747   5.489
 5447SOL     OW17239   1.306   1.858   0.504
 5447SOL    HW117240   1.384   1.852   0.566
 5447SOL    HW217241   1.225   1.886   0.556
 5448SOL     OW17242   4.460   5.720   3.608
 5448SOL    HW117243   4.555   5.714   3.577
 5448SOL    HW217244   4.452   5.676   3.698
 5449SOL     OW17245   3.037   1.721   2.160
 5449SOL    HW117246   2.946   1.710   2.120
 5449SOL    HW217247   3.031   1.783   2.238
 5450SOL     OW17248   4.210   6.330   1.736
 5450SOL    HW117249   4.232   6.315   1.640
 5450SOL    HW217250   4.282   6.383   1.779
 5451SOL     OW17251   1.335   0.158   3.169
 5451SOL    HW117252   1.323   0.165   3.070
 5451SOL    HW217253   1.358   0.248   3.207
 5452SOL     OW17254   1.645   4.799   1.817
 5452SOL    HW117255   1.548   4.822   1.810
 5452SOL    HW217256   1.655   4.710   1.862
 5453SOL     OW17257   6.097   3.917   3.406
 5453SOL    HW117258   6.047   4.000   3.383
 5453SOL    HW217259   6.150   3.931   3.490
 5454SOL     OW17260   6.361   5.459   2.965
 5454SOL    HW117261   6.276   5.428   3.008
 5454SOL    HW217262   6.342   5.534   2.902
 5455SOL     OW17263   6.706   1.883   2.229
 5455SOL    HW117264   6.768   1.821   2.181
 5455SOL    HW217265   6.634   1.830   2.274
 5456SOL     OW17266   4.807   0.939   6.625
 5456SOL    HW117267   4.892   0.987   6.604
 5456SOL    HW217268   4.785   0.950   6.722
 5457SOL     OW17269   6.363   2.646   0.783
 5457SOL    HW117270   6.308   2.663   0.701
 5457SOL    HW217271   6.319   2.575   0.838
 5458SOL     OW17272   6.160   4.286   1.245
 5458SOL    HW117273   6.198   4.195   1.229
 5458SOL    HW217274   6.218   4.354   1.200
 5459SOL     OW17275   1.528   4.646   5.940
 5459SOL    HW117276   1.453   4.704   5.910
 5459SOL    HW217277   1.612   4.699   5.948
 5460SOL     OW17278   1.820   0.789   0.637
 5460SOL    HW117279   1.848   0.741   0.554
 5460SOL    HW217280   1.898   0.800   0.698
 5461SOL     OW17281   0.227   1.548   6.127
 5461SOL    HW117282   0.186   1.501   6.206
 5461SOL    HW217283   0.253   1.641   6.154
 5462SOL     OW17284   5.256   6.050   6.634
 5462SOL    HW117285   5.282   6.012   6.723
 5462SOL    HW217286   5.275   5.982   6.562
 5463SOL     OW17287   0.280   2.739   6.420
 5463SOL    HW117288   0.310   2.788   6.338
 5463SOL    HW217289   0.358   2.695   6.463
 5464SOL     OW17290   5.925   6.278   5.497
 5464SOL    HW117291   5.957   6.202   5.554
 5464SOL    HW217292   5.825   6.272   5.487
 5465SOL     OW17293   6.433   6.393   3.278
 5465SOL    HW117294   6.508   6.459   3.285
 5465SOL    HW217295   6.411   6.357   3.368
 5466SOL     OW17296   5.652   2.368   5.064
 5466SOL    HW117297   5.641   2.269   5.070
 5466SOL    HW217298   5.749   2.391   5.061
 5467SOL     OW17299   5.718   3.903   3.412
 5467SOL    HW117300   5.647   3.910   3.342
 5467SOL    HW217301   5.713   3.814   3.456
 5468SOL     OW17302   6.702   1.832   2.583
 5468SOL    HW117303   6.654   1.829   2.496
 5468SOL    HW217304   6.652   1.890   2.648
 5469SOL     OW17305   1.827   0.702   5.792
 5469SOL    HW117306   1.803   0.662   5.880
 5469SOL    HW217307   1.884   0.638   5.741
 5470SOL     OW17308   3.994   5.326   4.755
 5470SOL    HW117309   3.948   5.245   4.719
 5470SOL    HW217310   4.087   5.302   4.785
 5471SOL     OW17311   4.861   6.855   2.427
 5471SOL    HW117312   4.836   6.886   2.335
 5471SOL    HW217313   4.865   6.934   2.488
 5472SOL     OW17314   2.966   2.223   6.471
 5472SOL    HW117315   3.000   2.284   6.401
 5472SOL    HW217316   2.882   2.179   6.440
 5473SOL     OW17317   1.563   4.886   0.909
 5473SOL    HW117318   1.525   4.830   0.983
 5473SOL    HW217319   1.629   4.831   0.857
 5474SOL     OW17320   0.860   5.396   3.709
 5474SOL    HW117321   0.797   5.461   3.752
 5474SOL    HW217322   0.854   5.308   3.756
 5475SOL     OW17323   1.431   2.089   6.966
 5475SOL    HW117324   1.337   2.062   6.985
 5475SOL    HW217325   1.493   2.023   7.010
 5476SOL     OW17326   2.302   5.646   5.374
 5476SOL    HW117327   2.271   5.738   5.353
 5476SOL    HW217328   2.399   5.638   5.353
 5477SOL     OW17329   1.993   4.851   3.632
 5477SOL    HW117330   1.991   4.815   3.538
 5477SOL    HW217331   1.971   4.778   3.696
 5478SOL     OW17332   5.438   5.211   6.610
 5478SOL    HW117333   5.422   5.113   6.625
 5478SOL    HW217334   5.350   5.258   6.604
 5479SOL     OW17335   4.575   1.437   4.758
 5479SOL    HW117336   4.532   1.352   4.729
 5479SOL    HW217337   4.515   1.485   4.823
 5480SOL     OW17338   6.160   4.664   4.931
 5480SOL    HW117339   6.209   4.722   4.866
 5480SOL    HW217340   6.225   4.606   4.980
 5481SOL     OW17341   3.869   1.042   6.051
 5481SOL    HW117342   3.923   1.036   6.135
 5481SOL    HW217343   3.786   0.987   6.061
 5482SOL     OW17344   3.700   3.699   2.233
 5482SOL    HW117345   3.640   3.622   2.255
 5482SOL    HW217346   3.752   3.677   2.151
 5483SOL     OW17347   6.436   3.180   5.720
 5483SOL    HW117348   6.491   3.112   5.769
 5483SOL    HW217349   6.465   3.272   5.748
 5484SOL     OW17350   0.017   6.603   3.922
 5484SOL    HW117351   6.958   6.566   3.963
 5484SOL    HW217352   0.095   6.586   3.983
 5485SOL     OW17353   3.189   0.205   4.750
 5485SOL    HW117354   3.169   0.107   4.754
 5485SOL    HW217355   3.113   0.256   4.789
 5486SOL     OW17356   1.582   0.137   3.402
 5486SOL    HW117357   1.678   0.108   3.401
 5486SOL    HW217358   1.574   0.228   3.362
 5487SOL     OW17359   6.143   4.035   0.138
 5487SOL    HW117360   6.204   4.039   0.218
 5487SOL    HW217361   6.191   4.070   0.058
 5488SOL     OW17362   4.492   2.132   0.214
 5488SOL    HW117363   4.415   2.116   0.276
 5488SOL    HW217364   4.474   2.213   0.159
 5489SOL     OW17365   1.381   4.375   1.996
 5489SOL    HW117366   1.384   4.372   1.896
 5489SOL    HW217367   1.380   4.471   2.026
 5490SOL     OW17368   3.407   6.993   0.231
 5490SOL    HW117369   3.332   0.008   0.284
 5490SOL    HW217370   3.492   6.996   0.284
 5491SOL     OW17371   1.649   4.789   6.678
 5491SOL    HW117372   1.582   4.858   6.649
 5491SOL    HW217373   1.619   4.698   6.649
 5492SOL     OW17374   1.218   1.263   6.107
 5492SOL    HW117375   1.226   1.186   6.044
 5492SOL    HW217376   1.125   1.269   6.142
 5493SOL     OW17377   3.718   3.139   5.492
 5493SOL    HW117378   3.781   3.179   5.558
 5493SOL    HW217379   3.767   3.119   5.407
 5494SOL     OW17380   6.712   3.173   0.801
 5494SOL    HW117381   6.763   3.134   0.724
 5494SOL    HW217382   6.616   3.145   0.796
 5495SOL     OW17383   3.462   3.394   1.481
 5495SOL    HW117384   3.379   3.364   1.434
 5495SOL    HW217385   3.457   3.492   1.498
 5496SOL     OW17386   3.803   6.096   1.761
 5496SOL    HW117387   3.762   6.009   1.790
 5496SOL    HW217388   3.766   6.122   1.672
 5497SOL     OW17389   0.421   1.911   3.159
 5497SOL    HW117390   0.490   1.982   3.146
 5497SOL    HW217391   0.460   1.822   3.139
 5498SOL     OW17392   4.624   1.381   6.565
 5498SOL    HW117393   4.668   1.469   6.546
 5498SOL    HW217394   4.530   1.383   6.532
 5499SOL     OW17395   0.284   0.689   3.168
 5499SOL    HW117396   0.289   0.723   3.074
 5499SOL    HW217397   0.193   0.651   3.185
 5500SOL     OW17398   1.729   5.941   0.072
 5500SOL    HW117399   1.696   6.035   0.070
 5500SOL    HW217400   1.718   5.903   0.164
 5501SOL     OW17401   3.010   0.100   1.727
 5501SOL    HW117402   2.977   0.139   1.814
 5501SOL    HW217403   2.940   0.110   1.657
 5502SOL     OW17404   6.144   4.110   6.167
 5502SOL    HW117405   6.226   4.052   6.162
 5502SOL    HW217406   6.064   4.054   6.145
 5503SOL     OW17407   1.213   5.130   3.109
 5503SOL    HW117408   1.119   5.141   3.077
 5503SOL    HW217409   1.262   5.216   3.101
 5504SOL     OW17410   2.678   1.143   4.990
 5504SOL    HW117411   2.597   1.094   5.025
 5504SOL    HW217412   2.669   1.155   4.891
 5505SOL     OW17413   1.838   6.167   5.033
 5505SOL    HW117414   1.760   6.139   4.977
 5505SOL    HW217415   1.919   6.179   4.975
 5506SOL     OW17416   6.951   0.474   4.781
 5506SOL    HW117417   0.000   0.519   4.731
 5506SOL    HW217418   6.863   0.516   4.757
 5507SOL     OW17419   2.699   6.536   3.184
 5507SOL    HW117420   2.610   6.581   3.176
 5507SOL    HW217421   2.748   6.574   3.263
 5508SOL     OW17422   2.381   1.118   6.952
 5508SOL    HW117423   2.418   1.107   6.860
 5508SOL    HW217424   2.372   1.028   6.995
 5509SOL     OW17425   6.807   6.110   0.583
 5509SOL    HW117426   6.753   6.158   0.652
 5509SOL    HW217427   6.891   6.074   0.625
 5510SOL     OW17428   4.543   6.593   6.884
 5510SOL    HW117429   4.444   6.598   6.865
 5510SOL    HW217430   4.590   6.665   6.832
 5511SOL     OW17431   1.382   0.528   2.951
 5511SOL    HW117432   1.305   0.578   2.991
 5511SOL    HW217433   1.461   0.589   2.944
 5512SOL     OW17434   6.530   2.373   0.360
 5512SOL    HW117435   6.436   2.404   0.374
 5512SOL    HW217436   6.531   2.299   0.293
 5513SOL     OW17437   4.839   4.304   4.988
 5513SOL    HW117438   4.815   4.339   4.898
 5513SOL    HW217439   4.799   4.213   5.001
 5514SOL     OW17440   5.514   5.109   2.829
 5514SOL    HW117441   5.435   5.168   2.844
 5514SOL    HW217442   5.514   5.034   2.896
 5515SOL     OW17443   5.945   3.501   1.251
 5515SOL    HW117444   5.950   3.406   1.219
 5515SOL    HW217445   6.032   3.526   1.294
 5516SOL     OW17446   1.909   2.401   0.390
 5516SOL    HW117447   1.828   2.348   0.416
 5516SOL    HW217448   1.901   2.494   0.427
 5517SOL     OW17449   3.231   2.040   2.276
 5517SOL    HW117450   3.235   2.051   2.375
 5517SOL    HW217451   3.302   1.975   2.247
 5518SOL     OW17452   6.206   5.889   6.278
 5518SOL    HW117453   6.188   5.986   6.296
 5518SOL    HW217454   6.277   5.856   6.340
 5519SOL     OW17455   5.233   3.806   3.162
 5519SOL    HW117456   5.253   3.722   3.112
 5519SOL    HW217457   5.273   3.801   3.253
 5520SOL     OW17458   1.172   4.291   2.975
 5520SOL    HW117459   1.144   4.375   2.928
 5520SOL    HW217460   1.272   4.291   2.984
 5521SOL     OW17461   4.676   5.815   1.923
 5521SOL    HW117462   4.750   5.777   1.869
 5521SOL    HW217463   4.595   5.757   1.915
 5522SOL     OW17464   2.032   3.904   1.266
 5522SOL    HW117465   2.093   3.829   1.240
 5522SOL    HW217466   1.992   3.944   1.184
 5523SOL     OW17467   3.462   6.799   2.886
 5523SOL    HW117468   3.523   6.775   2.810
 5523SOL    HW217469   3.410   6.881   2.863
 5524SOL     OW17470   0.217   6.058   4.914
 5524SOL    HW117471   0.183   6.007   4.835
 5524SOL    HW217472   0.302   6.015   4.947
 5525SOL     OW17473   0.108   4.553   0.311
 5525SOL    HW117474   0.076   4.635   0.263
 5525SOL    HW217475   0.154   4.493   0.246
 5526SOL     OW17476   6.122   3.531   4.339
 5526SOL    HW117477   6.029   3.503   4.318
 5526SOL    HW217478   6.171   3.454   4.380
 5527SOL     OW17479   0.624   3.074   2.564
 5527SOL    HW117480   0.675   3.146   2.517
 5527SOL    HW217481   0.654   2.984   2.530
 5528SOL     OW17482   0.616   2.268   6.043
 5528SOL    HW117483   0.546   2.310   6.101
 5528SOL    HW217484   0.705   2.307   6.065
 5529SOL     OW17485   2.182   0.076   4.579
 5529SOL    HW117486   2.083   0.087   4.581
 5529SOL    HW217487   2.223   0.128   4.653
 5530SOL     OW17488   6.919   2.037   2.048
 5530SOL    HW117489   6.998   2.076   2.096
 5530SOL    HW217490   6.874   1.969   2.107
 5531SOL     OW17491   3.914   3.262   4.250
 5531SOL    HW117492   3.830   3.313   4.232
 5531SOL    HW217493   3.920   3.185   4.187
 5532SOL     OW17494   1.944   1.136   0.731
 5532SOL    HW117495   1.940   1.118   0.829
 5532SOL    HW217496   1.853   1.125   0.691
 5533SOL     OW17497   2.936   0.781   2.200
 5533SOL    HW117498   2.887   0.695   2.186
 5533SOL    HW217499   2.999   0.771   2.277
 5534SOL     OW17500   1.308   3.305   6.658
 5534SOL    HW117501   1.397   3.264   6.640
 5534SOL    HW217502   1.293   3.382   6.595
 5535SOL     OW17503   0.142   3.178   2.768
 5535SOL    HW117504   0.219   3.232   2.734
 5535SOL    HW217505   0.129   3.196   2.865
 5536SOL     OW17506   2.532   0.680   3.965
 5536SOL    HW117507   2.541   0.620   4.044
 5536SOL    HW217508   2.507   0.772   3.996
 5537SOL     OW17509   3.477   1.254   4.617
 5537SOL    HW117510   3.457   1.268   4.520
 5537SOL    HW217511   3.432   1.326   4.671
 5538SOL     OW17512   3.532   6.907   5.007
 5538SOL    HW117513   3.516   6.935   4.912
 5538SOL    HW217514   3.598   6.968   5.049
 5539SOL     OW17515   0.642   1.930   1.073
 5539SOL    HW117516   0.700   1.898   0.998
 5539SOL    HW217517   0.557   1.876   1.075
 5540SOL     OW17518   5.336   3.184   1.546
 5540SOL    HW117519   5.339   3.194   1.447
 5540SOL    HW217520   5.365   3.092   1.571
 5541SOL     OW17521   5.241   3.021   5.920
 5541SOL    HW117522   5.185   3.094   5.958
 5541SOL    HW217523   5.184   2.958   5.868
 5542SOL     OW17524   5.789   6.164   5.865
 5542SOL    HW117525   5.874   6.132   5.822
 5542SOL    HW217526   5.737   6.218   5.799
 5543SOL     OW17527   1.977   5.557   6.434
 5543SOL    HW117528   1.913   5.632   6.455
 5543SOL    HW217529   1.962   5.527   6.340
 5544SOL     OW17530   5.536   5.548   5.732
 5544SOL    HW117531   5.585   5.553   5.645
 5544SOL    HW217532   5.463   5.616   5.732
 5545SOL     OW17533   5.066   0.751   2.382
 5545SOL    HW117534   5.158   0.710   2.379
 5545SOL    HW217535   5.023   0.743   2.292
 5546SOL     OW17536   0.966   6.227   3.993
 5546SOL    HW117537   0.893   6.193   4.053
 5546SOL    HW217538   1.048   6.170   4.005
 5547SOL     OW17539   3.987   1.087   4.880
 5547SOL    HW117540   3.992   1.128   4.789
 5547SOL    HW217541   3.908   1.124   4.929
 5548SOL     OW17542   6.497   3.858   5.722
 5548SOL    HW117543   6.525   3.936   5.778
 5548SOL    HW217544   6.487   3.888   5.627
 5549SOL     OW17545   3.968   4.030   1.144
 5549SOL    HW117546   3.947   3.948   1.198
 5549SOL    HW217547   3.884   4.072   1.112
 5550SOL     OW17548   2.337   4.342   1.986
 5550SOL    HW117549   2.343   4.333   2.085
 5550SOL    HW217550   2.377   4.429   1.958
 5551SOL     OW17551   1.759   6.196   2.671
 5551SOL    HW117552   1.802   6.238   2.592
 5551SOL    HW217553   1.686   6.256   2.705
 5552SOL     OW17554   6.154   0.972   6.935
 5552SOL    HW117555   6.138   0.933   6.844
 5552SOL    HW217556   6.213   1.053   6.927
 5553SOL     OW17557   4.436   6.583   6.155
 5553SOL    HW117558   4.528   6.570   6.192
 5553SOL    HW217559   4.438   6.656   6.087
 5554SOL     OW17560   4.925   2.701   1.174
 5554SOL    HW117561   4.936   2.608   1.209
 5554SOL    HW217562   4.920   2.765   1.251
 5555SOL     OW17563   1.104   3.529   2.407
 5555SOL    HW117564   1.007   3.528   2.381
 5555SOL    HW217565   1.112   3.507   2.504
 5556SOL     OW17566   6.223   1.576   3.983
 5556SOL    HW117567   6.143   1.624   3.946
 5556SOL    HW217568   6.276   1.535   3.908
 5557SOL     OW17569   4.025   5.870   2.089
 5557SOL    HW117570   4.005   5.838   1.997
 5557SOL    HW217571   4.005   5.967   2.096
 5558SOL     OW17572   3.208   3.516   6.343
 5558SOL    HW117573   3.287   3.488   6.288
 5558SOL    HW217574   3.220   3.610   6.373
 5559SOL     OW17575   2.027   0.266   2.333
 5559SOL    HW117576   1.939   0.230   2.364
 5559SOL    HW217577   2.016   0.361   2.307
 5560SOL     OW17578   6.932   5.299   1.089
 5560SOL    HW117579   0.006   5.306   1.109
 5560SOL    HW217580   6.883   5.269   1.171
 5561SOL     OW17581   2.248   0.710   4.404
 5561SOL    HW117582   2.230   0.656   4.486
 5561SOL    HW217583   2.161   0.732   4.359
 5562SOL     OW17584   4.139   2.733   6.957
 5562SOL    HW117585   4.189   2.650   6.930
 5562SOL    HW217586   4.197   2.813   6.941
 5563SOL     OW17587   2.815   5.186   2.975
 5563SOL    HW117588   2.738   5.137   3.015
 5563SOL    HW217589   2.881   5.209   3.046
 5564SOL     OW17590   4.761   0.220   0.445
 5564SOL    HW117591   4.848   0.234   0.397
 5564SOL    HW217592   4.750   0.123   0.466
 5565SOL     OW17593   3.798   2.407   6.065
 5565SOL    HW117594   3.715   2.354   6.053
 5565SOL    HW217595   3.800   2.482   5.999
 5566SOL     OW17596   1.677   4.565   0.118
 5566SOL    HW117597   1.639   4.606   0.035
 5566SOL    HW217598   1.729   4.633   0.169
 5567SOL     OW17599   6.961   3.857   1.502
 5567SOL    HW117600   6.885   3.797   1.526
 5567SOL    HW217601   7.024   3.864   1.580
 5568SOL     OW17602   5.272   1.598   3.680
 5568SOL    HW117603   5.212   1.632   3.608
 5568SOL    HW217604   5.342   1.539   3.640
 5569SOL     OW17605   2.025   2.027   2.209
 5569SOL    HW117606   2.029   2.076   2.296
 5569SOL    HW217607   2.117   1.995   2.185
 5570SOL     OW17608   5.796   3.810   4.228
 5570SOL    HW117609   5.726   3.877   4.201
 5570SOL    HW217610   5.882   3.858   4.248
 5571SOL     OW17611   6.121   5.881   1.426
 5571SOL    HW117612   6.201   5.903   1.482
 5571SOL    HW217613   6.133   5.919   1.335
 5572SOL     OW17614   1.309   3.791   4.893
 5572SOL    HW117615   1.348   3.762   4.806
 5572SOL    HW217616   1.321   3.889   4.904
 5573SOL     OW17617   1.863   5.935   5.209
 5573SOL    HW117618   1.871   6.021   5.159
 5573SOL    HW217619   1.836   5.953   5.303
 5574SOL     OW17620   0.302   2.206   1.994
 5574SOL    HW117621   0.367   2.273   2.030
 5574SOL    HW217622   0.234   2.184   2.064
 5575SOL     OW17623   6.585   1.217   0.975
 5575SOL    HW117624   6.514   1.219   1.046
 5575SOL    HW217625   6.635   1.130   0.982
 5576SOL     OW17626   0.919   4.613   1.819
 5576SOL    HW117627   0.985   4.588   1.890
 5576SOL    HW217628   0.908   4.537   1.755
 5577SOL     OW17629   2.792   2.691   0.186
 5577SOL    HW117630   2.781   2.667   0.090
 5577SOL    HW217631   2.713   2.656   0.237
 5578SOL     OW17632   3.623   3.773   1.932
 5578SOL    HW117633   3.556   3.792   2.004
 5578SOL    HW217634   3.701   3.725   1.972
 5579SOL     OW17635   0.226   3.496   0.429
 5579SOL    HW117636   0.265   3.500   0.337
 5579SOL    HW217637   0.143   3.439   0.427
 5580SOL     OW17638   4.647   2.412   5.679
 5580SOL    HW117639   4.659   2.398   5.580
 5580SOL    HW217640   4.736   2.426   5.721
 5581SOL     OW17641   2.005   0.008   1.847
 5581SOL    HW117642   2.032   6.936   1.849
 5581SOL    HW217643   1.957   0.031   1.932
 5582SOL     OW17644   3.963   3.648   0.008
 5582SOL    HW117645   3.919   3.727   6.989
 5582SOL    HW217646   3.930   3.564   6.988
 5583SOL     OW17647   4.685   0.990   2.624
 5583SOL    HW117648   4.742   0.912   2.598
 5583SOL    HW217649   4.706   1.016   2.718
 5584SOL     OW17650   6.935   4.240   4.522
 5584SOL    HW117651   6.970   4.196   4.605
 5584SOL    HW217652   7.001   4.228   4.448
 5585SOL     OW17653   5.866   5.408   3.248
 5585SOL    HW117654   5.857   5.479   3.178
 5585SOL    HW217655   5.913   5.329   3.209
 5586SOL     OW17656   0.347   3.080   6.058
 5586SOL    HW117657   0.267   3.110   6.006
 5586SOL    HW217658   0.380   3.156   6.115
 5587SOL     OW17659   4.206   6.455   0.487
 5587SOL    HW117660   4.231   6.550   0.508
 5587SOL    HW217661   4.224   6.437   0.390
 5588SOL     OW17662   2.029   5.195   3.091
 5588SOL    HW117663   2.077   5.192   3.179
 5588SOL    HW217664   1.941   5.241   3.102
 5589SOL     OW17665   6.485   3.638   5.979
 5589SOL    HW117666   6.575   3.605   5.952
 5589SOL    HW217667   6.461   3.719   5.925
 5590SOL     OW17668   7.016   6.338   3.778
 5590SOL    HW117669   0.024   6.431   3.794
 5590SOL    HW217670   0.047   6.296   3.705
 5591SOL     OW17671   5.872   1.983   1.333
 5591SOL    HW117672   5.942   1.922   1.371
 5591SOL    HW217673   5.781   1.948   1.357
 5592SOL     OW17674   2.004   5.497   2.935
 5592SOL    HW117675   2.028   5.467   2.843
 5592SOL    HW217676   1.931   5.438   2.970
 5593SOL     OW17677   0.776   2.638   0.647
 5593SOL    HW117678   0.704   2.574   0.621
 5593SOL    HW217679   0.742   2.701   0.716
 5594SOL     OW17680   5.000   0.766   6.039
 5594SOL    HW117681   5.027   0.744   5.946
 5594SOL    HW217682   4.978   0.863   6.046
 5595SOL     OW17683   0.450   1.581   4.474
 5595SOL    HW117684   0.417   1.668   4.511
 5595SOL    HW217685   0.385   1.547   4.407
 5596SOL     OW17686   4.593   0.696   2.537
 5596SOL    HW117687   4.680   0.744   2.522
 5596SOL    HW217688   4.567   0.705   2.633
 5597SOL     OW17689   4.847   2.727   4.231
 5597SOL    HW117690   4.835   2.827   4.224
 5597SOL    HW217691   4.890   2.705   4.319
 5598SOL     OW17692   5.175   3.845   4.266
 5598SOL    HW117693   5.187   3.867   4.169
 5598SOL    HW217694   5.264   3.820   4.306
 5599SOL     OW17695   0.803   1.888   2.944
 5599SOL    HW117696   0.787   1.872   2.847
 5599SOL    HW217697   0.901   1.894   2.961
 5600SOL     OW17698   1.323   1.516   1.740
 5600SOL    HW117699   1.335   1.555   1.831
 5600SOL    HW217700   1.316   1.590   1.673
 5601SOL     OW17701   1.648   0.692   6.042
 5601SOL    HW117702   1.555   0.709   6.074
 5601SOL    HW217703   1.710   0.760   6.081
 5602SOL     OW17704   6.741   1.567   1.151
 5602SOL    HW117705   6.819   1.516   1.114
 5602SOL    HW217706   6.677   1.589   1.078
 5603SOL     OW17707   5.851   2.654   6.934
 5603SOL    HW117708   5.895   2.591   6.870
 5603SOL    HW217709   5.883   2.747   6.916
 5604SOL     OW17710   6.132   2.070   5.072
 5604SOL    HW117711   6.194   2.011   5.124
 5604SOL    HW217712   6.093   2.018   4.997
 5605SOL     OW17713   0.081   1.600   5.230
 5605SOL    HW117714   0.075   1.687   5.182
 5605SOL    HW217715   7.019   1.583   5.278
 5606SOL     OW17716   4.915   6.459   0.431
 5606SOL    HW117717   4.922   6.516   0.350
 5606SOL    HW217718   4.820   6.455   0.461
 5607SOL     OW17719   5.395   1.220   2.659
 5607SOL    HW117720   5.320   1.202   2.595
 5607SOL    HW217721   5.482   1.195   2.617
 5608SOL     OW17722   5.350   0.008   4.042
 5608SOL    HW117723   5.251   7.017   4.044
 5608SOL    HW217724   5.379   0.048   4.129
 5609SOL     OW17725   2.920   5.684   1.073
 5609SOL    HW117726   2.870   5.607   1.034
 5609SOL    HW217727   2.867   5.768   1.063
 5610SOL     OW17728   3.909   6.107   0.524
 5610SOL    HW117729   3.863   6.020   0.508
 5610SOL    HW217730   3.853   6.182   0.488
 5611SOL     OW17731   1.090   5.908   2.942
 5611SOL    HW117732   1.180   5.934   2.977
 5611SOL    HW217733   1.099   5.834   2.876
 5612SOL     OW17734   3.710   2.135   6.568
 5612SOL    HW117735   3.794   2.086   6.592
 5612SOL    HW217736   3.732   2.213   6.510
 5613SOL     OW17737   5.874   4.105   3.304
 5613SOL    HW117738   5.838   4.193   3.334
 5613SOL    HW217739   5.812   4.032   3.333
 5614SOL     OW17740   4.303   1.905   4.420
 5614SOL    HW117741   4.383   1.847   4.434
 5614SOL    HW217742   4.228   1.851   4.383
 5615SOL     OW17743   0.380   1.834   4.498
 5615SOL    HW117744   0.339   1.861   4.585
 5615SOL    HW217745   0.309   1.828   4.428
 5616SOL     OW17746   2.557   1.675   5.152
 5616SOL    HW117747   2.533   1.643   5.243
 5616SOL    HW217748   2.488   1.740   5.120
 5617SOL     OW17749   2.942   6.820   5.994
 5617SOL    HW117750   2.958   6.763   6.075
 5617SOL    HW217751   2.916   6.912   6.023
 5618SOL     OW17752   7.008   4.872   3.991
 5618SOL    HW117753   6.996   4.970   3.973
 5618SOL    HW217754   0.001   4.859   4.089
 5619SOL     OW17755   2.999   3.894   5.418
 5619SOL    HW117756   2.951   3.980   5.402
 5619SOL    HW217757   3.002   3.841   5.334
 5620SOL     OW17758   4.403   3.774   0.777
 5620SOL    HW117759   4.382   3.824   0.694
 5620SOL    HW217760   4.421   3.678   0.755
 5621SOL     OW17761   2.113   1.955   0.313
 5621SOL    HW117762   2.202   1.981   0.275
 5621SOL    HW217763   2.123   1.870   0.365
 5622SOL     OW17764   4.734   0.113   6.278
 5622SOL    HW117765   4.677   0.188   6.245
 5622SOL    HW217766   4.701   0.027   6.240
 5623SOL     OW17767   2.817   5.711   5.049
 5623SOL    HW117768   2.782   5.624   5.084
 5623SOL    HW217769   2.879   5.752   5.116
 5624SOL     OW17770   1.126   4.480   4.087
 5624SOL    HW117771   1.210   4.486   4.141
 5624SOL    HW217772   1.075   4.565   4.095
 5625SOL     OW17773   6.256   1.535   4.854
 5625SOL    HW117774   6.340   1.547   4.801
 5625SOL    HW217775   6.178   1.534   4.791
 5626SOL     OW17776   2.904   6.100   4.181
 5626SOL    HW117777   2.823   6.122   4.126
 5626SOL    HW217778   2.930   6.179   4.235
 5627SOL     OW17779   0.757   5.848   6.270
 5627SOL    HW117780   0.729   5.822   6.177
 5627SOL    HW217781   0.724   5.779   6.335
 5628SOL     OW17782   1.176   2.432   0.397
 5628SOL    HW117783   1.238   2.445   0.475
 5628SOL    HW217784   1.230   2.421   0.314
 5629SOL     OW17785   3.486   4.142   2.692
 5629SOL    HW117786   3.465   4.190   2.607
 5629SOL    HW217787   3.401   4.129   2.744
 5630SOL     OW17788   1.937   3.596   0.382
 5630SOL    HW117789   1.859   3.640   0.426
 5630SOL    HW217790   1.916   3.580   0.285
 5631SOL     OW17791   4.606   1.729   0.627
 5631SOL    HW117792   4.699   1.736   0.590
 5631SOL    HW217793   4.569   1.821   0.641
 5632SOL     OW17794   2.804   2.581   6.172
 5632SOL    HW117795   2.822   2.660   6.114
 5632SOL    HW217796   2.821   2.496   6.122
 5633SOL     OW17797   6.328   3.746   4.110
 5633SOL    HW117798   6.365   3.664   4.067
 5633SOL    HW217799   6.303   3.725   4.205
 5634SOL     OW17800   2.439   5.242   4.624
 5634SOL    HW117801   2.486   5.299   4.557
 5634SOL    HW217802   2.366   5.191   4.580
 5635SOL     OW17803   2.248   4.335   5.290
 5635SOL    HW117804   2.324   4.344   5.355
 5635SOL    HW217805   2.203   4.247   5.305
 5636SOL     OW17806   4.133   6.293   4.304
 5636SOL    HW117807   4.102   6.210   4.351
 5636SOL    HW217808   4.199   6.269   4.234
 5637SOL     OW17809   5.091   6.611   3.347
 5637SOL    HW117810   5.052   6.617   3.255
 5637SOL    HW217811   5.182   6.652   3.348
 5638SOL     OW17812   6.110   3.899   1.273
 5638SOL    HW117813   6.191   3.904   1.331
 5638SOL    HW217814   6.034   3.860   1.326
 5639SOL     OW17815   0.834   1.435   1.467
 5639SOL    HW117816   0.774   1.357   1.483
 5639SOL    HW217817   0.817   1.505   1.537
 5640SOL     OW17818   2.947   0.472   3.531
 5640SOL    HW117819   2.864   0.526   3.512
 5640SOL    HW217820   3.028   0.530   3.519
 5641SOL     OW17821   0.905   5.391   5.222
 5641SOL    HW117822   0.885   5.334   5.302
 5641SOL    HW217823   1.004   5.399   5.211
 5642SOL     OW17824   1.617   6.950   5.346
 5642SOL    HW117825   1.566   6.883   5.399
 5642SOL    HW217826   1.596   0.018   5.379
 5643SOL     OW17827   4.398   1.512   4.945
 5643SOL    HW117828   4.441   1.584   5.000
 5643SOL    HW217829   4.385   1.430   5.001
 5644SOL     OW17830   3.281   0.341   5.340
 5644SOL    HW117831   3.286   0.427   5.390
 5644SOL    HW217832   3.203   0.344   5.277
 5645SOL     OW17833   6.367   4.359   3.638
 5645SOL    HW117834   6.366   4.277   3.696
 5645SOL    HW217835   6.349   4.440   3.695
 5646SOL     OW17836   1.409   5.356   3.280
 5646SOL    HW117837   1.432   5.265   3.314
 5646SOL    HW217838   1.493   5.403   3.254
 5647SOL     OW17839   4.914   6.288   1.563
 5647SOL    HW117840   4.844   6.220   1.540
 5647SOL    HW217841   4.986   6.244   1.617
 5648SOL     OW17842   2.101   5.383   2.695
 5648SOL    HW117843   2.081   5.341   2.607
 5648SOL    HW217844   2.169   5.456   2.683
 5649SOL     OW17845   1.013   6.903   4.089
 5649SOL    HW117846   1.002   6.827   4.025
 5649SOL    HW217847   1.013   6.867   4.183
 5650SOL     OW17848   1.314   5.126   1.264
 5650SOL    HW117849   1.402   5.083   1.245
 5650SOL    HW217850   1.318   5.173   1.351
 5651SOL     OW17851   2.099   1.215   0.525
 5651SOL    HW117852   2.026   1.178   0.583
 5651SOL    HW217853   2.134   1.299   0.567
 5652SOL     OW17854   6.267   5.835   0.946
 5652SOL    HW117855   6.252   5.877   0.856
 5652SOL    HW217856   6.365   5.836   0.967
 5653SOL     OW17857   6.735   6.642   6.640
 5653SOL    HW117858   6.650   6.688   6.616
 5653SOL    HW217859   6.718   6.543   6.650
 5654SOL     OW17860   0.936   5.990   4.653
 5654SOL    HW117861   0.907   5.946   4.738
 5654SOL    HW217862   0.868   5.975   4.582
 5655SOL     OW17863   0.374   2.923   4.005
 5655SOL    HW117864   0.386   2.966   4.095
 5655SOL    HW217865   0.385   2.824   4.014
 5656SOL     OW17866   6.625   4.343   6.448
 5656SOL    HW117867   6.565   4.264   6.434
 5656SOL    HW217868   6.714   4.312   6.481
 5657SOL     OW17869   5.590   3.048   6.031
 5657SOL    HW117870   5.571   3.140   6.066
 5657SOL    HW217871   5.552   3.039   5.939
 5658SOL     OW17872   2.786   3.330   6.311
 5658SOL    HW117873   2.757   3.235   6.304
 5658SOL    HW217874   2.738   3.385   6.243
 5659SOL     OW17875   3.786   3.318   6.521
 5659SOL    HW117876   3.778   3.414   6.496
 5659SOL    HW217877   3.722   3.264   6.465
 5660SOL     OW17878   4.888   6.628   5.584
 5660SOL    HW117879   4.886   6.550   5.646
 5660SOL    HW217880   4.908   6.711   5.636
 5661SOL     OW17881   1.818   6.045   4.503
 5661SOL    HW117882   1.821   6.044   4.403
 5661SOL    HW217883   1.726   6.065   4.534
 5662SOL     OW17884   2.742   6.579   2.907
 5662SOL    HW117885   2.686   6.604   2.986
 5662SOL    HW217886   2.772   6.484   2.916
 5663SOL     OW17887   2.266   2.472   1.056
 5663SOL    HW117888   2.271   2.428   0.967
 5663SOL    HW217889   2.193   2.540   1.055
 5664SOL     OW17890   0.009   3.725   4.199
 5664SOL    HW117891   6.991   3.793   4.259
 5664SOL    HW217892   6.963   3.671   4.154
 5665SOL     OW17893   0.927   0.005   0.814
 5665SOL    HW117894   0.982   6.951   0.844
 5665SOL    HW217895   0.937   0.080   0.880
 5666SOL     OW17896   6.473   0.085   3.906
 5666SOL    HW117897   6.414   0.028   3.963
 5666SOL    HW217898   6.453   0.182   3.925
 5667SOL     OW17899   1.598   5.017   5.060
 5667SOL    HW117900   1.605   5.107   5.103
 5667SOL    HW217901   1.676   4.961   5.087
 5668SOL     OW17902   6.277   3.082   3.186
 5668SOL    HW117903   6.312   3.085   3.092
 5668SOL    HW217904   6.189   3.034   3.186
 5669SOL     OW17905   6.549   4.297   1.096
 5669SOL    HW117906   6.554   4.202   1.066
 5669SOL    HW217907   6.612   4.352   1.041
 5670SOL     OW17908   1.313   3.447   3.782
 5670SOL    HW117909   1.260   3.364   3.769
 5670SOL    HW217910   1.303   3.507   3.703
 5671SOL     OW17911   5.711   6.695   5.578
 5671SOL    HW117912   5.782   6.650   5.632
 5671SOL    HW217913   5.745   6.782   5.543
 5672SOL     OW17914   5.219   4.181   6.016
 5672SOL    HW117915   5.143   4.197   6.079
 5672SOL    HW217916   5.212   4.244   5.939
 5673SOL     OW17917   1.729   6.729   1.097
 5673SOL    HW117918   1.634   6.700   1.103
 5673SOL    HW217919   1.789   6.656   1.130
 5674SOL     OW17920   1.723   4.529   4.810
 5674SOL    HW117921   1.799   4.593   4.820
 5674SOL    HW217922   1.723   4.465   4.887
 5675SOL     OW17923   4.314   2.556   6.609
 5675SOL    HW117924   4.408   2.548   6.576
 5675SOL    HW217925   4.281   2.649   6.592
 5676SOL     OW17926   2.811   1.800   2.513
 5676SOL    HW117927   2.894   1.817   2.461
 5676SOL    HW217928   2.796   1.702   2.520
 5677SOL     OW17929   0.684   0.823   0.954
 5677SOL    HW117930   0.620   0.753   0.921
 5677SOL    HW217931   0.708   0.803   1.049
 5678SOL     OW17932   4.109   0.618   2.796
 5678SOL    HW117933   4.206   0.642   2.793
 5678SOL    HW217934   4.083   0.572   2.711
 5679SOL     OW17935   5.921   1.102   4.047
 5679SOL    HW117936   5.878   1.104   4.138
 5679SOL    HW217937   5.984   1.179   4.038
 5680SOL     OW17938   1.619   5.360   6.438
 5680SOL    HW117939   1.664   5.442   6.405
 5680SOL    HW217940   1.681   5.282   6.429
 5681SOL     OW17941   0.481   3.627   1.898
 5681SOL    HW117942   0.556   3.563   1.914
 5681SOL    HW217943   0.397   3.577   1.878
 5682SOL     OW17944   2.320   5.493   4.460
 5682SOL    HW117945   2.307   5.587   4.490
 5682SOL    HW217946   2.273   5.480   4.373
 5683SOL     OW17947   3.490   2.028   6.287
 5683SOL    HW117948   3.508   1.958   6.218
 5683SOL    HW217949   3.509   1.991   6.378
 5684SOL     OW17950   2.263   3.416   5.720
 5684SOL    HW117951   2.350   3.443   5.760
 5684SOL    HW217952   2.275   3.394   5.623
 5685SOL     OW17953   2.509   1.815   3.269
 5685SOL    HW117954   2.526   1.789   3.174
 5685SOL    HW217955   2.437   1.757   3.307
 5686SOL     OW17956   3.202   1.527   4.943
 5686SOL    HW117957   3.103   1.529   4.957
 5686SOL    HW217958   3.231   1.432   4.926
 5687SOL     OW17959   0.832   6.007   5.728
 5687SOL    HW117960   0.773   5.933   5.693
 5687SOL    HW217961   0.927   5.983   5.712
 5688SOL     OW17962   1.604   2.448   3.094
 5688SOL    HW117963   1.562   2.494   3.173
 5688SOL    HW217964   1.649   2.516   3.037
 5689SOL     OW17965   2.544   1.117   1.953
 5689SOL    HW117966   2.548   1.206   1.999
 5689SOL    HW217967   2.636   1.087   1.932
 5690SOL     OW17968   1.051   5.681   0.054
 5690SOL    HW117969   0.961   5.671   0.011
 5690SOL    HW217970   1.044   5.666   0.152
 5691SOL     OW17971   3.712   0.909   1.811
 5691SOL    HW117972   3.766   0.978   1.763
 5691SOL    HW217973   3.629   0.889   1.759
 5692SOL     OW17974   5.097   4.886   0.770
 5692SOL    HW117975   5.050   4.800   0.789
 5692SOL    HW217976   5.152   4.912   0.849
 5693SOL     OW17977   4.648   1.027   1.803
 5693SOL    HW117978   4.606   1.012   1.892
 5693SOL    HW217979   4.731   0.971   1.796
 5694SOL     OW17980   0.903   0.608   2.383
 5694SOL    HW117981   0.997   0.596   2.415
 5694SOL    HW217982   0.903   0.658   2.296
 5695SOL     OW17983   1.609   1.463   3.185
 5695SOL    HW117984   1.688   1.474   3.246
 5695SOL    HW217985   1.598   1.546   3.130
 5696SOL     OW17986   0.659   6.458   4.108
 5696SOL    HW117987   0.706   6.404   4.038
 5696SOL    HW217988   0.671   6.414   4.198
 5697SOL     OW17989   5.871   2.584   2.395
 5697SOL    HW117990   5.906   2.509   2.338
 5697SOL    HW217991   5.800   2.550   2.456
 5698SOL     OW17992   1.536   4.710   4.332
 5698SOL    HW117993   1.636   4.708   4.337
 5698SOL    HW217994   1.497   4.686   4.421
 5699SOL     OW17995   1.526   2.244   2.937
 5699SOL    HW117996   1.501   2.277   2.846
 5699SOL    HW217997   1.546   2.321   2.997
 5700SOL     OW17998   6.330   6.868   3.520
 5700SOL    HW117999   6.430   6.869   3.519
 5700SOL    HW218000   6.296   6.856   3.427
 5701SOL     OW18001   0.409   0.543   1.377
 5701SOL    HW118002   0.375   0.565   1.468
 5701SOL    HW218003   0.471   0.464   1.382
 5702SOL     OW18004   2.071   5.951   3.957
 5702SOL    HW118005   2.011   6.016   4.003
 5702SOL    HW218006   2.016   5.889   3.901
 5703SOL     OW18007   0.101   4.644   6.785
 5703SOL    HW118008   0.091   4.731   6.736
 5703SOL    HW218009   0.021   4.629   6.842
 5704SOL     OW18010   4.821   3.975   3.433
 5704SOL    HW118011   4.822   3.884   3.391
 5704SOL    HW218012   4.793   4.043   3.364
 5705SOL     OW18013   4.905   5.707   6.760
 5705SOL    HW118014   4.985   5.687   6.818
 5705SOL    HW218015   4.922   5.675   6.667
 5706SOL     OW18016   5.293   2.592   2.197
 5706SOL    HW118017   5.198   2.589   2.167
 5706SOL    HW218018   5.316   2.685   2.227
 5707SOL     OW18019   6.329   0.089   0.992
 5707SOL    HW118020   6.306   0.028   0.916
 5707SOL    HW218021   6.412   0.140   0.970
 5708SOL     OW18022   5.164   5.792   2.277
 5708SOL    HW118023   5.066   5.804   2.260
 5708SOL    HW218024   5.216   5.853   2.217
 5709SOL     OW18025   0.482   1.297   2.270
 5709SOL    HW118026   0.394   1.261   2.301
 5709SOL    HW218027   0.475   1.323   2.174
 5710SOL     OW18028   3.474   2.224   0.482
 5710SOL    HW118029   3.471   2.225   0.582
 5710SOL    HW218030   3.562   2.259   0.451
 5711SOL     OW18031   5.162   0.929   1.309
 5711SOL    HW118032   5.093   0.857   1.306
 5711SOL    HW218033   5.141   0.992   1.384
 5712SOL     OW18034   6.194   6.623   6.993
 5712SOL    HW118035   6.099   6.598   7.013
 5712SOL    HW218036   6.216   6.710   0.013
 5713SOL     OW18037   2.800   3.856   1.534
 5713SOL    HW118038   2.771   3.941   1.491
 5713SOL    HW218039   2.867   3.876   1.606
 5714SOL     OW18040   6.721   6.267   1.459
 5714SOL    HW118041   6.801   6.240   1.407
 5714SOL    HW218042   6.742   6.265   1.557
 5715SOL     OW18043   0.031   0.027   2.503
 5715SOL    HW118044   6.961   0.055   2.518
 5715SOL    HW218045   0.035   6.953   2.486
 5716SOL     OW18046   1.124   6.181   5.609
 5716SOL    HW118047   1.147   6.253   5.675
 5716SOL    HW218048   1.029   6.191   5.580
 5717SOL     OW18049   1.559   4.992   1.222
 5717SOL    HW118050   1.534   4.899   1.195
 5717SOL    HW218051   1.581   4.994   1.320
 5718SOL     OW18052   1.405   3.607   0.420
 5718SOL    HW118053   1.390   3.664   0.501
 5718SOL    HW218054   1.370   3.655   0.339
 5719SOL     OW18055   2.438   3.176   0.534
 5719SOL    HW118056   2.374   3.173   0.457
 5719SOL    HW218057   2.424   3.260   0.586
 5720SOL     OW18058   1.693   6.772   4.575
 5720SOL    HW118059   1.792   6.777   4.566
 5720SOL    HW218060   1.665   6.808   4.664
 5721SOL     OW18061   5.890   4.521   0.922
 5721SOL    HW118062   5.884   4.512   1.021
 5721SOL    HW218063   5.983   4.499   0.892
 5722SOL     OW18064   6.483   2.401   5.111
 5722SOL    HW118065   6.505   2.434   5.203
 5722SOL    HW218066   6.400   2.345   5.115
 5723SOL     OW18067   4.638   3.826   0.189
 5723SOL    HW118068   4.593   3.766   0.123
 5723SOL    HW218069   4.627   3.788   0.281
 5724SOL     OW18070   5.921   2.800   4.118
 5724SOL    HW118071   5.951   2.757   4.203
 5724SOL    HW218072   5.934   2.899   4.125
 5725SOL     OW18073   6.792   4.699   4.262
 5725SOL    HW118074   6.755   4.627   4.203
 5725SOL    HW218075   6.892   4.690   4.267
 5726SOL     OW18076   6.817   5.514   3.967
 5726SOL    HW118077   6.853   5.578   3.899
 5726SOL    HW218078   6.723   5.490   3.943
 5727SOL     OW18079   6.461   2.800   4.537
 5727SOL    HW118080   6.435   2.861   4.612
 5727SOL    HW218081   6.539   2.744   4.566
 5728SOL     OW18082   5.084   6.305   5.320
 5728SOL    HW118083   5.016   6.379   5.320
 5728SOL    HW218084   5.038   6.217   5.308
 5729SOL     OW18085   1.676   1.661   6.702
 5729SOL    HW118086   1.730   1.596   6.648
 5729SOL    HW218087   1.581   1.629   6.707
 5730SOL     OW18088   6.016   4.628   6.197
 5730SOL    HW118089   6.069   4.597   6.276
 5730SOL    HW218090   5.928   4.665   6.229
 5731SOL     OW18091   6.451   0.432   2.424
 5731SOL    HW118092   6.474   0.519   2.468
 5731SOL    HW218093   6.513   0.361   2.456
 5732SOL     OW18094   0.542   6.124   3.832
 5732SOL    HW118095   0.472   6.194   3.821
 5732SOL    HW218096   0.500   6.039   3.865
 5733SOL     OW18097   3.551   6.336   5.193
 5733SOL    HW118098   3.581   6.291   5.277
 5733SOL    HW218099   3.629   6.350   5.133
 5734SOL     OW18100   1.282   0.680   5.240
 5734SOL    HW118101   1.377   0.650   5.225
 5734SOL    HW218102   1.275   0.725   5.329
 5735SOL     OW18103   3.396   1.476   0.934
 5735SOL    HW118104   3.363   1.382   0.938
 5735SOL    HW218105   3.392   1.517   1.025
 5736SOL     OW18106   6.864   4.428   0.201
 5736SOL    HW118107   6.932   4.360   0.170
 5736SOL    HW218108   6.892   4.465   0.289
 5737SOL     OW18109   5.510   5.925   0.860
 5737SOL    HW118110   5.577   5.994   0.833
 5737SOL    HW218111   5.437   5.969   0.913
 5738SOL     OW18112   1.788   3.309   6.110
 5738SOL    HW118113   1.858   3.275   6.173
 5738SOL    HW218114   1.829   3.373   6.045
 5739SOL     OW18115   1.751   1.469   6.422
 5739SOL    HW118116   1.830   1.526   6.443
 5739SOL    HW218117   1.680   1.525   6.379
 5740SOL     OW18118   4.168   5.334   0.568
 5740SOL    HW118119   4.117   5.250   0.554
 5740SOL    HW218120   4.204   5.367   0.481
 5741SOL     OW18121   0.100   5.467   3.948
 5741SOL    HW118122   0.006   5.502   3.938
 5741SOL    HW218123   0.102   5.398   4.020
 5742SOL     OW18124   4.975   6.161   2.672
 5742SOL    HW118125   5.057   6.216   2.657
 5742SOL    HW218126   4.909   6.213   2.726
 5743SOL     OW18127   2.730   6.160   4.879
 5743SOL    HW118128   2.710   6.065   4.854
 5743SOL    HW218129   2.799   6.161   4.951
 5744SOL     OW18130   4.533   0.286   0.966
 5744SOL    HW118131   4.527   0.342   1.048
 5744SOL    HW218132   4.561   0.342   0.888
 5745SOL     OW18133   3.426   1.231   4.349
 5745SOL    HW118134   3.488   1.231   4.271
 5745SOL    HW218135   3.333   1.213   4.318
 5746SOL     OW18136   4.896   1.120   1.003
 5746SOL    HW118137   4.958   1.173   1.061
 5746SOL    HW218138   4.802   1.152   1.016
 5747SOL     OW18139   0.220   5.241   2.871
 5747SOL    HW118140   0.241   5.274   2.779
 5747SOL    HW218141   0.236   5.142   2.875
 5748SOL     OW18142   1.479   4.741   1.146
 5748SOL    HW118143   1.388   4.747   1.105
 5748SOL    HW218144   1.498   4.645   1.170
 5749SOL     OW18145   2.648   1.009   4.233
 5749SOL    HW118146   2.727   0.987   4.291
 5749SOL    HW218147   2.569   0.955   4.263
 5750SOL     OW18148   5.763   5.140   4.614
 5750SOL    HW118149   5.715   5.204   4.673
 5750SOL    HW218150   5.803   5.067   4.670
 5751SOL     OW18151   2.649   2.493   4.862
 5751SOL    HW118152   2.671   2.460   4.954
 5751SOL    HW218153   2.733   2.519   4.815
 5752SOL     OW18154   6.064   1.266   6.054
 5752SOL    HW118155   6.149   1.280   6.104
 5752SOL    HW218156   6.085   1.248   5.957
 5753SOL     OW18157   3.527   3.590   6.304
 5753SOL    HW118158   3.529   3.575   6.403
 5753SOL    HW218159   3.533   3.688   6.286
 5754SOL     OW18160   5.799   5.761   1.303
 5754SOL    HW118161   5.847   5.807   1.229
 5754SOL    HW218162   5.866   5.717   1.364
 5755SOL     OW18163   3.039   3.860   6.122
 5755SOL    HW118164   2.979   3.832   6.196
 5755SOL    HW218165   3.084   3.780   6.082
 5756SOL     OW18166   6.683   5.431   3.614
 5756SOL    HW118167   6.766   5.424   3.558
 5756SOL    HW218168   6.643   5.522   3.603
 5757SOL     OW18169   6.563   6.445   2.136
 5757SOL    HW118170   6.527   6.447   2.230
 5757SOL    HW218171   6.607   6.533   2.116
 5758SOL     OW18172   2.860   1.969   4.053
 5758SOL    HW118173   2.793   1.955   4.127
 5758SOL    HW218174   2.856   1.891   3.990
 5759SOL     OW18175   4.795   2.240   6.735
 5759SOL    HW118176   4.859   2.163   6.737
 5759SOL    HW218177   4.702   2.207   6.755
 5760SOL     OW18178   1.655   6.272   1.987
 5760SOL    HW118179   1.648   6.294   2.085
 5760SOL    HW218180   1.609   6.343   1.934
 5761SOL     OW18181   6.048   0.093   5.106
 5761SOL    HW118182   5.978   0.152   5.146
 5761SOL    HW218183   6.122   0.150   5.070
 5762SOL     OW18184   5.268   0.222   0.048
 5762SOL    HW118185   5.278   0.167   0.131
 5762SOL    HW218186   5.254   0.318   0.072
 5763SOL     OW18187   1.150   6.565   0.769
 5763SOL    HW118188   1.135   6.504   0.692
 5763SOL    HW218189   1.248   6.581   0.780
 5764SOL     OW18190   5.760   4.875   5.587
 5764SOL    HW118191   5.707   4.896   5.669
 5764SOL    HW218192   5.844   4.827   5.613
 5765SOL     OW18193   6.180   4.920   6.155
 5765SOL    HW118194   6.115   4.887   6.087
 5765SOL    HW218195   6.190   5.020   6.145
 5766SOL     OW18196   2.748   1.233   1.659
 5766SOL    HW118197   2.653   1.210   1.639
 5766SOL    HW218198   2.796   1.151   1.691
 5767SOL     OW18199   1.732   6.682   0.384
 5767SOL    HW118200   1.754   6.596   0.429
 5767SOL    HW218201   1.696   6.663   0.293
 5768SOL     OW18202   6.914   0.329   3.026
 5768SOL    HW118203   6.879   0.257   2.967
 5768SOL    HW218204   6.868   0.325   3.115
 5769SOL     OW18205   2.938   0.025   3.161
 5769SOL    HW118206   2.922   6.998   3.077
 5769SOL    HW218207   3.005   7.001   3.217
 5770SOL     OW18208   6.992   0.135   0.693
 5770SOL    HW118209   6.959   0.178   0.777
 5770SOL    HW218210   0.057   0.172   0.670
 5771SOL     OW18211   1.819   0.123   1.419
 5771SOL    HW118212   1.831   0.058   1.343
 5771SOL    HW218213   1.780   0.208   1.384
 5772SOL     OW18214   6.064   2.531   0.744
 5772SOL    HW118215   6.120   2.484   0.676
 5772SOL    HW218216   6.073   2.484   0.832
 5773SOL     OW18217   5.588   6.772   3.767
 5773SOL    HW118218   5.611   6.861   3.804
 5773SOL    HW218219   5.647   6.702   3.809
 5774SOL     OW18220   2.477   4.404   3.543
 5774SOL    HW118221   2.500   4.410   3.640
 5774SOL    HW218222   2.431   4.316   3.525
 5775SOL     OW18223   0.975   0.185   1.011
 5775SOL    HW118224   1.003   0.277   0.981
 5775SOL    HW218225   0.896   0.193   1.072
 5776SOL     OW18226   6.467   1.073   6.453
 5776SOL    HW118227   6.537   1.132   6.494
 5776SOL    HW218228   6.505   1.027   6.372
 5777SOL     OW18229   6.126   0.899   4.333
 5777SOL    HW118230   6.135   0.929   4.428
 5777SOL    HW218231   6.036   0.858   4.319
 5778SOL     OW18232   2.582   0.485   2.576
 5778SOL    HW118233   2.512   0.445   2.516
 5778SOL    HW218234   2.646   0.539   2.521
 5779SOL     OW18235   3.464   0.520   1.003
 5779SOL    HW118236   3.440   0.582   0.928
 5779SOL    HW218237   3.480   0.428   0.965
 5780SOL     OW18238   6.573   4.894   1.862
 5780SOL    HW118239   6.641   4.838   1.814
 5780SOL    HW218240   6.539   4.966   1.801
 5781SOL     OW18241   2.243   4.092   4.713
 5781SOL    HW118242   2.272   4.062   4.804
 5781SOL    HW218243   2.212   4.187   4.718
 5782SOL     OW18244   1.423   1.078   1.283
 5782SOL    HW118245   1.330   1.061   1.318
 5782SOL    HW218246   1.419   1.088   1.184
 5783SOL     OW18247   1.659   1.059   0.429
 5783SOL    HW118248   1.655   1.034   0.525
 5783SOL    HW218249   1.688   1.154   0.419
 5784SOL     OW18250   0.683   6.266   0.091
 5784SOL    HW118251   0.597   6.223   0.064
 5784SOL    HW218252   0.681   6.290   0.188
 5785SOL     OW18253   1.069   1.006   0.731
 5785SOL    HW118254   1.123   1.045   0.806
 5785SOL    HW218255   1.027   1.080   0.679
 5786SOL     OW18256   1.627   3.475   1.598
 5786SOL    HW118257   1.565   3.410   1.641
 5786SOL    HW218258   1.575   3.542   1.545
 5787SOL     OW18259   5.861   2.293   4.414
 5787SOL    HW118260   5.842   2.208   4.364
 5787SOL    HW218261   5.938   2.340   4.373
 5788SOL     OW18262   3.145   0.319   1.609
 5788SOL    HW118263   3.156   0.382   1.685
 5788SOL    HW218264   3.098   0.236   1.640
 5789SOL     OW18265   3.862   2.850   6.989
 5789SOL    HW118266   3.853   2.890   0.056
 5789SOL    HW218267   3.944   2.886   6.945
 5790SOL     OW18268   6.389   5.695   4.814
 5790SOL    HW118269   6.426   5.784   4.842
 5790SOL    HW218270   6.449   5.622   4.848
 5791SOL     OW18271   3.059   1.428   2.377
 5791SOL    HW118272   3.155   1.450   2.360
 5791SOL    HW218273   3.033   1.457   2.469
 5792SOL     OW18274   5.073   3.192   3.109
 5792SOL    HW118275   5.126   3.264   3.063
 5792SOL    HW218276   5.078   3.108   3.055
 5793SOL     OW18277   5.870   2.452   5.248
 5793SOL    HW118278   5.898   2.546   5.267
 5793SOL    HW218279   5.774   2.440   5.276
 5794SOL     OW18280   2.781   6.467   6.308
 5794SOL    HW118281   2.844   6.390   6.315
 5794SOL    HW218282   2.831   6.548   6.278
 5795SOL     OW18283   0.824   5.954   1.427
 5795SOL    HW118284   0.904   5.900   1.402
 5795SOL    HW218285   0.793   5.927   1.518
 5796SOL     OW18286   4.489   1.587   6.359
 5796SOL    HW118287   4.493   1.681   6.391
 5796SOL    HW218288   4.428   1.534   6.418
 5797SOL     OW18289   5.575   1.610   0.186
 5797SOL    HW118290   5.519   1.686   0.219
 5797SOL    HW218291   5.530   1.523   0.207
 5798SOL     OW18292   0.739   3.895   4.652
 5798SOL    HW118293   0.732   3.862   4.746
 5798SOL    HW218294   0.788   3.828   4.597
 5799SOL     OW18295   1.610   6.311   3.106
 5799SOL    HW118296   1.518   6.274   3.096
 5799SOL    HW218297   1.658   6.262   3.179
 5800SOL     OW18298   0.117   6.935   0.697
 5800SOL    HW118299   0.028   6.953   0.655
 5800SOL    HW218300   0.105   6.927   0.796
 5801SOL     OW18301   2.541   2.397   2.545
 5801SOL    HW118302   2.580   2.380   2.454
 5801SOL    HW218303   2.509   2.491   2.550
 5802SOL     OW18304   6.818   1.829   3.238
 5802SOL    HW118305   6.817   1.814   3.139
 5802SOL    HW218306   6.730   1.865   3.268
 5803SOL     OW18307   1.687   5.245   4.280
 5803SOL    HW118308   1.719   5.308   4.351
 5803SOL    HW218309   1.635   5.170   4.322
 5804SOL     OW18310   6.538   6.655   3.735
 5804SOL    HW118311   6.518   6.728   3.801
 5804SOL    HW218312   6.466   6.585   3.740
 5805SOL     OW18313   1.718   3.545   1.157
 5805SOL    HW118314   1.645   3.479   1.175
 5805SOL    HW218315   1.743   3.590   1.243
 5806SOL     OW18316   0.587   3.402   3.737
 5806SOL    HW118317   0.577   3.302   3.737
 5806SOL    HW218318   0.664   3.427   3.678
 5807SOL     OW18319   1.244   5.916   1.171
 5807SOL    HW118320   1.206   5.952   1.085
 5807SOL    HW218321   1.277   5.991   1.227
 5808SOL     OW18322   6.341   6.691   4.201
 5808SOL    HW118323   6.407   6.759   4.234
 5808SOL    HW218324   6.249   6.716   4.228
 5809SOL     OW18325   0.536   2.212   5.730
 5809SOL    HW118326   0.442   2.208   5.697
 5809SOL    HW218327   0.538   2.192   5.828
 5810SOL     OW18328   4.254   6.631   5.148
 5810SOL    HW118329   4.169   6.679   5.125
 5810SOL    HW218330   4.304   6.609   5.064
 5811SOL     OW18331   2.937   3.035   6.160
 5811SOL    HW118332   2.953   2.988   6.247
 5811SOL    HW218333   2.980   3.125   6.162
 5812SOL     OW18334   5.840   2.887   0.613
 5812SOL    HW118335   5.789   2.921   0.693
 5812SOL    HW218336   5.780   2.888   0.533
 5813SOL     OW18337   4.127   6.171   1.270
 5813SOL    HW118338   4.052   6.184   1.205
 5813SOL    HW218339   4.098   6.198   1.362
 5814SOL     OW18340   6.319   1.921   2.286
 5814SOL    HW118341   6.259   1.988   2.241
 5814SOL    HW218342   6.376   1.968   2.354
 5815SOL     OW18343   6.370   1.388   3.799
 5815SOL    HW118344   6.303   1.314   3.794
 5815SOL    HW218345   6.428   1.386   3.717
 5816SOL     OW18346   0.116   5.096   2.561
 5816SOL    HW118347   0.079   5.053   2.643
 5816SOL    HW218348   0.042   5.112   2.495
 5817SOL     OW18349   5.653   3.921   5.095
 5817SOL    HW118350   5.743   3.916   5.138
 5817SOL    HW218351   5.650   4.000   5.034
 5818SOL     OW18352   1.309   6.673   4.661
 5818SOL    HW118353   1.304   6.698   4.564
 5818SOL    HW218354   1.295   6.575   4.671
 5819SOL     OW18355   3.209   4.787   0.296
 5819SOL    HW118356   3.268   4.811   0.220
 5819SOL    HW218357   3.262   4.742   0.368
 5820SOL     OW18358   5.484   4.944   2.064
 5820SOL    HW118359   5.428   4.894   2.130
 5820SOL    HW218360   5.431   5.021   2.028
 5821SOL     OW18361   6.903   0.890   1.301
 5821SOL    HW118362   6.884   0.833   1.220
 5821SOL    HW218363   6.963   0.966   1.275
 5822SOL     OW18364   1.491   2.047   3.119
 5822SOL    HW118365   1.489   2.115   3.045
 5822SOL    HW218366   1.566   2.069   3.182
 5823SOL     OW18367   2.187   6.470   3.959
 5823SOL    HW118368   2.254   6.471   3.884
 5823SOL    HW218369   2.235   6.485   4.046
 5824SOL     OW18370   1.027   6.786   2.281
 5824SOL    HW118371   1.028   6.853   2.355
 5824SOL    HW218372   0.935   6.748   2.272
 5825SOL     OW18373   6.700   7.014   4.883
 5825SOL    HW118374   6.718   6.933   4.939
 5825SOL    HW218375   6.607   0.023   4.903
 5826SOL     OW18376   0.421   0.698   5.446
 5826SOL    HW118377   0.324   0.695   5.421
 5826SOL    HW218378   0.463   0.781   5.407
 5827SOL     OW18379   1.293   3.532   5.251
 5827SOL    HW118380   1.256   3.505   5.162
 5827SOL    HW218381   1.357   3.462   5.283
 5828SOL     OW18382   5.404   6.514   4.147
 5828SOL    HW118383   5.305   6.525   4.163
 5828SOL    HW218384   5.419   6.449   4.073
 5829SOL     OW18385   2.071   0.870   4.663
 5829SOL    HW118386   2.022   0.943   4.615
 5829SOL    HW218387   2.168   0.875   4.640
 5830SOL     OW18388   3.532   5.121   5.218
 5830SOL    HW118389   3.562   5.130   5.313
 5830SOL    HW218390   3.494   5.208   5.187
 5831SOL     OW18391   1.252   1.428   5.358
 5831SOL    HW118392   1.318   1.416   5.432
 5831SOL    HW218393   1.204   1.341   5.342
 5832SOL     OW18394   3.325   4.654   1.456
 5832SOL    HW118395   3.262   4.728   1.479
 5832SOL    HW218396   3.352   4.607   1.540
 5833SOL     OW18397   4.088   3.817   5.502
 5833SOL    HW118398   4.181   3.850   5.491
 5833SOL    HW218399   4.066   3.753   5.428
 5834SOL     OW18400   6.526   4.653   6.704
 5834SOL    HW118401   6.612   4.696   6.732
 5834SOL    HW218402   6.498   4.689   6.615
 5835SOL     OW18403   5.417   0.566   3.082
 5835SOL    HW118404   5.472   0.506   3.141
 5835SOL    HW218405   5.404   0.654   3.128
 5836SOL     OW18406   4.361   6.349   2.568
 5836SOL    HW118407   4.276   6.340   2.517
 5836SOL    HW218408   4.433   6.384   2.508
 5837SOL     OW18409   3.688   4.117   0.563
 5837SOL    HW118410   3.646   4.179   0.629
 5837SOL    HW218411   3.758   4.061   0.609
 5838SOL     OW18412   2.801   1.970   1.408
 5838SOL    HW118413   2.723   2.031   1.391
 5838SOL    HW218414   2.814   1.960   1.507
 5839SOL     OW18415   1.352   2.379   1.965
 5839SOL    HW118416   1.341   2.438   1.886
 5839SOL    HW218417   1.398   2.294   1.938
 5840SOL     OW18418   0.629   3.564   2.273
 5840SOL    HW118419   0.558   3.514   2.223
 5840SOL    HW218420   0.644   3.653   2.229
 5841SOL     OW18421   5.027   0.671   1.241
 5841SOL    HW118422   4.957   0.606   1.211
 5841SOL    HW218423   5.085   0.629   1.310
 5842SOL     OW18424   3.408   1.999   0.346
 5842SOL    HW118425   3.485   1.971   0.289
 5842SOL    HW218426   3.431   2.083   0.395
 5843SOL     OW18427   1.841   3.684   0.924
 5843SOL    HW118428   1.784   3.666   1.004
 5843SOL    HW218429   1.844   3.603   0.866
 5844SOL     OW18430   0.615   0.173   5.081
 5844SOL    HW118431   0.608   0.183   4.982
 5844SOL    HW218432   0.539   0.117   5.114
 5845SOL     OW18433   0.247   6.594   1.864
 5845SOL    HW118434   0.261   6.504   1.822
 5845SOL    HW218435   0.195   6.652   1.802
 5846SOL     OW18436   6.865   3.686   5.509
 5846SOL    HW118437   6.946   3.733   5.474
 5846SOL    HW218438   6.875   3.587   5.495
 5847SOL     OW18439   2.734   2.989   1.430
 5847SOL    HW118440   2.635   2.991   1.440
 5847SOL    HW218441   2.765   2.894   1.422
 5848SOL     OW18442   2.269   6.084   3.717
 5848SOL    HW118443   2.278   6.096   3.815
 5848SOL    HW218444   2.218   6.000   3.697
 5849SOL     OW18445   2.285   6.766   5.161
 5849SOL    HW118446   2.333   6.850   5.139
 5849SOL    HW218447   2.231   6.736   5.082
 5850SOL     OW18448   1.524   2.283   1.718
 5850SOL    HW118449   1.485   2.207   1.770
 5850SOL    HW218450   1.611   2.255   1.678
 5851SOL     OW18451   5.930   3.079   4.112
 5851SOL    HW118452   5.949   3.147   4.183
 5851SOL    HW218453   5.965   3.111   4.024
 5852SOL     OW18454   5.001   5.599   3.671
 5852SOL    HW118455   5.067   5.534   3.633
 5852SOL    HW218456   4.963   5.561   3.756
 5853SOL     OW18457   3.599   5.142   5.509
 5853SOL    HW118458   3.556   5.051   5.507
 5853SOL    HW218459   3.673   5.143   5.575
 5854SOL     OW18460   3.374   4.622   5.834
 5854SOL    HW118461   3.292   4.675   5.851
 5854SOL    HW218462   3.439   4.677   5.782
 5855SOL     OW18463   1.998   2.498   3.781
 5855SOL    HW118464   1.976   2.465   3.873
 5855SOL    HW218465   2.084   2.457   3.750
 5856SOL     OW18466   1.830   6.433   2.474
 5856SOL    HW118467   1.908   6.472   2.523
 5856SOL    HW218468   1.746   6.477   2.504
 5857SOL     OW18469   0.106   3.129   5.962
 5857SOL    HW118470   0.066   3.209   6.007
 5857SOL    HW218471   0.101   3.141   5.862
 5858SOL     OW18472   1.835   1.462   3.340
 5858SOL    HW118473   1.866   1.546   3.384
 5858SOL    HW218474   1.913   1.404   3.320
 5859SOL     OW18475   5.833   0.233   1.776
 5859SOL    HW118476   5.897   0.222   1.700
 5859SOL    HW218477   5.742   0.203   1.748
 5860SOL     OW18478   0.363   3.944   3.226
 5860SOL    HW118479   0.349   3.845   3.218
 5860SOL    HW218480   0.406   3.965   3.314
 5861SOL     OW18481   6.097   0.451   4.930
 5861SOL    HW118482   6.024   0.422   4.868
 5861SOL    HW218483   6.149   0.371   4.961
 5862SOL     OW18484   6.206   5.870   2.450
 5862SOL    HW118485   6.278   5.931   2.482
 5862SOL    HW218486   6.233   5.830   2.362
 5863SOL     OW18487   2.969   0.752   4.914
 5863SOL    HW118488   2.872   0.770   4.934
 5863SOL    HW218489   3.025   0.791   4.987
 5864SOL     OW18490   3.749   3.634   3.367
 5864SOL    HW118491   3.776   3.546   3.405
 5864SOL    HW218492   3.680   3.676   3.427
 5865SOL     OW18493   6.110   1.216   5.786
 5865SOL    HW118494   6.076   1.300   5.743
 5865SOL    HW218495   6.183   1.176   5.730
 5866SOL     OW18496   3.736   3.680   1.583
 5866SOL    HW118497   3.763   3.624   1.661
 5866SOL    HW218498   3.731   3.623   1.501
 5867SOL     OW18499   2.287   2.073   1.537
 5867SOL    HW118500   2.328   1.996   1.490
 5867SOL    HW218501   2.313   2.072   1.634
 5868SOL     OW18502   0.790   1.662   5.987
 5868SOL    HW118503   0.783   1.562   5.993
 5868SOL    HW218504   0.744   1.703   6.067
 5869SOL     OW18505   0.756   4.592   3.818
 5869SOL    HW118506   0.717   4.517   3.872
 5869SOL    HW218507   0.802   4.656   3.878
 5870SOL     OW18508   4.156   4.670   5.426
 5870SOL    HW118509   4.159   4.708   5.518
 5870SOL    HW218510   4.099   4.729   5.367
 5871SOL     OW18511   3.048   3.218   3.644
 5871SOL    HW118512   3.065   3.286   3.572
 5871SOL    HW218513   2.980   3.254   3.708
 5872SOL     OW18514   4.042   6.019   1.611
 5872SOL    HW118515   4.118   5.983   1.665
 5872SOL    HW218516   3.963   6.033   1.670
 5873SOL     OW18517   2.848   5.084   2.737
 5873SOL    HW118518   2.827   5.117   2.829
 5873SOL    HW218519   2.888   4.993   2.742
 5874SOL     OW18520   2.241   4.287   5.021
 5874SOL    HW118521   2.256   4.299   5.119
 5874SOL    HW218522   2.266   4.194   4.995
 5875SOL     OW18523   3.586   2.224   0.155
 5875SOL    HW118524   3.669   2.254   0.108
 5875SOL    HW218525   3.528   2.303   0.172
 5876SOL     OW18526   3.966   3.845   2.469
 5876SOL    HW118527   4.056   3.847   2.427
 5876SOL    HW218528   3.975   3.820   2.566
 5877SOL     OW18529   6.002   6.311   1.097
 5877SOL    HW118530   6.051   6.298   1.184
 5877SOL    HW218531   5.956   6.226   1.072
 5878SOL     OW18532   1.188   5.531   3.372
 5878SOL    HW118533   1.225   5.621   3.349
 5878SOL    HW218534   1.255   5.461   3.348
 5879SOL     OW18535   6.185   3.624   6.873
 5879SOL    HW118536   6.113   3.594   6.936
 5879SOL    HW218537   6.248   3.684   6.921
 5880SOL     OW18538   2.718   5.769   1.279
 5880SOL    HW118539   2.650   5.821   1.330
 5880SOL    HW218540   2.802   5.761   1.333
 5881SOL     OW18541   0.089   4.751   3.695
 5881SOL    HW118542   0.163   4.687   3.673
 5881SOL    HW218543   0.119   4.844   3.673
 5882SOL     OW18544   5.909   0.594   0.838
 5882SOL    HW118545   5.812   0.592   0.817
 5882SOL    HW218546   5.962   0.572   0.755
 5883SOL     OW18547   0.458   2.379   6.236
 5883SOL    HW118548   0.456   2.476   6.215
 5883SOL    HW218549   0.467   2.366   6.335
 5884SOL     OW18550   1.848   1.285   3.534
 5884SOL    HW118551   1.823   1.373   3.493
 5884SOL    HW218552   1.847   1.214   3.464
 5885SOL     OW18553   6.640   6.542   1.544
 5885SOL    HW118554   6.677   6.484   1.471
 5885SOL    HW218555   6.642   6.492   1.631
 5886SOL     OW18556   0.326   2.638   5.155
 5886SOL    HW118557   0.279   2.602   5.075
 5886SOL    HW218558   0.266   2.699   5.206
 5887SOL     OW18559   4.039   1.025   3.983
 5887SOL    HW118560   4.045   1.115   3.939
 5887SOL    HW218561   3.950   0.984   3.962
 5888SOL     OW18562   2.757   6.144   2.839
 5888SOL    HW118563   2.769   6.217   2.907
 5888SOL    HW218564   2.778   6.056   2.882
 5889SOL     OW18565   1.788   6.959   1.611
 5889SOL    HW118566   1.813   0.001   1.540
 5889SOL    HW218567   1.714   6.998   1.667
 5890SOL     OW18568   1.169   7.003   5.228
 5890SOL    HW118569   1.191   6.913   5.189
 5890SOL    HW218570   1.077   7.001   5.268
 5891SOL     OW18571   4.281   3.242   6.821
 5891SOL    HW118572   4.264   3.211   6.727
 5891SOL    HW218573   4.271   3.341   6.826
 5892SOL     OW18574   0.898   6.183   1.288
 5892SOL    HW118575   0.858   6.099   1.326
 5892SOL    HW218576   0.985   6.201   1.333
 5893SOL     OW18577   1.592   3.161   3.261
 5893SOL    HW118578   1.555   3.146   3.353
 5893SOL    HW218579   1.676   3.215   3.267
 5894SOL     OW18580   1.093   4.796   3.664
 5894SOL    HW118581   1.152   4.877   3.663
 5894SOL    HW218582   1.144   4.718   3.627
 5895SOL     OW18583   5.169   2.460   4.726
 5895SOL    HW118584   5.095   2.497   4.783
 5895SOL    HW218585   5.257   2.495   4.759
 5896SOL     OW18586   4.126   2.130   0.196
 5896SOL    HW118587   4.074   2.062   0.143
 5896SOL    HW218588   4.160   2.087   0.279
 5897SOL     OW18589   3.823   0.052   1.904
 5897SOL    HW118590   3.827   0.019   1.809
 5897SOL    HW218591   3.911   0.091   1.929
 5898SOL     OW18592   1.809   0.623   2.572
 5898SOL    HW118593   1.908   0.619   2.563
 5898SOL    HW218594   1.773   0.696   2.513
 5899SOL     OW18595   5.417   0.053   5.075
 5899SOL    HW118596   5.359   0.082   4.999
 5899SOL    HW218597   5.360   0.035   5.156
 5900SOL     OW18598   4.819   5.116   3.594
 5900SOL    HW118599   4.825   5.200   3.540
 5900SOL    HW218600   4.828   5.037   3.533
 5901SOL     OW18601   2.071   0.578   6.557
 5901SOL    HW118602   2.129   0.606   6.633
 5901SOL    HW218603   2.088   0.482   6.536
 5902SOL     OW18604   6.861   2.177   0.767
 5902SOL    HW118605   6.872   2.241   0.843
 5902SOL    HW218606   6.812   2.222   0.693
 5903SOL     OW18607   5.503   4.156   0.770
 5903SOL    HW118608   5.473   4.243   0.731
 5903SOL    HW218609   5.572   4.115   0.711
 5904SOL     OW18610   0.198   3.639   2.534
 5904SOL    HW118611   0.251   3.723   2.545
 5904SOL    HW218612   0.101   3.662   2.522
 5905SOL     OW18613   6.116   6.132   2.780
 5905SOL    HW118614   6.147   6.192   2.854
 5905SOL    HW218615   6.154   6.041   2.792
 5906SOL     OW18616   5.438   0.641   4.142
 5906SOL    HW118617   5.507   0.690   4.194
 5906SOL    HW218618   5.374   0.597   4.205
 5907SOL     OW18619   1.444   6.127   1.689
 5907SOL    HW118620   1.414   6.109   1.782
 5907SOL    HW218621   1.419   6.049   1.630
 5908SOL     OW18622   0.885   2.526   5.703
 5908SOL    HW118623   0.812   2.572   5.652
 5908SOL    HW218624   0.876   2.427   5.692
 5909SOL     OW18625   0.674   5.446   0.517
 5909SOL    HW118626   0.708   5.352   0.518
 5909SOL    HW218627   0.728   5.501   0.580
 5910SOL     OW18628   0.979   2.484   3.595
 5910SOL    HW118629   0.984   2.406   3.532
 5910SOL    HW218630   0.972   2.569   3.542
 5911SOL     OW18631   0.204   5.347   6.380
 5911SOL    HW118632   0.235   5.349   6.285
 5911SOL    HW218633   0.139   5.422   6.394
 5912SOL     OW18634   6.478   1.363   5.533
 5912SOL    HW118635   6.385   1.389   5.560
 5912SOL    HW218636   6.524   1.320   5.611
 5913SOL     OW18637   5.373   2.714   0.116
 5913SOL    HW118638   5.440   2.679   0.049
 5913SOL    HW218639   5.355   2.810   0.097
 5914SOL     OW18640   1.279   6.882   6.590
 5914SOL    HW118641   1.255   6.975   6.562
 5914SOL    HW218642   1.271   6.820   6.512
 5915SOL     OW18643   3.549   6.221   0.518
 5915SOL    HW118644   3.499   6.165   0.452
 5915SOL    HW218645   3.550   6.173   0.606
 5916SOL     OW18646   0.276   6.744   2.273
 5916SOL    HW118647   0.305   6.814   2.338
 5916SOL    HW218648   0.211   6.682   2.317
 5917SOL     OW18649   2.971   3.919   5.842
 5917SOL    HW118650   3.015   4.003   5.814
 5917SOL    HW218651   2.993   3.900   5.938
 5918SOL     OW18652   2.064   5.741   6.068
 5918SOL    HW118653   2.036   5.808   5.999
 5918SOL    HW218654   2.126   5.783   6.133
 5919SOL     OW18655   2.854   3.603   3.122
 5919SOL    HW118656   2.863   3.505   3.140
 5919SOL    HW218657   2.908   3.627   3.041
 5920SOL     OW18658   5.013   1.316   6.010
 5920SOL    HW118659   4.998   1.409   5.975
 5920SOL    HW218660   4.991   1.313   6.108
 5921SOL     OW18661   3.636   5.060   6.678
 5921SOL    HW118662   3.670   5.105   6.596
 5921SOL    HW218663   3.698   4.986   6.704
 5922SOL     OW18664   6.531   3.650   3.849
 5922SOL    HW118665   6.590   3.577   3.814
 5922SOL    HW218666   6.468   3.679   3.777
 5923SOL     OW18667   0.168   0.831   1.640
 5923SOL    HW118668   0.098   0.779   1.591
 5923SOL    HW218669   0.213   0.895   1.577
 5924SOL     OW18670   5.984   6.789   3.242
 5924SOL    HW118671   5.937   6.775   3.155
 5924SOL    HW218672   5.919   6.777   3.318
 5925SOL     OW18673   3.972   6.290   1.862
 5925SOL    HW118674   4.059   6.290   1.812
 5925SOL    HW218675   3.926   6.203   1.847
 5926SOL     OW18676   4.515   4.468   2.798
 5926SOL    HW118677   4.423   4.497   2.772
 5926SOL    HW218678   4.573   4.464   2.717
 5927SOL     OW18679   1.059   3.368   2.017
 5927SOL    HW118680   0.991   3.386   2.088
 5927SOL    HW218681   1.100   3.278   2.032
 5928SOL     OW18682   3.754   6.745   1.627
 5928SOL    HW118683   3.702   6.747   1.542
 5928SOL    HW218684   3.700   6.701   1.698
 5929SOL     OW18685   6.236   0.811   5.524
 5929SOL    HW118686   6.158   0.872   5.535
 5929SOL    HW218687   6.292   0.813   5.607
 5930SOL     OW18688   0.709   2.656   2.226
 5930SOL    HW118689   0.773   2.584   2.197
 5930SOL    HW218690   0.724   2.738   2.170
 5931SOL     OW18691   5.938   5.968   2.491
 5931SOL    HW118692   6.031   5.955   2.456
 5931SOL    HW218693   5.940   6.036   2.564
 5932SOL     OW18694   3.483   0.008   6.385
 5932SOL    HW118695   3.435   6.946   6.401
 5932SOL    HW218696   3.578   7.013   6.359
 5933SOL     OW18697   6.616   5.059   4.312
 5933SOL    HW118698   6.584   5.057   4.217
 5933SOL    HW218699   6.565   5.129   4.362
 5934SOL     OW18700   3.726   3.255   5.794
 5934SOL    HW118701   3.659   3.313   5.841
 5934SOL    HW218702   3.729   3.166   5.839
 5935SOL     OW18703   0.593   6.011   5.389
 5935SOL    HW118704   0.539   5.938   5.347
 5935SOL    HW218705   0.553   6.100   5.368
 5936SOL     OW18706   3.119   3.467   2.606
 5936SOL    HW118707   3.053   3.420   2.547
 5936SOL    HW218708   3.153   3.403   2.675
 5937SOL     OW18709   6.385   3.084   2.354
 5937SOL    HW118710   6.380   3.152   2.280
 5937SOL    HW218711   6.418   2.997   2.317
 5938SOL     OW18712   5.908   5.594   4.918
 5938SOL    HW118713   5.868   5.503   4.908
 5938SOL    HW218714   5.900   5.644   4.832
 5939SOL     OW18715   3.236   6.024   4.143
 5939SOL    HW118716   3.254   5.930   4.173
 5939SOL    HW218717   3.192   6.075   4.217
 5940SOL     OW18718   4.159   5.017   3.104
 5940SOL    HW118719   4.071   4.969   3.096
 5940SOL    HW218720   4.143   5.109   3.140
 5941SOL     OW18721   5.885   2.641   3.364
 5941SOL    HW118722   5.958   2.678   3.308
 5941SOL    HW218723   5.908   2.651   3.461
 5942SOL     OW18724   5.648   2.855   6.486
 5942SOL    HW118725   5.622   2.901   6.571
 5942SOL    HW218726   5.678   2.924   6.419
 5943SOL     OW18727   3.932   3.875   0.314
 5943SOL    HW118728   4.022   3.861   0.274
 5943SOL    HW218729   3.895   3.788   0.346
 5944SOL     OW18730   0.686   2.663   0.338
 5944SOL    HW118731   0.656   2.709   0.421
 5944SOL    HW218732   0.779   2.627   0.351
 5945SOL     OW18733   0.099   5.982   5.442
 5945SOL    HW118734   0.116   6.059   5.380
 5945SOL    HW218735   0.098   5.897   5.390
 5946SOL     OW18736   3.247   4.529   7.022
 5946SOL    HW118737   3.340   4.531   6.986
 5946SOL    HW218738   3.182   4.552   6.949
 5947SOL     OW18739   3.197   3.101   3.870
 5947SOL    HW118740   3.174   3.117   3.774
 5947SOL    HW218741   3.157   3.174   3.926
 5948SOL     OW18742   4.492   4.688   2.340
 5948SOL    HW118743   4.555   4.626   2.293
 5948SOL    HW218744   4.493   4.777   2.296
 5949SOL     OW18745   5.025   5.847   0.863
 5949SOL    HW118746   4.990   5.755   0.881
 5949SOL    HW218747   5.029   5.862   0.765
 5950SOL     OW18748   4.795   2.590   5.467
 5950SOL    HW118749   4.802   2.643   5.383
 5950SOL    HW218750   4.766   2.497   5.445
 5951SOL     OW18751   0.984   5.597   4.931
 5951SOL    HW118752   0.981   5.526   4.861
 5951SOL    HW218753   1.074   5.597   4.975
 5952SOL     OW18754   4.311   5.615   3.037
 5952SOL    HW118755   4.359   5.600   3.124
 5952SOL    HW218756   4.277   5.709   3.035
 5953SOL     OW18757   6.716   3.956   4.887
 5953SOL    HW118758   6.785   3.885   4.881
 5953SOL    HW218759   6.725   4.018   4.809
 5954SOL     OW18760   0.255   5.641   5.713
 5954SOL    HW118761   0.298   5.552   5.731
 5954SOL    HW218762   0.185   5.659   5.782
 5955SOL     OW18763   4.403   5.026   1.476
 5955SOL    HW118764   4.402   5.053   1.380
 5955SOL    HW218765   4.492   4.985   1.499
 5956SOL     OW18766   5.730   1.651   4.241
 5956SOL    HW118767   5.667   1.728   4.253
 5956SOL    HW218768   5.711   1.606   4.154
 5957SOL     OW18769   2.627   1.625   3.641
 5957SOL    HW118770   2.686   1.612   3.720
 5957SOL    HW218771   2.629   1.721   3.614
 5958SOL     OW18772   4.552   0.784   3.161
 5958SOL    HW118773   4.459   0.750   3.174
 5958SOL    HW218774   4.612   0.747   3.232
 5959SOL     OW18775   4.544   2.816   5.399
 5959SOL    HW118776   4.451   2.842   5.426
 5959SOL    HW218777   4.603   2.815   5.480
 5960SOL     OW18778   2.663   6.376   3.922
 5960SOL    HW118779   2.614   6.292   3.897
 5960SOL    HW218780   2.755   6.352   3.953
 5961SOL     OW18781   3.942   1.538   2.279
 5961SOL    HW118782   4.021   1.492   2.238
 5961SOL    HW218783   3.967   1.574   2.369
 5962SOL     OW18784   5.355   5.720   6.096
 5962SOL    HW118785   5.437   5.771   6.071
 5962SOL    HW218786   5.370   5.622   6.082
 5963SOL     OW18787   3.456   3.959   0.065
 5963SOL    HW118788   3.529   3.946   0.132
 5963SOL    HW218789   3.376   3.999   0.110
 5964SOL     OW18790   2.660   6.895   3.776
 5964SOL    HW118791   2.702   6.810   3.746
 5964SOL    HW218792   2.731   6.964   3.793
 5965SOL     OW18793   1.734   0.743   6.859
 5965SOL    HW118794   1.742   0.760   6.957
 5965SOL    HW218795   1.687   0.656   6.843
 5966SOL     OW18796   1.207   0.007   5.904
 5966SOL    HW118797   1.238   0.095   5.939
 5966SOL    HW218798   1.211   0.007   5.804
 5967SOL     OW18799   2.328   1.013   5.619
 5967SOL    HW118800   2.279   1.092   5.657
 5967SOL    HW218801   2.262   0.941   5.597
 5968SOL     OW18802   5.687   2.822   0.377
 5968SOL    HW118803   5.642   2.893   0.323
 5968SOL    HW218804   5.772   2.795   0.332
 5969SOL     OW18805   5.095   1.569   6.331
 5969SOL    HW118806   5.002   1.576   6.294
 5969SOL    HW218807   5.094   1.507   6.409
 5970SOL     OW18808   0.435   4.492   0.500
 5970SOL    HW118809   0.442   4.533   0.591
 5970SOL    HW218810   0.429   4.564   0.431
 5971SOL     OW18811   6.312   0.164   1.528
 5971SOL    HW118812   6.345   0.142   1.436
 5971SOL    HW218813   6.374   0.126   1.596
 5972SOL     OW18814   5.286   5.803   6.398
 5972SOL    HW118815   5.340   5.781   6.317
 5972SOL    HW218816   5.274   5.721   6.454
 5973SOL     OW18817   1.613   3.165   2.916
 5973SOL    HW118818   1.579   3.166   3.010
 5973SOL    HW218819   1.713   3.162   2.917
 5974SOL     OW18820   5.062   0.413   0.359
 5974SOL    HW118821   5.125   0.402   0.436
 5974SOL    HW218822   5.029   0.507   0.356
 5975SOL     OW18823   4.344   6.178   1.126
 5975SOL    HW118824   4.279   6.159   1.200
 5975SOL    HW218825   4.297   6.225   1.051
 5976SOL     OW18826   3.439   3.203   5.542
 5976SOL    HW118827   3.535   3.176   5.547
 5976SOL    HW218828   3.382   3.123   5.523
 5977SOL     OW18829   0.482   6.044   0.477
 5977SOL    HW118830   0.532   6.091   0.404
 5977SOL    HW218831   0.509   6.082   0.565
 5978SOL     OW18832   3.689   5.568   1.350
 5978SOL    HW118833   3.761   5.508   1.383
 5978SOL    HW218834   3.619   5.579   1.421
 5979SOL     OW18835   6.674   0.935   2.035
 5979SOL    HW118836   6.582   0.951   2.001
 5979SOL    HW218837   6.729   1.018   2.025
 5980SOL     OW18838   3.694   2.847   2.072
 5980SOL    HW118839   3.648   2.933   2.095
 5980SOL    HW218840   3.738   2.810   2.154
 5981SOL     OW18841   4.776   1.443   0.351
 5981SOL    HW118842   4.677   1.451   0.341
 5981SOL    HW218843   4.812   1.528   0.388
 5982SOL     OW18844   6.146   2.348   2.521
 5982SOL    HW118845   6.123   2.265   2.469
 5982SOL    HW218846   6.061   2.393   2.550
 5983SOL     OW18847   1.575   0.619   4.205
 5983SOL    HW118848   1.534   0.596   4.117
 5983SOL    HW218849   1.522   0.576   4.279
 5984SOL     OW18850   5.704   6.311   3.522
 5984SOL    HW118851   5.769   6.328   3.596
 5984SOL    HW218852   5.753   6.310   3.434
 5985SOL     OW18853   6.386   2.564   3.358
 5985SOL    HW118854   6.397   2.639   3.423
 5985SOL    HW218855   6.408   2.478   3.402
 5986SOL     OW18856   4.099   4.394   5.970
 5986SOL    HW118857   4.085   4.462   5.899
 5986SOL    HW218858   4.194   4.396   6.000
 5987SOL     OW18859   5.543   0.694   4.584
 5987SOL    HW118860   5.575   0.726   4.494
 5987SOL    HW218861   5.457   0.645   4.573
 5988SOL     OW18862   3.879   1.096   6.563
 5988SOL    HW118863   3.864   1.171   6.628
 5988SOL    HW218864   3.803   1.031   6.569
 5989SOL     OW18865   1.810   5.764   5.527
 5989SOL    HW118866   1.799   5.701   5.603
 5989SOL    HW218867   1.848   5.715   5.448
 5990SOL     OW18868   3.991   3.838   0.818
 5990SOL    HW118869   4.068   3.834   0.882
 5990SOL    HW218870   3.907   3.811   0.865
 5991SOL     OW18871   4.528   5.925   0.017
 5991SOL    HW118872   4.564   5.849   0.070
 5991SOL    HW218873   4.574   6.009   0.044
 5992SOL     OW18874   3.483   6.764   2.111
 5992SOL    HW118875   3.470   6.679   2.060
 5992SOL    HW218876   3.577   6.796   2.099
 5993SOL     OW18877   5.727   4.700   5.865
 5993SOL    HW118878   5.819   4.662   5.856
 5993SOL    HW218879   5.726   4.795   5.834
 5994SOL     OW18880   6.474   2.831   1.172
 5994SOL    HW118881   6.502   2.749   1.221
 5994SOL    HW218882   6.508   2.912   1.220
 5995SOL     OW18883   4.486   2.806   1.772
 5995SOL    HW118884   4.541   2.888   1.785
 5995SOL    HW218885   4.404   2.830   1.719
 5996SOL     OW18886   1.658   5.618   1.995
 5996SOL    HW118887   1.619   5.531   1.964
 5996SOL    HW218888   1.601   5.693   1.961
 5997SOL     OW18889   0.818   6.633   3.367
 5997SOL    HW118890   0.853   6.632   3.461
 5997SOL    HW218891   0.749   6.704   3.358
 5998SOL     OW18892   5.860   1.002   1.691
 5998SOL    HW118893   5.770   0.962   1.704
 5998SOL    HW218894   5.881   1.008   1.594
 5999SOL     OW18895   3.037   3.317   1.106
 5999SOL    HW118896   3.018   3.255   1.182
 5999SOL    HW218897   3.124   3.363   1.122
 6000SOL     OW18898   0.661   6.332   0.400
 6000SOL    HW118899   0.629   6.395   0.471
 6000SOL    HW218900   0.758   6.313   0.414
 6001SOL     OW18901   5.483   5.086   0.151
 6001SOL    HW118902   5.548   5.109   0.223
 6001SOL    HW218903   5.390   5.104   0.184
 6002SOL     OW18904   6.854   0.139   5.580
 6002SOL    HW118905   6.781   0.136   5.512
 6002SOL    HW218906   6.939   0.107   5.539
 6003SOL     OW18907   6.000   2.661   4.391
 6003SOL    HW118908   6.096   2.682   4.410
 6003SOL    HW218909   5.943   2.737   4.422
 6004SOL     OW18910   6.223   2.480   3.719
 6004SOL    HW118911   6.270   2.563   3.688
 6004SOL    HW218912   6.183   2.433   3.640
 6005SOL     OW18913   5.645   4.888   5.143
 6005SOL    HW118914   5.645   4.788   5.143
 6005SOL    HW218915   5.626   4.922   5.235
 6006SOL     OW18916   3.000   0.176   5.265
 6006SOL    HW118917   2.957   0.095   5.227
 6006SOL    HW218918   3.015   0.163   5.363
 6007SOL     OW18919   0.124   3.014   6.403
 6007SOL    HW118920   0.190   2.951   6.445
 6007SOL    HW218921   0.154   3.108   6.415
 6008SOL     OW18922   2.346   4.944   5.270
 6008SOL    HW118923   2.264   4.894   5.295
 6008SOL    HW218924   2.412   4.941   5.346
 6009SOL     OW18925   4.248   5.782   3.456
 6009SOL    HW118926   4.184   5.847   3.496
 6009SOL    HW218927   4.312   5.750   3.527
 6010SOL     OW18928   0.301   4.604   3.636
 6010SOL    HW118929   0.383   4.652   3.667
 6010SOL    HW218930   0.289   4.520   3.690
 6011SOL     OW18931   4.743   2.868   2.392
 6011SOL    HW118932   4.648   2.842   2.411
 6011SOL    HW218933   4.781   2.916   2.471
 6012SOL     OW18934   6.378   0.651   0.181
 6012SOL    HW118935   6.378   0.555   0.153
 6012SOL    HW218936   6.435   0.662   0.263
 6013SOL     OW18937   4.431   1.076   2.579
 6013SOL    HW118938   4.513   1.025   2.604
 6013SOL    HW218939   4.457   1.169   2.552
 6014SOL     OW18940   3.374   4.056   4.047
 6014SOL    HW118941   3.333   3.970   4.017
 6014SOL    HW218942   3.322   4.093   4.124
 6015SOL     OW18943   6.225   3.802   4.354
 6015SOL    HW118944   6.178   3.715   4.368
 6015SOL    HW218945   6.267   3.831   4.440
 6016SOL     OW18946   5.202   1.788   5.533
 6016SOL    HW118947   5.195   1.722   5.458
 6016SOL    HW218948   5.266   1.754   5.601
 6017SOL     OW18949   7.001   4.551   5.318
 6017SOL    HW118950   6.986   4.598   5.231
 6017SOL    HW218951   6.974   4.455   5.309
 6018SOL     OW18952   2.920   1.343   4.741
 6018SOL    HW118953   2.927   1.332   4.841
 6018SOL    HW218954   3.000   1.391   4.707
 6019SOL     OW18955   0.552   3.349   5.705
 6019SOL    HW118956   0.494   3.430   5.718
 6019SOL    HW218957   0.552   3.323   5.609
 6020SOL     OW18958   0.885   5.349   0.822
 6020SOL    HW118959   0.940   5.429   0.848
 6020SOL    HW218960   0.945   5.274   0.794
 6021SOL     OW18961   5.114   0.155   2.904
 6021SOL    HW118962   5.130   0.058   2.887
 6021SOL    HW218963   5.026   0.182   2.862
 6022SOL     OW18964   6.622   1.567   3.381
 6022SOL    HW118965   6.715   1.583   3.349
 6022SOL    HW218966   6.603   1.469   3.379
 6023SOL     OW18967   5.552   0.295   1.336
 6023SOL    HW118968   5.607   0.291   1.253
 6023SOL    HW218969   5.559   0.207   1.385
 6024SOL     OW18970   0.674   4.818   0.515
 6024SOL    HW118971   0.636   4.754   0.449
 6024SOL    HW218972   0.633   4.908   0.502
 6025SOL     OW18973   3.429   1.182   3.803
 6025SOL    HW118974   3.501   1.216   3.863
 6025SOL    HW218975   3.400   1.254   3.740
 6026SOL     OW18976   0.222   5.545   4.628
 6026SOL    HW118977   0.186   5.587   4.712
 6026SOL    HW218978   0.218   5.446   4.636
 6027SOL     OW18979   6.939   3.321   6.089
 6027SOL    HW118980   6.883   3.246   6.125
 6027SOL    HW218981   6.880   3.395   6.058
 6028SOL     OW18982   5.174   4.925   1.049
 6028SOL    HW118983   5.169   5.025   1.062
 6028SOL    HW218984   5.158   4.880   1.137
 6029SOL     OW18985   2.486   0.088   3.544
 6029SOL    HW118986   2.510   7.015   3.551
 6029SOL    HW218987   2.551   0.142   3.597
 6030SOL     OW18988   5.159   3.613   5.039
 6030SOL    HW118989   5.108   3.530   5.018
 6030SOL    HW218990   5.253   3.605   5.007
 6031SOL     OW18991   1.692   6.049   4.203
 6031SOL    HW118992   1.643   6.093   4.128
 6031SOL    HW218993   1.634   5.979   4.245
 6032SOL     OW18994   2.590   4.992   2.874
 6032SOL    HW118995   2.580   4.893   2.885
 6032SOL    HW218996   2.511   5.029   2.825
 6033SOL     OW18997   2.438   2.661   2.638
 6033SOL    HW118998   2.449   2.760   2.654
 6033SOL    HW218999   2.443   2.613   2.725
 6034SOL     OW19000   0.770   0.237   6.090
 6034SOL    HW119001   0.678   0.248   6.126
 6034SOL    HW219002   0.817   0.164   6.141
 6035SOL     OW19003   1.354   0.269   2.513
 6035SOL    HW119004   1.280   0.203   2.509
 6035SOL    HW219005   1.420   0.242   2.583
 6036SOL     OW19006   6.001   4.795   1.524
 6036SOL    HW119007   5.914   4.844   1.532
 6036SOL    HW219008   5.994   4.709   1.574
 6037SOL     OW19009   3.791   0.532   0.566
 6037SOL    HW119010   3.885   0.541   0.601
 6037SOL    HW219011   3.728   0.575   0.630
 6038SOL     OW19012   1.045   2.645   6.656
 6038SOL    HW119013   0.962   2.588   6.659
 6038SOL    HW219014   1.020   2.740   6.640
 6039SOL     OW19015   3.909   3.935   3.551
 6039SOL    HW119016   3.919   3.956   3.454
 6039SOL    HW219017   3.829   3.875   3.564
 6040SOL     OW19018   2.121   1.083   0.061
 6040SOL    HW119019   2.055   1.148   0.096
 6040SOL    HW219020   2.202   1.131   0.028
 6041SOL     OW19021   3.422   2.399   5.341
 6041SOL    HW119022   3.406   2.473   5.407
 6041SOL    HW219023   3.339   2.384   5.288
 6042SOL     OW19024   3.986   6.418   2.903
 6042SOL    HW119025   3.945   6.352   2.966
 6042SOL    HW219026   3.944   6.507   2.916
 6043SOL     OW19027   1.413   0.551   3.955
 6043SOL    HW119028   1.454   0.474   3.906
 6043SOL    HW219029   1.369   0.518   4.038
 6044SOL     OW19030   2.570   2.002   2.138
 6044SOL    HW119031   2.549   2.096   2.112
 6044SOL    HW219032   2.669   1.992   2.147
 6045SOL     OW19033   5.261   3.068   3.819
 6045SOL    HW119034   5.225   2.996   3.761
 6045SOL    HW219035   5.311   3.028   3.895
 6046SOL     OW19036   3.223   3.127   0.747
 6046SOL    HW119037   3.254   3.078   0.666
 6046SOL    HW219038   3.136   3.173   0.728
 6047SOL     OW19039   5.325   2.390   1.214
 6047SOL    HW119040   5.289   2.462   1.154
 6047SOL    HW219041   5.425   2.398   1.219
 6048SOL     OW19042   4.919   5.735   5.229
 6048SOL    HW119043   4.940   5.806   5.162
 6048SOL    HW219044   5.000   5.716   5.284
 6049SOL     OW19045   5.470   4.772   6.271
 6049SOL    HW119046   5.371   4.776   6.260
 6049SOL    HW219047   5.509   4.864   6.263
 6050SOL     OW19048   2.413   5.511   1.019
 6050SOL    HW119049   2.443   5.541   0.928
 6050SOL    HW219050   2.432   5.414   1.029
 6051SOL     OW19051   1.997   6.778   2.966
 6051SOL    HW119052   2.035   6.824   3.046
 6051SOL    HW219053   1.899   6.764   2.978
 6052SOL     OW19054   5.409   1.090   1.696
 6052SOL    HW119055   5.368   1.105   1.786
 6052SOL    HW219056   5.408   1.175   1.644
 6053SOL     OW19057   4.150   0.838   6.121
 6053SOL    HW119058   4.064   0.797   6.152
 6053SOL    HW219059   4.220   0.825   6.191
 6054SOL     OW19060   3.447   4.454   0.602
 6054SOL    HW119061   3.486   4.511   0.529
 6054SOL    HW219062   3.436   4.361   0.569
 6055SOL     OW19063   3.242   5.662   6.063
 6055SOL    HW119064   3.284   5.640   6.151
 6055SOL    HW219065   3.311   5.657   5.991
 6056SOL     OW19066   5.263   3.290   5.062
 6056SOL    HW119067   5.167   3.315   5.054
 6056SOL    HW219068   5.281   3.210   5.005
 6057SOL     OW19069   5.886   0.711   2.222
 6057SOL    HW119070   5.837   0.793   2.251
 6057SOL    HW219071   5.889   0.706   2.122
 6058SOL     OW19072   5.204   3.625   0.143
 6058SOL    HW119073   5.299   3.612   0.170
 6058SOL    HW219074   5.147   3.632   0.224
 6059SOL     OW19075   5.258   4.416   5.301
 6059SOL    HW119076   5.183   4.379   5.246
 6059SOL    HW219077   5.273   4.512   5.276
 6060SOL     OW19078   2.774   3.226   0.028
 6060SOL    HW119079   2.806   3.135   0.004
 6060SOL    HW219080   2.838   3.295   7.017
 6061SOL     OW19081   4.685   4.711   0.796
 6061SOL    HW119082   4.751   4.715   0.721
 6061SOL    HW219083   4.608   4.772   0.778
 6062SOL     OW19084   2.275   1.464   6.812
 6062SOL    HW119085   2.204   1.396   6.794
 6062SOL    HW219086   2.265   1.497   6.906
 6063SOL     OW19087   3.454   4.061   5.901
 6063SOL    HW119088   3.413   4.152   5.910
 6063SOL    HW219089   3.499   4.054   5.812
 6064SOL     OW19090   0.763   0.491   1.318
 6064SOL    HW119091   0.843   0.523   1.267
 6064SOL    HW219092   0.770   0.520   1.414
 6065SOL     OW19093   0.176   5.650   1.930
 6065SOL    HW119094   0.273   5.645   1.906
 6065SOL    HW219095   0.166   5.692   2.020
 6066SOL     OW19096   5.863   0.798   4.955
 6066SOL    HW119097   5.776   0.748   4.951
 6066SOL    HW219098   5.919   0.761   5.029
 6067SOL     OW19099   4.807   1.149   5.230
 6067SOL    HW119100   4.816   1.049   5.223
 6067SOL    HW219101   4.772   1.185   5.144
 6068SOL     OW19102   4.983   2.396   4.139
 6068SOL    HW119103   4.952   2.467   4.075
 6068SOL    HW219104   5.068   2.426   4.182
 6069SOL     OW19105   6.763   3.720   5.762
 6069SOL    HW119106   6.669   3.752   5.751
 6069SOL    HW219107   6.809   3.721   5.674
 6070SOL     OW19108   3.603   2.946   1.327
 6070SOL    HW119109   3.580   2.876   1.393
 6070SOL    HW219110   3.629   2.903   1.240
 6071SOL     OW19111   0.714   5.839   4.534
 6071SOL    HW119112   0.675   5.873   4.620
 6071SOL    HW219113   0.642   5.802   4.477
 6072SOL     OW19114   0.550   1.034   2.008
 6072SOL    HW119115   0.490   1.002   2.082
 6072SOL    HW219116   0.500   1.033   1.922
 6073SOL     OW19117   5.090   2.851   0.845
 6073SOL    HW119118   5.089   2.767   0.791
 6073SOL    HW219119   5.176   2.857   0.896
 6074SOL     OW19120   1.792   6.640   1.771
 6074SOL    HW119121   1.764   6.587   1.691
 6074SOL    HW219122   1.805   6.736   1.743
 6075SOL     OW19123   4.760   0.179   5.358
 6075SOL    HW119124   4.772   0.088   5.397
 6075SOL    HW219125   4.674   0.181   5.305
 6076SOL     OW19126   2.348   5.345   3.413
 6076SOL    HW119127   2.414   5.419   3.402
 6076SOL    HW219128   2.340   5.294   3.328
 6077SOL     OW19129   6.136   6.435   0.892
 6077SOL    HW119130   6.085   6.393   0.967
 6077SOL    HW219131   6.159   6.530   0.917
 6078SOL     OW19132   4.292   4.848   0.335
 6078SOL    HW119133   4.304   4.815   0.241
 6078SOL    HW219134   4.226   4.790   0.383
 6079SOL     OW19135   4.994   4.680   6.156
 6079SOL    HW119136   5.040   4.717   6.076
 6079SOL    HW219137   4.940   4.600   6.130
 6080SOL     OW19138   0.390   5.070   1.376
 6080SOL    HW119139   0.406   5.085   1.474
 6080SOL    HW219140   0.324   4.995   1.365
 6081SOL     OW19141   6.763   2.997   5.275
 6081SOL    HW119142   6.812   3.079   5.245
 6081SOL    HW219143   6.665   3.012   5.267
 6082SOL     OW19144   3.554   6.738   2.634
 6082SOL    HW119145   3.650   6.720   2.613
 6082SOL    HW219146   3.496   6.681   2.576
 6083SOL     OW19147   5.594   5.710   0.726
 6083SOL    HW119148   5.596   5.716   0.626
 6083SOL    HW219149   5.583   5.802   0.764
 6084SOL     OW19150   1.099   6.407   2.371
 6084SOL    HW119151   1.044   6.357   2.438
 6084SOL    HW219152   1.066   6.387   2.279
 6085SOL     OW19153   6.817   5.899   6.472
 6085SOL    HW119154   6.831   5.800   6.481
 6085SOL    HW219155   6.730   5.916   6.426
 6086SOL     OW19156   2.675   1.968   5.948
 6086SOL    HW119157   2.712   1.930   5.864
 6086SOL    HW219158   2.575   1.975   5.941
 6087SOL     OW19159   3.858   5.929   1.163
 6087SOL    HW119160   3.913   5.912   1.082
 6087SOL    HW219161   3.905   5.894   1.244
 6088SOL     OW19162   5.042   6.835   4.810
 6088SOL    HW119163   5.079   6.920   4.771
 6088SOL    HW219164   5.087   6.757   4.768
 6089SOL     OW19165   6.281   2.377   3.152
 6089SOL    HW119166   6.319   2.469   3.161
 6089SOL    HW219167   6.188   2.383   3.115
 6090SOL     OW19168   2.535   4.986   4.808
 6090SOL    HW119169   2.505   5.010   4.901
 6090SOL    HW219170   2.569   4.892   4.807
 6091SOL     OW19171   2.867   1.668   0.562
 6091SOL    HW119172   2.933   1.593   0.566
 6091SOL    HW219173   2.879   1.727   0.642
 6092SOL     OW19174   4.158   1.155   1.729
 6092SOL    HW119175   4.162   1.219   1.805
 6092SOL    HW219176   4.250   1.121   1.710
 6093SOL     OW19177   2.345   2.258   2.009
 6093SOL    HW119178   2.326   2.218   2.099
 6093SOL    HW219179   2.424   2.318   2.015
 6094SOL     OW19180   1.707   6.154   3.332
 6094SOL    HW119181   1.711   6.116   3.424
 6094SOL    HW219182   1.797   6.190   3.307
 6095SOL     OW19183   4.557   4.710   6.374
 6095SOL    HW119184   4.653   4.709   6.404
 6095SOL    HW219185   4.534   4.802   6.342
 6096SOL     OW19186   5.751   0.283   2.038
 6096SOL    HW119187   5.804   0.290   1.953
 6096SOL    HW219188   5.799   0.330   2.112
 6097SOL     OW19189   1.698   5.029   2.363
 6097SOL    HW119190   1.682   5.091   2.286
 6097SOL    HW219191   1.786   4.984   2.351
 6098SOL     OW19192   6.599   1.236   6.203
 6098SOL    HW119193   6.640   1.222   6.293
 6098SOL    HW219194   6.601   1.334   6.181
 6099SOL     OW19195   4.748   5.826   5.441
 6099SOL    HW119196   4.685   5.904   5.436
 6099SOL    HW219197   4.796   5.818   5.354
 6100SOL     OW19198   0.536   6.110   2.206
 6100SOL    HW119199   0.529   6.027   2.151
 6100SOL    HW219200   0.512   6.190   2.151
 6101SOL     OW19201   6.729   2.829   2.822
 6101SOL    HW119202   6.668   2.767   2.773
 6101SOL    HW219203   6.819   2.829   2.778
 6102SOL     OW19204   4.313   5.985   2.856
 6102SOL    HW119205   4.263   5.956   2.938
 6102SOL    HW219206   4.352   5.905   2.811
 6103SOL     OW19207   0.291   0.950   1.389
 6103SOL    HW119208   0.357   0.882   1.356
 6103SOL    HW219209   0.340   1.028   1.427
 6104SOL     OW19210   6.417   6.907   5.194
 6104SOL    HW119211   6.337   6.850   5.214
 6104SOL    HW219212   6.424   6.921   5.095
 6105SOL     OW19213   1.636   5.403   5.962
 6105SOL    HW119214   1.607   5.328   6.022
 6105SOL    HW219215   1.666   5.365   5.875
 6106SOL     OW19216   1.269   4.921   0.241
 6106SOL    HW119217   1.176   4.935   0.273
 6106SOL    HW219218   1.272   4.929   0.141
 6107SOL     OW19219   4.721   5.555   4.662
 6107SOL    HW119220   4.701   5.600   4.749
 6107SOL    HW219221   4.709   5.621   4.587
 6108SOL     OW19222   2.105   2.346   3.108
 6108SOL    HW119223   2.177   2.407   3.075
 6108SOL    HW219224   2.052   2.312   3.031
 6109SOL     OW19225   5.541   0.758   5.047
 6109SOL    HW119226   5.607   0.797   5.112
 6109SOL    HW219227   5.514   0.828   4.981
 6110SOL     OW19228   2.145   2.630   0.375
 6110SOL    HW119229   2.056   2.663   0.406
 6110SOL    HW219230   2.215   2.698   0.394
 6111SOL     OW19231   1.307   3.096   2.519
 6111SOL    HW119232   1.268   3.134   2.603
 6111SOL    HW219233   1.299   2.996   2.521
 6112SOL     OW19234   4.798   0.456   2.565
 6112SOL    HW119235   4.700   0.471   2.568
 6112SOL    HW219236   4.823   0.416   2.477
 6113SOL     OW19237   2.687   2.856   6.385
 6113SOL    HW119238   2.660   2.856   6.481
 6113SOL    HW219239   2.650   2.775   6.340
 6114SOL     OW19240   4.923   3.355   2.512
 6114SOL    HW119241   4.918   3.340   2.413
 6114SOL    HW219242   4.904   3.451   2.532
 6115SOL     OW19243   6.647   1.096   4.827
 6115SOL    HW119244   6.597   1.170   4.783
 6115SOL    HW219245   6.595   1.011   4.819
 6116SOL     OW19246   4.064   1.851   5.581
 6116SOL    HW119247   4.028   1.933   5.624
 6116SOL    HW219248   4.148   1.822   5.627
 6117SOL     OW19249   1.768   2.264   3.229
 6117SOL    HW119250   1.728   2.310   3.150
 6117SOL    HW219251   1.792   2.170   3.203
 6118SOL     OW19252   6.421   1.321   1.492
 6118SOL    HW119253   6.392   1.378   1.415
 6118SOL    HW219254   6.345   1.264   1.523
 6119SOL     OW19255   1.442   3.362   0.275
 6119SOL    HW119256   1.458   3.389   0.181
 6119SOL    HW219257   1.440   3.443   0.334
 6120SOL     OW19258   1.862   6.770   5.404
 6120SOL    HW119259   1.848   6.744   5.500
 6120SOL    HW219260   1.790   6.833   5.376
 6121SOL     OW19261   1.189   4.000   5.910
 6121SOL    HW119262   1.104   3.969   5.951
 6121SOL    HW219263   1.178   4.010   5.812
 6122SOL     OW19264   4.527   5.348   6.642
 6122SOL    HW119265   4.613   5.392   6.666
 6122SOL    HW219266   4.452   5.393   6.690
 6123SOL     OW19267   4.775   6.911   5.436
 6123SOL    HW119268   4.676   6.914   5.426
 6123SOL    HW219269   4.803   6.821   5.469
 6124SOL     OW19270   0.118   6.356   5.690
 6124SOL    HW119271   0.140   6.290   5.618
 6124SOL    HW219272   0.147   6.320   5.779
 6125SOL     OW19273   2.486   3.861   6.820
 6125SOL    HW119274   2.417   3.934   6.818
 6125SOL    HW219275   2.521   3.852   6.913
 6126SOL     OW19276   0.590   1.776   5.097
 6126SOL    HW119277   0.647   1.718   5.154
 6126SOL    HW219278   0.647   1.838   5.044
 6127SOL     OW19279   4.040   0.223   1.996
 6127SOL    HW119280   4.135   0.210   2.022
 6127SOL    HW219281   4.031   0.306   1.941
 6128SOL     OW19282   5.252   5.277   0.683
 6128SOL    HW119283   5.307   5.223   0.620
 6128SOL    HW219284   5.312   5.333   0.740
 6129SOL     OW19285   1.093   3.233   4.043
 6129SOL    HW119286   1.172   3.180   4.011
 6129SOL    HW219287   1.115   3.331   4.041
 6130SOL     OW19288   5.632   2.305   3.088
 6130SOL    HW119289   5.715   2.321   3.141
 6130SOL    HW219290   5.654   2.245   3.011
 6131SOL     OW19291   1.210   1.617   3.004
 6131SOL    HW119292   1.259   1.688   3.054
 6131SOL    HW219293   1.175   1.549   3.067
 6132SOL     OW19294   3.960   1.741   6.692
 6132SOL    HW119295   4.039   1.707   6.744
 6132SOL    HW219296   3.927   1.825   6.734
 6133SOL     OW19297   2.166   3.213   3.092
 6133SOL    HW119298   2.120   3.297   3.118
 6133SOL    HW219299   2.205   3.170   3.174
 6134SOL     OW19300   4.389   6.750   0.216
 6134SOL    HW119301   4.381   6.650   0.224
 6134SOL    HW219302   4.299   6.791   0.217
 6135SOL     OW19303   0.148   5.673   0.922
 6135SOL    HW119304   0.178   5.645   1.013
 6135SOL    HW219305   0.056   5.712   0.928
 6136SOL     OW19306   1.453   2.844   1.792
 6136SOL    HW119307   1.361   2.815   1.765
 6136SOL    HW219308   1.486   2.784   1.866
 6137SOL     OW19309   0.652   3.856   2.233
 6137SOL    HW119310   0.647   3.892   2.326
 6137SOL    HW219311   0.716   3.910   2.179
 6138SOL     OW19312   4.125   6.907   3.342
 6138SOL    HW119313   4.135   6.990   3.397
 6138SOL    HW219314   4.105   6.932   3.247
 6139SOL     OW19315   0.552   6.588   5.319
 6139SOL    HW119316   0.579   6.597   5.415
 6139SOL    HW219317   0.549   6.679   5.277
 6140SOL     OW19318   0.679   0.825   2.248
 6140SOL    HW119319   0.758   0.882   2.226
 6140SOL    HW219320   0.599   0.858   2.200
 6141SOL     OW19321   0.156   7.012   6.169
 6141SOL    HW119322   0.251   6.998   6.142
 6141SOL    HW219323   0.096   6.955   6.113
 6142SOL     OW19324   0.675   6.377   6.481
 6142SOL    HW119325   0.653   6.365   6.578
 6142SOL    HW219326   0.594   6.408   6.432
 6143SOL     OW19327   0.132   4.321   1.097
 6143SOL    HW119328   0.090   4.400   1.143
 6143SOL    HW219329   0.198   4.354   1.029
 6144SOL     OW19330   5.077   4.904   3.466
 6144SOL    HW119331   5.110   4.969   3.397
 6144SOL    HW219332   4.978   4.893   3.457
 6145SOL     OW19333   5.703   4.806   4.048
 6145SOL    HW119334   5.647   4.872   3.998
 6145SOL    HW219335   5.666   4.793   4.140
 6146SOL     OW19336   3.453   6.024   3.344
 6146SOL    HW119337   3.418   5.932   3.325
 6146SOL    HW219338   3.404   6.091   3.288
 6147SOL     OW19339   2.118   2.419   4.962
 6147SOL    HW119340   2.215   2.403   4.940
 6147SOL    HW219341   2.086   2.349   5.026
 6148SOL     OW19342   3.859   5.716   5.818
 6148SOL    HW119343   3.796   5.794   5.829
 6148SOL    HW219344   3.886   5.683   5.908
 6149SOL     OW19345   2.380   0.007   1.807
 6149SOL    HW119346   2.386   6.948   1.861
 6149SOL    HW219347   2.448   0.073   1.840
 6150SOL     OW19348   5.879   3.951   6.846
 6150SOL    HW119349   5.900   4.033   6.900
 6150SOL    HW219350   5.871   3.976   6.750
 6151SOL     OW19351   5.628   5.127   4.980
 6151SOL    HW119352   5.578   5.089   4.902
 6151SOL    HW219353   5.670   5.053   5.032
 6152SOL     OW19354   0.665   5.103   4.667
 6152SOL    HW119355   0.656   5.048   4.750
 6152SOL    HW219356   0.762   5.108   4.641
 6153SOL     OW19357   5.223   5.214   1.088
 6153SOL    HW119358   5.241   5.227   0.991
 6153SOL    HW219359   5.199   5.302   1.130
 6154SOL     OW19360   5.618   3.084   2.936
 6154SOL    HW119361   5.621   3.182   2.919
 6154SOL    HW219362   5.686   3.060   3.006
 6155SOL     OW19363   2.757   1.226   2.991
 6155SOL    HW119364   2.763   1.325   2.980
 6155SOL    HW219365   2.827   1.182   2.934
 6156SOL     OW19366   4.182   5.227   1.454
 6156SOL    HW119367   4.200   5.298   1.387
 6156SOL    HW219368   4.251   5.155   1.446
 6157SOL     OW19369   0.648   2.086   3.085
 6157SOL    HW119370   0.630   2.143   3.004
 6157SOL    HW219371   0.702   2.006   3.058
 6158SOL     OW19372   3.711   2.359   0.382
 6158SOL    HW119373   3.775   2.383   0.454
 6158SOL    HW219374   3.722   2.421   0.304
 6159SOL     OW19375   4.720   2.698   0.684
 6159SOL    HW119376   4.647   2.754   0.646
 6159SOL    HW219377   4.703   2.683   0.781
 6160SOL     OW19378   6.503   6.801   6.592
 6160SOL    HW119379   6.500   6.821   6.494
 6160SOL    HW219380   6.496   6.886   6.644
 6161SOL     OW19381   5.304   1.137   0.180
 6161SOL    HW119382   5.336   1.089   0.099
 6161SOL    HW219383   5.324   1.083   0.261
 6162SOL     OW19384   6.122   6.154   3.803
 6162SOL    HW119385   6.064   6.161   3.722
 6162SOL    HW219386   6.186   6.230   3.805
 6163SOL     OW19387   5.512   5.403   2.310
 6163SOL    HW119388   5.454   5.368   2.237
 6163SOL    HW219389   5.523   5.333   2.380
 6164SOL     OW19390   3.635   4.238   4.939
 6164SOL    HW119391   3.695   4.192   5.006
 6164SOL    HW219392   3.627   4.334   4.963
 6165SOL     OW19393   3.740   1.927   5.933
 6165SOL    HW119394   3.832   1.917   5.971
 6165SOL    HW219395   3.739   1.893   5.839
 6166SOL     OW19396   5.947   1.825   0.149
 6166SOL    HW119397   5.884   1.764   0.101
 6166SOL    HW219398   6.021   1.771   0.189
 6167SOL     OW19399   0.339   4.819   3.123
 6167SOL    HW119400   0.415   4.827   3.188
 6167SOL    HW219401   0.263   4.771   3.167
 6168SOL     OW19402   0.766   2.905   3.459
 6168SOL    HW119403   0.757   2.809   3.485
 6168SOL    HW219404   0.691   2.958   3.500
 6169SOL     OW19405   1.377   1.552   6.684
 6169SOL    HW119406   1.391   1.465   6.731
 6169SOL    HW219407   1.359   1.624   6.751
 6170SOL     OW19408   3.243   4.396   5.615
 6170SOL    HW119409   3.335   4.422   5.586
 6170SOL    HW219410   3.225   4.433   5.706
 6171SOL     OW19411   1.554   3.326   1.337
 6171SOL    HW119412   1.512   3.394   1.397
 6171SOL    HW219413   1.651   3.317   1.360
 6172SOL     OW19414   0.697   0.606   2.578
 6172SOL    HW119415   0.629   0.678   2.564
 6172SOL    HW219416   0.774   0.621   2.515
 6173SOL     OW19417   6.929   5.072   2.386
 6173SOL    HW119418   6.843   5.095   2.430
 6173SOL    HW219419   6.934   4.973   2.372
 6174SOL     OW19420   6.106   5.237   3.090
 6174SOL    HW119421   6.158   5.216   3.008
 6174SOL    HW219422   6.036   5.167   3.104
 6175SOL     OW19423   5.004   0.153   3.759
 6175SOL    HW119424   4.985   0.063   3.719
 6175SOL    HW219425   5.080   0.145   3.823
 6176SOL     OW19426   6.620   3.104   0.418
 6176SOL    HW119427   6.645   3.123   0.512
 6176SOL    HW219428   6.525   3.132   0.402
 6177SOL     OW19429   5.975   1.475   0.967
 6177SOL    HW119430   5.912   1.403   0.996
 6177SOL    HW219431   5.938   1.564   0.992
 6178SOL     OW19432   4.527   5.535   2.298
 6178SOL    HW119433   4.558   5.607   2.361
 6178SOL    HW219434   4.591   5.459   2.300
 6179SOL     OW19435   6.739   4.365   4.655
 6179SOL    HW119436   6.649   4.370   4.611
 6179SOL    HW219437   6.804   4.323   4.592
 6180SOL     OW19438   3.259   6.448   6.573
 6180SOL    HW119439   3.343   6.502   6.584
 6180SOL    HW219440   3.268   6.363   6.624
 6181SOL     OW19441   4.757   6.419   1.235
 6181SOL    HW119442   4.845   6.382   1.265
 6181SOL    HW219443   4.748   6.513   1.268
 6182SOL     OW19444   5.701   3.807   5.371
 6182SOL    HW119445   5.770   3.748   5.329
 6182SOL    HW219446   5.638   3.840   5.301
 6183SOL     OW19447   2.964   6.893   2.955
 6183SOL    HW119448   2.902   6.918   2.880
 6183SOL    HW219449   3.056   6.879   2.919
 6184SOL     OW19450   2.230   6.731   6.121
 6184SOL    HW119451   2.218   6.769   6.029
 6184SOL    HW219452   2.306   6.667   6.121
 6185SOL     OW19453   1.002   4.963   6.568
 6185SOL    HW119454   1.099   4.967   6.545
 6185SOL    HW219455   0.970   5.054   6.593
 6186SOL     OW19456   5.995   0.055   4.546
 6186SOL    HW119457   5.943   0.082   4.627
 6186SOL    HW219458   5.972   0.115   4.470
 6187SOL     OW19459   4.583   4.596   4.428
 6187SOL    HW119460   4.578   4.574   4.525
 6187SOL    HW219461   4.679   4.600   4.400
 6188SOL     OW19462   2.174   6.810   1.180
 6188SOL    HW119463   2.114   6.815   1.100
 6188SOL    HW219464   2.137   6.867   1.253
 6189SOL     OW19465   4.552   4.511   4.018
 6189SOL    HW119466   4.522   4.432   4.071
 6189SOL    HW219467   4.490   4.588   4.035
 6190SOL     OW19468   6.462   3.516   6.245
 6190SOL    HW119469   6.445   3.578   6.169
 6190SOL    HW219470   6.541   3.548   6.297
 6191SOL     OW19471   4.614   2.744   0.113
 6191SOL    HW119472   4.544   2.811   0.139
 6191SOL    HW219473   4.689   2.748   0.179
 6192SOL     OW19474   3.356   3.447   0.433
 6192SOL    HW119475   3.298   3.528   0.427
 6192SOL    HW219476   3.300   3.365   0.419
 6193SOL     OW19477   5.335   1.056   3.042
 6193SOL    HW119478   5.396   0.996   2.991
 6193SOL    HW219479   5.241   1.020   3.038
 6194SOL     OW19480   1.418   6.767   7.002
 6194SOL    HW119481   1.396   6.861   0.003
 6194SOL    HW219482   1.455   6.765   6.910
 6195SOL     OW19483   3.578   5.573   5.497
 6195SOL    HW119484   3.578   5.578   5.398
 6195SOL    HW219485   3.520   5.645   5.535
 6196SOL     OW19486   5.640   2.356   1.201
 6196SOL    HW119487   5.711   2.320   1.263
 6196SOL    HW219488   5.640   2.303   1.117
 6197SOL     OW19489   4.197   3.893   0.218
 6197SOL    HW119490   4.165   3.945   0.138
 6197SOL    HW219491   4.266   3.947   0.266
 6198SOL     OW19492   3.153   5.312   2.418
 6198SOL    HW119493   3.210   5.375   2.470
 6198SOL    HW219494   3.209   5.237   2.383
 6199SOL     OW19495   0.642   7.004   1.068
 6199SOL    HW119496   0.690   6.916   1.079
 6199SOL    HW219497   0.675   0.044   1.138
 6200SOL     OW19498   2.131   0.839   5.567
 6200SOL    HW119499   2.052   0.899   5.577
 6200SOL    HW219500   2.101   0.749   5.537
 6201SOL     OW19501   1.583   3.974   5.274
 6201SOL    HW119502   1.547   3.956   5.366
 6201SOL    HW219503   1.556   3.900   5.212
 6202SOL     OW19504   4.060   1.972   1.342
 6202SOL    HW119505   3.997   1.949   1.416
 6202SOL    HW219506   4.090   2.067   1.351
 6203SOL     OW19507   5.758   6.722   3.409
 6203SOL    HW119508   5.675   6.775   3.428
 6203SOL    HW219509   5.732   6.627   3.387
 6204SOL     OW19510   0.546   4.963   5.070
 6204SOL    HW119511   0.482   4.961   5.146
 6204SOL    HW219512   0.533   5.047   5.017
 6205SOL     OW19513   5.215   6.388   0.243
 6205SOL    HW119514   5.285   6.459   0.234
 6205SOL    HW219515   5.258   6.300   0.263
 6206SOL     OW19516   6.016   0.344   2.765
 6206SOL    HW119517   6.060   0.254   2.765
 6206SOL    HW219518   6.087   0.415   2.763
 6207SOL     OW19519   1.638   4.136   4.209
 6207SOL    HW119520   1.703   4.137   4.133
 6207SOL    HW219521   1.651   4.052   4.263
 6208SOL     OW19522   6.244   1.476   6.383
 6208SOL    HW119523   6.164   1.496   6.327
 6208SOL    HW219524   6.283   1.561   6.417
 6209SOL     OW19525   4.555   5.384   0.011
 6209SOL    HW119526   4.492   5.306   0.011
 6209SOL    HW219527   4.577   5.409   6.941
 6210SOL     OW19528   6.063   5.129   3.757
 6210SOL    HW119529   6.024   5.043   3.791
 6210SOL    HW219530   6.163   5.123   3.760
 6211SOL     OW19531   3.163   6.504   4.317
 6211SOL    HW119532   3.087   6.569   4.319
 6211SOL    HW219533   3.241   6.544   4.269
 6212SOL     OW19534   2.286   4.920   3.255
 6212SOL    HW119535   2.373   4.876   3.277
 6212SOL    HW219536   2.303   5.015   3.229
 6213SOL     OW19537   4.864   0.167   6.833
 6213SOL    HW119538   4.886   0.197   6.740
 6213SOL    HW219539   4.917   0.222   6.898
 6214SOL     OW19540   4.692   4.582   3.157
 6214SOL    HW119541   4.785   4.596   3.193
 6214SOL    HW219542   4.639   4.666   3.169
 6215SOL     OW19543   3.882   1.987   6.762
 6215SOL    HW119544   3.811   2.042   6.806
 6215SOL    HW219545   3.967   2.040   6.756
 6216SOL     OW19546   6.413   2.235   2.299
 6216SOL    HW119547   6.488   2.297   2.279
 6216SOL    HW219548   6.376   2.198   2.214
 6217SOL     OW19549   0.027   2.758   2.864
 6217SOL    HW119550   0.031   2.660   2.887
 6217SOL    HW219551   7.009   2.769   2.775
 6218SOL     OW19552   2.993   5.058   5.047
 6218SOL    HW119553   2.957   4.978   5.000
 6218SOL    HW219554   3.065   5.100   4.992
 6219SOL     OW19555   1.203   2.138   4.588
 6219SOL    HW119556   1.279   2.150   4.651
 6219SOL    HW219557   1.149   2.059   4.616
 6220SOL     OW19558   1.411   3.330   5.364
 6220SOL    HW119559   1.456   3.338   5.275
 6220SOL    HW219560   1.462   3.265   5.420
 6221SOL     OW19561   6.329   6.092   6.718
 6221SOL    HW119562   6.324   6.114   6.816
 6221SOL    HW219563   6.236   6.082   6.682
 6222SOL     OW19564   0.857   6.668   0.855
 6222SOL    HW119565   0.944   6.622   0.870
 6222SOL    HW219566   0.854   6.752   0.910
 6223SOL     OW19567   0.405   4.116   4.966
 6223SOL    HW119568   0.343   4.189   4.995
 6223SOL    HW219569   0.499   4.151   4.967
 6224SOL     OW19570   2.543   1.915   6.416
 6224SOL    HW119571   2.504   1.904   6.508
 6224SOL    HW219572   2.549   1.826   6.372
 6225SOL     OW19573   3.107   2.965   1.324
 6225SOL    HW119574   3.026   3.024   1.320
 6225SOL    HW219575   3.175   2.997   1.258
 6226SOL     OW19576   5.385   1.893   5.126
 6226SOL    HW119577   5.417   1.902   5.221
 6226SOL    HW219578   5.299   1.943   5.116
 6227SOL     OW19579   3.411   5.627   5.853
 6227SOL    HW119580   3.434   5.531   5.836
 6227SOL    HW219581   3.477   5.686   5.806
 6228SOL     OW19582   0.409   2.823   2.508
 6228SOL    HW119583   0.414   2.837   2.607
 6228SOL    HW219584   0.502   2.817   2.471
 6229SOL     OW19585   0.671   2.796   2.472
 6229SOL    HW119586   0.666   2.711   2.524
 6229SOL    HW219587   0.705   2.776   2.379
 6230SOL     OW19588   1.313   1.203   4.180
 6230SOL    HW119589   1.225   1.215   4.225
 6230SOL    HW219590   1.320   1.268   4.104
 6231SOL     OW19591   6.829   4.913   1.396
 6231SOL    HW119592   6.878   4.909   1.308
 6231SOL    HW219593   6.733   4.888   1.381
 6232SOL     OW19594   5.998   2.001   0.809
 6232SOL    HW119595   5.903   1.982   0.834
 6232SOL    HW219596   6.000   2.072   0.739
 6233SOL     OW19597   5.903   0.939   0.064
 6233SOL    HW119598   5.974   0.958   7.021
 6233SOL    HW219599   5.888   1.019   0.121
 6234SOL     OW19600   6.630   1.292   5.793
 6234SOL    HW119601   6.606   1.223   5.862
 6234SOL    HW219602   6.606   1.383   5.827
 6235SOL     OW19603   1.381   0.361   1.891
 6235SOL    HW119604   1.350   0.444   1.844
 6235SOL    HW219605   1.303   0.318   1.935
 6236SOL     OW19606   0.687   4.145   0.317
 6236SOL    HW119607   0.719   4.143   0.412
 6236SOL    HW219608   0.720   4.227   0.272
 6237SOL     OW19609   3.441   6.014   6.646
 6237SOL    HW119610   3.537   6.043   6.650
 6237SOL    HW219611   3.434   5.920   6.680
 6238SOL     OW19612   3.680   4.889   3.209
 6238SOL    HW119613   3.770   4.861   3.241
 6238SOL    HW219614   3.613   4.879   3.282
 6239SOL     OW19615   2.947   6.042   2.208
 6239SOL    HW119616   2.985   6.099   2.280
 6239SOL    HW219617   3.013   6.033   2.134
 6240SOL     OW19618   2.941   3.081   6.556
 6240SOL    HW119619   2.879   3.064   6.480
 6240SOL    HW219620   3.010   3.008   6.560
 6241SOL     OW19621   2.792   0.169   1.567
 6241SOL    HW119622   2.742   0.245   1.608
 6241SOL    HW219623   2.802   0.185   1.469
 6242SOL     OW19624   5.372   0.502   3.604
 6242SOL    HW119625   5.442   0.553   3.554
 6242SOL    HW219626   5.285   0.549   3.598
 6243SOL     OW19627   5.939   6.806   3.623
 6243SOL    HW119628   5.900   6.880   3.677
 6243SOL    HW219629   5.884   6.792   3.541
 6244SOL     OW19630   1.601   2.397   2.426
 6244SOL    HW119631   1.695   2.364   2.434
 6244SOL    HW219632   1.599   2.482   2.374
 6245SOL     OW19633   1.802   4.503   0.481
 6245SOL    HW119634   1.769   4.457   0.399
 6245SOL    HW219635   1.902   4.500   0.484
 6246SOL     OW19636   1.939   3.106   5.785
 6246SOL    HW119637   1.975   3.116   5.878
 6246SOL    HW219638   1.920   3.196   5.747
 6247SOL     OW19639   1.170   6.835   3.515
 6247SOL    HW119640   1.132   6.820   3.606
 6247SOL    HW219641   1.260   6.879   3.523
 6248SOL     OW19642   2.709   4.100   0.642
 6248SOL    HW119643   2.702   4.198   0.662
 6248SOL    HW219644   2.764   4.056   0.712
 6249SOL     OW19645   0.779   3.931   0.170
 6249SOL    HW119646   0.868   3.969   0.146
 6249SOL    HW219647   0.745   3.975   0.253
 6250SOL     OW19648   6.948   6.182   0.319
 6250SOL    HW119649   6.913   6.218   0.406
 6250SOL    HW219650   6.987   6.091   0.334
 6251SOL     OW19651   3.356   5.831   0.019
 6251SOL    HW119652   3.344   5.928   0.039
 6251SOL    HW219653   3.381   5.782   0.102
 6252SOL     OW19654   1.437   6.845   5.937
 6252SOL    HW119655   1.354   6.898   5.920
 6252SOL    HW219656   1.412   6.752   5.964
 6253SOL     OW19657   2.148   3.771   2.536
 6253SOL    HW119658   2.217   3.733   2.476
 6253SOL    HW219659   2.107   3.852   2.493
 6254SOL     OW19660   4.678   0.896   0.307
 6254SOL    HW119661   4.609   0.859   0.369
 6254SOL    HW219662   4.716   0.980   0.345
 6255SOL     OW19663   2.631   0.809   1.173
 6255SOL    HW119664   2.577   0.765   1.101
 6255SOL    HW219665   2.571   0.862   1.232
 6256SOL     OW19666   3.253   5.189   2.776
 6256SOL    HW119667   3.339   5.237   2.796
 6256SOL    HW219668   3.253   5.160   2.681
 6257SOL     OW19669   4.975   2.613   0.693
 6257SOL    HW119670   4.877   2.617   0.671
 6257SOL    HW219671   5.027   2.591   0.610
 6258SOL     OW19672   4.527   0.191   3.768
 6258SOL    HW119673   4.581   0.178   3.851
 6258SOL    HW219674   4.576   0.154   3.690
 6259SOL     OW19675   2.866   2.618   0.705
 6259SOL    HW119676   2.949   2.655   0.746
 6259SOL    HW219677   2.808   2.694   0.673
 6260SOL     OW19678   2.852   5.344   0.176
 6260SOL    HW119679   2.826   5.343   0.273
 6260SOL    HW219680   2.894   5.257   0.152
 6261SOL     OW19681   3.794   0.244   6.629
 6261SOL    HW119682   3.772   0.286   6.541
 6261SOL    HW219683   3.765   0.304   6.703
 6262SOL     OW19684   1.334   4.740   0.838
 6262SOL    HW119685   1.281   4.789   0.769
 6262SOL    HW219686   1.424   4.783   0.849
 6263SOL     OW19687   0.029   0.515   5.620
 6263SOL    HW119688   6.954   0.503   5.628
 6263SOL    HW219689   0.060   0.479   5.532
 6264SOL     OW19690   1.532   0.220   1.611
 6264SOL    HW119691   1.446   0.269   1.594
 6264SOL    HW219692   1.606   0.268   1.565
 6265SOL     OW19693   2.676   4.357   0.751
 6265SOL    HW119694   2.617   4.425   0.707
 6265SOL    HW219695   2.766   4.397   0.768
 6266SOL     OW19696   3.672   0.740   4.496
 6266SOL    HW119697   3.742   0.721   4.566
 6266SOL    HW219698   3.664   0.838   4.483
 6267SOL     OW19699   2.767   0.392   6.882
 6267SOL    HW119700   2.702   0.442   6.825
 6267SOL    HW219701   2.829   0.339   6.823
 6268SOL     OW19702   3.307   6.462   3.314
 6268SOL    HW119703   3.326   6.542   3.369
 6268SOL    HW219704   3.351   6.472   3.224
 6269SOL     OW19705   6.715   5.383   1.779
 6269SOL    HW119706   6.735   5.287   1.794
 6269SOL    HW219707   6.800   5.434   1.767
 6270SOL     OW19708   1.699   0.386   5.492
 6270SOL    HW119709   1.715   0.288   5.485
 6270SOL    HW219710   1.673   0.409   5.586
 6271SOL     OW19711   5.308   2.444   6.007
 6271SOL    HW119712   5.238   2.385   6.049
 6271SOL    HW219713   5.313   2.530   6.057
 6272SOL     OW19714   0.852   2.498   6.344
 6272SOL    HW119715   0.949   2.491   6.368
 6272SOL    HW219716   0.838   2.466   6.251
 6273SOL     OW19717   2.274   0.463   2.829
 6273SOL    HW119718   2.298   0.446   2.925
 6273SOL    HW219719   2.318   0.547   2.799
 6274SOL     OW19720   2.307   5.328   5.997
 6274SOL    HW119721   2.260   5.409   5.962
 6274SOL    HW219722   2.400   5.354   6.024
 6275SOL     OW19723   2.070   6.273   4.897
 6275SOL    HW119724   2.060   6.255   4.799
 6275SOL    HW219725   2.167   6.266   4.922
 6276SOL     OW19726   2.042   5.131   3.760
 6276SOL    HW119727   2.031   5.050   3.703
 6276SOL    HW219728   2.082   5.104   3.848
 6277SOL     OW19729   5.260   3.632   1.781
 6277SOL    HW119730   5.317   3.550   1.775
 6277SOL    HW219731   5.310   3.705   1.826
 6278SOL     OW19732   4.920   7.017   4.425
 6278SOL    HW119733   5.019   7.000   4.420
 6278SOL    HW219734   4.878   6.952   4.488
 6279SOL     OW19735   3.699   0.891   6.617
 6279SOL    HW119736   3.717   0.809   6.564
 6279SOL    HW219737   3.682   0.866   6.712
 6280SOL     OW19738   0.843   2.576   5.174
 6280SOL    HW119739   0.776   2.575   5.099
 6280SOL    HW219740   0.794   2.583   5.261
 6281SOL     OW19741   1.849   5.427   4.434
 6281SOL    HW119742   1.916   5.353   4.432
 6281SOL    HW219743   1.886   5.505   4.483
 6282SOL     OW19744   1.198   0.382   4.629
 6282SOL    HW119745   1.247   0.301   4.662
 6282SOL    HW219746   1.262   0.444   4.584
 6283SOL     OW19747   6.453   3.461   5.732
 6283SOL    HW119748   6.361   3.497   5.711
 6283SOL    HW219749   6.507   3.456   5.648
 6284SOL     OW19750   2.169   5.462   4.864
 6284SOL    HW119751   2.135   5.386   4.808
 6284SOL    HW219752   2.267   5.451   4.880
 6285SOL     OW19753   0.713   2.944   3.916
 6285SOL    HW119754   0.669   2.880   3.854
 6285SOL    HW219755   0.703   2.911   4.010
 6286SOL     OW19756   6.546   1.966   3.958
 6286SOL    HW119757   6.539   2.035   3.885
 6286SOL    HW219758   6.558   1.876   3.917
 6287SOL     OW19759   3.441   5.196   3.643
 6287SOL    HW119760   3.348   5.175   3.672
 6287SOL    HW219761   3.487   5.249   3.713
 6288SOL     OW19762   5.857   4.734   2.841
 6288SOL    HW119763   5.889   4.798   2.771
 6288SOL    HW219764   5.841   4.645   2.799
 6289SOL     OW19765   1.417   4.917   2.371
 6289SOL    HW119766   1.507   4.960   2.378
 6289SOL    HW219767   1.372   4.919   2.461
 6290SOL     OW19768   6.156   3.477   4.047
 6290SOL    HW119769   6.147   3.537   4.127
 6290SOL    HW219770   6.095   3.398   4.058
 6291SOL     OW19771   3.535   2.992   4.344
 6291SOL    HW119772   3.567   2.931   4.417
 6291SOL    HW219773   3.535   2.943   4.257
 6292SOL     OW19774   1.449   2.033   3.822
 6292SOL    HW119775   1.535   2.043   3.771
 6292SOL    HW219776   1.468   2.039   3.920
 6293SOL     OW19777   3.692   0.481   0.038
 6293SOL    HW119778   3.773   0.444   0.083
 6293SOL    HW219779   3.611   0.466   0.095
 6294SOL     OW19780   3.861   4.858   3.999
 6294SOL    HW119781   3.911   4.821   4.077
 6294SOL    HW219782   3.914   4.840   3.915
 6295SOL     OW19783   5.065   5.080   5.795
 6295SOL    HW119784   5.054   4.990   5.752
 6295SOL    HW219785   5.027   5.150   5.736
 6296SOL     OW19786   0.010   6.746   4.932
 6296SOL    HW119787   6.940   6.754   4.963
 6296SOL    HW219788   0.013   6.690   4.849
 6297SOL     OW19789   4.575   6.911   5.072
 6297SOL    HW119790   4.484   6.945   5.098
 6297SOL    HW219791   4.587   6.818   5.106
 6298SOL     OW19792   1.273   2.715   5.927
 6298SOL    HW119793   1.297   2.709   5.830
 6298SOL    HW219794   1.250   2.809   5.951
 6299SOL     OW19795   5.307   1.528   0.454
 6299SOL    HW119796   5.383   1.569   0.505
 6299SOL    HW219797   5.242   1.489   0.519
 6300SOL     OW19798   4.896   0.293   6.585
 6300SOL    HW119799   4.857   0.205   6.558
 6300SOL    HW219800   4.824   0.362   6.588
 6301SOL     OW19801   3.384   0.645   0.756
 6301SOL    HW119802   3.329   0.572   0.716
 6301SOL    HW219803   3.340   0.733   0.739
 6302SOL     OW19804   1.583   1.724   4.110
 6302SOL    HW119805   1.512   1.655   4.098
 6302SOL    HW219806   1.543   1.815   4.096
 6303SOL     OW19807   2.341   0.948   4.668
 6303SOL    HW119808   2.349   1.014   4.592
 6303SOL    HW219809   2.335   0.998   4.754
 6304SOL     OW19810   2.359   1.210   1.017
 6304SOL    HW119811   2.422   1.161   1.077
 6304SOL    HW219812   2.405   1.291   0.980
 6305SOL     OW19813   6.150   6.981   1.703
 6305SOL    HW119814   6.093   6.922   1.761
 6305SOL    HW219815   6.129   0.052   1.723
 6306SOL     OW19816   1.176   3.503   4.128
 6306SOL    HW119817   1.211   3.594   4.102
 6306SOL    HW219818   1.238   3.462   4.194
 6307SOL     OW19819   3.991   4.778   5.993
 6307SOL    HW119820   3.941   4.736   5.917
 6307SOL    HW219821   4.042   4.707   6.043
 6308SOL     OW19822   1.918   1.761   4.839
 6308SOL    HW119823   1.960   1.685   4.789
 6308SOL    HW219824   1.861   1.815   4.776
 6309SOL     OW19825   5.041   4.040   4.406
 6309SOL    HW119826   5.099   4.048   4.486
 6309SOL    HW219827   5.077   3.970   4.345
 6310SOL     OW19828   2.113   5.531   3.410
 6310SOL    HW119829   2.093   5.434   3.394
 6310SOL    HW219830   2.176   5.540   3.487
 6311SOL     OW19831   5.584   0.040   5.405
 6311SOL    HW119832   5.492   0.041   5.365
 6311SOL    HW219833   5.607   0.132   5.437
 6312SOL     OW19834   5.902   5.207   5.803
 6312SOL    HW119835   5.885   5.297   5.843
 6312SOL    HW219836   5.887   5.137   5.872
 6313SOL     OW19837   1.376   6.051   3.446
 6313SOL    HW119838   1.461   6.103   3.447
 6313SOL    HW219839   1.367   6.000   3.531
 6314SOL     OW19840   4.133   6.623   1.452
 6314SOL    HW119841   4.066   6.564   1.497
 6314SOL    HW219842   4.193   6.567   1.395
 6315SOL     OW19843   3.926   3.270   6.123
 6315SOL    HW119844   3.960   3.194   6.068
 6315SOL    HW219845   3.894   3.237   6.211
 6316SOL     OW19846   4.667   1.833   6.659
 6316SOL    HW119847   4.641   1.852   6.565
 6316SOL    HW219848   4.766   1.843   6.669
 6317SOL     OW19849   5.303   5.279   2.775
 6317SOL    HW119850   5.252   5.352   2.821
 6317SOL    HW219851   5.239   5.221   2.724
 6318SOL     OW19852   2.885   2.270   4.624
 6318SOL    HW119853   2.975   2.262   4.582
 6318SOL    HW219854   2.888   2.234   4.717
 6319SOL     OW19855   0.200   2.175   3.864
 6319SOL    HW119856   0.148   2.144   3.944
 6319SOL    HW219857   0.179   2.271   3.846
 6320SOL     OW19858   6.025   5.203   5.276
 6320SOL    HW119859   5.939   5.250   5.259
 6320SOL    HW219860   6.100   5.256   5.235
 6321SOL     OW19861   3.277   4.317   0.974
 6321SOL    HW119862   3.299   4.239   1.032
 6321SOL    HW219863   3.249   4.285   0.883
 6322SOL     OW19864   1.594   2.317   6.899
 6322SOL    HW119865   1.548   2.228   6.904
 6322SOL    HW219866   1.558   2.369   6.821
 6323SOL     OW19867   3.225   2.861   1.555
 6323SOL    HW119868   3.187   2.902   1.472
 6323SOL    HW219869   3.190   2.768   1.565
 6324SOL     OW19870   4.882   6.843   6.438
 6324SOL    HW119871   4.827   6.896   6.503
 6324SOL    HW219872   4.963   6.895   6.412
 6325SOL     OW19873   2.063   2.067   2.493
 6325SOL    HW119874   2.090   2.104   2.581
 6325SOL    HW219875   2.087   1.970   2.489
 6326SOL     OW19876   4.806   5.886   1.661
 6326SOL    HW119877   4.809   5.929   1.571
 6326SOL    HW219878   4.875   5.927   1.720
 6327SOL     OW19879   0.235   0.599   4.921
 6327SOL    HW119880   0.224   0.698   4.918
 6327SOL    HW219881   0.278   0.572   5.007
 6328SOL     OW19882   1.805   3.957   0.672
 6328SOL    HW119883   1.899   3.975   0.642
 6328SOL    HW219884   1.769   3.877   0.626
 6329SOL     OW19885   2.460   2.474   3.372
 6329SOL    HW119886   2.511   2.469   3.457
 6329SOL    HW219887   2.400   2.394   3.364
 6330SOL     OW19888   4.559   1.526   1.225
 6330SOL    HW119889   4.607   1.595   1.170
 6330SOL    HW219890   4.569   1.549   1.322
 6331SOL     OW19891   6.172   2.253   0.337
 6331SOL    HW119892   6.093   2.272   0.279
 6331SOL    HW219893   6.176   2.155   0.356
 6332SOL     OW19894   6.526   3.801   1.877
 6332SOL    HW119895   6.579   3.728   1.835
 6332SOL    HW219896   6.557   3.889   1.843
 6333SOL     OW19897   4.051   5.182   4.158
 6333SOL    HW119898   4.140   5.154   4.193
 6333SOL    HW219899   4.062   5.227   4.069
 6334SOL     OW19900   3.096   6.947   2.020
 6334SOL    HW119901   3.181   6.943   1.967
 6334SOL    HW219902   3.063   0.017   2.023
 6335SOL     OW19903   4.516   1.490   0.273
 6335SOL    HW119904   4.486   1.576   0.231
 6335SOL    HW219905   4.462   1.473   0.355
 6336SOL     OW19906   0.708   1.687   6.440
 6336SOL    HW119907   0.715   1.787   6.433
 6336SOL    HW219908   0.792   1.645   6.405
 6337SOL     OW19909   4.836   4.501   6.040
 6337SOL    HW119910   4.817   4.425   6.102
 6337SOL    HW219911   4.843   4.466   5.947
 6338SOL     OW19912   3.329   2.044   2.898
 6338SOL    HW119913   3.397   2.062   2.969
 6338SOL    HW219914   3.376   2.014   2.814
 6339SOL     OW19915   1.451   2.928   2.812
 6339SOL    HW119916   1.361   2.904   2.849
 6339SOL    HW219917   1.483   3.013   2.855
 6340SOL     OW19918   1.661   4.687   2.923
 6340SOL    HW119919   1.602   4.753   2.876
 6340SOL    HW219920   1.657   4.599   2.876
 6341SOL     OW19921   0.621   4.361   3.949
 6341SOL    HW119922   0.543   4.422   3.957
 6341SOL    HW219923   0.616   4.310   3.863
 6342SOL     OW19924   2.562   1.883   1.535
 6342SOL    HW119925   2.644   1.901   1.589
 6342SOL    HW219926   2.486   1.862   1.595
 6343SOL     OW19927   4.954   2.545   6.675
 6343SOL    HW119928   4.862   2.545   6.636
 6343SOL    HW219929   4.955   2.599   6.759
 6344SOL     OW19930   5.571   3.671   5.097
 6344SOL    HW119931   5.506   3.653   5.171
 6344SOL    HW219932   5.610   3.763   5.108
 6345SOL     OW19933   4.624   1.943   2.238
 6345SOL    HW119934   4.707   1.912   2.284
 6345SOL    HW219935   4.624   2.042   2.232
 6346SOL     OW19936   6.716   4.509   3.845
 6346SOL    HW119937   6.717   4.601   3.808
 6346SOL    HW219938   6.647   4.454   3.798
 6347SOL     OW19939   1.792   0.076   2.001
 6347SOL    HW119940   1.817   0.034   2.088
 6347SOL    HW219941   1.828   0.169   1.998
 6348SOL     OW19942   1.455   3.736   5.126
 6348SOL    HW119943   1.406   3.759   5.042
 6348SOL    HW219944   1.414   3.654   5.167
 6349SOL     OW19945   3.457   6.955   1.228
 6349SOL    HW119946   3.390   6.881   1.223
 6349SOL    HW219947   3.515   6.953   1.146
 6350SOL     OW19948   2.630   4.880   4.226
 6350SOL    HW119949   2.568   4.803   4.240
 6350SOL    HW219950   2.722   4.855   4.255
 6351SOL     OW19951   6.497   3.228   3.315
 6351SOL    HW119952   6.594   3.232   3.294
 6351SOL    HW219953   6.448   3.184   3.239
 6352SOL     OW19954   2.685   5.487   4.790
 6352SOL    HW119955   2.758   5.548   4.758
 6352SOL    HW219956   2.717   5.436   4.870
 6353SOL     OW19957   6.874   0.997   6.036
 6353SOL    HW119958   6.945   0.968   5.971
 6353SOL    HW219959   6.839   0.917   6.085
 6354SOL     OW19960   1.774   6.934   2.625
 6354SOL    HW119961   1.772   6.910   2.528
 6354SOL    HW219962   1.853   6.993   2.642
 6355SOL     OW19963   1.176   5.372   5.905
 6355SOL    HW119964   1.179   5.413   5.996
 6355SOL    HW219965   1.140   5.438   5.839
 6356SOL     OW19966   3.568   5.004   2.771
 6356SOL    HW119967   3.656   5.021   2.727
 6356SOL    HW219968   3.582   4.959   2.859
 6357SOL     OW19969   5.124   2.871   2.266
 6357SOL    HW119970   5.095   2.918   2.350
 6357SOL    HW219971   5.224   2.869   2.263
 6358SOL     OW19972   1.529   2.559   6.316
 6358SOL    HW119973   1.566   2.472   6.350
 6358SOL    HW219974   1.594   2.600   6.252
 6359SOL     OW19975   6.345   6.678   5.664
 6359SOL    HW119976   6.435   6.691   5.622
 6359SOL    HW219977   6.291   6.761   5.653
 6360SOL     OW19978   1.777   3.734   4.085
 6360SOL    HW119979   1.715   3.744   4.163
 6360SOL    HW219980   1.869   3.712   4.118
 6361SOL     OW19981   6.192   0.281   0.272
 6361SOL    HW119982   6.246   0.313   0.350
 6361SOL    HW219983   6.158   0.360   0.221
 6362SOL     OW19984   6.743   5.660   6.832
 6362SOL    HW119985   6.836   5.657   6.868
 6362SOL    HW219986   6.699   5.746   6.860
 6363SOL     OW19987   2.229   4.021   3.006
 6363SOL    HW119988   2.212   3.992   3.100
 6363SOL    HW219989   2.202   3.948   2.944
 6364SOL     OW19990   3.366   1.400   5.882
 6364SOL    HW119991   3.273   1.379   5.912
 6364SOL    HW219992   3.412   1.454   5.953
 6365SOL     OW19993   5.469   6.704   4.388
 6365SOL    HW119994   5.464   6.641   4.310
 6365SOL    HW219995   5.558   6.750   4.388
 6366SOL     OW19996   0.904   5.714   6.604
 6366SOL    HW119997   0.933   5.806   6.629
 6366SOL    HW219998   0.831   5.720   6.535
 6367SOL     OW19999   3.892   0.377   4.180
 6367SOL    HW120000   3.884   0.430   4.265
 6367SOL    HW220001   3.988   0.368   4.155
 6368SOL     OW20002   3.502   6.477   3.727
 6368SOL    HW120003   3.493   6.516   3.819
 6368SOL    HW220004   3.426   6.414   3.710
 6369SOL     OW20005   2.226   4.966   4.703
 6369SOL    HW120006   2.184   4.876   4.715
 6369SOL    HW220007   2.299   4.959   4.635
 6370SOL     OW20008   0.937   3.334   2.803
 6370SOL    HW120009   1.011   3.397   2.779
 6370SOL    HW220010   0.958   3.242   2.769
 6371SOL     OW20011   5.201   3.414   4.091
 6371SOL    HW120012   5.254   3.354   4.150
 6371SOL    HW220013   5.125   3.363   4.051
 6372SOL     OW20014   3.580   0.297   1.982
 6372SOL    HW120015   3.660   0.255   2.026
 6372SOL    HW220016   3.608   0.380   1.934
 6373SOL     OW20017   5.642   4.540   3.463
 6373SOL    HW120018   5.613   4.557   3.557
 6373SOL    HW220019   5.656   4.627   3.415
 6374SOL     OW20020   3.248   4.098   4.542
 6374SOL    HW120021   3.324   4.058   4.593
 6374SOL    HW220022   3.274   4.190   4.510
 6375SOL     OW20023   6.926   1.629   4.042
 6375SOL    HW120024   6.883   1.718   4.062
 6375SOL    HW220025   6.860   1.570   3.996
 6376SOL     OW20026   6.378   2.705   5.339
 6376SOL    HW120027   6.446   2.638   5.310
 6376SOL    HW220028   6.301   2.658   5.383
 6377SOL     OW20029   6.476   1.774   5.295
 6377SOL    HW120030   6.565   1.757   5.252
 6377SOL    HW220031   6.421   1.691   5.291
 6378SOL     OW20032   5.174   4.876   3.715
 6378SOL    HW120033   5.165   4.777   3.729
 6378SOL    HW220034   5.132   4.901   3.628
 6379SOL     OW20035   2.272   4.419   4.069
 6379SOL    HW120036   2.191   4.477   4.073
 6379SOL    HW220037   2.247   4.324   4.087
 6380SOL     OW20038   0.748   1.249   6.287
 6380SOL    HW120039   0.810   1.208   6.353
 6380SOL    HW220040   0.654   1.225   6.309
 6381SOL     OW20041   4.211   3.458   1.924
 6381SOL    HW120042   4.259   3.390   1.868
 6381SOL    HW220043   4.200   3.542   1.871
 6382SOL     OW20044   0.966   2.654   0.387
 6382SOL    HW120045   0.992   2.706   0.469
 6382SOL    HW220046   1.020   2.570   0.382
 6383SOL     OW20047   1.877   2.040   3.110
 6383SOL    HW120048   1.890   2.074   3.017
 6383SOL    HW220049   1.823   1.956   3.108
 6384SOL     OW20050   5.255   4.077   1.385
 6384SOL    HW120051   5.236   4.032   1.472
 6384SOL    HW220052   5.209   4.027   1.311
 6385SOL     OW20053   6.640   4.811   4.437
 6385SOL    HW120054   6.622   4.903   4.401
 6385SOL    HW220055   6.701   4.762   4.375
 6386SOL     OW20056   2.290   4.332   6.383
 6386SOL    HW120057   2.201   4.300   6.350
 6386SOL    HW220058   2.333   4.260   6.437
 6387SOL     OW20059   0.862   1.405   6.703
 6387SOL    HW120060   0.828   1.466   6.775
 6387SOL    HW220061   0.929   1.454   6.648
 6388SOL     OW20062   4.024   4.997   1.089
 6388SOL    HW120063   3.997   4.984   0.993
 6388SOL    HW220064   4.119   5.027   1.092
 6389SOL     OW20065   0.598   6.119   2.478
 6389SOL    HW120066   0.540   6.137   2.557
 6389SOL    HW220067   0.548   6.142   2.394
 6390SOL     OW20068   1.121   2.654   4.601
 6390SOL    HW120069   1.071   2.614   4.678
 6390SOL    HW220070   1.131   2.752   4.616
 6391SOL     OW20071   3.142   0.151   6.010
 6391SOL    HW120072   3.042   0.144   6.010
 6391SOL    HW220073   3.175   0.148   5.915
 6392SOL     OW20074   2.455   0.286   3.340
 6392SOL    HW120075   2.532   0.268   3.279
 6392SOL    HW220076   2.449   0.214   3.409
 6393SOL     OW20077   5.728   6.817   1.188
 6393SOL    HW120078   5.821   6.850   1.204
 6393SOL    HW220079   5.675   6.888   1.141
 6394SOL     OW20080   2.627   4.685   1.139
 6394SOL    HW120081   2.673   4.653   1.221
 6394SOL    HW220082   2.566   4.761   1.162
 6395SOL     OW20083   6.352   2.924   1.793
 6395SOL    HW120084   6.437   2.914   1.741
 6395SOL    HW220085   6.274   2.895   1.737
 6396SOL     OW20086   5.369   2.727   6.765
 6396SOL    HW120087   5.338   2.755   6.674
 6396SOL    HW220088   5.447   2.664   6.756
 6397SOL     OW20089   5.700   2.580   6.097
 6397SOL    HW120090   5.634   2.653   6.109
 6397SOL    HW220091   5.746   2.560   6.184
 6398SOL     OW20092   3.033   0.889   0.734
 6398SOL    HW120093   3.052   0.932   0.646
 6398SOL    HW220094   2.959   0.936   0.780
 6399SOL     OW20095   1.478   5.218   6.792
 6399SOL    HW120096   1.569   5.184   6.767
 6399SOL    HW220097   1.427   5.238   6.709
 6400SOL     OW20098   2.449   6.024   2.816
 6400SOL    HW120099   2.365   5.995   2.770
 6400SOL    HW220100   2.498   6.088   2.757
 6401SOL     OW20101   0.271   4.487   3.307
 6401SOL    HW120102   0.252   4.514   3.401
 6401SOL    HW220103   0.238   4.394   3.291
 6402SOL     OW20104   4.282   0.813   3.223
 6402SOL    HW120105   4.247   0.892   3.174
 6402SOL    HW220106   4.217   0.737   3.216
 6403SOL     OW20107   0.189   6.341   6.285
 6403SOL    HW120108   0.135   6.337   6.369
 6403SOL    HW220109   0.194   6.435   6.253
 6404SOL     OW20110   4.082   1.273   3.086
 6404SOL    HW120111   4.052   1.341   3.020
 6404SOL    HW220112   4.071   1.310   3.179
 6405SOL     OW20113   2.143   1.121   3.168
 6405SOL    HW120114   2.152   1.069   3.253
 6405SOL    HW220115   2.198   1.077   3.097
 6406SOL     OW20116   1.940   2.641   3.574
 6406SOL    HW120117   1.959   2.573   3.644
 6406SOL    HW220118   1.916   2.595   3.488
 6407SOL     OW20119   3.248   0.229   3.073
 6407SOL    HW120120   3.267   0.133   3.050
 6407SOL    HW220121   3.159   0.235   3.118
 6408SOL     OW20122   5.946   2.357   0.183
 6408SOL    HW120123   5.846   2.359   0.184
 6408SOL    HW220124   5.981   2.429   0.243
 6409SOL     OW20125   0.353   4.981   2.911
 6409SOL    HW120126   0.337   4.922   2.832
 6409SOL    HW220127   0.349   4.925   2.994
 6410SOL     OW20128   1.955   1.266   0.161
 6410SOL    HW120129   1.882   1.260   0.229
 6410SOL    HW220130   1.933   1.338   0.096
 6411SOL     OW20131   0.057   2.358   3.175
 6411SOL    HW120132   0.060   2.413   3.258
 6411SOL    HW220133   0.031   2.264   3.197
 6412SOL     OW20134   0.053   3.003   5.202
 6412SOL    HW120135   6.997   2.946   5.183
 6412SOL    HW220136   0.066   3.069   5.128
 6413SOL     OW20137   4.376   4.651   3.082
 6413SOL    HW120138   4.419   4.563   3.098
 6413SOL    HW220139   4.339   4.654   2.988
 6414SOL     OW20140   5.994   0.911   1.463
 6414SOL    HW120141   6.050   0.869   1.391
 6414SOL    HW220142   6.022   0.876   1.552
 6415SOL     OW20143   2.206   2.132   2.747
 6415SOL    HW120144   2.250   2.046   2.772
 6415SOL    HW220145   2.272   2.207   2.759
 6416SOL     OW20146   1.393   1.372   6.477
 6416SOL    HW120147   1.358   1.461   6.505
 6416SOL    HW220148   1.476   1.351   6.528
 6417SOL     OW20149   7.022   4.452   2.094
 6417SOL    HW120150   6.929   4.471   2.063
 6417SOL    HW220151   0.010   4.354   2.107
 6418SOL     OW20152   4.919   4.558   2.011
 6418SOL    HW120153   4.837   4.531   1.959
 6418SOL    HW220154   4.913   4.519   2.103
 6419SOL     OW20155   2.248   4.410   2.731
 6419SOL    HW120156   2.339   4.395   2.692
 6419SOL    HW220157   2.250   4.491   2.790
 6420SOL     OW20158   2.901   3.746   5.617
 6420SOL    HW120159   2.929   3.782   5.705
 6420SOL    HW220160   2.925   3.811   5.545
 6421SOL     OW20161   5.566   1.239   2.153
 6421SOL    HW120162   5.625   1.162   2.177
 6421SOL    HW220163   5.620   1.323   2.149
 6422SOL     OW20164   0.034   0.549   4.143
 6422SOL    HW120165   0.077   0.633   4.178
 6422SOL    HW220166   0.076   0.523   4.056
 6423SOL     OW20167   4.450   5.216   2.420
 6423SOL    HW120168   4.524   5.244   2.481
 6423SOL    HW220169   4.485   5.206   2.327
 6424SOL     OW20170   6.726   6.161   5.603
 6424SOL    HW120171   6.676   6.075   5.599
 6424SOL    HW220172   6.701   6.211   5.686
 6425SOL     OW20173   6.463   5.689   3.200
 6425SOL    HW120174   6.375   5.644   3.183
 6425SOL    HW220175   6.531   5.655   3.135
 6426SOL     OW20176   0.440   5.058   3.392
 6426SOL    HW120177   0.514   4.993   3.373
 6426SOL    HW220178   0.393   5.032   3.476
 6427SOL     OW20179   2.345   3.347   6.456
 6427SOL    HW120180   2.262   3.380   6.410
 6427SOL    HW220181   2.341   3.371   6.553
 6428SOL     OW20182   6.759   3.254   0.166
 6428SOL    HW120183   6.722   3.169   0.204
 6428SOL    HW220184   6.691   3.326   0.174
 6429SOL     OW20185   0.768   1.490   5.653
 6429SOL    HW120186   0.782   1.412   5.592
 6429SOL    HW220187   0.815   1.570   5.617
 6430SOL     OW20188   5.228   0.930   2.604
 6430SOL    HW120189   5.184   0.847   2.569
 6430SOL    HW220190   5.214   1.005   2.539
 6431SOL     OW20191   5.411   6.404   3.268
 6431SOL    HW120192   5.392   6.386   3.365
 6431SOL    HW220193   5.353   6.480   3.237
 6432SOL     OW20194   4.503   3.704   7.006
 6432SOL    HW120195   4.506   3.799   6.976
 6432SOL    HW220196   4.549   3.646   6.938
 6433SOL     OW20197   3.756   4.584   0.560
 6433SOL    HW120198   3.773   4.510   0.495
 6433SOL    HW220199   3.760   4.548   0.653
 6434SOL     OW20200   1.892   3.644   0.127
 6434SOL    HW120201   1.829   3.595   0.067
 6434SOL    HW220202   1.972   3.674   0.075
 6435SOL     OW20203   4.063   6.181   6.669
 6435SOL    HW120204   4.057   6.206   6.572
 6435SOL    HW220205   4.033   6.086   6.680
 6436SOL     OW20206   2.092   3.269   3.628
 6436SOL    HW120207   2.005   3.221   3.616
 6436SOL    HW220208   2.110   3.326   3.548
 6437SOL     OW20209   2.335   0.802   1.329
 6437SOL    HW120210   2.374   0.893   1.343
 6437SOL    HW220211   2.330   0.755   1.417
 6438SOL     OW20212   0.600   4.965   6.336
 6438SOL    HW120213   0.519   4.937   6.285
 6438SOL    HW220214   0.572   5.010   6.421
 6439SOL     OW20215   6.585   0.462   1.661
 6439SOL    HW120216   6.561   0.439   1.756
 6439SOL    HW220217   6.621   0.555   1.657
 6440SOL     OW20218   2.301   1.831   1.139
 6440SOL    HW120219   2.389   1.844   1.185
 6440SOL    HW220220   2.288   1.903   1.071
 6441SOL     OW20221   1.123   6.746   2.644
 6441SOL    HW120222   1.027   6.764   2.625
 6441SOL    HW220223   1.152   6.665   2.593
 6442SOL     OW20224   2.470   1.264   3.398
 6442SOL    HW120225   2.402   1.258   3.471
 6442SOL    HW220226   2.486   1.173   3.360
 6443SOL     OW20227   3.986   2.609   6.642
 6443SOL    HW120228   3.905   2.667   6.632
 6443SOL    HW220229   4.054   2.635   6.573
 6444SOL     OW20230   0.381   2.638   3.887
 6444SOL    HW120231   0.287   2.674   3.887
 6444SOL    HW220232   0.381   2.545   3.923
 6445SOL     OW20233   5.016   2.872   5.831
 6445SOL    HW120234   4.989   2.777   5.814
 6445SOL    HW220235   4.953   2.934   5.785
 6446SOL     OW20236   1.264   1.173   6.369
 6446SOL    HW120237   1.317   1.245   6.413
 6446SOL    HW220238   1.265   1.188   6.270
 6447SOL     OW20239   0.395   5.694   2.781
 6447SOL    HW120240   0.410   5.742   2.695
 6447SOL    HW220241   0.380   5.760   2.854
 6448SOL     OW20242   5.054   4.027   2.567
 6448SOL    HW120243   5.009   4.050   2.481
 6448SOL    HW220244   5.016   4.084   2.640
 6449SOL     OW20245   2.767   4.490   0.281
 6449SOL    HW120246   2.863   4.491   0.253
 6449SOL    HW220247   2.751   4.563   0.348
 6450SOL     OW20248   0.195   3.126   1.214
 6450SOL    HW120249   0.215   3.219   1.244
 6450SOL    HW220250   0.139   3.080   1.283
 6451SOL     OW20251   2.589   6.731   5.025
 6451SOL    HW120252   2.662   6.701   5.087
 6451SOL    HW220253   2.558   6.822   5.053
 6452SOL     OW20254   3.341   6.209   5.071
 6452SOL    HW120255   3.273   6.263   5.120
 6452SOL    HW220256   3.432   6.248   5.087
 6453SOL     OW20257   1.266   6.585   0.090
 6453SOL    HW120258   1.195   6.645   0.129
 6453SOL    HW220259   1.324   6.638   0.029
 6454SOL     OW20260   3.165   1.204   3.304
 6454SOL    HW120261   3.171   1.301   3.282
 6454SOL    HW220262   3.075   1.183   3.341
 6455SOL     OW20263   0.625   2.173   4.358
 6455SOL    HW120264   0.529   2.185   4.383
 6455SOL    HW220265   0.679   2.248   4.395
 6456SOL     OW20266   1.930   1.022   3.621
 6456SOL    HW120267   1.901   1.111   3.586
 6456SOL    HW220268   1.996   0.981   3.558
 6457SOL     OW20269   5.203   1.321   1.299
 6457SOL    HW120270   5.212   1.420   1.287
 6457SOL    HW220271   5.233   1.295   1.391
 6458SOL     OW20272   0.959   0.054   3.707
 6458SOL    HW120273   1.038   7.018   3.712
 6458SOL    HW220274   0.989   0.147   3.684
 6459SOL     OW20275   6.017   5.040   0.487
 6459SOL    HW120276   6.065   4.961   0.524
 6459SOL    HW220277   5.937   5.061   0.544
 6460SOL     OW20278   4.444   5.325   5.383
 6460SOL    HW120279   4.387   5.308   5.303
 6460SOL    HW220280   4.393   5.302   5.466
 6461SOL     OW20281   2.917   4.845   4.893
 6461SOL    HW120282   2.872   4.842   4.804
 6461SOL    HW220283   2.881   4.772   4.952
 6462SOL     OW20284   2.397   2.700   5.052
 6462SOL    HW120285   2.412   2.798   5.048
 6462SOL    HW220286   2.430   2.664   5.140
 6463SOL     OW20287   1.317   3.531   6.840
 6463SOL    HW120288   1.270   3.446   6.818
 6463SOL    HW220289   1.391   3.546   6.775
 6464SOL     OW20290   1.165   5.385   4.856
 6464SOL    HW120291   1.164   5.405   4.758
 6464SOL    HW220292   1.245   5.330   4.879
 6465SOL     OW20293   6.106   2.458   3.973
 6465SOL    HW120294   6.061   2.540   3.936
 6465SOL    HW220295   6.186   2.437   3.918
 6466SOL     OW20296   0.989   1.450   6.475
 6466SOL    HW120297   0.946   1.503   6.402
 6466SOL    HW220298   1.076   1.493   6.501
 6467SOL     OW20299   3.036   0.997   0.065
 6467SOL    HW120300   3.046   1.037   0.156
 6467SOL    HW220301   3.113   0.936   0.047
 6468SOL     OW20302   4.063   6.600   1.893
 6468SOL    HW120303   3.994   6.602   1.965
 6468SOL    HW220304   4.132   6.530   1.914
 6469SOL     OW20305   4.534   0.798   5.443
 6469SOL    HW120306   4.566   0.704   5.455
 6469SOL    HW220307   4.572   0.856   5.515
 6470SOL     OW20308   5.888   5.841   6.566
 6470SOL    HW120309   5.927   5.812   6.479
 6470SOL    HW220310   5.896   5.767   6.633
 6471SOL     OW20311   6.594   5.935   6.056
 6471SOL    HW120312   6.519   5.931   5.990
 6471SOL    HW220313   6.681   5.933   6.007
 6472SOL     OW20314   0.510   4.316   0.860
 6472SOL    HW120315   0.574   4.368   0.917
 6472SOL    HW220316   0.547   4.307   0.768
 6473SOL     OW20317   1.965   1.767   4.327
 6473SOL    HW120318   1.866   1.775   4.344
 6473SOL    HW220319   2.015   1.787   4.412
 6474SOL     OW20320   2.192   3.681   5.742
 6474SOL    HW120321   2.203   3.581   5.746
 6474SOL    HW220322   2.281   3.725   5.746
 6475SOL     OW20323   6.908   5.509   4.254
 6475SOL    HW120324   6.875   5.415   4.246
 6475SOL    HW220325   6.878   5.562   4.175
 6476SOL     OW20326   4.295   3.720   1.471
 6476SOL    HW120327   4.345   3.803   1.446
 6476SOL    HW220328   4.207   3.718   1.425
 6477SOL     OW20329   6.794   4.682   1.116
 6477SOL    HW120330   6.738   4.713   1.193
 6477SOL    HW220331   6.799   4.755   1.047
 6478SOL     OW20332   3.716   5.821   2.340
 6478SOL    HW120333   3.674   5.864   2.260
 6478SOL    HW220334   3.796   5.873   2.368
 6479SOL     OW20335   3.760   5.719   3.374
 6479SOL    HW120336   3.661   5.710   3.363
 6479SOL    HW220337   3.780   5.795   3.435
 6480SOL     OW20338   2.891   2.495   5.659
 6480SOL    HW120339   2.842   2.432   5.718
 6480SOL    HW220340   2.957   2.445   5.603
 6481SOL     OW20341   3.264   2.096   1.927
 6481SOL    HW120342   3.209   2.121   2.007
 6481SOL    HW220343   3.245   2.160   1.852
 6482SOL     OW20344   0.346   0.779   6.211
 6482SOL    HW120345   0.354   0.808   6.116
 6482SOL    HW220346   0.407   0.835   6.268
 6483SOL     OW20347   2.353   5.728   1.944
 6483SOL    HW120348   2.291   5.683   1.881
 6483SOL    HW220349   2.381   5.664   2.015
 6484SOL     OW20350   3.916   0.837   2.859
 6484SOL    HW120351   3.986   0.766   2.857
 6484SOL    HW220352   3.910   0.880   2.769
 6485SOL     OW20353   1.929   3.739   3.109
 6485SOL    HW120354   1.914   3.723   3.207
 6485SOL    HW220355   1.956   3.835   3.095
 6486SOL     OW20356   1.515   4.326   4.640
 6486SOL    HW120357   1.614   4.323   4.658
 6486SOL    HW220358   1.488   4.246   4.587
 6487SOL     OW20359   6.516   5.903   4.973
 6487SOL    HW120360   6.529   5.830   5.040
 6487SOL    HW220361   6.454   5.972   5.011
 6488SOL     OW20362   3.087   5.888   4.902
 6488SOL    HW120363   3.175   5.901   4.948
 6488SOL    HW220364   3.077   5.793   4.876
 6489SOL     OW20365   2.925   3.656   6.904
 6489SOL    HW120366   2.881   3.663   6.994
 6489SOL    HW220367   2.874   3.711   6.838
 6490SOL     OW20368   4.362   2.004   6.847
 6490SOL    HW120369   4.363   1.998   6.748
 6490SOL    HW220370   4.288   2.063   6.876
 6491SOL     OW20371   4.485   1.173   6.727
 6491SOL    HW120372   4.501   1.108   6.653
 6491SOL    HW220373   4.513   1.264   6.698
 6492SOL     OW20374   5.821   6.018   0.162
 6492SOL    HW120375   5.910   5.990   0.127
 6492SOL    HW220376   5.751   5.956   0.128
 6493SOL     OW20377   1.237   5.749   4.882
 6493SOL    HW120378   1.216   5.707   4.794
 6493SOL    HW220379   1.259   5.845   4.869
 6494SOL     OW20380   0.199   1.001   2.888
 6494SOL    HW120381   0.227   1.095   2.908
 6494SOL    HW220382   0.264   0.938   2.930
 6495SOL     OW20383   4.919   6.418   4.349
 6495SOL    HW120384   4.987   6.382   4.413
 6495SOL    HW220385   4.849   6.468   4.400
 6496SOL     OW20386   0.631   6.828   2.156
 6496SOL    HW120387   0.541   6.811   2.117
 6496SOL    HW220388   0.624   6.897   2.228
 6497SOL     OW20389   2.530   3.595   0.191
 6497SOL    HW120390   2.465   3.575   0.118
 6497SOL    HW220391   2.566   3.509   0.228
 6498SOL     OW20392   2.286   4.205   3.828
 6498SOL    HW120393   2.268   4.132   3.894
 6498SOL    HW220394   2.279   4.294   3.874
 6499SOL     OW20395   5.435   2.519   5.044
 6499SOL    HW120396   5.518   2.463   5.048
 6499SOL    HW220397   5.459   2.613   5.021
 6500SOL     OW20398   0.152   4.810   3.356
 6500SOL    HW120399   0.235   4.792   3.408
 6500SOL    HW220400   0.149   4.907   3.330
 6501SOL     OW20401   6.995   2.595   6.877
 6501SOL    HW120402   6.944   2.662   6.822
 6501SOL    HW220403   7.003   2.510   6.826
 6502SOL     OW20404   6.414   4.216   2.735
 6502SOL    HW120405   6.432   4.199   2.639
 6502SOL    HW220406   6.315   4.218   2.750
 6503SOL     OW20407   5.605   7.021   3.908
 6503SOL    HW120408   5.645   0.082   3.876
 6503SOL    HW220409   5.510   0.012   3.933
 6504SOL     OW20410   4.729   6.614   5.906
 6504SOL    HW120411   4.802   6.589   5.842
 6504SOL    HW220412   4.766   6.670   5.980
 6505SOL     OW20413   5.360   4.998   1.338
 6505SOL    HW120414   5.398   4.924   1.282
 6505SOL    HW220415   5.338   4.963   1.429
 6506SOL     OW20416   6.752   3.424   1.370
 6506SOL    HW120417   6.835   3.404   1.318
 6506SOL    HW220418   6.682   3.461   1.308
 6507SOL     OW20419   1.451   5.581   5.400
 6507SOL    HW120420   1.526   5.612   5.343
 6507SOL    HW220421   1.404   5.660   5.440
 6508SOL     OW20422   2.275   1.708   3.376
 6508SOL    HW120423   2.250   1.671   3.286
 6508SOL    HW220424   2.342   1.648   3.419
 6509SOL     OW20425   2.627   2.322   3.937
 6509SOL    HW120426   2.721   2.294   3.957
 6509SOL    HW220427   2.563   2.257   3.978
 6510SOL     OW20428   6.889   5.103   6.758
 6510SOL    HW120429   6.883   5.181   6.821
 6510SOL    HW220430   6.834   5.121   6.677
 6511SOL     OW20431   5.347   0.935   4.762
 6511SOL    HW120432   5.402   0.870   4.709
 6511SOL    HW220433   5.401   0.970   4.838
 6512SOL     OW20434   4.976   0.537   2.210
 6512SOL    HW120435   5.067   0.498   2.198
 6512SOL    HW220436   4.920   0.475   2.265
 6513SOL     OW20437   3.020   5.222   3.197
 6513SOL    HW120438   2.999   5.150   3.264
 6513SOL    HW220439   3.045   5.306   3.245
 6514SOL     OW20440   5.854   0.122   3.248
 6514SOL    HW120441   5.928   0.087   3.191
 6514SOL    HW220442   5.771   0.068   3.232
 6515SOL     OW20443   0.761   5.305   4.415
 6515SOL    HW120444   0.669   5.279   4.444
 6515SOL    HW220445   0.801   5.367   4.482
 6516SOL     OW20446   0.373   2.906   1.056
 6516SOL    HW120447   0.297   2.866   1.005
 6516SOL    HW220448   0.437   2.949   0.992
 6517SOL     OW20449   6.587   1.211   0.685
 6517SOL    HW120450   6.621   1.243   0.773
 6517SOL    HW220451   6.526   1.132   0.699
 6518SOL     OW20452   0.412   6.942   6.869
 6518SOL    HW120453   0.326   6.984   6.899
 6518SOL    HW220454   0.487   6.976   6.927
 6519SOL     OW20455   2.318   2.041   3.561
 6519SOL    HW120456   2.243   2.077   3.506
 6519SOL    HW220457   2.340   1.949   3.532
 6520SOL     OW20458   6.149   5.603   2.515
 6520SOL    HW120459   6.157   5.703   2.514
 6520SOL    HW220460   6.102   5.573   2.432
 6521SOL     OW20461   1.423   1.760   4.492
 6521SOL    HW120462   1.385   1.738   4.581
 6521SOL    HW220463   1.468   1.850   4.496
 6522SOL     OW20464   3.489   4.486   6.907
 6522SOL    HW120465   3.552   4.482   6.985
 6522SOL    HW220466   3.495   4.401   6.855
 6523SOL     OW20467   3.195   0.823   6.831
 6523SOL    HW120468   3.255   0.769   6.891
 6523SOL    HW220469   3.250   0.891   6.782
 6524SOL     OW20470   3.194   3.018   2.858
 6524SOL    HW120471   3.130   3.091   2.836
 6524SOL    HW220472   3.223   2.973   2.773
 6525SOL     OW20473   2.267   3.005   2.901
 6525SOL    HW120474   2.234   3.082   2.955
 6525SOL    HW220475   2.319   2.943   2.961
 6526SOL     OW20476   1.419   6.917   5.545
 6526SOL    HW120477   1.434   7.015   5.538
 6526SOL    HW220478   1.321   6.899   5.558
 6527SOL     OW20479   0.855   1.774   4.662
 6527SOL    HW120480   0.839   1.690   4.713
 6527SOL    HW220481   0.864   1.752   4.565
 6528SOL     OW20482   0.038   0.571   3.203
 6528SOL    HW120483   0.042   0.661   3.247
 6528SOL    HW220484   6.980   0.523   3.232
 6529SOL     OW20485   6.913   1.347   3.132
 6529SOL    HW120486   6.926   1.398   3.217
 6529SOL    HW220487   6.833   1.383   3.084
 6530SOL     OW20488   6.569   3.464   1.177
 6530SOL    HW120489   6.487   3.514   1.204
 6530SOL    HW220490   6.568   3.448   1.078
 6531SOL     OW20491   5.377   3.605   4.873
 6531SOL    HW120492   5.382   3.533   4.804
 6531SOL    HW220493   5.469   3.640   4.890
 6532SOL     OW20494   6.213   1.004   0.206
 6532SOL    HW120495   6.215   0.981   0.109
 6532SOL    HW220496   6.206   0.919   0.260
 6533SOL     OW20497   4.864   5.982   1.411
 6533SOL    HW120498   4.938   6.000   1.345
 6533SOL    HW220499   4.792   6.051   1.400
 6534SOL     OW20500   2.939   4.689   1.459
 6534SOL    HW120501   2.864   4.630   1.429
 6534SOL    HW220502   2.960   4.671   1.555
 6535SOL     OW20503   6.722   3.160   4.089
 6535SOL    HW120504   6.768   3.242   4.124
 6535SOL    HW220505   6.678   3.112   4.165
 6536SOL     OW20506   6.904   2.157   5.770
 6536SOL    HW120507   6.822   2.183   5.718
 6536SOL    HW220508   6.934   2.067   5.740
 6537SOL     OW20509   6.305   5.562   6.842
 6537SOL    HW120510   6.256   5.475   6.836
 6537SOL    HW220511   6.389   5.549   6.895
 6538SOL     OW20512   3.944   4.418   0.167
 6538SOL    HW120513   3.978   4.488   0.104
 6538SOL    HW220514   4.017   4.353   0.188
 6539SOL     OW20515   3.284   1.230   6.444
 6539SOL    HW120516   3.375   1.231   6.403
 6539SOL    HW220517   3.239   1.142   6.425
 6540SOL     OW20518   4.702   1.699   5.311
 6540SOL    HW120519   4.699   1.600   5.296
 6540SOL    HW220520   4.626   1.743   5.262
 6541SOL     OW20521   3.961   1.868   5.159
 6541SOL    HW120522   4.033   1.867   5.228
 6541SOL    HW220523   3.994   1.916   5.077
 6542SOL     OW20524   6.741   4.879   3.454
 6542SOL    HW120525   6.795   4.935   3.391
 6542SOL    HW220526   6.757   4.910   3.548
 6543SOL     OW20527   6.199   3.995   6.798
 6543SOL    HW120528   6.243   4.068   6.850
 6543SOL    HW220529   6.208   4.013   6.700
 6544SOL     OW20530   0.361   5.744   3.279
 6544SOL    HW120531   0.456   5.757   3.252
 6544SOL    HW220532   0.345   5.787   3.368
 6545SOL     OW20533   5.620   2.181   6.424
 6545SOL    HW120534   5.523   2.204   6.429
 6545SOL    HW220535   5.650   2.149   6.514
 6546SOL     OW20536   4.977   4.437   6.468
 6546SOL    HW120537   4.890   4.486   6.473
 6546SOL    HW220538   5.006   4.412   6.561
 6547SOL     OW20539   4.731   1.474   5.835
 6547SOL    HW120540   4.713   1.556   5.780
 6547SOL    HW220541   4.689   1.485   5.925
 6548SOL     OW20542   1.011   3.484   0.001
 6548SOL    HW120543   1.019   3.480   6.926
 6548SOL    HW220544   1.062   3.563   0.035
 6549SOL     OW20545   3.774   1.466   0.906
 6549SOL    HW120546   3.684   1.483   0.945
 6549SOL    HW220547   3.799   1.541   0.846
 6550SOL     OW20548   0.056   6.483   3.421
 6550SOL    HW120549   7.003   6.517   3.475
 6550SOL    HW220550   0.126   6.554   3.414
 6551SOL     OW20551   1.699   4.181   1.916
 6551SOL    HW120552   1.682   4.124   1.835
 6551SOL    HW220553   1.633   4.158   1.987
 6552SOL     OW20554   2.496   6.987   5.174
 6552SOL    HW120555   2.454   6.953   5.258
 6552SOL    HW220556   2.446   0.044   5.143
 6553SOL     OW20557   0.469   1.777   2.264
 6553SOL    HW120558   0.435   1.749   2.354
 6553SOL    HW220559   0.403   1.838   2.220
 6554SOL     OW20560   6.256   1.466   5.874
 6554SOL    HW120561   6.253   1.560   5.839
 6554SOL    HW220562   6.171   1.446   5.923
 6555SOL     OW20563   1.325   1.861   1.801
 6555SOL    HW120564   1.237   1.815   1.788
 6555SOL    HW220565   1.398   1.805   1.761
 6556SOL     OW20566   4.651   4.743   5.229
 6556SOL    HW120567   4.697   4.692   5.156
 6556SOL    HW220568   4.645   4.840   5.204
 6557SOL     OW20569   5.023   5.545   1.201
 6557SOL    HW120570   5.021   5.634   1.247
 6557SOL    HW220571   5.027   5.472   1.269
 6558SOL     OW20572   6.067   5.674   1.038
 6558SOL    HW120573   6.124   5.745   0.996
 6558SOL    HW220574   5.970   5.695   1.022
 6559SOL     OW20575   6.616   4.091   6.720
 6559SOL    HW120576   6.564   4.127   6.642
 6559SOL    HW220577   6.695   4.042   6.687
 6560SOL     OW20578   3.620   3.194   1.566
 6560SOL    HW120579   3.556   3.262   1.531
 6560SOL    HW220580   3.569   3.121   1.613
 6561SOL     OW20581   3.708   3.839   2.597
 6561SOL    HW120582   3.726   3.792   2.683
 6561SOL    HW220583   3.619   3.811   2.562
 6562SOL     OW20584   5.597   4.673   6.893
 6562SOL    HW120585   5.683   4.627   6.913
 6562SOL    HW220586   5.528   4.605   6.866
 6563SOL     OW20587   0.410   6.565   0.130
 6563SOL    HW120588   0.504   6.588   0.106
 6563SOL    HW220589   0.410   6.501   0.207
 6564SOL     OW20590   0.019   4.201   2.099
 6564SOL    HW120591   6.998   4.133   2.042
 6564SOL    HW220592   0.095   4.159   2.149
 6565SOL     OW20593   6.074   2.174   3.890
 6565SOL    HW120594   6.041   2.268   3.899
 6565SOL    HW220595   6.118   2.145   3.975
 6566SOL     OW20596   3.310   0.135   0.803
 6566SOL    HW120597   3.262   0.222   0.815
 6566SOL    HW220598   3.406   0.148   0.826
 6567SOL     OW20599   3.991   2.471   1.270
 6567SOL    HW120600   3.983   2.450   1.172
 6567SOL    HW220601   4.080   2.511   1.288
 6568SOL     OW20602   5.146   5.477   2.866
 6568SOL    HW120603   5.063   5.460   2.918
 6568SOL    HW220604   5.129   5.547   2.797
 6569SOL     OW20605   3.550   3.968   0.799
 6569SOL    HW120606   3.537   3.964   0.898
 6569SOL    HW220607   3.576   4.061   0.773
 6570SOL     OW20608   4.452   6.788   1.838
 6570SOL    HW120609   4.366   6.759   1.795
 6570SOL    HW220610   4.513   6.709   1.847
 6571SOL     OW20611   2.582   6.172   2.181
 6571SOL    HW120612   2.555   6.128   2.095
 6571SOL    HW220613   2.580   6.272   2.170
 6572SOL     OW20614   6.301   5.185   5.480
 6572SOL    HW120615   6.250   5.167   5.564
 6572SOL    HW220616   6.392   5.219   5.502
 6573SOL     OW20617   2.478   1.053   2.923
 6573SOL    HW120618   2.472   1.090   2.830
 6573SOL    HW220619   2.529   1.117   2.981
 6574SOL     OW20620   3.091   5.887   2.449
 6574SOL    HW120621   3.180   5.843   2.441
 6574SOL    HW220622   3.019   5.822   2.426
 6575SOL     OW20623   1.279   1.708   1.538
 6575SOL    HW120624   1.238   1.666   1.457
 6575SOL    HW220625   1.333   1.787   1.512
 6576SOL     OW20626   1.598   0.034   6.611
 6576SOL    HW120627   1.633   0.012   6.702
 6576SOL    HW220628   1.513   0.084   6.619
 6577SOL     OW20629   0.102   1.602   3.571
 6577SOL    HW120630   0.164   1.539   3.525
 6577SOL    HW220631   0.138   1.624   3.662
 6578SOL     OW20632   0.864   4.379   2.851
 6578SOL    HW120633   0.809   4.295   2.856
 6578SOL    HW220634   0.934   4.376   2.923
 6579SOL     OW20635   0.590   4.002   4.446
 6579SOL    HW120636   0.613   3.980   4.351
 6579SOL    HW220637   0.651   3.952   4.508
 6580SOL     OW20638   6.774   1.459   1.420
 6580SOL    HW120639   6.755   1.470   1.322
 6580SOL    HW220640   6.749   1.366   1.448
 6581SOL     OW20641   3.521   1.232   6.325
 6581SOL    HW120642   3.593   1.289   6.364
 6581SOL    HW220643   3.562   1.147   6.289
 6582SOL     OW20644   1.604   0.645   1.939
 6582SOL    HW120645   1.626   0.583   1.864
 6582SOL    HW220646   1.580   0.592   2.020
 6583SOL     OW20647   3.982   0.479   5.644
 6583SOL    HW120648   4.075   0.477   5.607
 6583SOL    HW220649   3.985   0.512   5.739
 6584SOL     OW20650   5.129   1.532   0.080
 6584SOL    HW120651   5.223   1.534   0.046
 6584SOL    HW220652   5.124   1.581   0.167
 6585SOL     OW20653   6.521   0.929   0.369
 6585SOL    HW120654   6.584   0.995   0.328
 6585SOL    HW220655   6.448   0.978   0.416
 6586SOL     OW20656   6.152   2.514   5.948
 6586SOL    HW120657   6.162   2.445   5.876
 6586SOL    HW220658   6.192   2.479   6.032
 6587SOL     OW20659   3.007   5.449   4.046
 6587SOL    HW120660   2.938   5.395   4.094
 6587SOL    HW220661   3.003   5.543   4.078
 6588SOL     OW20662   1.513   3.846   1.867
 6588SOL    HW120663   1.545   3.839   1.962
 6588SOL    HW220664   1.433   3.788   1.855
 6589SOL     OW20665   4.434   0.481   6.431
 6589SOL    HW120666   4.506   0.549   6.416
 6589SOL    HW220667   4.419   0.469   6.529
 6590SOL     OW20668   0.953   1.304   6.118
 6590SOL    HW120669   0.923   1.335   6.028
 6590SOL    HW220670   0.874   1.299   6.179
 6591SOL     OW20671   5.024   6.186   2.318
 6591SOL    HW120672   5.005   6.089   2.307
 6591SOL    HW220673   5.122   6.201   2.328
 6592SOL     OW20674   5.737   6.924   4.129
 6592SOL    HW120675   5.831   6.893   4.112
 6592SOL    HW220676   5.700   6.964   4.046
 6593SOL     OW20677   2.241   2.444   3.623
 6593SOL    HW120678   2.189   2.440   3.537
 6593SOL    HW220679   2.220   2.363   3.678
 6594SOL     OW20680   4.168   1.888   0.640
 6594SOL    HW120681   4.096   1.889   0.570
 6594SOL    HW220682   4.227   1.807   0.626
 6595SOL     OW20683   0.447   3.497   0.630
 6595SOL    HW120684   0.356   3.496   0.587
 6595SOL    HW220685   0.484   3.590   0.626
 6596SOL     OW20686   3.617   6.654   4.904
 6596SOL    HW120687   3.604   6.751   4.926
 6596SOL    HW220688   3.698   6.644   4.846
 6597SOL     OW20689   1.359   6.227   3.126
 6597SOL    HW120690   1.283   6.254   3.066
 6597SOL    HW220691   1.323   6.191   3.212
 6598SOL     OW20692   1.034   6.788   4.337
 6598SOL    HW120693   1.115   6.736   4.307
 6598SOL    HW220694   1.046   6.817   4.432
 6599SOL     OW20695   3.389   5.359   5.149
 6599SOL    HW120696   3.364   5.436   5.091
 6599SOL    HW220697   3.387   5.387   5.245
 6600SOL     OW20698   4.702   5.283   5.837
 6600SOL    HW120699   4.707   5.262   5.739
 6600SOL    HW220700   4.609   5.311   5.861
 6601SOL     OW20701   0.992   1.032   0.257
 6601SOL    HW120702   1.062   1.081   0.308
 6601SOL    HW220703   0.908   1.026   0.312
 6602SOL     OW20704   6.273   1.490   1.914
 6602SOL    HW120705   6.316   1.411   1.869
 6602SOL    HW220706   6.277   1.478   2.014
 6603SOL     OW20707   0.888   2.605   4.134
 6603SOL    HW120708   0.946   2.598   4.215
 6603SOL    HW220709   0.801   2.559   4.150
 6604SOL     OW20710   2.364   6.610   1.108
 6604SOL    HW120711   2.345   6.516   1.136
 6604SOL    HW220712   2.303   6.672   1.157
 6605SOL     OW20713   5.349   4.877   0.570
 6605SOL    HW120714   5.286   4.911   0.639
 6605SOL    HW220715   5.328   4.782   0.549
 6606SOL     OW20716   5.348   6.813   2.311
 6606SOL    HW120717   5.429   6.851   2.268
 6606SOL    HW220718   5.340   6.849   2.404
 6607SOL     OW20719   1.650   2.347   1.343
 6607SOL    HW120720   1.586   2.423   1.354
 6607SOL    HW220721   1.709   2.341   1.423
 6608SOL     OW20722   5.090   5.258   1.652
 6608SOL    HW120723   5.057   5.246   1.745
 6608SOL    HW220724   5.087   5.171   1.603
 6609SOL     OW20725   4.728   0.961   6.253
 6609SOL    HW120726   4.755   0.868   6.279
 6609SOL    HW220727   4.725   1.018   6.335
 6610SOL     OW20728   2.219   1.077   5.953
 6610SOL    HW120729   2.181   0.996   5.909
 6610SOL    HW220730   2.146   1.128   5.998
 6611SOL     OW20731   6.749   2.548   3.265
 6611SOL    HW120732   6.671   2.551   3.203
 6611SOL    HW220733   6.822   2.608   3.230
 6612SOL     OW20734   0.468   2.765   6.977
 6612SOL    HW120735   0.418   2.679   6.970
 6612SOL    HW220736   0.424   2.825   0.019
 6613SOL     OW20737   5.558   5.872   4.221
 6613SOL    HW120738   5.648   5.871   4.176
 6613SOL    HW220739   5.552   5.951   4.282
 6614SOL     OW20740   5.145   5.749   6.918
 6614SOL    HW120741   5.226   5.805   6.899
 6614SOL    HW220742   5.158   5.657   6.881
 6615SOL     OW20743   1.435   4.615   4.082
 6615SOL    HW120744   1.446   4.713   4.071
 6615SOL    HW220745   1.479   4.585   4.167
 6616SOL     OW20746   4.451   1.121   6.313
 6616SOL    HW120747   4.505   1.101   6.396
 6616SOL    HW220748   4.422   1.216   6.314
 6617SOL     OW20749   3.034   6.577   3.222
 6617SOL    HW120750   3.049   6.478   3.219
 6617SOL    HW220751   3.031   6.613   3.128
 6618SOL     OW20752   1.190   3.141   3.008
 6618SOL    HW120753   1.146   3.230   2.994
 6618SOL    HW220754   1.161   3.104   3.097
 6619SOL     OW20755   6.953   6.877   4.464
 6619SOL    HW120756   0.000   6.809   4.445
 6619SOL    HW220757   6.872   6.856   4.408
 6620SOL     OW20758   2.319   2.861   5.337
 6620SOL    HW120759   2.367   2.894   5.256
 6620SOL    HW220760   2.385   2.850   5.412
 6621SOL     OW20761   2.515   3.205   0.070
 6621SOL    HW120762   2.604   3.246   0.053
 6621SOL    HW220763   2.525   3.106   0.082
 6622SOL     OW20764   6.031   6.563   1.723
 6622SOL    HW120765   5.971   6.598   1.651
 6622SOL    HW220766   5.983   6.491   1.773
 6623SOL     OW20767   2.797   3.421   1.063
 6623SOL    HW120768   2.886   3.391   1.098
 6623SOL    HW220769   2.784   3.518   1.085
 6624SOL     OW20770   1.965   0.406   4.094
 6624SOL    HW120771   1.908   0.487   4.105
 6624SOL    HW220772   1.945   0.362   4.006
 6625SOL     OW20773   5.193   1.801   6.030
 6625SOL    HW120774   5.247   1.724   6.065
 6625SOL    HW220775   5.254   1.870   5.991
 6626SOL     OW20776   3.982   4.930   4.297
 6626SOL    HW120777   4.001   4.939   4.394
 6626SOL    HW220778   4.008   5.014   4.250
 6627SOL     OW20779   2.474   0.457   5.983
 6627SOL    HW120780   2.517   0.405   6.057
 6627SOL    HW220781   2.387   0.415   5.958
 6628SOL     OW20782   4.475   4.894   4.093
 6628SOL    HW120783   4.520   4.970   4.140
 6628SOL    HW220784   4.466   4.816   4.155
 6629SOL     OW20785   2.586   5.779   6.929
 6629SOL    HW120786   2.644   5.739   7.000
 6629SOL    HW220787   2.588   5.721   6.848
 6630SOL     OW20788   3.518   1.578   1.555
 6630SOL    HW120789   3.432   1.628   1.565
 6630SOL    HW220790   3.539   1.567   1.458
 6631SOL     OW20791   4.256   0.606   2.484
 6631SOL    HW120792   4.270   0.698   2.446
 6631SOL    HW220793   4.330   0.586   2.549
 6632SOL     OW20794   0.622   0.491   1.954
 6632SOL    HW120795   0.713   0.526   1.977
 6632SOL    HW220796   0.595   0.421   2.021
 6633SOL     OW20797   1.337   4.868   5.935
 6633SOL    HW120798   1.290   4.942   5.886
 6633SOL    HW220799   1.401   4.907   6.001
 6634SOL     OW20800   5.811   3.202   5.325
 6634SOL    HW120801   5.816   3.256   5.240
 6634SOL    HW220802   5.812   3.264   5.403
 6635SOL     OW20803   4.148   5.283   3.215
 6635SOL    HW120804   4.085   5.246   3.284
 6635SOL    HW220805   4.102   5.355   3.164
 6636SOL     OW20806   3.294   2.173   6.143
 6636SOL    HW120807   3.356   2.145   6.217
 6636SOL    HW220808   3.238   2.249   6.173
 6637SOL     OW20809   1.843   0.223   6.295
 6637SOL    HW120810   1.903   0.229   6.374
 6637SOL    HW220811   1.836   0.313   6.251
 6638SOL     OW20812   4.037   4.820   5.144
 6638SOL    HW120813   4.057   4.908   5.102
 6638SOL    HW220814   3.938   4.808   5.150
 6639SOL     OW20815   5.616   5.906   0.043
 6639SOL    HW120816   5.578   5.834   7.009
 6639SOL    HW220817   5.593   5.995   0.005
 6640SOL     OW20818   6.658   2.155   5.347
 6640SOL    HW120819   6.653   2.191   5.254
 6640SOL    HW220820   6.699   2.064   5.345
 6641SOL     OW20821   2.373   2.299   6.644
 6641SOL    HW120822   2.360   2.388   6.687
 6641SOL    HW220823   2.464   2.294   6.603
 6642SOL     OW20824   2.377   5.863   0.272
 6642SOL    HW120825   2.346   5.944   0.322
 6642SOL    HW220826   2.392   5.886   0.176
 6643SOL     OW20827   6.473   4.795   6.426
 6643SOL    HW120828   6.459   4.889   6.394
 6643SOL    HW220829   6.405   4.736   6.383
 6644SOL     OW20830   2.896   4.819   1.854
 6644SOL    HW120831   2.964   4.773   1.797
 6644SOL    HW220832   2.833   4.751   1.891
 6645SOL     OW20833   0.142   5.183   0.169
 6645SOL    HW120834   0.187   5.256   0.219
 6645SOL    HW220835   0.149   5.199   0.071
 6646SOL     OW20836   3.853   6.211   4.529
 6646SOL    HW120837   3.764   6.209   4.575
 6646SOL    HW220838   3.890   6.304   4.534
 6647SOL     OW20839   3.721   1.475   2.087
 6647SOL    HW120840   3.794   1.497   2.152
 6647SOL    HW220841   3.646   1.540   2.099
 6648SOL     OW20842   3.350   5.748   2.203
 6648SOL    HW120843   3.332   5.843   2.228
 6648SOL    HW220844   3.266   5.707   2.168
 6649SOL     OW20845   4.900   1.754   0.130
 6649SOL    HW120846   4.967   1.722   0.197
 6649SOL    HW220847   4.820   1.694   0.132
 6650SOL     OW20848   4.428   1.278   5.340
 6650SOL    HW120849   4.415   1.376   5.356
 6650SOL    HW220850   4.438   1.231   5.427
 6651SOL     OW20851   2.097   1.682   6.773
 6651SOL    HW120852   2.163   1.610   6.794
 6651SOL    HW220853   2.125   1.768   6.816
 6652SOL     OW20854   6.873   4.914   0.546
 6652SOL    HW120855   6.832   5.004   0.562
 6652SOL    HW220856   6.803   4.844   0.551
 6653SOL     OW20857   3.559   3.155   2.666
 6653SOL    HW120858   3.587   3.228   2.728
 6653SOL    HW220859   3.526   3.195   2.580
 6654SOL     OW20860   2.051   3.044   1.063
 6654SOL    HW120861   1.993   3.115   1.024
 6654SOL    HW220862   2.000   2.959   1.072
 6655SOL     OW20863   3.150   0.105   1.303
 6655SOL    HW120864   3.221   0.095   1.373
 6655SOL    HW220865   3.186   0.072   1.215
 6656SOL     OW20866   5.697   1.664   2.349
 6656SOL    HW120867   5.714   1.573   2.310
 6656SOL    HW220868   5.637   1.715   2.287
 6657SOL     OW20869   4.839   6.086   6.424
 6657SOL    HW120870   4.893   6.023   6.479
 6657SOL    HW220871   4.770   6.035   6.372
 6658SOL     OW20872   6.063   1.592   4.648
 6658SOL    HW120873   6.077   1.687   4.620
 6658SOL    HW220874   6.087   1.531   4.572
 6659SOL     OW20875   2.343   2.066   0.702
 6659SOL    HW120876   2.332   2.083   0.604
 6659SOL    HW220877   2.384   2.147   0.745
 6660SOL     OW20878   0.078   6.267   1.018
 6660SOL    HW120879   0.149   6.316   1.067
 6660SOL    HW220880   0.063   6.310   0.929
 6661SOL     OW20881   0.366   5.985   3.999
 6661SOL    HW120882   0.376   5.888   3.975
 6661SOL    HW220883   0.273   6.002   4.030
 6662SOL     OW20884   1.184   0.645   6.817
 6662SOL    HW120885   1.142   0.733   6.796
 6662SOL    HW220886   1.141   0.574   6.761
 6663SOL     OW20887   6.862   5.317   2.739
 6663SOL    HW120888   6.764   5.330   2.755
 6663SOL    HW220889   6.907   5.293   2.825
 6664SOL     OW20890   1.620   6.678   0.854
 6664SOL    HW120891   1.675   6.762   0.865
 6664SOL    HW220892   1.555   6.671   0.930
 6665SOL     OW20893   2.072   0.601   3.183
 6665SOL    HW120894   2.082   0.635   3.277
 6665SOL    HW220895   2.121   0.514   3.174
 6666SOL     OW20896   5.647   1.243   6.284
 6666SOL    HW120897   5.595   1.246   6.369
 6666SOL    HW220898   5.675   1.149   6.264
 6667SOL     OW20899   0.082   5.161   5.322
 6667SOL    HW120900   0.081   5.223   5.244
 6667SOL    HW220901   0.101   5.213   5.406
 6668SOL     OW20902   6.137   5.950   1.799
 6668SOL    HW120903   6.124   5.884   1.725
 6668SOL    HW220904   6.212   5.920   1.858
 6669SOL     OW20905   2.085   3.099   4.193
 6669SOL    HW120906   2.103   3.059   4.283
 6669SOL    HW220907   2.118   3.194   4.191
 6670SOL     OW20908   3.700   2.943   5.851
 6670SOL    HW120909   3.619   2.977   5.898
 6670SOL    HW220910   3.682   2.937   5.753
 6671SOL     OW20911   5.169   5.841   1.098
 6671SOL    HW120912   5.252   5.789   1.078
 6671SOL    HW220913   5.114   5.850   1.015
 6672SOL     OW20914   1.062   1.800   4.973
 6672SOL    HW120915   1.069   1.762   5.065
 6672SOL    HW220916   1.031   1.895   4.978
 6673SOL     OW20917   4.895   6.136   3.169
 6673SOL    HW120918   4.871   6.216   3.115
 6673SOL    HW220919   4.987   6.106   3.146
 6674SOL     OW20920   0.927   5.222   6.559
 6674SOL    HW120921   0.891   5.248   6.469
 6674SOL    HW220922   0.978   5.300   6.597
 6675SOL     OW20923   4.256   4.073   1.703
 6675SOL    HW120924   4.195   4.134   1.653
 6675SOL    HW220925   4.314   4.127   1.764
 6676SOL     OW20926   0.254   4.384   5.374
 6676SOL    HW120927   0.196   4.464   5.360
 6676SOL    HW220928   0.312   4.369   5.294
 6677SOL     OW20929   0.404   2.495   6.916
 6677SOL    HW120930   0.323   2.449   6.953
 6677SOL    HW220931   0.442   2.440   6.842
 6678SOL     OW20932   2.103   2.242   0.421
 6678SOL    HW120933   2.025   2.305   0.419
 6678SOL    HW220934   2.074   2.153   0.385
 6679SOL     OW20935   2.862   1.653   4.127
 6679SOL    HW120936   2.794   1.620   4.192
 6679SOL    HW220937   2.923   1.719   4.172
 6680SOL     OW20938   4.298   6.724   6.459
 6680SOL    HW120939   4.301   6.822   6.477
 6680SOL    HW220940   4.246   6.706   6.376
 6681SOL     OW20941   4.634   5.055   0.272
 6681SOL    HW120942   4.679   5.143   0.285
 6681SOL    HW220943   4.661   4.993   0.346
 6682SOL     OW20944   1.203   4.066   2.115
 6682SOL    HW120945   1.205   4.090   2.018
 6682SOL    HW220946   1.152   3.981   2.126
 6683SOL     OW20947   4.951   2.597   5.792
 6683SOL    HW120948   4.987   2.551   5.711
 6683SOL    HW220949   4.947   2.532   5.869
 6684SOL     OW20950   2.050   6.999   0.593
 6684SOL    HW120951   2.148   7.009   0.576
 6684SOL    HW220952   2.017   6.917   0.546
 6685SOL     OW20953   5.443   3.004   5.174
 6685SOL    HW120954   5.468   2.933   5.240
 6685SOL    HW220955   5.459   3.094   5.215
 6686SOL     OW20956   5.146   5.804   3.769
 6686SOL    HW120957   5.086   5.756   3.706
 6686SOL    HW220958   5.218   5.742   3.802
 6687SOL     OW20959   0.296   1.931   1.187
 6687SOL    HW120960   0.271   1.882   1.104
 6687SOL    HW220961   0.378   1.888   1.227
 6688SOL     OW20962   6.766   4.153   1.639
 6688SOL    HW120963   6.762   4.251   1.657
 6688SOL    HW220964   6.803   4.138   1.547
 6689SOL     OW20965   4.315   3.242   0.473
 6689SOL    HW120966   4.310   3.176   0.547
 6689SOL    HW220967   4.237   3.304   0.478
 6690SOL     OW20968   2.408   1.046   2.179
 6690SOL    HW120969   2.471   1.010   2.248
 6690SOL    HW220970   2.457   1.057   2.092
 6691SOL     OW20971   3.115   5.639   2.108
 6691SOL    HW120972   3.024   5.680   2.108
 6691SOL    HW220973   3.140   5.612   2.015
 6692SOL     OW20974   2.841   4.744   5.349
 6692SOL    HW120975   2.899   4.671   5.312
 6692SOL    HW220976   2.747   4.730   5.320
 6693SOL     OW20977   4.767   3.756   5.929
 6693SOL    HW120978   4.707   3.681   5.900
 6693SOL    HW220979   4.719   3.843   5.919
 6694SOL     OW20980   4.688   6.180   0.050
 6694SOL    HW120981   4.643   6.191   0.139
 6694SOL    HW220982   4.648   6.245   7.009
 6695SOL     OW20983   2.102   2.047   5.799
 6695SOL    HW120984   2.118   2.071   5.704
 6695SOL    HW220985   2.117   2.128   5.857
 6696SOL     OW20986   1.837   2.008   0.168
 6696SOL    HW120987   1.833   2.065   0.085
 6696SOL    HW220988   1.932   2.006   0.202
 6697SOL     OW20989   4.611   2.447   3.336
 6697SOL    HW120990   4.530   2.433   3.278
 6697SOL    HW220991   4.611   2.379   3.409
 6698SOL     OW20992   3.535   3.105   0.576
 6698SOL    HW120993   3.462   3.090   0.510
 6698SOL    HW220994   3.614   3.048   0.551
 6699SOL     OW20995   3.374   5.082   0.203
 6699SOL    HW120996   3.323   5.015   0.149
 6699SOL    HW220997   3.324   5.168   0.206
 6700SOL     OW20998   0.103   6.061   1.201
 6700SOL    HW120999   0.072   6.120   1.127
 6700SOL    HW221000   0.185   6.010   1.172
 6701SOL     OW21001   5.702   3.240   1.371
 6701SOL    HW121002   5.692   3.289   1.458
 6701SOL    HW221003   5.616   3.245   1.320
 6702SOL     OW21004   2.580   2.579   0.342
 6702SOL    HW121005   2.639   2.499   0.356
 6702SOL    HW221006   2.567   2.626   0.430
 6703SOL     OW21007   6.545   1.899   6.983
 6703SOL    HW121008   6.488   1.820   7.006
 6703SOL    HW221009   6.618   1.908   0.026
 6704SOL     OW21010   4.117   2.266   2.703
 6704SOL    HW121011   4.077   2.234   2.789
 6704SOL    HW221012   4.048   2.263   2.631
 6705SOL     OW21013   0.347   2.044   1.634
 6705SOL    HW121014   0.266   2.000   1.597
 6705SOL    HW221015   0.328   2.141   1.650
 6706SOL     OW21016   1.053   3.823   0.477
 6706SOL    HW121017   1.026   3.899   0.537
 6706SOL    HW221018   1.053   3.738   0.530
 6707SOL     OW21019   7.005   5.286   4.590
 6707SOL    HW121020   6.952   5.225   4.532
 6707SOL    HW221021   0.077   5.262   4.585
 6708SOL     OW21022   1.639   5.057   2.620
 6708SOL    HW121023   1.723   5.069   2.672
 6708SOL    HW221024   1.659   5.055   2.522
 6709SOL     OW21025   3.025   5.404   1.925
 6709SOL    HW121026   3.010   5.395   2.023
 6709SOL    HW221027   3.104   5.349   1.898
 6710SOL     OW21028   2.798   1.752   6.186
 6710SOL    HW121029   2.852   1.766   6.103
 6710SOL    HW221030   2.837   1.806   6.261
 6711SOL     OW21031   5.709   4.922   6.499
 6711SOL    HW121032   5.651   4.857   6.547
 6711SOL    HW221033   5.657   4.966   6.426
 6712SOL     OW21034   4.342   5.204   0.022
 6712SOL    HW121035   4.275   5.130   0.012
 6712SOL    HW221036   4.294   5.289   0.045
 6713SOL     OW21037   2.176   2.130   1.208
 6713SOL    HW121038   2.255   2.183   1.240
 6713SOL    HW221039   2.145   2.166   1.120
 6714SOL     OW21040   5.287   0.451   5.991
 6714SOL    HW121041   5.274   0.491   5.900
 6714SOL    HW221042   5.225   0.495   6.056
 6715SOL     OW21043   0.156   0.841   0.122
 6715SOL    HW121044   0.160   0.804   0.215
 6715SOL    HW221045   0.115   0.773   0.062
 6716SOL     OW21046   0.913   5.945   2.133
 6716SOL    HW121047   0.896   5.965   2.229
 6716SOL    HW221048   0.834   5.976   2.078
 6717SOL     OW21049   4.361   2.717   0.883
 6717SOL    HW121050   4.384   2.641   0.944
 6717SOL    HW221051   4.396   2.697   0.791
 6718SOL     OW21052   4.101   6.269   6.396
 6718SOL    HW121053   4.179   6.249   6.336
 6718SOL    HW221054   4.029   6.201   6.381
 6719SOL     OW21055   6.979   0.199   6.107
 6719SOL    HW121056   0.023   0.129   6.126
 6719SOL    HW221057   6.993   0.277   6.168
 6720SOL     OW21058   1.697   6.286   2.282
 6720SOL    HW121059   1.598   6.279   2.293
 6720SOL    HW221060   1.736   6.336   2.358
 6721SOL     OW21061   6.246   6.629   4.605
 6721SOL    HW121062   6.201   6.717   4.619
 6721SOL    HW221063   6.188   6.571   4.547
 6722SOL     OW21064   5.285   3.224   0.835
 6722SOL    HW121065   5.189   3.227   0.806
 6722SOL    HW221066   5.307   3.308   0.885
 6723SOL     OW21067   2.080   0.092   3.015
 6723SOL    HW121068   2.126   0.020   3.068
 6723SOL    HW221069   2.016   0.140   3.074
 6724SOL     OW21070   1.329   3.740   5.982
 6724SOL    HW121071   1.314   3.839   5.979
 6724SOL    HW221072   1.251   3.693   5.941
 6725SOL     OW21073   0.675   4.175   1.962
 6725SOL    HW121074   0.674   4.078   1.986
 6725SOL    HW221075   0.764   4.200   1.925
 6726SOL     OW21076   0.691   2.042   4.101
 6726SOL    HW121077   0.615   2.000   4.051
 6726SOL    HW221078   0.656   2.094   4.179
 6727SOL     OW21079   5.959   3.841   5.829
 6727SOL    HW121080   6.048   3.795   5.821
 6727SOL    HW221081   5.894   3.779   5.874
 6728SOL     OW21082   4.714   1.359   4.378
 6728SOL    HW121083   4.680   1.267   4.396
 6728SOL    HW221084   4.778   1.387   4.449
 6729SOL     OW21085   6.224   1.676   2.309
 6729SOL    HW121086   6.236   1.773   2.285
 6729SOL    HW221087   6.172   1.669   2.394
 6730SOL     OW21088   1.978   6.463   6.471
 6730SOL    HW121089   1.908   6.393   6.454
 6730SOL    HW221090   1.942   6.553   6.445
 6731SOL     OW21091   2.509   4.430   1.082
 6731SOL    HW121092   2.538   4.516   1.125
 6731SOL    HW221093   2.586   4.389   1.034
 6732SOL     OW21094   3.594   5.664   6.510
 6732SOL    HW121095   3.620   5.578   6.554
 6732SOL    HW221096   3.540   5.719   6.574
 6733SOL     OW21097   4.027   5.118   6.559
 6733SOL    HW121098   4.103   5.056   6.538
 6733SOL    HW221099   4.053   5.178   6.634
 6734SOL     OW21100   0.765   3.238   5.833
 6734SOL    HW121101   0.676   3.266   5.798
 6734SOL    HW221102   0.802   3.165   5.775
 6735SOL     OW21103   0.454   5.202   4.933
 6735SOL    HW121104   0.542   5.227   4.972
 6735SOL    HW221105   0.415   5.281   4.885
 6736SOL     OW21106   2.048   3.320   0.328
 6736SOL    HW121107   1.972   3.266   0.291
 6736SOL    HW221108   2.017   3.413   0.345
 6737SOL     OW21109   1.813   2.325   1.032
 6737SOL    HW121110   1.763   2.239   1.047
 6737SOL    HW221111   1.816   2.377   1.118
 6738SOL     OW21112   1.930   2.769   1.972
 6738SOL    HW121113   1.919   2.672   1.951
 6738SOL    HW221114   1.947   2.820   1.888
 6739SOL     OW21115   3.028   5.052   5.903
 6739SOL    HW121116   3.048   5.150   5.901
 6739SOL    HW221117   2.937   5.036   5.865
 6740SOL     OW21118   1.924   1.494   4.683
 6740SOL    HW121119   1.861   1.534   4.617
 6740SOL    HW221120   1.892   1.402   4.708
 6741SOL     OW21121   4.620   1.560   6.104
 6741SOL    HW121122   4.547   1.522   6.048
 6741SOL    HW221123   4.587   1.577   6.197
 6742SOL     OW21124   0.267   5.476   3.298
 6742SOL    HW121125   0.308   5.438   3.215
 6742SOL    HW221126   0.305   5.567   3.315
 6743SOL     OW21127   4.069   4.291   6.765
 6743SOL    HW121128   4.157   4.313   6.723
 6743SOL    HW221129   4.028   4.375   6.801
 6744SOL     OW21130   4.378   5.796   6.026
 6744SOL    HW121131   4.420   5.874   5.979
 6744SOL    HW221132   4.300   5.829   6.080
 6745SOL     OW21133   0.989   5.410   2.667
 6745SOL    HW121134   1.078   5.377   2.698
 6745SOL    HW221135   0.919   5.382   2.732
 6746SOL     OW21136   0.374   0.794   2.939
 6746SOL    HW121137   0.356   0.745   2.853
 6746SOL    HW221138   0.472   0.814   2.946
 6747SOL     OW21139   5.464   6.203   4.664
 6747SOL    HW121140   5.519   6.204   4.747
 6747SOL    HW221141   5.482   6.286   4.611
 6748SOL     OW21142   1.176   0.578   2.420
 6748SOL    HW121143   1.263   0.529   2.418
 6748SOL    HW221144   1.190   0.674   2.400
 6749SOL     OW21145   2.976   6.649   6.946
 6749SOL    HW121146   2.920   6.731   6.959
 6749SOL    HW221147   3.001   6.611   0.011
 6750SOL     OW21148   3.773   1.775   4.635
 6750SOL    HW121149   3.759   1.750   4.731
 6750SOL    HW221150   3.688   1.810   4.596
 6751SOL     OW21151   3.340   2.128   3.800
 6751SOL    HW121152   3.426   2.121   3.850
 6751SOL    HW221153   3.286   2.204   3.836
 6752SOL     OW21154   6.232   3.190   2.131
 6752SOL    HW121155   6.154   3.131   2.109
 6752SOL    HW221156   6.199   3.278   2.164
 6753SOL     OW21157   4.388   1.806   6.646
 6753SOL    HW121158   4.350   1.773   6.732
 6753SOL    HW221159   4.484   1.832   6.659
 6754SOL     OW21160   6.561   1.902   5.702
 6754SOL    HW121161   6.627   1.831   5.674
 6754SOL    HW221162   6.553   1.903   5.801
 6755SOL     OW21163   4.958   1.676   3.720
 6755SOL    HW121164   5.005   1.678   3.631
 6755SOL    HW221165   4.912   1.588   3.731
 6756SOL     OW21166   4.734   4.324   4.193
 6756SOL    HW121167   4.634   4.318   4.195
 6756SOL    HW221168   4.773   4.240   4.231
 6757SOL     OW21169   4.846   6.119   0.527
 6757SOL    HW121170   4.759   6.141   0.571
 6757SOL    HW221171   4.916   6.184   0.557
 6758SOL     OW21172   5.135   3.502   2.098
 6758SOL    HW121173   5.120   3.600   2.103
 6758SOL    HW221174   5.108   3.469   2.007
 6759SOL     OW21175   0.988   4.249   4.023
 6759SOL    HW121176   0.908   4.237   4.082
 6759SOL    HW221177   1.034   4.335   4.047
 6760SOL     OW21178   6.786   4.735   4.713
 6760SOL    HW121179   6.722   4.763   4.641
 6760SOL    HW221180   6.737   4.682   4.782
 6761SOL     OW21181   5.441   2.218   5.818
 6761SOL    HW121182   5.408   2.304   5.857
 6761SOL    HW221183   5.518   2.185   5.872
 6762SOL     OW21184   6.826   5.502   2.991
 6762SOL    HW121185   6.854   5.406   2.988
 6762SOL    HW221186   6.787   5.523   3.080
 6763SOL     OW21187   6.369   6.100   4.007
 6763SOL    HW121188   6.396   6.195   3.988
 6763SOL    HW221189   6.285   6.100   4.061
 6764SOL     OW21190   3.071   3.930   6.423
 6764SOL    HW121191   2.994   3.874   6.395
 6764SOL    HW221192   3.072   4.016   6.372
 6765SOL     OW21193   6.339   4.821   3.702
 6765SOL    HW121194   6.297   4.837   3.612
 6765SOL    HW221195   6.378   4.907   3.736
 6766SOL     OW21196   2.876   0.076   6.015
 6766SOL    HW121197   2.837   0.140   5.950
 6766SOL    HW221198   2.804   0.040   6.074
 6767SOL     OW21199   0.143   2.587   0.748
 6767SOL    HW121200   0.110   2.569   0.655
 6767SOL    HW221201   0.220   2.651   0.744
 6768SOL     OW21202   0.664   0.859   3.271
 6768SOL    HW121203   0.663   0.875   3.172
 6768SOL    HW221204   0.758   0.836   3.299
 6769SOL     OW21205   3.181   1.979   5.389
 6769SOL    HW121206   3.133   1.964   5.475
 6769SOL    HW221207   3.114   1.998   5.317
 6770SOL     OW21208   0.190   2.783   4.350
 6770SOL    HW121209   0.278   2.827   4.370
 6770SOL    HW221210   0.170   2.791   4.253
 6771SOL     OW21211   3.785   2.090   3.412
 6771SOL    HW121212   3.696   2.088   3.368
 6771SOL    HW221213   3.780   2.047   3.502
 6772SOL     OW21214   5.156   1.783   2.432
 6772SOL    HW121215   5.169   1.875   2.470
 6772SOL    HW221216   5.134   1.719   2.506
 6773SOL     OW21217   6.937   6.519   1.618
 6773SOL    HW121218   6.863   6.471   1.664
 6773SOL    HW221219   6.900   6.574   1.544
 6774SOL     OW21220   1.934   1.809   5.446
 6774SOL    HW121221   1.950   1.765   5.357
 6774SOL    HW221222   1.944   1.741   5.519
 6775SOL     OW21223   1.286   1.819   3.774
 6775SOL    HW121224   1.347   1.896   3.756
 6775SOL    HW221225   1.277   1.763   3.691
 6776SOL     OW21226   3.715   4.145   1.074
 6776SOL    HW121227   3.622   4.113   1.058
 6776SOL    HW221228   3.714   4.219   1.141
 6777SOL     OW21229   4.303   5.477   1.277
 6777SOL    HW121230   4.328   5.505   1.185
 6777SOL    HW221231   4.385   5.459   1.331
 6778SOL     OW21232   5.472   3.402   2.378
 6778SOL    HW121233   5.442   3.442   2.465
 6778SOL    HW221234   5.430   3.312   2.367
 6779SOL     OW21235   6.117   4.303   5.942
 6779SOL    HW121236   6.027   4.345   5.961
 6779SOL    HW221237   6.153   4.263   6.027
 6780SOL     OW21238   2.211   2.660   3.313
 6780SOL    HW121239   2.211   2.721   3.391
 6780SOL    HW221240   2.292   2.602   3.316
 6781SOL     OW21241   6.421   1.035   4.004
 6781SOL    HW121242   6.457   0.944   3.981
 6781SOL    HW221243   6.321   1.030   4.013
 6782SOL     OW21244   0.044   1.218   3.447
 6782SOL    HW121245   7.006   1.152   3.406
 6782SOL    HW221246   0.082   1.277   3.376
 6783SOL     OW21247   1.501   4.380   5.505
 6783SOL    HW121248   1.597   4.355   5.511
 6783SOL    HW221249   1.454   4.318   5.441
 6784SOL     OW21250   2.416   3.211   1.697
 6784SOL    HW121251   2.323   3.180   1.676
 6784SOL    HW221252   2.412   3.292   1.755
 6785SOL     OW21253   5.342   4.585   5.099
 6785SOL    HW121254   5.356   4.663   5.038
 6785SOL    HW221255   5.367   4.501   5.052
 6786SOL     OW21256   6.037   3.073   0.890
 6786SOL    HW121257   6.107   3.071   0.961
 6786SOL    HW221258   6.006   2.980   0.871
 6787SOL     OW21259   3.570   2.275   0.751
 6787SOL    HW121260   3.663   2.257   0.720
 6787SOL    HW221261   3.572   2.327   0.836
 6788SOL     OW21262   0.779   3.936   3.169
 6788SOL    HW121263   0.739   3.862   3.223
 6788SOL    HW221264   0.870   3.958   3.205
 6789SOL     OW21265   6.659   3.819   4.017
 6789SOL    HW121266   6.676   3.905   3.969
 6789SOL    HW221267   6.598   3.762   3.963
 6790SOL     OW21268   0.777   5.017   6.118
 6790SOL    HW121269   0.735   4.950   6.179
 6790SOL    HW221270   0.737   5.008   6.027
 6791SOL     OW21271   4.382   1.550   4.145
 6791SOL    HW121272   4.404   1.646   4.127
 6791SOL    HW221273   4.309   1.520   4.084
 6792SOL     OW21274   4.367   0.017   5.142
 6792SOL    HW121275   4.291   0.040   5.203
 6792SOL    HW221276   4.336   0.020   5.047
 6793SOL     OW21277   2.740   2.825   6.766
 6793SOL    HW121278   2.653   2.795   6.804
 6793SOL    HW221279   2.795   2.745   6.742
 6794SOL     OW21280   4.640   1.209   5.783
 6794SOL    HW121281   4.684   1.298   5.771
 6794SOL    HW221282   4.627   1.192   5.880
 6795SOL     OW21283   1.401   0.876   0.961
 6795SOL    HW121284   1.486   0.828   0.985
 6795SOL    HW221285   1.417   0.974   0.961
 6796SOL     OW21286   6.554   1.089   2.307
 6796SOL    HW121287   6.509   1.003   2.332
 6796SOL    HW221288   6.650   1.085   2.334
 6797SOL     OW21289   6.970   2.465   1.783
 6797SOL    HW121290   0.019   2.478   1.717
 6797SOL    HW221291   6.882   2.457   1.736
 6798SOL     OW21292   5.334   0.731   1.759
 6798SOL    HW121293   5.290   0.740   1.848
 6798SOL    HW221294   5.429   0.703   1.771
 6799SOL     OW21295   5.595   6.920   3.502
 6799SOL    HW121296   5.638   7.010   3.507
 6799SOL    HW221297   5.595   6.877   3.592
 6800SOL     OW21298   1.121   0.853   1.211
 6800SOL    HW121299   1.098   0.875   1.116
 6800SOL    HW221300   1.089   0.927   1.270
 6801SOL     OW21301   1.279   6.337   4.701
 6801SOL    HW121302   1.182   6.314   4.698
 6801SOL    HW221303   1.310   6.343   4.795
 6802SOL     OW21304   2.989   5.682   1.707
 6802SOL    HW121305   3.081   5.660   1.739
 6802SOL    HW221306   2.925   5.612   1.740
 6803SOL     OW21307   5.174   4.648   0.471
 6803SOL    HW121308   5.146   4.576   0.408
 6803SOL    HW221309   5.103   4.717   0.477
 6804SOL     OW21310   2.543   4.727   2.921
 6804SOL    HW121311   2.488   4.669   2.981
 6804SOL    HW221312   2.568   4.675   2.839
 6805SOL     OW21313   0.304   5.117   5.788
 6805SOL    HW121314   0.402   5.104   5.803
 6805SOL    HW221315   0.254   5.035   5.817
 6806SOL     OW21316   6.842   0.648   3.629
 6806SOL    HW121317   6.773   0.706   3.585
 6806SOL    HW221318   6.841   0.664   3.727
 6807SOL     OW21319   3.204   3.971   3.320
 6807SOL    HW121320   3.148   3.891   3.298
 6807SOL    HW221321   3.185   4.000   3.414
 6808SOL     OW21322   4.707   1.232   4.982
 6808SOL    HW121323   4.607   1.231   4.979
 6808SOL    HW221324   4.743   1.203   4.893
 6809SOL     OW21325   5.812   4.571   2.112
 6809SOL    HW121326   5.758   4.567   2.196
 6809SOL    HW221327   5.759   4.533   2.036
 6810SOL     OW21328   2.869   1.255   3.387
 6810SOL    HW121329   2.829   1.186   3.326
 6810SOL    HW221330   2.864   1.345   3.343
 6811SOL     OW21331   5.915   1.841   2.320
 6811SOL    HW121332   5.961   1.867   2.405
 6811SOL    HW221333   5.841   1.776   2.341
 6812SOL     OW21334   3.353   3.841   5.385
 6812SOL    HW121335   3.316   3.848   5.292
 6812SOL    HW221336   3.309   3.911   5.443
 6813SOL     OW21337   5.018   3.421   1.497
 6813SOL    HW121338   5.082   3.385   1.429
 6813SOL    HW221339   5.063   3.427   1.585
 6814SOL     OW21340   4.151   1.486   6.342
 6814SOL    HW121341   4.134   1.419   6.270
 6814SOL    HW221342   4.069   1.496   6.399
 6815SOL     OW21343   1.869   5.324   6.794
 6815SOL    HW121344   1.813   5.394   6.751
 6815SOL    HW221345   1.951   5.307   6.738
 6816SOL     OW21346   0.142   2.244   4.291
 6816SOL    HW121347   0.229   2.255   4.243
 6816SOL    HW221348   0.091   2.167   4.252
 6817SOL     OW21349   2.937   2.167   2.658
 6817SOL    HW121350   2.878   2.229   2.709
 6817SOL    HW221351   2.959   2.087   2.715
 6818SOL     OW21352   2.217   6.361   5.771
 6818SOL    HW121353   2.182   6.437   5.827
 6818SOL    HW221354   2.139   6.308   5.736
 6819SOL     OW21355   4.896   5.114   2.884
 6819SOL    HW121356   4.873   5.092   2.790
 6819SOL    HW221357   4.843   5.056   2.946
 6820SOL     OW21358   1.636   6.522   1.550
 6820SOL    HW121359   1.666   6.427   1.548
 6820SOL    HW221360   1.562   6.532   1.617
 6821SOL     OW21361   4.294   2.603   5.383
 6821SOL    HW121362   4.366   2.630   5.320
 6821SOL    HW221363   4.206   2.598   5.334
 6822SOL     OW21364   6.942   2.861   6.252
 6822SOL    HW121365   6.912   2.860   6.157
 6822SOL    HW221366   0.013   2.890   6.256
 6823SOL     OW21367   5.528   3.389   7.016
 6823SOL    HW121368   5.619   3.378   6.976
 6823SOL    HW221369   5.475   3.453   6.961
 6824SOL     OW21370   1.630   1.640   7.015
 6824SOL    HW121371   1.594   1.730   0.016
 6824SOL    HW221372   1.707   1.651   6.952
 6825SOL     OW21373   6.982   5.836   1.492
 6825SOL    HW121374   6.976   5.737   1.479
 6825SOL    HW221375   0.051   5.866   1.474
 6826SOL     OW21376   1.061   3.350   3.175
 6826SOL    HW121377   1.145   3.364   3.122
 6826SOL    HW221378   0.986   3.401   3.133
 6827SOL     OW21379   4.521   5.777   4.994
 6827SOL    HW121380   4.448   5.729   4.946
 6827SOL    HW221381   4.600   5.786   4.933
 6828SOL     OW21382   3.589   1.492   3.085
 6828SOL    HW121383   3.636   1.422   3.140
 6828SOL    HW221384   3.610   1.583   3.122
 6829SOL     OW21385   4.780   6.815   4.877
 6829SOL    HW121386   4.877   6.809   4.856
 6829SOL    HW221387   4.765   6.880   4.951
 6830SOL     OW21388   5.782   0.654   3.118
 6830SOL    HW121389   5.794   0.712   3.199
 6830SOL    HW221390   5.715   0.697   3.057
 6831SOL     OW21391   1.469   1.433   5.593
 6831SOL    HW121392   1.493   1.480   5.678
 6831SOL    HW221393   1.515   1.344   5.590
 6832SOL     OW21394   2.982   2.280   0.710
 6832SOL    HW121395   3.000   2.367   0.665
 6832SOL    HW221396   2.950   2.298   0.804
 6833SOL     OW21397   2.820   5.261   6.142
 6833SOL    HW121398   2.778   5.216   6.221
 6833SOL    HW221399   2.817   5.360   6.154
 6834SOL     OW21400   4.822   0.326   0.683
 6834SOL    HW121401   4.888   0.261   0.721
 6834SOL    HW221402   4.818   0.316   0.584
 6835SOL     OW21403   3.256   2.173   4.231
 6835SOL    HW121404   3.164   2.211   4.221
 6835SOL    HW221405   3.267   2.135   4.323
 6836SOL     OW21406   1.825   4.873   6.391
 6836SOL    HW121407   1.769   4.818   6.329
 6836SOL    HW221408   1.909   4.824   6.412
 6837SOL     OW21409   1.241   0.662   2.056
 6837SOL    HW121410   1.308   0.603   2.102
 6837SOL    HW221411   1.151   0.648   2.096
 6838SOL     OW21412   2.580   4.645   5.197
 6838SOL    HW121413   2.568   4.720   5.132
 6838SOL    HW221414   2.668   4.601   5.180
 6839SOL     OW21415   5.365   2.145   4.046
 6839SOL    HW121416   5.431   2.070   4.043
 6839SOL    HW221417   5.402   2.221   4.099
 6840SOL     OW21418   2.507   6.511   4.624
 6840SOL    HW121419   2.434   6.446   4.647
 6840SOL    HW221420   2.550   6.483   4.538
 6841SOL     OW21421   4.044   5.809   1.826
 6841SOL    HW121422   4.140   5.799   1.802
 6841SOL    HW221423   3.993   5.729   1.795
 6842SOL     OW21424   0.403   3.232   6.853
 6842SOL    HW121425   0.393   3.181   6.938
 6842SOL    HW221426   0.500   3.249   6.835
 6843SOL     OW21427   4.383   2.281   1.967
 6843SOL    HW121428   4.431   2.345   2.026
 6843SOL    HW221429   4.349   2.204   2.022
 6844SOL     OW21430   4.322   5.157   4.679
 6844SOL    HW121431   4.324   5.096   4.600
 6844SOL    HW221432   4.379   5.237   4.659
 6845SOL     OW21433   4.269   4.652   2.809
 6845SOL    HW121434   4.324   4.691   2.735
 6845SOL    HW221435   4.172   4.668   2.791
 6846SOL     OW21436   3.519   3.072   2.053
 6846SOL    HW121437   3.480   3.119   1.973
 6846SOL    HW221438   3.453   3.073   2.127
 6847SOL     OW21439   4.587   3.643   1.404
 6847SOL    HW121440   4.580   3.577   1.330
 6847SOL    HW221441   4.537   3.609   1.484
 6848SOL     OW21442   0.946   5.080   4.623
 6848SOL    HW121443   0.920   4.991   4.586
 6848SOL    HW221444   0.982   5.137   4.550
 6849SOL     OW21445   3.877   5.612   3.807
 6849SOL    HW121446   3.815   5.690   3.795
 6849SOL    HW221447   3.841   5.533   3.756
 6850SOL     OW21448   5.704   1.677   3.675
 6850SOL    HW121449   5.634   1.612   3.647
 6850SOL    HW221450   5.673   1.770   3.655
 6851SOL     OW21451   0.832   5.018   5.704
 6851SOL    HW121452   0.902   5.086   5.726
 6851SOL    HW221453   0.864   4.927   5.734
 6852SOL     OW21454   0.564   4.009   1.611
 6852SOL    HW121455   0.472   4.021   1.573
 6852SOL    HW221456   0.607   4.098   1.623
 6853SOL     OW21457   1.002   5.884   5.951
 6853SOL    HW121458   0.993   5.972   5.996
 6853SOL    HW221459   1.042   5.897   5.860
 6854SOL     OW21460   6.500   1.903   5.977
 6854SOL    HW121461   6.585   1.867   6.016
 6854SOL    HW221462   6.492   2.000   6.000
 6855SOL     OW21463   4.101   6.950   3.076
 6855SOL    HW121464   4.070   6.886   3.006
 6855SOL    HW221465   4.098   0.019   3.040
 6856SOL     OW21466   6.586   3.723   4.726
 6856SOL    HW121467   6.661   3.685   4.673
 6856SOL    HW221468   6.622   3.785   4.796
 6857SOL     OW21469   3.407   1.638   6.348
 6857SOL    HW121470   3.311   1.651   6.324
 6857SOL    HW221471   3.460   1.622   6.265
 6858SOL     OW21472   4.083   3.430   4.377
 6858SOL    HW121473   4.119   3.398   4.465
 6858SOL    HW221474   4.017   3.363   4.342
 6859SOL     OW21475   2.276   6.702   0.716
 6859SOL    HW121476   2.339   6.758   0.770
 6859SOL    HW221477   2.253   6.619   0.767
 6860SOL     OW21478   5.406   4.624   1.507
 6860SOL    HW121479   5.404   4.616   1.606
 6860SOL    HW221480   5.455   4.546   1.468
 6861SOL     OW21481   5.735   5.344   0.366
 6861SOL    HW121482   5.796   5.421   0.383
 6861SOL    HW221483   5.773   5.287   0.293
 6862SOL     OW21484   2.875   4.822   4.593
 6862SOL    HW121485   2.816   4.742   4.603
 6862SOL    HW221486   2.891   4.839   4.496
 6863SOL     OW21487   6.443   1.289   4.452
 6863SOL    HW121488   6.353   1.289   4.407
 6863SOL    HW221489   6.509   1.337   4.394
 6864SOL     OW21490   3.300   5.792   3.260
 6864SOL    HW121491   3.235   5.853   3.305
 6864SOL    HW221492   3.255   5.743   3.186
 6865SOL     OW21493   6.480   3.987   4.174
 6865SOL    HW121494   6.395   3.937   4.156
 6865SOL    HW221495   6.552   3.952   4.114
 6866SOL     OW21496   6.951   3.941   1.976
 6866SOL    HW121497   6.858   3.914   1.952
 6866SOL    HW221498   6.990   3.874   2.040
 6867SOL     OW21499   1.656   4.014   1.707
 6867SOL    HW121500   1.753   3.990   1.717
 6867SOL    HW221501   1.600   3.942   1.748
 6868SOL     OW21502   1.608   6.431   4.582
 6868SOL    HW121503   1.546   6.355   4.564
 6868SOL    HW221504   1.639   6.471   4.496
 6869SOL     OW21505   5.734   3.079   5.020
 6869SOL    HW121506   5.706   3.047   5.110
 6869SOL    HW221507   5.654   3.106   4.967
 6870SOL     OW21508   5.529   3.583   3.214
 6870SOL    HW121509   5.495   3.573   3.120
 6870SOL    HW221510   5.453   3.577   3.278
 6871SOL     OW21511   6.096   4.679   1.853
 6871SOL    HW121512   6.186   4.637   1.844
 6871SOL    HW221513   6.035   4.644   1.782
 6872SOL     OW21514   1.496   3.350   1.022
 6872SOL    HW121515   1.503   3.300   1.108
 6872SOL    HW221516   1.412   3.323   0.975
 6873SOL     OW21517   5.839   2.909   6.036
 6873SOL    HW121518   5.742   2.929   6.018
 6873SOL    HW221519   5.863   2.821   5.994
 6874SOL     OW21520   0.226   3.531   4.004
 6874SOL    HW121521   0.269   3.482   4.080
 6874SOL    HW221522   0.157   3.594   4.039
 6875SOL     OW21523   1.494   1.626   2.966
 6875SOL    HW121524   1.533   1.581   2.886
 6875SOL    HW221525   1.397   1.605   2.972
 6876SOL     OW21526   3.144   5.795   6.532
 6876SOL    HW121527   3.232   5.774   6.574
 6876SOL    HW221528   3.085   5.840   6.599
 6877SOL     OW21529   2.147   4.418   7.014
 6877SOL    HW121530   2.133   4.350   6.942
 6877SOL    HW221531   2.079   4.491   7.004
 6878SOL     OW21532   2.332   1.729   6.150
 6878SOL    HW121533   2.416   1.714   6.099
 6878SOL    HW221534   2.253   1.712   6.090
 6879SOL     OW21535   0.062   1.679   0.092
 6879SOL    HW121536   7.020   1.755   0.096
 6879SOL    HW221537   0.052   1.622   0.174
 6880SOL     OW21538   2.091   3.823   4.994
 6880SOL    HW121539   2.152   3.902   4.988
 6880SOL    HW221540   2.087   3.792   5.089
 6881SOL     OW21541   6.956   4.315   1.464
 6881SOL    HW121542   6.938   4.236   1.405
 6881SOL    HW221543   0.028   4.315   1.492
 6882SOL     OW21544   2.138   0.582   5.098
 6882SOL    HW121545   2.082   0.564   5.017
 6882SOL    HW221546   2.081   0.575   5.180
 6883SOL     OW21547   3.589   6.991   1.006
 6883SOL    HW121548   3.682   6.982   1.042
 6883SOL    HW221549   3.573   0.062   0.979
 6884SOL     OW21550   2.298   4.328   4.464
 6884SOL    HW121551   2.300   4.228   4.454
 6884SOL    HW221552   2.356   4.355   4.540
 6885SOL     OW21553   3.122   5.972   3.360
 6885SOL    HW121554   3.078   5.916   3.430
 6885SOL    HW221555   3.085   6.065   3.363
 6886SOL     OW21556   5.211   1.134   2.440
 6886SOL    HW121557   5.246   1.115   2.349
 6886SOL    HW221558   5.111   1.136   2.437
 6887SOL     OW21559   5.162   0.178   4.948
 6887SOL    HW121560   5.215   0.231   4.882
 6887SOL    HW221561   5.065   0.186   4.927
 6888SOL     OW21562   5.838   0.217   5.259
 6888SOL    HW121563   5.833   0.287   5.189
 6888SOL    HW221564   5.773   0.237   5.332
 6889SOL     OW21565   1.035   2.718   5.581
 6889SOL    HW121566   1.087   2.693   5.500
 6889SOL    HW221567   1.001   2.635   5.626
 6890SOL     OW21568   2.358   0.259   0.763
 6890SOL    HW121569   2.418   0.181   0.749
 6890SOL    HW221570   2.271   0.244   0.715
 6891SOL     OW21571   2.081   3.546   4.898
 6891SOL    HW121572   2.052   3.520   4.806
 6891SOL    HW221573   2.120   3.638   4.896
 6892SOL     OW21574   4.106   0.187   3.963
 6892SOL    HW121575   4.129   0.275   4.006
 6892SOL    HW221576   4.098   0.117   4.034
 6893SOL     OW21577   5.342   5.518   2.561
 6893SOL    HW121578   5.318   5.499   2.657
 6893SOL    HW221579   5.437   5.546   2.555
 6894SOL     OW21580   6.219   5.512   0.501
 6894SOL    HW121581   6.247   5.547   0.590
 6894SOL    HW221582   6.288   5.533   0.433
 6895SOL     OW21583   3.060   4.487   6.820
 6895SOL    HW121584   3.020   4.400   6.847
 6895SOL    HW221585   2.992   4.541   6.770
 6896SOL     OW21586   3.895   0.508   3.917
 6896SOL    HW121587   3.819   0.491   3.854
 6896SOL    HW221588   3.868   0.483   4.010
 6897SOL     OW21589   2.858   3.189   0.286
 6897SOL    HW121590   2.802   3.230   0.214
 6897SOL    HW221591   2.835   3.092   0.295
 6898SOL     OW21592   4.437   1.393   1.793
 6898SOL    HW121593   4.473   1.473   1.842
 6898SOL    HW221594   4.422   1.318   1.858
 6899SOL     OW21595   5.155   6.788   6.285
 6899SOL    HW121596   5.157   6.691   6.260
 6899SOL    HW221597   5.219   6.804   6.360
 6900SOL     OW21598   5.854   0.892   6.090
 6900SOL    HW121599   5.787   0.822   6.064
 6900SOL    HW221600   5.927   0.850   6.143
 6901SOL     OW21601   0.207   7.016   6.446
 6901SOL    HW121602   0.251   0.081   6.453
 6901SOL    HW221603   0.172   7.003   6.353
 6902SOL     OW21604   0.527   6.954   0.228
 6902SOL    HW121605   0.605   6.993   0.276
 6902SOL    HW221606   0.533   6.854   0.230
 6903SOL     OW21607   3.786   3.646   0.337
 6903SOL    HW121608   3.831   3.563   0.302
 6903SOL    HW221609   3.747   3.628   0.427
 6904SOL     OW21610   6.690   1.389   3.610
 6904SOL    HW121611   6.652   1.470   3.565
 6904SOL    HW221612   6.788   1.403   3.625
 6905SOL     OW21613   5.858   6.760   0.596
 6905SOL    HW121614   5.868   6.839   0.658
 6905SOL    HW221615   5.806   6.688   0.643
 6906SOL     OW21616   3.685   1.111   4.710
 6906SOL    HW121617   3.700   1.137   4.806
 6906SOL    HW221618   3.610   1.166   4.673
 6907SOL     OW21619   3.784   1.632   0.677
 6907SOL    HW121620   3.701   1.584   0.648
 6907SOL    HW221621   3.852   1.628   0.604
 6908SOL     OW21622   1.217   0.118   5.615
 6908SOL    HW121623   1.130   0.143   5.574
 6908SOL    HW221624   1.252   0.195   5.670
 6909SOL     OW21625   4.119   4.685   0.710
 6909SOL    HW121626   4.208   4.677   0.666
 6909SOL    HW221627   4.107   4.778   0.744
 6910SOL     OW21628   6.190   1.502   2.737
 6910SOL    HW121629   6.135   1.487   2.819
 6910SOL    HW221630   6.275   1.549   2.761
 6911SOL     OW21631   4.245   0.192   3.735
 6911SOL    HW121632   4.182   0.187   3.813
 6911SOL    HW221633   4.339   0.196   3.769
 6912SOL     OW21634   5.069   5.046   1.353
 6912SOL    HW121635   5.044   4.950   1.336
 6912SOL    HW221636   5.161   5.063   1.318
 6913SOL     OW21637   5.122   4.389   4.843
 6913SOL    HW121638   5.078   4.396   4.932
 6913SOL    HW221639   5.054   4.400   4.770
 6914SOL     OW21640   5.898   5.281   6.882
 6914SOL    HW121641   5.838   5.262   6.960
 6914SOL    HW221642   5.871   5.222   6.805
 6915SOL     OW21643   0.443   4.671   2.283
 6915SOL    HW121644   0.499   4.698   2.361
 6915SOL    HW221645   0.414   4.576   2.294
 6916SOL     OW21646   6.644   4.391   6.809
 6916SOL    HW121647   6.599   4.453   6.744
 6916SOL    HW221648   6.638   4.297   6.775
 6917SOL     OW21649   4.675   5.470   6.211
 6917SOL    HW121650   4.607   5.528   6.167
 6917SOL    HW221651   4.657   5.465   6.310
 6918SOL     OW21652   0.383   4.076   4.194
 6918SOL    HW121653   0.329   3.997   4.224
 6918SOL    HW221654   0.468   4.044   4.153
 6919SOL     OW21655   1.788   5.291   2.617
 6919SOL    HW121656   1.790   5.375   2.563
 6919SOL    HW221657   1.715   5.297   2.685
 6920SOL     OW21658   5.022   5.269   5.601
 6920SOL    HW121659   5.090   5.258   5.528
 6920SOL    HW221660   4.967   5.351   5.583
 6921SOL     OW21661   5.976   5.815   3.676
 6921SOL    HW121662   5.984   5.739   3.612
 6921SOL    HW221663   6.067   5.842   3.708
 6922SOL     OW21664   1.850   6.383   0.150
 6922SOL    HW121665   1.852   6.336   0.062
 6922SOL    HW221666   1.914   6.461   0.148
 6923SOL     OW21667   4.485   6.360   4.156
 6923SOL    HW121668   4.425   6.424   4.107
 6923SOL    HW221669   4.580   6.391   4.149
 6924SOL     OW21670   0.557   3.727   0.289
 6924SOL    HW121671   0.648   3.690   0.267
 6924SOL    HW221672   0.494   3.651   0.309
 6925SOL     OW21673   4.245   6.092   4.071
 6925SOL    HW121674   4.267   6.039   4.153
 6925SOL    HW221675   4.218   6.031   3.997
 6926SOL     OW21676   3.633   4.020   3.121
 6926SOL    HW121677   3.536   4.042   3.123
 6926SOL    HW221678   3.668   4.028   3.028
 6927SOL     OW21679   5.036   3.841   5.880
 6927SOL    HW121680   5.084   3.842   5.792
 6927SOL    HW221681   4.954   3.784   5.873
 6928SOL     OW21682   4.582   0.273   6.914
 6928SOL    HW121683   4.609   0.228   6.999
 6928SOL    HW221684   4.609   0.216   6.836
 6929SOL     OW21685   4.366   6.185   6.899
 6929SOL    HW121686   4.407   6.196   6.809
 6929SOL    HW221687   4.363   6.088   6.923
 6930SOL     OW21688   0.402   6.751   2.022
 6930SOL    HW121689   0.352   6.766   2.107
 6930SOL    HW221690   0.353   6.685   1.966
 6931SOL     OW21691   0.761   0.291   1.703
 6931SOL    HW121692   0.689   0.222   1.693
 6931SOL    HW221693   0.732   0.376   1.660
 6932SOL     OW21694   3.038   1.251   0.240
 6932SOL    HW121695   3.133   1.259   0.272
 6932SOL    HW221696   3.014   1.331   0.186
 6933SOL     OW21697   3.282   5.452   4.718
 6933SOL    HW121698   3.361   5.507   4.745
 6933SOL    HW221699   3.311   5.358   4.701
 6934SOL     OW21700   5.533   3.447   6.620
 6934SOL    HW121701   5.582   3.534   6.619
 6934SOL    HW221702   5.444   3.460   6.665
 6935SOL     OW21703   4.586   6.338   3.202
 6935SOL    HW121704   4.511   6.289   3.156
 6935SOL    HW221705   4.622   6.282   3.276
 6936SOL     OW21706   7.002   1.856   2.499
 6936SOL    HW121707   7.016   1.953   2.516
 6936SOL    HW221708   6.904   1.836   2.498
 6937SOL     OW21709   4.868   6.448   6.732
 6937SOL    HW121710   4.893   6.387   6.656
 6937SOL    HW221711   4.903   6.540   6.713
 6938SOL     OW21712   5.060   3.733   5.396
 6938SOL    HW121713   4.984   3.668   5.388
 6938SOL    HW221714   5.144   3.688   5.366
 6939SOL     OW21715   0.344   4.817   2.663
 6939SOL    HW121716   0.426   4.803   2.608
 6939SOL    HW221717   0.270   4.759   2.628
 6940SOL     OW21718   4.496   1.051   1.117
 6940SOL    HW121719   4.553   1.025   1.038
 6940SOL    HW221720   4.419   0.988   1.124
 6941SOL     OW21721   4.181   3.665   1.720
 6941SOL    HW121722   4.138   3.750   1.750
 6941SOL    HW221723   4.229   3.680   1.634
 6942SOL     OW21724   0.165   2.798   1.202
 6942SOL    HW121725   0.230   2.863   1.164
 6942SOL    HW221726   0.091   2.781   1.137
 6943SOL     OW21727   4.883   6.576   6.365
 6943SOL    HW121728   4.956   6.608   6.303
 6943SOL    HW221729   4.855   6.651   6.425
 6944SOL     OW21730   1.397   5.771   5.101
 6944SOL    HW121731   1.332   5.752   5.028
 6944SOL    HW221732   1.366   5.851   5.153
 6945SOL     OW21733   6.242   3.136   6.910
 6945SOL    HW121734   6.298   3.216   6.888
 6945SOL    HW221735   6.146   3.162   6.912
 6946SOL     OW21736   5.925   4.991   2.293
 6946SOL    HW121737   5.989   4.921   2.324
 6946SOL    HW221738   5.884   4.962   2.207
 6947SOL     OW21739   3.920   6.846   3.993
 6947SOL    HW121740   3.824   6.819   4.000
 6947SOL    HW221741   3.927   6.933   3.943
 6948SOL     OW21742   5.211   0.247   0.577
 6948SOL    HW121743   5.161   0.195   0.646
 6948SOL    HW221744   5.286   0.298   0.621
 6949SOL     OW21745   5.142   6.022   3.074
 6949SOL    HW121746   5.225   6.060   3.114
 6949SOL    HW221747   5.144   6.037   2.975
 6950SOL     OW21748   2.620   0.219   2.940
 6950SOL    HW121749   2.648   0.243   3.033
 6950SOL    HW221750   2.700   0.220   2.880
 6951SOL     OW21751   6.089   6.368   5.874
 6951SOL    HW121752   6.156   6.425   5.923
 6951SOL    HW221753   6.125   6.348   5.782
 6952SOL     OW21754   6.877   5.049   3.309
 6952SOL    HW121755   6.972   5.068   3.336
 6952SOL    HW221756   6.876   5.010   3.217
 6953SOL     OW21757   5.281   0.521   5.679
 6953SOL    HW121758   5.372   0.487   5.704
 6953SOL    HW221759   5.216   0.445   5.679
 6954SOL     OW21760   0.749   3.761   3.646
 6954SOL    HW121761   0.777   3.761   3.742
 6954SOL    HW221762   0.729   3.854   3.616
 6955SOL     OW21763   0.061   0.053   1.838
 6955SOL    HW121764   0.095   0.055   1.932
 6955SOL    HW221765   0.038   0.146   1.810
 6956SOL     OW21766   4.369   5.852   2.412
 6956SOL    HW121767   4.325   5.942   2.414
 6956SOL    HW221768   4.300   5.783   2.391
 6957SOL     OW21769   0.061   4.669   1.463
 6957SOL    HW121770   0.112   4.591   1.501
 6957SOL    HW221771   0.002   4.637   1.389
 6958SOL     OW21772   2.471   2.639   6.103
 6958SOL    HW121773   2.380   2.597   6.103
 6958SOL    HW221774   2.536   2.576   6.144
 6959SOL     OW21775   2.140   1.127   4.934
 6959SOL    HW121776   2.054   1.080   4.916
 6959SOL    HW221777   2.134   1.221   4.899
 6960SOL     OW21778   0.777   5.488   0.242
 6960SOL    HW121779   0.710   5.488   0.317
 6960SOL    HW221780   0.869   5.486   0.280
 6961SOL     OW21781   0.541   2.327   3.787
 6961SOL    HW121782   0.491   2.262   3.844
 6961SOL    HW221783   0.483   2.359   3.713
 6962SOL     OW21784   5.587   5.031   3.252
 6962SOL    HW121785   5.549   4.970   3.183
 6962SOL    HW221786   5.601   5.122   3.212
 6963SOL     OW21787   0.302   5.708   1.448
 6963SOL    HW121788   0.293   5.651   1.529
 6963SOL    HW221789   0.395   5.701   1.412
 6964SOL     OW21790   4.754   4.986   5.231
 6964SOL    HW121791   4.685   5.059   5.225
 6964SOL    HW221792   4.757   4.951   5.325
 6965SOL     OW21793   0.106   3.432   6.266
 6965SOL    HW121794   0.058   3.372   6.202
 6965SOL    HW221795   0.189   3.467   6.223
 6966SOL     OW21796   5.873   2.677   3.003
 6966SOL    HW121797   5.834   2.696   3.093
 6966SOL    HW221798   5.798   2.663   2.937
 6967SOL     OW21799   1.359   1.869   5.557
 6967SOL    HW121800   1.349   1.960   5.598
 6967SOL    HW221801   1.449   1.831   5.581
 6968SOL     OW21802   3.872   6.715   0.949
 6968SOL    HW121803   3.821   6.684   1.030
 6968SOL    HW221804   3.824   6.686   0.866
 6969SOL     OW21805   3.888   1.887   1.534
 6969SOL    HW121806   3.849   1.977   1.558
 6969SOL    HW221807   3.881   1.826   1.613
 6970SOL     OW21808   3.977   3.989   0.579
 6970SOL    HW121809   3.975   3.922   0.653
 6970SOL    HW221810   3.928   3.954   0.500
 6971SOL     OW21811   6.654   3.083   2.374
 6971SOL    HW121812   6.560   3.115   2.364
 6971SOL    HW221813   6.669   3.050   2.468
 6972SOL     OW21814   5.809   4.482   4.557
 6972SOL    HW121815   5.745   4.461   4.631
 6972SOL    HW221816   5.871   4.555   4.586
 6973SOL     OW21817   1.468   4.612   4.601
 6973SOL    HW121818   1.501   4.522   4.629
 6973SOL    HW221819   1.464   4.672   4.680
 6974SOL     OW21820   4.111   3.234   3.355
 6974SOL    HW121821   4.047   3.157   3.359
 6974SOL    HW221822   4.171   3.231   3.435
 6975SOL     OW21823   3.035   6.564   5.679
 6975SOL    HW121824   3.114   6.618   5.649
 6975SOL    HW221825   2.955   6.623   5.686
 6976SOL     OW21826   3.794   4.635   6.369
 6976SOL    HW121827   3.760   4.655   6.461
 6976SOL    HW221828   3.726   4.581   6.320
 6977SOL     OW21829   5.504   2.137   1.621
 6977SOL    HW121830   5.538   2.046   1.597
 6977SOL    HW221831   5.531   2.158   1.715
 6978SOL     OW21832   6.609   0.729   1.689
 6978SOL    HW121833   6.667   0.809   1.670
 6978SOL    HW221834   6.566   0.740   1.778
 6979SOL     OW21835   1.694   5.449   2.198
 6979SOL    HW121836   1.789   5.427   2.176
 6979SOL    HW221837   1.663   5.524   2.140
 6980SOL     OW21838   2.046   1.001   3.863
 6980SOL    HW121839   2.014   1.024   3.771
 6980SOL    HW221840   2.081   1.084   3.907
 6981SOL     OW21841   2.682   4.161   6.547
 6981SOL    HW121842   2.714   4.161   6.452
 6981SOL    HW221843   2.759   4.146   6.609
 6982SOL     OW21844   1.344   1.395   3.974
 6982SOL    HW121845   1.296   1.366   3.892
 6982SOL    HW221846   1.342   1.495   3.981
 6983SOL     OW21847   0.102   1.334   3.862
 6983SOL    HW121848   0.177   1.398   3.847
 6983SOL    HW221849   0.138   1.241   3.869
 6984SOL     OW21850   2.688   1.868   5.639
 6984SOL    HW121851   2.598   1.903   5.667
 6984SOL    HW221852   2.699   1.880   5.540
 6985SOL     OW21853   3.698   5.246   2.576
 6985SOL    HW121854   3.610   5.284   2.546
 6985SOL    HW221855   3.764   5.250   2.501
 6986SOL     OW21856   2.035   6.166   5.667
 6986SOL    HW121857   2.035   6.081   5.613
 6986SOL    HW221858   1.944   6.205   5.666
 6987SOL     OW21859   0.604   1.725   6.183
 6987SOL    HW121860   0.615   1.727   6.283
 6987SOL    HW221861   0.588   1.631   6.154
 6988SOL     OW21862   6.241   1.047   4.860
 6988SOL    HW121863   6.207   0.991   4.936
 6988SOL    HW221864   6.256   1.141   4.892
 6989SOL     OW21865   1.014   2.256   3.422
 6989SOL    HW121866   0.973   2.170   3.450
 6989SOL    HW221867   1.102   2.268   3.467
 6990SOL     OW21868   5.119   1.672   0.328
 6990SOL    HW121869   5.183   1.616   0.380
 6990SOL    HW221870   5.161   1.760   0.308
 6991SOL     OW21871   2.610   4.660   4.829
 6991SOL    HW121872   2.531   4.612   4.866
 6991SOL    HW221873   2.686   4.653   4.894
 6992SOL     OW21874   5.223   5.772   5.155
 6992SOL    HW121875   5.203   5.727   5.243
 6992SOL    HW221876   5.289   5.846   5.170
 6993SOL     OW21877   5.905   6.473   2.964
 6993SOL    HW121878   5.952   6.559   2.978
 6993SOL    HW221879   5.861   6.473   2.874
 6994SOL     OW21880   0.505   3.557   4.893
 6994SOL    HW121881   0.583   3.509   4.854
 6994SOL    HW221882   0.457   3.606   4.820
 6995SOL     OW21883   6.441   5.522   4.590
 6995SOL    HW121884   6.412   5.611   4.627
 6995SOL    HW221885   6.536   5.505   4.616
 6996SOL     OW21886   2.718   1.034   5.283
 6996SOL    HW121887   2.621   1.055   5.274
 6996SOL    HW221888   2.771   1.118   5.268
 6997SOL     OW21889   4.734   6.246   5.518
 6997SOL    HW121890   4.679   6.169   5.486
 6997SOL    HW221891   4.785   6.218   5.600
 6998SOL     OW21892   1.501   2.519   1.460
 6998SOL    HW121893   1.413   2.556   1.432
 6998SOL    HW221894   1.566   2.594   1.473
 6999SOL     OW21895   2.670   1.752   6.848
 6999SOL    HW121896   2.639   1.658   6.854
 6999SOL    HW221897   2.658   1.797   6.937
 7000SOL     OW21898   0.110   6.204   2.777
 7000SOL    HW121899   0.107   6.104   2.777
 7000SOL    HW221900   0.059   6.239   2.698
 7001SOL     OW21901   2.420   2.457   5.739
 7001SOL    HW121902   2.347   2.525   5.750
 7001SOL    HW221903   2.479   2.482   5.662
 7002SOL     OW21904   2.365   4.681   3.642
 7002SOL    HW121905   2.379   4.607   3.577
 7002SOL    HW221906   2.323   4.759   3.595
 7003SOL     OW21907   2.893   6.913   7.012
 7003SOL    HW121908   2.833   6.912   6.932
 7003SOL    HW221909   2.949   6.995   7.010
 7004SOL     OW21910   2.017   4.667   2.037
 7004SOL    HW121911   2.096   4.692   2.093
 7004SOL    HW221912   2.044   4.665   1.941
 7005SOL     OW21913   0.076   5.714   5.390
 7005SOL    HW121914   0.173   5.692   5.389
 7005SOL    HW221915   0.023   5.633   5.415
 7006SOL     OW21916   4.968   4.785   5.057
 7006SOL    HW121917   4.902   4.859   5.046
 7006SOL    HW221918   5.050   4.820   5.103
 7007SOL     OW21919   5.339   6.716   3.388
 7007SOL    HW121920   5.303   6.802   3.422
 7007SOL    HW221921   5.406   6.680   3.453
 7008SOL     OW21922   2.358   4.999   4.012
 7008SOL    HW121923   2.293   5.071   4.036
 7008SOL    HW221924   2.327   4.911   4.050
 7009SOL     OW21925   6.648   4.950   2.265
 7009SOL    HW121926   6.655   5.044   2.231
 7009SOL    HW221927   6.691   4.944   2.355
 7010SOL     OW21928   4.431   4.605   5.832
 7010SOL    HW121929   4.492   4.570   5.903
 7010SOL    HW221930   4.399   4.696   5.859
 7011SOL     OW21931   1.268   0.266   6.252
 7011SOL    HW121932   1.368   0.274   6.255
 7011SOL    HW221933   1.228   0.325   6.323
 7012SOL     OW21934   1.731   0.902   1.973
 7012SOL    HW121935   1.687   0.813   1.964
 7012SOL    HW221936   1.660   0.973   1.981
 7013SOL     OW21937   0.479   6.811   0.722
 7013SOL    HW121938   0.417   6.866   0.666
 7013SOL    HW221939   0.574   6.836   0.700
 7014SOL     OW21940   4.556   4.207   1.249
 7014SOL    HW121941   4.559   4.212   1.149
 7014SOL    HW221942   4.525   4.117   1.277
 7015SOL     OW21943   5.550   3.736   2.118
 7015SOL    HW121944   5.545   3.638   2.135
 7015SOL    HW221945   5.645   3.766   2.118
 7016SOL     OW21946   3.807   5.032   2.667
 7016SOL    HW121947   3.772   5.120   2.635
 7016SOL    HW221948   3.840   4.979   2.589
 7017SOL     OW21949   2.411   0.451   2.051
 7017SOL    HW121950   2.317   0.485   2.055
 7017SOL    HW221951   2.426   0.385   2.124
 7018SOL     OW21952   7.018   4.180   4.784
 7018SOL    HW121953   6.927   4.224   4.783
 7018SOL    HW221954   0.061   4.246   4.815
 7019SOL     OW21955   2.965   4.637   6.602
 7019SOL    HW121956   2.926   4.554   6.561
 7019SOL    HW221957   3.051   4.660   6.556
 7020SOL     OW21958   5.458   6.510   0.245
 7020SOL    HW121959   5.542   6.540   0.199
 7020SOL    HW221960   5.470   6.515   0.344
 7021SOL     OW21961   2.932   1.017   5.841
 7021SOL    HW121962   2.963   0.929   5.876
 7021SOL    HW221963   3.007   1.062   5.792
 7022SOL     OW21964   4.816   4.396   0.505
 7022SOL    HW121965   4.848   4.397   0.600
 7022SOL    HW221966   4.852   4.315   0.459
 7023SOL     OW21967   0.021   2.084   3.228
 7023SOL    HW121968   6.982   2.013   3.198
 7023SOL    HW221969   0.084   2.045   3.296
 7024SOL     OW21970   1.568   6.070   6.216
 7024SOL    HW121971   1.631   6.033   6.148
 7024SOL    HW221972   1.506   5.997   6.247
 7025SOL     OW21973   3.788   1.725   0.034
 7025SOL    HW121974   3.738   1.765   0.111
 7025SOL    HW221975   3.757   1.767   6.973
 7026SOL     OW21976   2.833   1.404   1.892
 7026SOL    HW121977   2.813   1.345   1.814
 7026SOL    HW221978   2.923   1.382   1.929
 7027SOL     OW21979   3.045   5.605   2.730
 7027SOL    HW121980   3.019   5.696   2.761
 7027SOL    HW221981   2.981   5.573   2.661
 7028SOL     OW21982   5.748   6.422   4.281
 7028SOL    HW121983   5.738   6.514   4.244
 7028SOL    HW221984   5.834   6.414   4.330
 7029SOL     OW21985   3.833   6.805   6.941
 7029SOL    HW121986   3.857   6.847   6.854
 7029SOL    HW221987   3.761   6.858   6.985
 7030SOL     OW21988   0.326   2.664   5.880
 7030SOL    HW121989   0.370   2.634   5.796
 7030SOL    HW221990   0.227   2.665   5.867
 7031SOL     OW21991   2.011   5.943   3.610
 7031SOL    HW121992   1.952   5.920   3.687
 7031SOL    HW221993   1.991   6.035   3.578
 7032SOL     OW21994   3.972   6.806   3.551
 7032SOL    HW121995   3.905   6.746   3.508
 7032SOL    HW221996   4.023   6.855   3.481
 7033SOL     OW21997   6.607   1.847   4.210
 7033SOL    HW121998   6.542   1.771   4.214
 7033SOL    HW221999   6.600   1.892   4.120
 7034SOL     OW22000   5.656   0.916   3.302
 7034SOL    HW122001   5.712   0.998   3.287
 7034SOL    HW222002   5.698   0.859   3.373
 7035SOL     OW22003   1.285   6.783   2.354
 7035SOL    HW122004   1.187   6.773   2.339
 7035SOL    HW222005   1.324   6.695   2.382
 7036SOL     OW22006   6.293   6.601   1.591
 7036SOL    HW122007   6.198   6.590   1.620
 7036SOL    HW222008   6.349   6.625   1.671
 7037SOL     OW22009   0.075   6.835   6.587
 7037SOL    HW122010   0.140   6.791   6.648
 7037SOL    HW222011   0.121   6.907   6.535
 7038SOL     OW22012   1.911   3.728   4.579
 7038SOL    HW122013   1.868   3.735   4.669
 7038SOL    HW222014   1.928   3.820   4.543
 7039SOL     OW22015   3.131   6.605   0.155
 7039SOL    HW122016   3.138   6.633   0.250
 7039SOL    HW222017   3.214   6.632   0.106
 7040SOL     OW22018   4.558   2.755   5.908
 7040SOL    HW122019   4.622   2.752   5.985
 7040SOL    HW222020   4.513   2.844   5.906
 7041SOL     OW22021   1.000   1.946   3.584
 7041SOL    HW122022   0.917   1.891   3.581
 7041SOL    HW222023   0.991   2.017   3.654
 7042SOL     OW22024   5.149   5.284   6.594
 7042SOL    HW122025   5.072   5.251   6.648
 7042SOL    HW222026   5.135   5.260   6.498
 7043SOL     OW22027   2.437   2.556   2.877
 7043SOL    HW122028   2.519   2.545   2.934
 7043SOL    HW222029   2.358   2.575   2.935
 7044SOL     OW22030   4.895   4.145   2.985
 7044SOL    HW122031   4.805   4.165   3.024
 7044SOL    HW222032   4.926   4.056   3.019
 7045SOL     OW22033   4.438   6.583   1.386
 7045SOL    HW122034   4.378   6.545   1.316
 7045SOL    HW222035   4.472   6.672   1.356
 7046SOL     OW22036   3.635   1.903   3.870
 7046SOL    HW122037   3.597   1.986   3.911
 7046SOL    HW222038   3.560   1.841   3.844
 7047SOL     OW22039   1.095   2.424   3.180
 7047SOL    HW122040   1.049   2.413   3.269
 7047SOL    HW222041   1.027   2.424   3.107
 7048SOL     OW22042   0.551   5.764   1.352
 7048SOL    HW122043   0.573   5.844   1.296
 7048SOL    HW222044   0.636   5.723   1.387
 7049SOL     OW22045   2.523   0.431   0.599
 7049SOL    HW122046   2.469   0.511   0.576
 7049SOL    HW222047   2.472   0.374   0.664
 7050SOL     OW22048   3.364   3.820   3.769
 7050SOL    HW122049   3.423   3.901   3.775
 7050SOL    HW222050   3.333   3.795   3.861
 7051SOL     OW22051   0.499   0.651   0.781
 7051SOL    HW122052   0.507   0.593   0.700
 7051SOL    HW222053   0.522   0.598   0.863
 7052SOL     OW22054   6.262   2.656   4.391
 7052SOL    HW122055   6.253   2.654   4.292
 7052SOL    HW222056   6.325   2.730   4.417
 7053SOL     OW22057   0.481   2.908   5.881
 7053SOL    HW122058   0.439   2.817   5.878
 7053SOL    HW222059   0.447   2.957   5.961
 7054SOL     OW22060   1.123   6.528   1.295
 7054SOL    HW122061   1.036   6.501   1.252
 7054SOL    HW222062   1.130   6.627   1.294
 7055SOL     OW22063   3.889   6.566   5.182
 7055SOL    HW122064   3.919   6.621   5.104
 7055SOL    HW222065   3.812   6.610   5.227
 7056SOL     OW22066   5.765   5.184   3.779
 7056SOL    HW122067   5.787   5.186   3.876
 7056SOL    HW222068   5.847   5.158   3.727
 7057SOL     OW22069   0.760   4.364   4.376
 7057SOL    HW122070   0.817   4.322   4.447
 7057SOL    HW222071   0.769   4.312   4.292
 7058SOL     OW22072   6.891   5.620   5.659
 7058SOL    HW122073   6.806   5.619   5.711
 7058SOL    HW222074   6.871   5.610   5.562
 7059SOL     OW22075   0.175   0.254   2.472
 7059SOL    HW122076   0.114   0.175   2.465
 7059SOL    HW222077   0.265   0.224   2.504
 7060SOL     OW22078   3.403   0.071   1.443
 7060SOL    HW122079   3.469   0.040   1.375
 7060SOL    HW222080   3.430   0.162   1.475
 7061SOL     OW22081   0.427   1.719   3.796
 7061SOL    HW122082   0.371   1.798   3.770
 7061SOL    HW222083   0.458   1.730   3.890
 7062SOL     OW22084   5.521   1.501   5.942
 7062SOL    HW122085   5.511   1.569   6.014
 7062SOL    HW222086   5.439   1.501   5.885
 7063SOL     OW22087   1.446   6.562   0.443
 7063SOL    HW122088   1.404   6.472   0.436
 7063SOL    HW222089   1.448   6.605   0.353
 7064SOL     OW22090   4.145   2.284   1.729
 7064SOL    HW122091   4.057   2.330   1.720
 7064SOL    HW222092   4.219   2.352   1.723
 7065SOL     OW22093   4.343   3.944   1.246
 7065SOL    HW122094   4.367   3.850   1.221
 7065SOL    HW222095   4.303   3.991   1.167
 7066SOL     OW22096   3.782   0.960   0.844
 7066SOL    HW122097   3.882   0.962   0.846
 7066SOL    HW222098   3.747   1.043   0.801
 7067SOL     OW22099   1.333   2.636   5.119
 7067SOL    HW122100   1.354   2.718   5.067
 7067SOL    HW222101   1.268   2.659   5.192
 7068SOL     OW22102   0.745   3.721   3.338
 7068SOL    HW122103   0.843   3.699   3.344
 7068SOL    HW222104   0.705   3.720   3.429
 7069SOL     OW22105   6.884   3.012   4.389
 7069SOL    HW122106   6.876   2.923   4.434
 7069SOL    HW222107   6.792   3.047   4.368
 7070SOL     OW22108   6.749   5.950   4.737
 7070SOL    HW122109   6.738   6.045   4.710
 7070SOL    HW222110   6.660   5.913   4.766
 7071SOL     OW22111   0.493   6.623   5.625
 7071SOL    HW122112   0.547   6.569   5.689
 7071SOL    HW222113   0.398   6.594   5.630
 7072SOL     OW22114   6.773   6.909   5.678
 7072SOL    HW122115   6.821   6.987   5.639
 7072SOL    HW222116   6.773   6.916   5.778
 7073SOL     OW22117   6.444   0.735   4.503
 7073SOL    HW122118   6.395   0.813   4.464
 7073SOL    HW222119   6.537   0.764   4.526
 7074SOL     OW22120   3.854   3.291   2.025
 7074SOL    HW122121   3.758   3.312   2.007
 7074SOL    HW222122   3.885   3.219   1.963
 7075SOL     OW22123   0.874   6.448   4.612
 7075SOL    HW122124   0.839   6.432   4.520
 7075SOL    HW222125   0.800   6.479   4.671
 7076SOL     OW22126   4.390   2.553   0.403
 7076SOL    HW122127   4.471   2.554   0.345
 7076SOL    HW222128   4.332   2.476   0.378
 7077SOL     OW22129   1.946   5.128   5.823
 7077SOL    HW122130   1.916   5.076   5.743
 7077SOL    HW222131   2.033   5.091   5.856
 7078SOL     OW22132   6.333   0.449   1.563
 7078SOL    HW122133   6.431   0.443   1.582
 7078SOL    HW222134   6.297   0.358   1.544
 7079SOL     OW22135   6.894   6.320   5.461
 7079SOL    HW122136   6.910   6.399   5.521
 7079SOL    HW222137   6.824   6.261   5.503
 7080SOL     OW22138   4.230   2.073   3.930
 7080SOL    HW122139   4.242   2.148   3.995
 7080SOL    HW222140   4.292   2.085   3.852
 7081SOL     OW22141   3.370   0.918   5.682
 7081SOL    HW122142   3.442   0.866   5.636
 7081SOL    HW222143   3.357   1.006   5.635
 7082SOL     OW22144   5.713   6.465   0.080
 7082SOL    HW122145   5.684   6.371   0.060
 7082SOL    HW222146   5.809   6.476   0.055
 7083SOL     OW22147   3.408   0.948   6.757
 7083SOL    HW122148   3.474   1.005   6.807
 7083SOL    HW222149   3.458   0.892   6.690
 7084SOL     OW22150   0.176   6.813   5.387
 7084SOL    HW122151   0.213   6.747   5.452
 7084SOL    HW222152   0.093   6.776   5.345
 7085SOL     OW22153   1.878   0.927   2.699
 7085SOL    HW122154   1.920   1.015   2.718
 7085SOL    HW222155   1.793   0.941   2.648
 7086SOL     OW22156   5.266   1.540   6.113
 7086SOL    HW122157   5.326   1.461   6.108
 7086SOL    HW222158   5.217   1.540   6.200
 7087SOL     OW22159   6.631   4.291   3.685
 7087SOL    HW122160   6.571   4.331   3.615
 7087SOL    HW222161   6.726   4.308   3.660
 7088SOL     OW22162   4.838   3.073   3.984
 7088SOL    HW122163   4.796   3.056   4.073
 7088SOL    HW222164   4.865   3.169   3.978
 7089SOL     OW22165   3.203   2.844   6.087
 7089SOL    HW122166   3.214   2.929   6.139
 7089SOL    HW222167   3.112   2.806   6.104
 7090SOL     OW22168   2.914   1.431   6.604
 7090SOL    HW122169   2.847   1.498   6.574
 7090SOL    HW222170   3.003   1.452   6.563
 7091SOL     OW22171   0.529   2.012   6.651
 7091SOL    HW122172   0.584   1.938   6.690
 7091SOL    HW222173   0.556   2.026   6.556
 7092SOL     OW22174   4.125   2.685   6.398
 7092SOL    HW122175   4.202   2.700   6.336
 7092SOL    HW222176   4.045   2.657   6.346
 7093SOL     OW22177   3.167   3.797   4.278
 7093SOL    HW122178   3.088   3.737   4.292
 7093SOL    HW222179   3.139   3.893   4.291
 7094SOL     OW22180   0.445   6.231   5.657
 7094SOL    HW122181   0.362   6.179   5.677
 7094SOL    HW222182   0.454   6.242   5.558
 7095SOL     OW22183   2.803   2.903   0.346
 7095SOL    HW122184   2.800   2.831   0.277
 7095SOL    HW222185   2.782   2.865   0.436
 7096SOL     OW22186   5.794   0.920   3.863
 7096SOL    HW122187   5.735   0.946   3.786
 7096SOL    HW222188   5.831   1.001   3.907
 7097SOL     OW22189   6.587   0.430   1.945
 7097SOL    HW122190   6.554   0.502   2.006
 7097SOL    HW222191   6.685   0.415   1.960
 7098SOL     OW22192   1.025   6.233   4.656
 7098SOL    HW122193   0.991   6.150   4.701
 7098SOL    HW222194   0.950   6.297   4.643
 7099SOL     OW22195   2.010   0.394   4.655
 7099SOL    HW122196   2.109   0.387   4.655
 7099SOL    HW222197   1.979   0.436   4.570
 7100SOL     OW22198   4.995   3.454   0.935
 7100SOL    HW122199   4.965   3.435   1.028
 7100SOL    HW222200   4.944   3.531   0.898
 7101SOL     OW22201   2.441   0.017   4.421
 7101SOL    HW122202   2.356   0.048   4.464
 7101SOL    HW222203   2.468   6.953   4.460
 7102SOL     OW22204   4.414   0.698   0.897
 7102SOL    HW122205   4.318   0.712   0.873
 7102SOL    HW222206   4.422   0.686   0.996
 7103SOL     OW22207   4.270   5.467   0.327
 7103SOL    HW122208   4.200   5.533   0.354
 7103SOL    HW222209   4.252   5.436   0.234
 7104SOL     OW22210   1.118   3.240   4.459
 7104SOL    HW122211   1.049   3.211   4.392
 7104SOL    HW222212   1.073   3.268   4.543
 7105SOL     OW22213   3.065   2.709   5.582
 7105SOL    HW122214   3.093   2.758   5.664
 7105SOL    HW222215   2.987   2.650   5.603
 7106SOL     OW22216   3.399   2.953   3.042
 7106SOL    HW122217   3.343   2.987   2.966
 7106SOL    HW222218   3.496   2.959   3.018
 7107SOL     OW22219   2.662   0.825   0.690
 7107SOL    HW122220   2.721   0.833   0.770
 7107SOL    HW222221   2.706   0.767   0.622
 7108SOL     OW22222   3.981   6.256   1.508
 7108SOL    HW122223   4.004   6.182   1.570
 7108SOL    HW222224   3.991   6.344   1.555
 7109SOL     OW22225   3.622   0.034   6.713
 7109SOL    HW122226   3.683   0.107   6.681
 7109SOL    HW222227   3.621   0.033   6.813
 7110SOL     OW22228   5.112   5.074   4.247
 7110SOL    HW122229   5.193   5.022   4.274
 7110SOL    HW222230   5.135   5.134   4.171
 7111SOL     OW22231   1.496   2.596   4.180
 7111SOL    HW122232   1.469   2.630   4.270
 7111SOL    HW222233   1.559   2.519   4.190
 7112SOL     OW22234   1.848   5.173   4.062
 7112SOL    HW122235   1.804   5.211   4.143
 7112SOL    HW222236   1.809   5.215   3.980
 7113SOL     OW22237   2.852   4.116   5.382
 7113SOL    HW122238   2.764   4.151   5.350
 7113SOL    HW222239   2.922   4.187   5.371
 7114SOL     OW22240   3.725   6.826   1.992
 7114SOL    HW122241   3.786   6.885   1.939
 7114SOL    HW222242   3.689   6.754   1.934
 7115SOL     OW22243   5.203   2.622   1.848
 7115SOL    HW122244   5.159   2.606   1.936
 7115SOL    HW222245   5.281   2.559   1.838
 7116SOL     OW22246   5.743   3.023   3.581
 7116SOL    HW122247   5.725   2.940   3.529
 7116SOL    HW222248   5.835   3.057   3.560
 7117SOL     OW22249   0.213   0.319   4.467
 7117SOL    HW122250   0.138   0.378   4.438
 7117SOL    HW222251   0.180   0.225   4.476
 7118SOL     OW22252   3.565   3.815   1.222
 7118SOL    HW122253   3.615   3.873   1.286
 7118SOL    HW222254   3.600   3.722   1.226
 7119SOL     OW22255   4.691   1.432   3.526
 7119SOL    HW122256   4.676   1.519   3.479
 7119SOL    HW222257   4.660   1.439   3.620
 7120SOL     OW22258   4.009   1.864   3.123
 7120SOL    HW122259   4.093   1.834   3.078
 7120SOL    HW222260   3.930   1.830   3.072
 7121SOL     OW22261   3.029   0.398   2.434
 7121SOL    HW122262   3.068   0.449   2.511
 7121SOL    HW222263   2.986   0.315   2.467
 7122SOL     OW22264   6.670   1.259   6.485
 7122SOL    HW122265   6.735   1.183   6.487
 7122SOL    HW222266   6.701   1.331   6.547
 7123SOL     OW22267   3.178   4.900   1.451
 7123SOL    HW122268   3.104   4.916   1.516
 7123SOL    HW222269   3.144   4.912   1.358
 7124SOL     OW22270   0.876   3.409   0.468
 7124SOL    HW122271   0.906   3.417   0.563
 7124SOL    HW222272   0.781   3.379   0.466
 7125SOL     OW22273   6.937   6.264   1.298
 7125SOL    HW122274   6.955   6.353   1.339
 7125SOL    HW222275   7.016   6.204   1.312
 7126SOL     OW22276   2.968   4.780   6.834
 7126SOL    HW122277   3.053   4.830   6.851
 7126SOL    HW222278   2.970   4.742   6.742
 7127SOL     OW22279   2.840   5.731   4.252
 7127SOL    HW122280   2.914   5.763   4.193
 7127SOL    HW222281   2.859   5.637   4.280
 7128SOL     OW22282   2.504   5.488   0.374
 7128SOL    HW122283   2.407   5.465   0.383
 7128SOL    HW222284   2.539   5.454   0.287
 7129SOL     OW22285   3.513   0.535   0.472
 7129SOL    HW122286   3.587   0.483   0.516
 7129SOL    HW222287   3.530   0.633   0.483
 7130SOL     OW22288   3.152   4.924   4.700
 7130SOL    HW122289   3.190   4.917   4.609
 7130SOL    HW222290   3.073   4.863   4.708
 7131SOL     OW22291   2.714   1.495   0.443
 7131SOL    HW122292   2.775   1.569   0.471
 7131SOL    HW222293   2.699   1.499   0.344
 7132SOL     OW22294   3.316   4.063   1.355
 7132SOL    HW122295   3.390   4.124   1.328
 7132SOL    HW222296   3.229   4.101   1.323
 7133SOL     OW22297   5.439   4.803   3.609
 7133SOL    HW122298   5.354   4.817   3.660
 7133SOL    HW222299   5.484   4.891   3.595
 7134SOL     OW22300   6.348   5.601   2.714
 7134SOL    HW122301   6.306   5.570   2.629
 7134SOL    HW222302   6.444   5.625   2.697
 7135SOL     OW22303   1.702   1.773   3.388
 7135SOL    HW122304   1.718   1.740   3.295
 7135SOL    HW222305   1.747   1.862   3.400
 7136SOL     OW22306   1.928   2.547   0.755
 7136SOL    HW122307   1.932   2.544   0.855
 7136SOL    HW222308   2.008   2.596   0.720
 7137SOL     OW22309   5.521   0.699   5.775
 7137SOL    HW122310   5.508   0.748   5.689
 7137SOL    HW222311   5.506   0.601   5.761
 7138SOL     OW22312   2.655   2.515   0.852
 7138SOL    HW122313   2.738   2.540   0.802
 7138SOL    HW222314   2.628   2.590   0.912
 7139SOL     OW22315   4.926   3.074   2.128
 7139SOL    HW122316   4.985   2.994   2.140
 7139SOL    HW222317   4.848   3.049   2.070
 7140SOL     OW22318   6.298   3.139   4.948
 7140SOL    HW122319   6.270   3.065   5.010
 7140SOL    HW222320   6.319   3.221   5.001
 7141SOL     OW22321   3.755   6.670   0.697
 7141SOL    HW122322   3.665   6.675   0.654
 7141SOL    HW222323   3.818   6.618   0.638
 7142SOL     OW22324   4.369   6.871   2.781
 7142SOL    HW122325   4.456   6.851   2.736
 7142SOL    HW222326   4.348   6.799   2.847
 7143SOL     OW22327   1.268   2.573   6.252
 7143SOL    HW122328   1.257   2.611   6.160
 7143SOL    HW222329   1.363   2.580   6.280
 7144SOL     OW22330   1.295   1.589   3.588
 7144SOL    HW122331   1.337   1.641   3.514
 7144SOL    HW222332   1.366   1.544   3.642
 7145SOL     OW22333   4.277   6.385   5.885
 7145SOL    HW122334   4.251   6.305   5.939
 7145SOL    HW222335   4.241   6.375   5.792
 7146SOL     OW22336   2.024   0.423   0.111
 7146SOL    HW122337   2.011   0.369   0.027
 7146SOL    HW222338   2.063   0.512   0.088
 7147SOL     OW22339   6.221   6.693   3.300
 7147SOL    HW122340   6.185   6.645   3.379
 7147SOL    HW222341   6.153   6.757   3.265
 7148SOL     OW22342   6.826   5.862   1.708
 7148SOL    HW122343   6.818   5.763   1.718
 7148SOL    HW222344   6.868   5.883   1.620
 7149SOL     OW22345   6.678   6.828   3.088
 7149SOL    HW122346   6.699   6.904   3.027
 7149SOL    HW222347   6.750   6.821   3.158
 7150SOL     OW22348   4.724   2.509   1.665
 7150SOL    HW122349   4.719   2.542   1.571
 7150SOL    HW222350   4.819   2.491   1.689
 7151SOL     OW22351   0.704   5.594   1.097
 7151SOL    HW122352   0.676   5.548   1.013
 7151SOL    HW222353   0.627   5.647   1.133
 7152SOL     OW22354   0.741   2.595   5.445
 7152SOL    HW122355   0.654   2.637   5.471
 7152SOL    HW222356   0.815   2.640   5.494
 7153SOL     OW22357   3.673   5.973   3.538
 7153SOL    HW122358   3.747   6.036   3.516
 7153SOL    HW222359   3.596   5.989   3.476
 7154SOL     OW22360   4.008   6.831   4.618
 7154SOL    HW122361   3.935   6.781   4.665
 7154SOL    HW222362   4.084   6.770   4.599
 7155SOL     OW22363   1.862   6.256   1.384
 7155SOL    HW122364   1.914   6.170   1.387
 7155SOL    HW222365   1.823   6.274   1.474
 7156SOL     OW22366   0.831   4.643   4.383
 7156SOL    HW122367   0.787   4.555   4.362
 7156SOL    HW222368   0.774   4.717   4.349
 7157SOL     OW22369   6.292   4.753   0.922
 7157SOL    HW122370   6.349   4.771   1.002
 7157SOL    HW222371   6.196   4.755   0.948
 7158SOL     OW22372   0.530   6.750   3.003
 7158SOL    HW122373   0.547   6.655   2.977
 7158SOL    HW222374   0.580   6.811   2.941
 7159SOL     OW22375   0.372   4.384   2.710
 7159SOL    HW122376   0.421   4.303   2.743
 7159SOL    HW222377   0.393   4.462   2.769
 7160SOL     OW22378   6.638   0.126   2.992
 7160SOL    HW122379   6.557   0.171   3.030
 7160SOL    HW222380   6.707   0.115   3.063
 7161SOL     OW22381   3.307   4.265   5.269
 7161SOL    HW122382   3.212   4.271   5.238
 7161SOL    HW222383   3.309   4.244   5.367
 7162SOL     OW22384   2.935   6.075   6.011
 7162SOL    HW122385   3.032   6.065   5.990
 7162SOL    HW222386   2.883   6.080   5.926
 7163SOL     OW22387   3.226   6.634   3.814
 7163SOL    HW122388   3.137   6.660   3.852
 7163SOL    HW222389   3.214   6.606   3.719
 7164SOL     OW22390   2.232   1.814   2.692
 7164SOL    HW122391   2.135   1.798   2.710
 7164SOL    HW222392   2.286   1.740   2.731
 7165SOL     OW22393   6.512   0.902   1.188
 7165SOL    HW122394   6.558   0.813   1.186
 7165SOL    HW222395   6.446   0.907   1.113
 7166SOL     OW22396   4.972   3.773   0.546
 7166SOL    HW122397   5.008   3.855   0.502
 7166SOL    HW222398   4.989   3.776   0.644
 7167SOL     OW22399   5.161   3.978   5.113
 7167SOL    HW122400   5.099   3.987   5.191
 7167SOL    HW222401   5.251   3.947   5.145
 7168SOL     OW22402   0.920   2.185   3.791
 7168SOL    HW122403   0.873   2.268   3.821
 7168SOL    HW222404   1.006   2.176   3.840
 7169SOL     OW22405   0.687   3.193   4.982
 7169SOL    HW122406   0.668   3.219   5.077
 7169SOL    HW222407   0.667   3.270   4.922
 7170SOL     OW22408   4.423   5.581   3.851
 7170SOL    HW122409   4.415   5.627   3.939
 7170SOL    HW222410   4.332   5.563   3.815
 7171SOL     OW22411   5.918   3.980   6.063
 7171SOL    HW122412   5.929   3.948   5.969
 7171SOL    HW222413   5.840   3.933   6.104
 7172SOL     OW22414   1.276   0.243   5.270
 7172SOL    HW122415   1.237   0.152   5.257
 7172SOL    HW222416   1.204   0.307   5.295
 7173SOL     OW22417   0.007   4.883   5.715
 7173SOL    HW122418   6.970   4.814   5.755
 7173SOL    HW222419   0.013   4.962   5.775
 7174SOL     OW22420   1.162   5.684   6.626
 7174SOL    HW122421   1.062   5.683   6.616
 7174SOL    HW222422   1.186   5.731   6.711
 7175SOL     OW22423   5.383   3.477   0.641
 7175SOL    HW122424   5.479   3.458   0.620
 7175SOL    HW222425   5.368   3.465   0.740
 7176SOL     OW22426   0.658   5.107   2.601
 7176SOL    HW122427   0.749   5.130   2.568
 7176SOL    HW222428   0.589   5.156   2.547
 7177SOL     OW22429   2.536   6.907   3.997
 7177SOL    HW122430   2.579   6.896   3.907
 7177SOL    HW222431   2.605   6.935   4.064
 7178SOL     OW22432   2.468   3.056   5.629
 7178SOL    HW122433   2.505   2.991   5.696
 7178SOL    HW222434   2.372   3.035   5.613
 7179SOL     OW22435   1.285   3.270   4.935
 7179SOL    HW122436   1.287   3.370   4.941
 7179SOL    HW222437   1.376   3.236   4.912
 7180SOL     OW22438   1.256   5.492   6.125
 7180SOL    HW122439   1.249   5.527   6.219
 7180SOL    HW222440   1.315   5.552   6.072
 7181SOL     OW22441   2.966   6.598   0.680
 7181SOL    HW122442   2.995   6.565   0.770
 7181SOL    HW222443   2.894   6.667   0.692
 7182SOL     OW22444   1.600   3.495   5.620
 7182SOL    HW122445   1.565   3.505   5.713
 7182SOL    HW222446   1.570   3.573   5.565
 7183SOL     OW22447   1.698   5.046   1.457
 7183SOL    HW122448   1.773   5.093   1.410
 7183SOL    HW222449   1.736   4.976   1.517
 7184SOL     OW22450   0.888   6.827   3.109
 7184SOL    HW122451   0.798   6.812   3.151
 7184SOL    HW222452   0.957   6.836   3.181
 7185SOL     OW22453   4.951   1.442   5.317
 7185SOL    HW122454   4.956   1.429   5.416
 7185SOL    HW222455   4.857   1.426   5.287
 7186SOL     OW22456   0.082   0.029   5.523
 7186SOL    HW122457   0.110   6.968   5.480
 7186SOL    HW222458   0.141   0.104   5.493
 7187SOL     OW22459   1.824   4.773   0.866
 7187SOL    HW122460   1.881   4.823   0.931
 7187SOL    HW222461   1.876   4.759   0.781
 7188SOL     OW22462   5.296   0.141   0.325
 7188SOL    HW122463   5.236   0.207   0.371
 7188SOL    HW222464   5.361   0.103   0.391
 7189SOL     OW22465   6.170   1.353   6.623
 7189SOL    HW122466   6.197   1.389   6.533
 7189SOL    HW222467   6.251   1.318   6.670
 7190SOL     OW22468   5.243   3.063   2.731
 7190SOL    HW122469   5.184   3.033   2.807
 7190SOL    HW222470   5.262   3.161   2.740
 7191SOL     OW22471   0.402   4.411   2.243
 7191SOL    HW122472   0.492   4.377   2.271
 7191SOL    HW222473   0.382   4.381   2.150
 7192SOL     OW22474   1.977   5.689   4.928
 7192SOL    HW122475   2.047   5.660   4.994
 7192SOL    HW222476   1.919   5.611   4.906
 7193SOL     OW22477   2.550   1.735   3.001
 7193SOL    HW122478   2.605   1.756   2.920
 7193SOL    HW222479   2.517   1.641   2.995
 7194SOL     OW22480   2.499   2.606   1.152
 7194SOL    HW122481   2.520   2.688   1.100
 7194SOL    HW222482   2.415   2.565   1.117
 7195SOL     OW22483   0.729   5.373   6.433
 7195SOL    HW122484   0.760   5.446   6.373
 7195SOL    HW222485   0.723   5.407   6.527
 7196SOL     OW22486   2.992   3.896   2.380
 7196SOL    HW122487   3.079   3.895   2.428
 7196SOL    HW222488   2.995   3.962   2.305
 7197SOL     OW22489   6.823   2.245   6.025
 7197SOL    HW122490   6.861   2.201   5.944
 7197SOL    HW222491   6.857   2.339   6.032
 7198SOL     OW22492   1.110   0.840   5.560
 7198SOL    HW122493   1.033   0.783   5.588
 7198SOL    HW222494   1.076   0.930   5.531
 7199SOL     OW22495   2.167   0.573   2.021
 7199SOL    HW122496   2.091   0.576   2.087
 7199SOL    HW222497   2.131   0.563   1.929
 7200SOL     OW22498   2.379   0.875   0.053
 7200SOL    HW122499   2.363   0.783   0.018
 7200SOL    HW222500   2.466   0.877   0.104
 7201SOL     OW22501   1.477   5.585   3.547
 7201SOL    HW122502   1.415   5.663   3.535
 7201SOL    HW222503   1.514   5.558   3.458
 7202SOL     OW22504   3.762   6.778   6.118
 7202SOL    HW122505   3.828   6.853   6.107
 7202SOL    HW222506   3.675   6.804   6.075
 7203SOL     OW22507   6.687   1.455   0.878
 7203SOL    HW122508   6.670   1.369   0.927
 7203SOL    HW222509   6.781   1.483   0.892
 7204SOL     OW22510   6.108   6.854   4.636
 7204SOL    HW122511   6.097   6.891   4.728
 7204SOL    HW222512   6.057   6.911   4.571
 7205SOL     OW22513   2.052   6.009   3.009
 7205SOL    HW122514   2.041   6.071   2.932
 7205SOL    HW222515   2.128   5.946   2.990
 7206SOL     OW22516   1.782   0.310   1.608
 7206SOL    HW122517   1.825   0.235   1.558
 7206SOL    HW222518   1.832   0.326   1.693
 7207SOL     OW22519   3.563   6.766   1.439
 7207SOL    HW122520   3.493   6.794   1.505
 7207SOL    HW222521   3.561   6.829   1.360
 7208SOL     OW22522   4.382   6.489   4.506
 7208SOL    HW122523   4.433   6.518   4.425
 7208SOL    HW222524   4.411   6.396   4.532
 7209SOL     OW22525   3.002   3.198   2.777
 7209SOL    HW122526   2.914   3.187   2.823
 7209SOL    HW222527   3.042   3.286   2.802
 7210SOL     OW22528   4.764   6.593   3.525
 7210SOL    HW122529   4.705   6.523   3.485
 7210SOL    HW222530   4.854   6.554   3.545
 7211SOL     OW22531   1.962   5.392   3.832
 7211SOL    HW122532   2.003   5.302   3.812
 7211SOL    HW222533   1.886   5.409   3.769
 7212SOL     OW22534   1.007   6.302   3.509
 7212SOL    HW122535   1.020   6.354   3.424
 7212SOL    HW222536   0.993   6.205   3.486
 7213SOL     OW22537   5.837   0.197   6.113
 7213SOL    HW122538   5.815   0.294   6.115
 7213SOL    HW222539   5.769   0.148   6.057
 7214SOL     OW22540   2.177   5.692   4.096
 7214SOL    HW122541   2.190   5.753   4.018
 7214SOL    HW222542   2.144   5.745   4.175
 7215SOL     OW22543   0.284   3.201   3.995
 7215SOL    HW122544   0.255   3.109   4.021
 7215SOL    HW222545   0.209   3.249   3.949
 7216SOL     OW22546   2.351   6.188   6.707
 7216SOL    HW122547   2.391   6.109   6.753
 7216SOL    HW222548   2.416   6.263   6.707
 7217SOL     OW22549   1.900   4.496   1.700
 7217SOL    HW122550   1.972   4.564   1.712
 7217SOL    HW222551   1.936   4.405   1.719
 7218SOL     OW22552   4.717   2.980   5.222
 7218SOL    HW122553   4.638   2.945   5.274
 7218SOL    HW222554   4.757   3.057   5.270
 7219SOL     OW22555   5.157   5.408   3.560
 7219SOL    HW122556   5.184   5.358   3.643
 7219SOL    HW222557   5.191   5.360   3.480
 7220SOL     OW22558   6.942   5.415   3.494
 7220SOL    HW122559   6.976   5.370   3.411
 7220SOL    HW222560   6.993   5.381   3.573
 7221SOL     OW22561   5.209   5.145   5.065
 7221SOL    HW122562   5.233   5.093   4.983
 7221SOL    HW222563   5.157   5.087   5.128
 7222SOL     OW22564   6.181   6.846   0.456
 7222SOL    HW122565   6.139   6.764   0.417
 7222SOL    HW222566   6.154   6.856   0.552
 7223SOL     OW22567   2.838   1.950   1.680
 7223SOL    HW122568   2.937   1.960   1.667
 7223SOL    HW222569   2.805   2.022   1.741
 7224SOL     OW22570   5.729   2.089   4.832
 7224SOL    HW122571   5.747   2.177   4.788
 7224SOL    HW222572   5.667   2.036   4.774
 7225SOL     OW22573   1.526   5.636   6.353
 7225SOL    HW122574   1.434   5.638   6.314
 7225SOL    HW222575   1.520   5.628   6.453
 7226SOL     OW22576   0.844   0.728   0.255
 7226SOL    HW122577   0.892   0.770   0.178
 7226SOL    HW222578   0.910   0.702   0.325
 7227SOL     OW22579   1.011   2.165   0.388
 7227SOL    HW122580   0.920   2.173   0.347
 7227SOL    HW222581   1.064   2.248   0.369
 7228SOL     OW22582   6.954   1.083   2.180
 7228SOL    HW122583   0.019   1.127   2.168
 7228SOL    HW222584   6.900   1.096   2.097
 7229SOL     OW22585   1.079   0.815   4.071
 7229SOL    HW122586   1.150   0.847   4.133
 7229SOL    HW222587   1.092   0.717   4.052
 7230SOL     OW22588   4.768   5.810   4.805
 7230SOL    HW122589   4.754   5.907   4.823
 7230SOL    HW222590   4.781   5.795   4.707
 7231SOL     OW22591   4.666   0.184   0.144
 7231SOL    HW122592   4.763   0.176   0.168
 7231SOL    HW222593   4.628   0.093   0.130
 7232SOL     OW22594   3.551   4.980   3.502
 7232SOL    HW122595   3.473   4.945   3.451
 7232SOL    HW222596   3.519   5.042   3.573
 7233SOL     OW22597   0.328   3.015   4.963
 7233SOL    HW122598   0.260   2.942   4.971
 7233SOL    HW222599   0.394   2.992   4.891
 7234SOL     OW22600   6.406   2.682   2.486
 7234SOL    HW122601   6.337   2.623   2.446
 7234SOL    HW222602   6.362   2.761   2.530
 7235SOL     OW22603   6.061   4.309   3.210
 7235SOL    HW122604   6.103   4.347   3.292
 7235SOL    HW222605   5.974   4.266   3.233
 7236SOL     OW22606   3.205   1.638   2.659
 7236SOL    HW122607   3.185   1.574   2.733
 7236SOL    HW222608   3.164   1.727   2.679
 7237SOL     OW22609   6.533   6.581   5.100
 7237SOL    HW122610   6.512   6.487   5.126
 7237SOL    HW222611   6.515   6.642   5.178
 7238SOL     OW22612   2.133   2.491   1.397
 7238SOL    HW122613   2.077   2.429   1.451
 7238SOL    HW222614   2.203   2.439   1.348
 7239SOL     OW22615   2.565   1.864   3.538
 7239SOL    HW122616   2.569   1.854   3.438
 7239SOL    HW222617   2.558   1.961   3.561
 7240SOL     OW22618   2.641   4.217   6.950
 7240SOL    HW122619   2.615   4.284   7.019
 7240SOL    HW222620   2.559   4.181   6.905
 7241SOL     OW22621   3.163   0.617   6.537
 7241SOL    HW122622   3.183   0.583   6.445
 7241SOL    HW222623   3.074   0.663   6.536
 7242SOL     OW22624   6.160   4.579   6.643
 7242SOL    HW122625   6.096   4.654   6.631
 7242SOL    HW222626   6.242   4.612   6.690
 7243SOL     OW22627   0.857   4.473   6.726
 7243SOL    HW122628   0.830   4.508   6.636
 7243SOL    HW222629   0.930   4.406   6.715
 7244SOL     OW22630   4.547   0.419   1.212
 7244SOL    HW122631   4.506   0.509   1.205
 7244SOL    HW222632   4.502   0.367   1.285
 7245SOL     OW22633   0.577   2.611   5.058
 7245SOL    HW122634   0.547   2.597   4.963
 7245SOL    HW222635   0.497   2.625   5.116
 7246SOL     OW22636   6.657   6.634   4.425
 7246SOL    HW122637   6.711   6.576   4.364
 7246SOL    HW222638   6.576   6.584   4.455
 7247SOL     OW22639   2.670   6.990   2.800
 7247SOL    HW122640   2.662   7.024   2.707
 7247SOL    HW222641   2.627   0.030   2.863
 7248SOL     OW22642   3.186   1.179   3.964
 7248SOL    HW122643   3.104   1.186   3.907
 7248SOL    HW222644   3.266   1.173   3.905
 7249SOL     OW22645   5.952   4.561   1.651
 7249SOL    HW122646   5.864   4.525   1.682
 7249SOL    HW222647   5.977   4.520   1.564
 7250SOL     OW22648   2.314   4.974   6.483
 7250SOL    HW122649   2.266   4.990   6.570
 7250SOL    HW222650   2.393   4.915   6.500
 7251SOL     OW22651   6.992   6.741   5.265
 7251SOL    HW122652   6.966   6.648   5.238
 7251SOL    HW222653   6.924   6.806   5.230
 7252SOL     OW22654   3.480   3.160   4.759
 7252SOL    HW122655   3.407   3.111   4.806
 7252SOL    HW222656   3.525   3.099   4.694
 7253SOL     OW22657   1.599   6.284   0.514
 7253SOL    HW122658   1.525   6.260   0.452
 7253SOL    HW222659   1.570   6.359   0.574
 7254SOL     OW22660   3.760   5.525   4.736
 7254SOL    HW122661   3.718   5.518   4.646
 7254SOL    HW222662   3.835   5.592   4.734
 7255SOL     OW22663   3.348   3.763   2.021
 7255SOL    HW122664   3.284   3.820   2.073
 7255SOL    HW222665   3.297   3.696   1.967
 7256SOL     OW22666   4.699   4.732   4.778
 7256SOL    HW122667   4.613   4.685   4.756
 7256SOL    HW222668   4.745   4.683   4.852
 7257SOL     OW22669   6.353   3.039   2.929
 7257SOL    HW122670   6.280   3.033   2.862
 7257SOL    HW222671   6.416   3.113   2.904
 7258SOL     OW22672   4.065   0.215   4.733
 7258SOL    HW122673   4.079   0.296   4.791
 7258SOL    HW222674   3.979   0.226   4.683
 7259SOL     OW22675   3.146   4.226   0.719
 7259SOL    HW122676   3.191   4.153   0.668
 7259SOL    HW222677   3.083   4.274   0.659
 7260SOL     OW22678   3.306   1.499   3.040
 7260SOL    HW122679   3.406   1.500   3.040
 7260SOL    HW222680   3.273   1.431   2.974
 7261SOL     OW22681   2.775   2.979   1.727
 7261SOL    HW122682   2.782   3.038   1.646
 7261SOL    HW222683   2.679   2.964   1.749
 7262SOL     OW22684   6.069   2.434   4.262
 7262SOL    HW122685   6.038   2.518   4.306
 7262SOL    HW222686   6.057   2.442   4.163
 7263SOL     OW22687   1.384   5.505   2.056
 7263SOL    HW122688   1.357   5.532   1.963
 7263SOL    HW222689   1.337   5.420   2.081
 7264SOL     OW22690   0.016   1.557   6.688
 7264SOL    HW122691   0.061   1.561   6.599
 7264SOL    HW222692   0.071   1.502   6.750
 7265SOL     OW22693   5.852   5.130   6.184
 7265SOL    HW122694   5.851   5.114   6.283
 7265SOL    HW222695   5.876   5.225   6.166
 7266SOL     OW22696   4.084   0.534   1.102
 7266SOL    HW122697   4.079   0.439   1.070
 7266SOL    HW222698   4.046   0.540   1.194
 7267SOL     OW22699   6.247   4.603   5.226
 7267SOL    HW122700   6.338   4.616   5.266
 7267SOL    HW222701   6.186   4.562   5.294
 7268SOL     OW22702   4.135   5.168   2.814
 7268SOL    HW122703   4.053   5.140   2.865
 7268SOL    HW222704   4.214   5.118   2.848
 7269SOL     OW22705   0.790   5.378   1.760
 7269SOL    HW122706   0.874   5.392   1.813
 7269SOL    HW222707   0.777   5.455   1.698
 7270SOL     OW22708   2.440   2.081   3.182
 7270SOL    HW122709   2.452   1.997   3.235
 7270SOL    HW222710   2.473   2.066   3.089
 7271SOL     OW22711   0.532   4.185   2.768
 7271SOL    HW122712   0.467   4.126   2.815
 7271SOL    HW222713   0.624   4.149   2.780
 7272SOL     OW22714   5.421   2.585   2.802
 7272SOL    HW122715   5.342   2.646   2.805
 7272SOL    HW222716   5.400   2.507   2.743
 7273SOL     OW22717   5.524   3.959   1.656
 7273SOL    HW122718   5.613   3.976   1.614
 7273SOL    HW222719   5.465   4.038   1.642
 7274SOL     OW22720   6.912   5.328   6.288
 7274SOL    HW122721   6.950   5.420   6.278
 7274SOL    HW222722   6.820   5.334   6.326
 7275SOL     OW22723   6.507   0.675   0.471
 7275SOL    HW122724   6.536   0.761   0.430
 7275SOL    HW222725   6.452   0.692   0.553
 7276SOL     OW22726   2.934   1.779   3.536
 7276SOL    HW122727   2.886   1.743   3.456
 7276SOL    HW222728   3.032   1.762   3.527
 7277SOL     OW22729   4.901   1.075   5.489
 7277SOL    HW122730   4.966   1.147   5.513
 7277SOL    HW222731   4.845   1.106   5.412
 7278SOL     OW22732   3.705   1.616   3.465
 7278SOL    HW122733   3.780   1.680   3.482
 7278SOL    HW222734   3.703   1.591   3.369
 7279SOL     OW22735   4.212   4.053   1.027
 7279SOL    HW122736   4.217   4.142   0.982
 7279SOL    HW222737   4.122   4.042   1.068
 7280SOL     OW22738   5.369   2.573   5.311
 7280SOL    HW122739   5.385   2.556   5.214
 7280SOL    HW222740   5.297   2.642   5.322
 7281SOL     OW22741   3.465   6.985   0.555
 7281SOL    HW122742   3.385   6.976   0.614
 7281SOL    HW222743   3.454   0.041   0.497
 7282SOL     OW22744   6.563   5.589   1.892
 7282SOL    HW122745   6.601   5.498   1.878
 7282SOL    HW222746   6.630   5.647   1.940
 7283SOL     OW22747   2.878   6.435   2.396
 7283SOL    HW122748   2.875   6.415   2.298
 7283SOL    HW222749   2.958   6.390   2.436
 7284SOL     OW22750   6.570   2.771   3.871
 7284SOL    HW122751   6.542   2.859   3.832
 7284SOL    HW222752   6.494   2.732   3.923
 7285SOL     OW22753   4.649   3.094   1.401
 7285SOL    HW122754   4.594   3.078   1.483
 7285SOL    HW222755   4.695   3.183   1.410
 7286SOL     OW22756   0.451   1.006   0.746
 7286SOL    HW122757   0.458   1.097   0.706
 7286SOL    HW222758   0.426   0.940   0.675
 7287SOL     OW22759   0.116   2.724   3.929
 7287SOL    HW122760   0.024   2.704   3.895
 7287SOL    HW222761   0.111   2.799   3.995
 7288SOL     OW22762   2.834   2.202   3.044
 7288SOL    HW122763   2.827   2.242   2.953
 7288SOL    HW222764   2.748   2.215   3.093
 7289SOL     OW22765   5.391   2.426   1.879
 7289SOL    HW122766   5.404   2.368   1.959
 7289SOL    HW222767   5.479   2.467   1.853
 7290SOL     OW22768   4.365   0.726   5.935
 7290SOL    HW122769   4.281   0.755   5.981
 7290SOL    HW222770   4.386   0.790   5.861
 7291SOL     OW22771   3.049   0.087   0.022
 7291SOL    HW122772   3.143   0.084   0.056
 7291SOL    HW222773   2.999   0.158   0.072
 7292SOL     OW22774   1.716   6.987   3.010
 7292SOL    HW122775   1.635   6.995   2.952
 7292SOL    HW222776   1.759   6.898   2.996
 7293SOL     OW22777   1.182   1.170   5.294
 7293SOL    HW122778   1.206   1.166   5.391
 7293SOL    HW222779   1.137   1.085   5.267
 7294SOL     OW22780   3.066   4.648   1.716
 7294SOL    HW122781   3.012   4.570   1.748
 7294SOL    HW222782   3.164   4.626   1.724
 7295SOL     OW22783   6.329   4.936   1.664
 7295SOL    HW122784   6.257   4.879   1.625
 7295SOL    HW222785   6.407   4.939   1.602
 7296SOL     OW22786   3.275   4.861   2.874
 7296SOL    HW122787   3.256   4.848   2.971
 7296SOL    HW222788   3.280   4.959   2.855
 7297SOL     OW22789   2.903   6.401   1.909
 7297SOL    HW122790   2.899   6.464   1.832
 7297SOL    HW222791   2.997   6.393   1.940
 7298SOL     OW22792   4.398   6.169   6.612
 7298SOL    HW122793   4.408   6.070   6.623
 7298SOL    HW222794   4.303   6.195   6.629
 7299SOL     OW22795   1.204   2.946   7.002
 7299SOL    HW122796   1.171   2.909   0.065
 7299SOL    HW222797   1.125   2.965   6.942
 7300SOL     OW22798   0.982   4.961   2.099
 7300SOL    HW122799   1.057   4.947   2.034
 7300SOL    HW222800   0.903   4.997   2.051
 7301SOL     OW22801   6.173   0.491   6.013
 7301SOL    HW122802   6.249   0.517   6.073
 7301SOL    HW222803   6.165   0.558   5.939
 7302SOL     OW22804   5.531   2.793   6.126
 7302SOL    HW122805   5.492   2.777   6.216
 7302SOL    HW222806   5.524   2.890   6.103
 7303SOL     OW22807   3.284   1.276   0.454
 7303SOL    HW122808   3.328   1.227   0.530
 7303SOL    HW222809   3.316   1.370   0.452
 7304SOL     OW22810   2.351   5.072   1.786
 7304SOL    HW122811   2.255   5.099   1.797
 7304SOL    HW222812   2.406   5.114   1.858
 7305SOL     OW22813   5.681   2.347   0.205
 7305SOL    HW122814   5.697   2.248   0.195
 7305SOL    HW222815   5.671   2.370   0.301
 7306SOL     OW22816   3.569   1.873   1.230
 7306SOL    HW122817   3.626   1.950   1.256
 7306SOL    HW222818   3.598   1.837   1.141
 7307SOL     OW22819   3.378   6.572   1.896
 7307SOL    HW122820   3.333   6.573   1.806
 7307SOL    HW222821   3.313   6.543   1.965
 7308SOL     OW22822   6.214   1.118   1.977
 7308SOL    HW122823   6.123   1.138   1.940
 7308SOL    HW222824   6.229   1.171   2.061
 7309SOL     OW22825   2.790   5.931   3.423
 7309SOL    HW122826   2.780   6.018   3.376
 7309SOL    HW222827   2.706   5.910   3.474
 7310SOL     OW22828   1.541   3.106   0.311
 7310SOL    HW122829   1.497   3.195   0.296
 7310SOL    HW222830   1.575   3.102   0.405
 7311SOL     OW22831   0.899   0.568   0.714
 7311SOL    HW122832   0.869   0.630   0.787
 7311SOL    HW222833   0.843   0.485   0.716
 7312SOL     OW22834   7.007   2.111   5.237
 7312SOL    HW122835   0.075   2.086   5.209
 7312SOL    HW222836   6.960   2.031   5.274
 7313SOL     OW22837   2.473   0.688   0.971
 7313SOL    HW122838   2.499   0.733   0.886
 7313SOL    HW222839   2.429   0.601   0.952
 7314SOL     OW22840   0.030   4.282   0.084
 7314SOL    HW122841   0.036   4.183   0.090
 7314SOL    HW222842   0.120   4.322   0.101
 7315SOL     OW22843   6.642   5.427   2.392
 7315SOL    HW122844   6.551   5.435   2.352
 7315SOL    HW222845   6.703   5.495   2.352
 7316SOL     OW22846   3.186   2.404   6.268
 7316SOL    HW122847   3.231   2.480   6.222
 7316SOL    HW222848   3.211   2.404   6.365
 7317SOL     OW22849   3.373   1.654   1.778
 7317SOL    HW122850   3.392   1.598   1.858
 7317SOL    HW222851   3.276   1.677   1.775
 7318SOL     OW22852   3.764   6.743   2.300
 7318SOL    HW122853   3.774   6.838   2.269
 7318SOL    HW222854   3.849   6.713   2.342
 7319SOL     OW22855   6.671   4.095   6.990
 7319SOL    HW122856   6.632   4.082   6.899
 7319SOL    HW222857   6.768   4.118   6.982
 7320SOL     OW22858   7.011   4.086   1.144
 7320SOL    HW122859   0.033   4.174   1.151
 7320SOL    HW222860   0.046   4.014   1.178
 7321SOL     OW22861   1.902   6.139   6.224
 7321SOL    HW122862   1.941   6.072   6.288
 7321SOL    HW222863   1.974   6.202   6.194
 7322SOL     OW22864   1.044   1.214   2.955
 7322SOL    HW122865   0.993   1.290   2.914
 7322SOL    HW222866   1.004   1.191   3.044
 7323SOL     OW22867   2.122   1.027   1.488
 7323SOL    HW122868   2.111   1.103   1.552
 7323SOL    HW222869   2.170   1.058   1.406
 7324SOL     OW22870   5.809   4.266   2.624
 7324SOL    HW122871   5.727   4.242   2.573
 7324SOL    HW222872   5.889   4.227   2.577
 7325SOL     OW22873   3.560   0.780   5.504
 7325SOL    HW122874   3.652   0.801   5.538
 7325SOL    HW222875   3.557   0.795   5.405
 7326SOL     OW22876   3.347   0.732   6.267
 7326SOL    HW122877   3.405   0.719   6.186
 7326SOL    HW222878   3.278   0.659   6.270
 7327SOL     OW22879   5.817   3.030   3.145
 7327SOL    HW122880   5.778   3.067   3.229
 7327SOL    HW222881   5.878   3.098   3.103
 7328SOL     OW22882   3.751   5.206   5.734
 7328SOL    HW122883   3.712   5.159   5.813
 7328SOL    HW222884   3.723   5.302   5.735
 7329SOL     OW22885   1.874   2.750   0.069
 7329SOL    HW122886   1.780   2.764   0.038
 7329SOL    HW222887   1.877   2.752   0.169
 7330SOL     OW22888   3.162   3.117   1.618
 7330SOL    HW122889   3.233   3.054   1.587
 7330SOL    HW222890   3.136   3.094   1.712
 7331SOL     OW22891   5.165   0.500   1.727
 7331SOL    HW122892   5.083   0.484   1.781
 7331SOL    HW222893   5.183   0.598   1.722
 7332SOL     OW22894   4.113   3.993   6.946
 7332SOL    HW122895   4.190   4.055   6.954
 7332SOL    HW222896   4.065   4.009   6.859
 7333SOL     OW22897   6.521   3.484   2.746
 7333SOL    HW122898   6.431   3.522   2.767
 7333SOL    HW222899   6.526   3.460   2.649
 7334SOL     OW22900   2.840   6.524   5.935
 7334SOL    HW122901   2.896   6.520   6.018
 7334SOL    HW222902   2.889   6.480   5.860
 7335SOL     OW22903   6.729   3.851   2.993
 7335SOL    HW122904   6.759   3.770   2.941
 7335SOL    HW222905   6.653   3.895   2.945
 7336SOL     OW22906   1.607   6.062   0.797
 7336SOL    HW122907   1.600   6.086   0.894
 7336SOL    HW222908   1.610   6.145   0.742
 7337SOL     OW22909   3.613   2.622   1.741
 7337SOL    HW122910   3.698   2.670   1.720
 7337SOL    HW222911   3.632   2.528   1.766
 7338SOL     OW22912   5.199   2.783   1.200
 7338SOL    HW122913   5.229   2.845   1.128
 7338SOL    HW222914   5.123   2.728   1.168
 7339SOL     OW22915   6.908   6.323   5.011
 7339SOL    HW122916   6.952   6.249   5.061
 7339SOL    HW222917   6.977   6.372   4.957
 7340SOL     OW22918   3.627   1.496   0.230
 7340SOL    HW122919   3.684   1.577   0.241
 7340SOL    HW222920   3.580   1.500   0.142
 7341SOL     OW22921   0.349   4.978   3.629
 7341SOL    HW122922   0.325   5.025   3.715
 7341SOL    HW222923   0.397   4.893   3.650
 7342SOL     OW22924   6.718   0.550   0.570
 7342SOL    HW122925   6.805   0.580   0.531
 7342SOL    HW222926   6.644   0.607   0.535
 7343SOL     OW22927   5.943   4.166   1.979
 7343SOL    HW122928   5.975   4.253   2.016
 7343SOL    HW222929   5.844   4.169   1.966
 7344SOL     OW22930   1.590   6.500   6.613
 7344SOL    HW122931   1.558   6.405   6.621
 7344SOL    HW222932   1.620   6.517   6.519
 7345SOL     OW22933   4.405   5.116   5.794
 7345SOL    HW122934   4.444   5.191   5.847
 7345SOL    HW222935   4.371   5.045   5.856
 7346SOL     OW22936   3.403   4.352   1.362
 7346SOL    HW122937   3.412   4.346   1.462
 7346SOL    HW222938   3.487   4.390   1.324
 7347SOL     OW22939   6.140   2.295   1.996
 7347SOL    HW122940   6.237   2.268   1.992
 7347SOL    HW222941   6.114   2.337   1.910
 7348SOL     OW22942   1.201   3.186   3.707
 7348SOL    HW122943   1.105   3.162   3.716
 7348SOL    HW222944   1.256   3.103   3.701
 7349SOL     OW22945   3.223   2.145   1.394
 7349SOL    HW122946   3.308   2.131   1.444
 7349SOL    HW222947   3.241   2.144   1.296
 7350SOL     OW22948   0.424   2.411   3.520
 7350SOL    HW122949   0.453   2.317   3.504
 7350SOL    HW222950   0.412   2.457   3.432
 7351SOL     OW22951   4.048   4.597   6.609
 7351SOL    HW122952   4.088   4.575   6.699
 7351SOL    HW222953   4.041   4.513   6.555
 7352SOL     OW22954   1.649   1.478   2.781
 7352SOL    HW122955   1.736   1.507   2.821
 7352SOL    HW222956   1.666   1.432   2.695
 7353SOL     OW22957   6.530   2.049   4.928
 7353SOL    HW122958   6.504   2.133   4.881
 7353SOL    HW222959   6.612   2.011   4.884
 7354SOL     OW22960   6.726   0.944   5.746
 7354SOL    HW122961   6.763   1.014   5.686
 7354SOL    HW222962   6.689   0.986   5.829
 7355SOL     OW22963   1.552   6.153   1.057
 7355SOL    HW122964   1.475   6.215   1.041
 7355SOL    HW222965   1.560   6.133   1.154
 7356SOL     OW22966   5.904   2.508   6.332
 7356SOL    HW122967   5.996   2.467   6.326
 7356SOL    HW222968   5.911   2.607   6.326
 7357SOL     OW22969   4.806   0.848   1.084
 7357SOL    HW122970   4.846   0.940   1.078
 7357SOL    HW222971   4.867   0.789   1.137
 7358SOL     OW22972   3.372   2.155   3.543
 7358SOL    HW122973   3.293   2.103   3.510
 7358SOL    HW222974   3.379   2.144   3.642
 7359SOL     OW22975   3.457   2.791   1.912
 7359SOL    HW122976   3.525   2.831   1.974
 7359SOL    HW222977   3.503   2.731   1.847
 7360SOL     OW22978   1.415   2.884   4.990
 7360SOL    HW122979   1.449   2.940   5.066
 7360SOL    HW222980   1.468   2.904   4.907
 7361SOL     OW22981   4.971   6.993   1.049
 7361SOL    HW122982   4.874   7.000   1.027
 7361SOL    HW222983   5.024   6.979   0.966
 7362SOL     OW22984   1.134   0.148   4.888
 7362SOL    HW122985   1.110   0.160   4.984
 7362SOL    HW222986   1.079   0.210   4.832
 7363SOL     OW22987   5.682   2.426   0.470
 7363SOL    HW122988   5.673   2.345   0.528
 7363SOL    HW222989   5.713   2.504   0.524
 7364SOL     OW22990   4.140   6.689   0.951
 7364SOL    HW122991   4.052   6.732   0.930
 7364SOL    HW222992   4.125   6.604   1.002
 7365SOL     OW22993   3.428   6.668   2.385
 7365SOL    HW122994   3.475   6.703   2.304
 7365SOL    HW222995   3.340   6.629   2.358
 7366SOL     OW22996   1.002   5.352   6.990
 7366SOL    HW122997   1.074   5.396   0.019
 7366SOL    HW222998   0.942   5.421   6.950
 7367SOL     OW22999   4.188   4.165   1.324
 7367SOL    HW123000   4.099   4.130   1.298
 7367SOL    HW223001   4.245   4.091   1.360
 7368SOL     OW23002   2.921   3.808   4.510
 7368SOL    HW123003   2.843   3.857   4.472
 7368SOL    HW223004   2.951   3.853   4.594
 7369SOL     OW23005   4.893   3.838   1.365
 7369SOL    HW123006   4.890   3.772   1.290
 7369SOL    HW223007   4.817   3.821   1.427
 7370SOL     OW23008   1.692   0.481   6.757
 7370SOL    HW123009   1.643   0.476   6.670
 7370SOL    HW223010   1.767   0.415   6.756
 7371SOL     OW23011   2.845   5.410   3.793
 7371SOL    HW123012   2.884   5.442   3.879
 7371SOL    HW223013   2.858   5.480   3.723
 7372SOL     OW23014   3.547   0.087   5.641
 7372SOL    HW123015   3.609   0.163   5.657
 7372SOL    HW223016   3.525   0.042   5.728
 7373SOL     OW23017   4.724   1.248   3.165
 7373SOL    HW123018   4.651   1.184   3.142
 7373SOL    HW223019   4.685   1.330   3.206
 7374SOL     OW23020   2.120   2.763   5.175
 7374SOL    HW123021   2.160   2.754   5.083
 7374SOL    HW223022   2.188   2.800   5.238
 7375SOL     OW23023   1.321   1.671   3.994
 7375SOL    HW123024   1.268   1.722   4.062
 7375SOL    HW223025   1.327   1.724   3.910
 7376SOL     OW23026   3.099   2.950   0.023
 7376SOL    HW123027   3.015   2.981   7.003
 7376SOL    HW223028   3.089   2.957   0.123
 7377SOL     OW23029   4.312   5.432   2.185
 7377SOL    HW123030   4.247   5.504   2.163
 7377SOL    HW223031   4.392   5.472   2.230
 7378SOL     OW23032   6.589   2.183   4.347
 7378SOL    HW123033   6.574   2.212   4.253
 7378SOL    HW223034   6.552   2.091   4.360
 7379SOL     OW23035   4.305   0.925   2.833
 7379SOL    HW123036   4.341   0.986   2.762
 7379SOL    HW223037   4.339   0.833   2.817
 7380SOL     OW23038   6.815   3.529   5.978
 7380SOL    HW123039   6.837   3.461   5.909
 7380SOL    HW223040   6.809   3.620   5.936
 7381SOL     OW23041   4.951   2.682   2.382
 7381SOL    HW123042   5.021   2.740   2.342
 7381SOL    HW223043   4.861   2.725   2.370
 7382SOL     OW23044   0.605   4.858   4.794
 7382SOL    HW123045   0.588   4.874   4.891
 7382SOL    HW223046   0.526   4.812   4.753
 7383SOL     OW23047   7.012   6.791   2.451
 7383SOL    HW123048   6.918   6.781   2.416
 7383SOL    HW223049   0.042   6.712   2.423
 7384SOL     OW23050   5.320   0.647   2.364
 7384SOL    HW123051   5.353   0.694   2.282
 7384SOL    HW223052   5.391   0.649   2.435
 7385SOL     OW23053   4.178   5.273   2.392
 7385SOL    HW123054   4.273   5.281   2.361
 7385SOL    HW223055   4.167   5.187   2.442
 7386SOL     OW23056   0.750   2.781   5.635
 7386SOL    HW123057   0.787   2.871   5.610
 7386SOL    HW223058   0.705   2.788   5.724
 7387SOL     OW23059   3.999   6.053   4.353
 7387SOL    HW123060   3.959   6.035   4.264
 7387SOL    HW223061   3.934   6.105   4.409
 7388SOL     OW23062   6.984   5.799   4.108
 7388SOL    HW123063   6.922   5.739   4.159
 7388SOL    HW223064   6.938   5.830   4.025
 7389SOL     OW23065   1.540   4.702   6.953
 7389SOL    HW123066   1.592   4.770   6.902
 7389SOL    HW223067   1.447   4.696   6.917
 7390SOL     OW23068   1.150   1.896   6.397
 7390SOL    HW123069   1.089   1.865   6.324
 7390SOL    HW223070   1.134   1.993   6.415
 7391SOL     OW23071   4.926   4.362   5.832
 7391SOL    HW123072   4.936   4.282   5.891
 7391SOL    HW223073   5.017   4.390   5.799
 7392SOL     OW23074   1.450   5.934   5.625
 7392SOL    HW123075   1.504   5.994   5.567
 7392SOL    HW223076   1.395   5.873   5.568
 7393SOL     OW23077   6.073   5.129   1.598
 7393SOL    HW123078   6.042   5.100   1.508
 7393SOL    HW223079   6.168   5.160   1.592
 7394SOL     OW23080   4.231   3.211   5.838
 7394SOL    HW123081   4.259   3.280   5.771
 7394SOL    HW223082   4.266   3.236   5.928
 7395SOL     OW23083   0.453   0.269   6.180
 7395SOL    HW123084   0.418   0.360   6.201
 7395SOL    HW223085   0.457   0.257   6.080
 7396SOL     OW23086   1.879   0.957   6.381
 7396SOL    HW123087   1.849   0.914   6.466
 7396SOL    HW223088   1.819   1.035   6.360
 7397SOL     OW23089   6.238   4.677   4.309
 7397SOL    HW123090   6.282   4.648   4.394
 7397SOL    HW223091   6.140   4.691   4.326
 7398SOL     OW23092   3.494   5.367   3.861
 7398SOL    HW123093   3.397   5.356   3.884
 7398SOL    HW223094   3.549   5.350   3.943
 7399SOL     OW23095   0.465   4.029   5.541
 7399SOL    HW123096   0.477   3.977   5.625
 7399SOL    HW223097   0.554   4.065   5.512
 7400SOL     OW23098   3.464   4.188   6.932
 7400SOL    HW123099   3.485   4.113   6.995
 7400SOL    HW223100   3.413   4.259   6.980
 7401SOL     OW23101   0.258   1.082   3.481
 7401SOL    HW123102   0.185   1.148   3.466
 7401SOL    HW223103   0.220   0.989   3.479
 7402SOL     OW23104   2.269   0.131   3.737
 7402SOL    HW123105   2.363   0.148   3.708
 7402SOL    HW223106   2.205   0.176   3.673
 7403SOL     OW23107   2.365   2.822   3.811
 7403SOL    HW123108   2.385   2.856   3.903
 7403SOL    HW223109   2.294   2.878   3.769
 7404SOL     OW23110   2.272   0.472   1.259
 7404SOL    HW123111   2.320   0.410   1.321
 7404SOL    HW223112   2.328   0.486   1.177
 7405SOL     OW23113   1.322   4.878   4.368
 7405SOL    HW123114   1.384   4.802   4.344
 7405SOL    HW223115   1.300   4.872   4.465
 7406SOL     OW23116   1.791   3.510   2.623
 7406SOL    HW123117   1.852   3.472   2.692
 7406SOL    HW223118   1.820   3.480   2.533
 7407SOL     OW23119   0.061   6.228   4.583
 7407SOL    HW123120   0.033   6.133   4.596
 7407SOL    HW223121   0.138   6.248   4.644
 7408SOL     OW23122   1.376   4.300   5.753
 7408SOL    HW123123   1.437   4.336   5.683
 7408SOL    HW223124   1.319   4.374   5.789
 7409SOL     OW23125   0.808   0.870   4.735
 7409SOL    HW123126   0.729   0.812   4.751
 7409SOL    HW223127   0.793   0.925   4.653
 7410SOL     OW23128   0.009   4.556   1.181
 7410SOL    HW123129   6.942   4.596   1.177
 7410SOL    HW223130   0.068   4.603   1.115
 7411SOL     OW23131   2.566   6.774   4.352
 7411SOL    HW123132   2.572   6.783   4.451
 7411SOL    HW223133   2.635   6.833   4.309
 7412SOL     OW23134   2.891   0.735   1.174
 7412SOL    HW123135   2.801   0.779   1.174
 7412SOL    HW223136   2.926   0.735   1.268
 7413SOL     OW23137   0.422   3.985   3.505
 7413SOL    HW123138   0.448   3.890   3.489
 7413SOL    HW223139   0.398   3.997   3.602
 7414SOL     OW23140   0.026   0.491   2.460
 7414SOL    HW123141   6.954   0.475   2.481
 7414SOL    HW223142   0.077   0.406   2.467
 7415SOL     OW23143   0.813   3.190   3.421
 7415SOL    HW123144   0.810   3.091   3.431
 7415SOL    HW223145   0.859   3.231   3.499
 7416SOL     OW23146   3.312   0.941   4.043
 7416SOL    HW123147   3.252   1.017   4.017
 7416SOL    HW223148   3.330   0.884   3.963
 7417SOL     OW23149   1.023   6.476   5.726
 7417SOL    HW123150   0.978   6.564   5.742
 7417SOL    HW223151   1.070   6.446   5.809
 7418SOL     OW23152   3.488   4.589   1.175
 7418SOL    HW123153   3.442   4.564   1.089
 7418SOL    HW223154   3.431   4.561   1.252
 7419SOL     OW23155   5.966   1.964   4.874
 7419SOL    HW123156   5.902   2.028   4.831
 7419SOL    HW223157   5.916   1.900   4.932
 7420SOL     OW23158   6.639   6.937   2.359
 7420SOL    HW123159   6.543   6.912   2.341
 7420SOL    HW223160   6.662   6.912   2.453
 7421SOL     OW23161   2.894   3.090   0.975
 7421SOL    HW123162   2.930   3.104   0.883
 7421SOL    HW223163   2.856   3.176   1.009
 7422SOL     OW23164   6.813   3.233   2.204
 7422SOL    HW123165   6.760   3.186   2.275
 7422SOL    HW223166   6.857   3.166   2.145
 7423SOL     OW23167   0.473   4.639   6.125
 7423SOL    HW123168   0.483   4.734   6.097
 7423SOL    HW223169   0.400   4.596   6.072
 7424SOL     OW23170   6.141   1.282   4.064
 7424SOL    HW123171   6.154   1.380   4.051
 7424SOL    HW223172   6.169   1.233   3.982
 7425SOL     OW23173   3.691   4.997   0.029
 7425SOL    HW123174   3.786   5.002   7.023
 7425SOL    HW223175   3.649   4.914   7.015
 7426SOL     OW23176   0.451   2.329   6.512
 7426SOL    HW123177   0.458   2.293   6.605
 7426SOL    HW223178   0.450   2.429   6.515
 7427SOL     OW23179   3.114   5.782   4.509
 7427SOL    HW123180   3.202   5.828   4.513
 7427SOL    HW223181   3.040   5.850   4.510
 7428SOL     OW23182   3.884   1.613   5.511
 7428SOL    HW123183   3.951   1.685   5.489
 7428SOL    HW223184   3.792   1.652   5.509
 7429SOL     OW23185   6.347   6.714   2.845
 7429SOL    HW123186   6.325   6.723   2.748
 7429SOL    HW223187   6.322   6.798   2.893
 7430SOL     OW23188   7.010   4.549   5.600
 7430SOL    HW123189   6.941   4.600   5.651
 7430SOL    HW223190   6.984   4.546   5.503
 7431SOL     OW23191   0.872   3.670   2.077
 7431SOL    HW123192   0.876   3.638   1.982
 7431SOL    HW223193   0.866   3.591   2.138
 7432SOL     OW23194   0.319   6.383   4.057
 7432SOL    HW123195   0.366   6.309   4.106
 7432SOL    HW223196   0.341   6.378   3.960
 7433SOL     OW23197   6.476   4.694   0.729
 7433SOL    HW123198   6.399   4.711   0.791
 7433SOL    HW223199   6.499   4.597   0.731
 7434SOL     OW23200   3.030   1.168   6.669
 7434SOL    HW123201   3.027   1.256   6.716
 7434SOL    HW223202   3.077   1.178   6.582
 7435SOL     OW23203   3.136   6.500   6.303
 7435SOL    HW123204   3.170   6.492   6.396
 7435SOL    HW223205   3.094   6.414   6.275
 7436SOL     OW23206   6.276   2.932   6.520
 7436SOL    HW123207   6.182   2.946   6.490
 7436SOL    HW223208   6.338   2.940   6.443
 7437SOL     OW23209   6.523   5.308   6.749
 7437SOL    HW123210   6.585   5.348   6.816
 7437SOL    HW223211   6.498   5.215   6.778
 7438SOL     OW23212   1.346   4.154   1.484
 7438SOL    HW123213   1.338   4.231   1.421
 7438SOL    HW223214   1.432   4.160   1.535
 7439SOL     OW23215   2.978   6.660   3.916
 7439SOL    HW123216   2.911   6.662   3.842
 7439SOL    HW223217   2.943   6.605   3.992
 7440SOL     OW23218   0.712   3.446   4.777
 7440SOL    HW123219   0.810   3.465   4.775
 7440SOL    HW223220   0.676   3.440   4.684
 7441SOL     OW23221   6.112   6.539   3.889
 7441SOL    HW123222   6.036   6.533   3.953
 7441SOL    HW223223   6.110   6.628   3.843
 7442SOL     OW23224   0.846   0.554   6.410
 7442SOL    HW123225   0.834   0.516   6.502
 7442SOL    HW223226   0.763   0.604   6.383
 7443SOL     OW23227   6.758   1.744   0.796
 7443SOL    HW123228   6.697   1.667   0.810
 7443SOL    HW223229   6.711   1.829   0.821
 7444SOL     OW23230   0.312   3.231   6.418
 7444SOL    HW123231   0.325   3.275   6.329
 7444SOL    HW223232   0.380   3.160   6.431
 7445SOL     OW23233   4.552   1.020   1.408
 7445SOL    HW123234   4.527   1.063   1.322
 7445SOL    HW223235   4.514   1.073   1.484
 7446SOL     OW23236   5.820   4.580   6.977
 7446SOL    HW123237   5.908   4.609   7.015
 7446SOL    HW223238   5.819   4.480   6.969
 7447SOL     OW23239   2.915   4.366   6.172
 7447SOL    HW123240   2.851   4.384   6.098
 7447SOL    HW223241   2.869   4.317   6.246
 7448SOL     OW23242   5.521   6.695   5.768
 7448SOL    HW123243   5.510   6.785   5.809
 7448SOL    HW223244   5.587   6.700   5.693
 7449SOL     OW23245   4.947   2.403   2.339
 7449SOL    HW123246   4.914   2.386   2.246
 7449SOL    HW223247   4.935   2.499   2.362
 7450SOL     OW23248   5.039   2.857   3.927
 7450SOL    HW123249   4.987   2.939   3.949
 7450SOL    HW223250   5.057   2.854   3.829
 7451SOL     OW23251   1.408   0.404   3.277
 7451SOL    HW123252   1.346   0.481   3.259
 7451SOL    HW223253   1.456   0.420   3.363
 7452SOL     OW23254   1.687   0.257   4.826
 7452SOL    HW123255   1.752   0.288   4.896
 7452SOL    HW223256   1.642   0.337   4.785
 7453SOL     OW23257   5.369   6.029   5.002
 7453SOL    HW123258   5.448   6.054   4.947
 7453SOL    HW223259   5.396   6.025   5.098
 7454SOL     OW23260   0.965   3.237   1.653
 7454SOL    HW123261   0.970   3.198   1.561
 7454SOL    HW223262   0.974   3.164   1.721
 7455SOL     OW23263   6.491   1.329   1.786
 7455SOL    HW123264   6.564   1.390   1.818
 7455SOL    HW223265   6.496   1.321   1.687
 7456SOL     OW23266   1.473   2.285   4.782
 7456SOL    HW123267   1.546   2.306   4.847
 7456SOL    HW223268   1.392   2.252   4.831
 7457SOL     OW23269   5.419   0.271   6.143
 7457SOL    HW123270   5.384   0.333   6.072
 7457SOL    HW223271   5.345   0.245   6.204
 7458SOL     OW23272   1.923   6.769   6.818
 7458SOL    HW123273   1.968   6.747   6.732
 7458SOL    HW223274   1.989   6.763   6.893
 7459SOL     OW23275   4.228   0.310   0.163
 7459SOL    HW123276   4.328   0.306   0.163
 7459SOL    HW223277   4.192   0.229   0.116
 7460SOL     OW23278   1.761   5.218   0.374
 7460SOL    HW123279   1.678   5.173   0.340
 7460SOL    HW223280   1.839   5.188   0.319
 7461SOL     OW23281   5.322   1.312   5.514
 7461SOL    HW123282   5.303   1.365   5.597
 7461SOL    HW223283   5.335   1.216   5.538
 7462SOL     OW23284   1.800   2.461   1.552
 7462SOL    HW123285   1.878   2.499   1.600
 7462SOL    HW223286   1.727   2.441   1.617
 7463SOL     OW23287   3.721   3.421   1.695
 7463SOL    HW123288   3.671   3.338   1.669
 7463SOL    HW223289   3.701   3.443   1.791
 7464SOL     OW23290   3.784   6.004   6.622
 7464SOL    HW123291   3.761   6.096   6.591
 7464SOL    HW223292   3.753   5.992   6.716
 7465SOL     OW23293   1.858   0.398   1.267
 7465SOL    HW123294   1.881   0.446   1.182
 7465SOL    HW223295   1.941   0.380   1.319
 7466SOL     OW23296   0.323   0.244   6.467
 7466SOL    HW123297   0.373   0.231   6.381
 7466SOL    HW223298   0.290   0.338   6.472
 7467SOL     OW23299   6.169   2.457   1.360
 7467SOL    HW123300   6.228   2.445   1.280
 7467SOL    HW223301   6.124   2.546   1.354
 7468SOL     OW23302   4.874   2.157   2.447
 7468SOL    HW123303   4.851   2.246   2.408
 7468SOL    HW223304   4.958   2.165   2.501
 7469SOL     OW23305   1.440   0.208   6.751
 7469SOL    HW123306   1.405   0.298   6.776
 7469SOL    HW223307   1.487   0.167   6.829
 7470SOL     OW23308   0.515   2.823   3.183
 7470SOL    HW123309   0.518   2.922   3.169
 7470SOL    HW223310   0.450   2.782   3.119
 7471SOL     OW23311   5.880   6.659   4.494
 7471SOL    HW123312   5.915   6.572   4.459
 7471SOL    HW223313   5.880   6.657   4.594
 7472SOL     OW23314   5.105   6.464   4.124
 7472SOL    HW123315   5.082   6.552   4.083
 7472SOL    HW223316   5.045   6.447   4.202
 7473SOL     OW23317   0.071   4.137   3.327
 7473SOL    HW123318   0.042   4.045   3.299
 7473SOL    HW223319   0.072   4.142   3.427
 7474SOL     OW23320   2.684   1.175   4.730
 7474SOL    HW123321   2.634   1.243   4.676
 7474SOL    HW223322   2.780   1.200   4.733
 7475SOL     OW23323   4.536   1.322   2.501
 7475SOL    HW123324   4.496   1.384   2.434
 7475SOL    HW223325   4.621   1.361   2.537
 7476SOL     OW23326   3.976   6.464   4.430
 7476SOL    HW123327   4.036   6.400   4.383
 7476SOL    HW223328   3.917   6.509   4.364
 7477SOL     OW23329   4.763   0.948   3.950
 7477SOL    HW123330   4.793   0.891   4.026
 7477SOL    HW223331   4.841   1.003   3.918
 7478SOL     OW23332   3.845   3.809   6.178
 7478SOL    HW123333   3.922   3.777   6.123
 7478SOL    HW223334   3.799   3.884   6.132
 7479SOL     OW23335   3.607   1.906   0.564
 7479SOL    HW123336   3.668   1.893   0.641
 7479SOL    HW223337   3.655   1.957   0.492
 7480SOL     OW23338   5.982   5.295   0.954
 7480SOL    HW123339   5.938   5.333   0.873
 7480SOL    HW223340   6.067   5.345   0.973
 7481SOL     OW23341   5.666   5.137   1.533
 7481SOL    HW123342   5.723   5.211   1.569
 7481SOL    HW223343   5.697   5.050   1.571
 7482SOL     OW23344   4.212   1.529   2.139
 7482SOL    HW123345   4.201   1.446   2.083
 7482SOL    HW223346   4.209   1.609   2.080
 7483SOL     OW23347   4.059   2.054   4.989
 7483SOL    HW123348   4.136   2.112   4.961
 7483SOL    HW223349   3.990   2.054   4.917
 7484SOL     OW23350   0.112   6.997   2.147
 7484SOL    HW123351   0.049   0.045   2.176
 7484SOL    HW223352   0.071   6.908   2.167
 7485SOL     OW23353   2.861   6.313   5.281
 7485SOL    HW123354   2.774   6.336   5.238
 7485SOL    HW223355   2.935   6.326   5.215
 7486SOL     OW23356   2.164   6.750   5.484
 7486SOL    HW123357   2.065   6.752   5.469
 7486SOL    HW223358   2.194   6.656   5.495
 7487SOL     OW23359   2.272   6.712   2.374
 7487SOL    HW123360   2.239   6.803   2.397
 7487SOL    HW223361   2.257   6.694   2.277
 7488SOL     OW23362   2.110   6.717   4.977
 7488SOL    HW123363   2.056   6.638   5.008
 7488SOL    HW223364   2.053   6.776   4.921
 7489SOL     OW23365   4.843   2.214   5.143
 7489SOL    HW123366   4.863   2.176   5.053
 7489SOL    HW223367   4.929   2.243   5.187
 7490SOL     OW23368   0.618   1.110   0.976
 7490SOL    HW123369   0.562   1.174   0.924
 7490SOL    HW223370   0.605   1.017   0.940
 7491SOL     OW23371   0.760   5.051   6.918
 7491SOL    HW123372   0.845   5.028   6.870
 7491SOL    HW223373   0.780   5.113   6.994
 7492SOL     OW23374   2.792   1.610   5.061
 7492SOL    HW123375   2.702   1.645   5.087
 7492SOL    HW223376   2.805   1.519   5.100
 7493SOL     OW23377   6.139   4.482   6.388
 7493SOL    HW123378   6.140   4.519   6.481
 7493SOL    HW223379   6.102   4.389   6.389
 7494SOL     OW23380   5.792   0.709   2.603
 7494SOL    HW123381   5.760   0.622   2.566
 7494SOL    HW223382   5.798   0.704   2.702
 7495SOL     OW23383   2.496   1.264   1.534
 7495SOL    HW123384   2.547   1.268   1.448
 7495SOL    HW223385   2.447   1.350   1.548
 7496SOL     OW23386   0.845   4.449   5.984
 7496SOL    HW123387   0.790   4.460   5.901
 7496SOL    HW223388   0.840   4.532   6.039
 7497SOL     OW23389   2.806   4.951   1.420
 7497SOL    HW123390   2.875   4.988   1.481
 7497SOL    HW223391   2.846   4.878   1.364
 7498SOL     OW23392   2.715   1.316   4.092
 7498SOL    HW123393   2.810   1.331   4.065
 7498SOL    HW223394   2.663   1.281   4.015
 7499SOL     OW23395   6.204   0.393   3.204
 7499SOL    HW123396   6.259   0.472   3.231
 7499SOL    HW223397   6.123   0.425   3.155
 7500SOL     OW23398   4.159   6.063   2.632
 7500SOL    HW123399   4.234   6.018   2.682
 7500SOL    HW223400   4.144   6.154   2.670
 7501SOL     OW23401   6.493   4.384   4.545
 7501SOL    HW123402   6.537   4.324   4.478
 7501SOL    HW223403   6.395   4.363   4.550
 7502SOL     OW23404   1.021   1.797   5.350
 7502SOL    HW123405   1.075   1.730   5.299
 7502SOL    HW223406   1.038   1.785   5.448
 7503SOL     OW23407   2.530   1.091   6.731
 7503SOL    HW123408   2.505   1.060   6.640
 7503SOL    HW223409   2.604   1.158   6.725
 7504SOL     OW23410   3.611   6.941   3.520
 7504SOL    HW123411   3.637   6.844   3.516
 7504SOL    HW223412   3.543   6.953   3.593
 7505SOL     OW23413   2.819   0.864   5.467
 7505SOL    HW123414   2.788   0.923   5.393
 7505SOL    HW223415   2.746   0.853   5.535
 7506SOL     OW23416   4.429   0.676   2.762
 7506SOL    HW123417   4.511   0.686   2.819
 7506SOL    HW223418   4.425   0.582   2.726
 7507SOL     OW23419   6.968   6.762   0.488
 7507SOL    HW123420   0.026   6.768   0.432
 7507SOL    HW223421   6.890   6.741   0.430
 7508SOL     OW23422   5.471   6.549   2.719
 7508SOL    HW123423   5.471   6.639   2.762
 7508SOL    HW223424   5.413   6.550   2.638
 7509SOL     OW23425   4.871   4.688   0.566
 7509SOL    HW123426   4.934   4.661   0.638
 7509SOL    HW223427   4.879   4.625   0.489
 7510SOL     OW23428   2.681   3.858   5.307
 7510SOL    HW123429   2.779   3.880   5.302
 7510SOL    HW223430   2.633   3.907   5.234
 7511SOL     OW23431   1.716   0.813   2.403
 7511SOL    HW123432   1.624   0.807   2.364
 7511SOL    HW223433   1.784   0.790   2.332
 7512SOL     OW23434   2.950   4.304   1.273
 7512SOL    HW123435   3.021   4.374   1.268
 7512SOL    HW223436   2.920   4.294   1.368
 7513SOL     OW23437   1.545   2.151   0.779
 7513SOL    HW123438   1.616   2.220   0.760
 7513SOL    HW223439   1.579   2.086   0.846
 7514SOL     OW23440   2.557   5.988   2.385
 7514SOL    HW123441   2.481   6.045   2.356
 7514SOL    HW223442   2.641   6.018   2.338
 7515SOL     OW23443   0.841   6.735   2.603
 7515SOL    HW123444   0.788   6.753   2.520
 7515SOL    HW223445   0.795   6.777   2.681
 7516SOL     OW23446   0.003   5.670   4.426
 7516SOL    HW123447   6.978   5.623   4.353
 7516SOL    HW223448   0.095   5.632   4.434
 7517SOL     OW23449   6.571   3.191   1.523
 7517SOL    HW123450   6.586   3.276   1.474
 7517SOL    HW223451   6.533   3.210   1.614
 7518SOL     OW23452   3.773   5.863   3.768
 7518SOL    HW123453   3.737   5.887   3.678
 7518SOL    HW223454   3.797   5.946   3.818
 7519SOL     OW23455   6.967   6.825   3.722
 7519SOL    HW123456   6.957   6.751   3.788
 7519SOL    HW223457   0.028   6.813   3.671
 7520SOL     OW23458   2.429   0.536   1.807
 7520SOL    HW123459   2.433   0.476   1.887
 7520SOL    HW223460   2.434   0.631   1.837
 7521SOL     OW23461   4.398   4.583   5.436
 7521SOL    HW123462   4.309   4.612   5.400
 7521SOL    HW223463   4.430   4.649   5.503
 7522SOL     OW23464   2.699   0.807   6.384
 7522SOL    HW123465   2.641   0.876   6.427
 7522SOL    HW223466   2.702   0.823   6.285
 7523SOL     OW23467   5.968   1.449   5.686
 7523SOL    HW123468   5.986   1.538   5.643
 7523SOL    HW223469   5.913   1.461   5.768
 7524SOL     OW23470   0.539   2.506   5.720
 7524SOL    HW123471   0.488   2.529   5.637
 7524SOL    HW223472   0.545   2.407   5.729
 7525SOL     OW23473   2.569   0.278   6.180
 7525SOL    HW123474   2.503   0.252   6.251
 7525SOL    HW223475   2.558   0.218   6.101
 7526SOL     OW23476   3.946   2.988   2.914
 7526SOL    HW123477   3.998   2.903   2.911
 7526SOL    HW223478   3.965   3.042   2.831
 7527SOL     OW23479   4.770   4.945   3.040
 7527SOL    HW123480   4.700   4.895   2.988
 7527SOL    HW223481   4.740   4.954   3.135
 7528SOL     OW23482   4.716   2.515   0.469
 7528SOL    HW123483   4.692   2.563   0.553
 7528SOL    HW223484   4.667   2.428   0.465
 7529SOL     OW23485   5.457   1.290   4.237
 7529SOL    HW123486   5.417   1.381   4.248
 7529SOL    HW223487   5.530   1.293   4.168
 7530SOL     OW23488   6.563   3.412   2.492
 7530SOL    HW123489   6.550   3.363   2.406
 7530SOL    HW223490   6.636   3.367   2.545
 7531SOL     OW23491   4.509   2.542   4.464
 7531SOL    HW123492   4.484   2.594   4.382
 7531SOL    HW223493   4.533   2.449   4.438
 7532SOL     OW23494   5.546   5.919   1.700
 7532SOL    HW123495   5.554   5.922   1.600
 7532SOL    HW223496   5.635   5.932   1.741
 7533SOL     OW23497   2.010   1.360   3.147
 7533SOL    HW123498   1.935   1.357   3.081
 7533SOL    HW223499   2.033   1.267   3.174
 7534SOL     OW23500   3.726   6.399   4.949
 7534SOL    HW123501   3.668   6.479   4.933
 7534SOL    HW223502   3.695   6.324   4.891
 7535SOL     OW23503   3.117   1.201   5.760
 7535SOL    HW123504   3.088   1.291   5.729
 7535SOL    HW223505   3.198   1.172   5.709
 7536SOL     OW23506   5.219   4.996   4.845
 7536SOL    HW123507   5.155   5.002   4.769
 7536SOL    HW223508   5.240   4.900   4.865
 7537SOL     OW23509   1.908   4.613   5.255
 7537SOL    HW123510   1.910   4.559   5.171
 7537SOL    HW223511   1.857   4.564   5.326
 7538SOL     OW23512   3.376   3.455   2.446
 7538SOL    HW123513   3.443   3.450   2.520
 7538SOL    HW223514   3.284   3.462   2.484
 7539SOL     OW23515   2.676   2.456   5.125
 7539SOL    HW123516   2.595   2.468   5.182
 7539SOL    HW223517   2.749   2.414   5.179
 7540SOL     OW23518   3.591   0.943   6.120
 7540SOL    HW123519   3.559   0.918   6.212
 7540SOL    HW223520   3.524   1.002   6.076
 7541SOL     OW23521   6.763   3.639   5.192
 7541SOL    HW123522   6.839   3.579   5.168
 7541SOL    HW223523   6.716   3.603   5.272
 7542SOL     OW23524   0.457   6.435   6.341
 7542SOL    HW123525   0.482   6.438   6.244
 7542SOL    HW223526   0.369   6.389   6.351
 7543SOL     OW23527   4.497   1.968   0.621
 7543SOL    HW123528   4.467   2.052   0.665
 7543SOL    HW223529   4.581   1.985   0.569
 7544SOL     OW23530   0.481   1.769   3.440
 7544SOL    HW123531   0.488   1.741   3.344
 7544SOL    HW223532   0.553   1.836   3.460
 7545SOL     OW23533   5.002   6.641   3.083
 7545SOL    HW123534   4.908   6.605   3.080
 7545SOL    HW223535   5.031   6.664   2.991
 7546SOL     OW23536   4.388   0.648   1.180
 7546SOL    HW123537   4.462   0.714   1.195
 7546SOL    HW223538   4.321   0.657   1.253
 7547SOL     OW23539   3.772   6.316   0.419
 7547SOL    HW123540   3.802   6.396   0.471
 7547SOL    HW223541   3.678   6.293   0.446
 7548SOL     OW23542   2.659   1.851   0.552
 7548SOL    HW123543   2.704   1.762   0.557
 7548SOL    HW223544   2.671   1.899   0.639
 7549SOL     OW23545   5.379   1.836   1.714
 7549SOL    HW123546   5.380   1.796   1.806
 7549SOL    HW223547   5.310   1.909   1.711
 7550SOL     OW23548   2.619   4.926   2.614
 7550SOL    HW123549   2.630   4.974   2.701
 7550SOL    HW223550   2.691   4.957   2.551
 7551SOL     OW23551   4.853   4.113   6.788
 7551SOL    HW123552   4.772   4.172   6.797
 7551SOL    HW223553   4.852   4.070   6.697
 7552SOL     OW23554   2.091   5.720   3.759
 7552SOL    HW123555   2.021   5.660   3.720
 7552SOL    HW223556   2.165   5.732   3.693
 7553SOL     OW23557   3.601   4.907   6.061
 7553SOL    HW123558   3.679   4.922   6.123
 7553SOL    HW223559   3.519   4.949   6.101
 7554SOL     OW23560   5.389   1.151   0.896
 7554SOL    HW123561   5.310   1.172   0.838
 7554SOL    HW223562   5.358   1.126   0.987
 7555SOL     OW23563   1.540   5.195   4.762
 7555SOL    HW123564   1.615   5.182   4.826
 7555SOL    HW223565   1.455   5.214   4.812
 7556SOL     OW23566   0.286   2.222   5.614
 7556SOL    HW123567   0.279   2.303   5.556
 7556SOL    HW223568   0.206   2.216   5.674
 7557SOL     OW23569   5.377   3.313   5.713
 7557SOL    HW123570   5.421   3.339   5.799
 7557SOL    HW223571   5.445   3.304   5.641
 7558SOL     OW23572   2.310   2.921   4.092
 7558SOL    HW123573   2.339   2.874   4.175
 7558SOL    HW223574   2.231   2.979   4.112
 7559SOL     OW23575   6.589   5.341   1.506
 7559SOL    HW123576   6.494   5.358   1.531
 7559SOL    HW223577   6.649   5.363   1.583
 7560SOL     OW23578   4.983   6.481   7.004
 7560SOL    HW123579   5.050   6.410   0.004
 7560SOL    HW223580   4.954   6.468   6.909
 7561SOL     OW23581   0.620   3.151   0.026
 7561SOL    HW123582   0.714   3.173   0.002
 7561SOL    HW223583   0.617   3.060   0.068
 7562SOL     OW23584   4.206   5.940   5.022
 7562SOL    HW123585   4.141   5.982   4.958
 7562SOL    HW223586   4.236   5.852   4.985
 7563SOL     OW23587   2.803   0.098   0.565
 7563SOL    HW123588   2.726   0.057   0.515
 7563SOL    HW223589   2.795   0.197   0.562
 7564SOL     OW23590   5.139   1.218   3.565
 7564SOL    HW123591   5.041   1.210   3.549
 7564SOL    HW223592   5.177   1.288   3.505
 7565SOL     OW23593   5.088   4.275   6.266
 7565SOL    HW123594   5.126   4.193   6.308
 7565SOL    HW223595   5.033   4.325   6.332
 7566SOL     OW23596   0.793   4.779   3.630
 7566SOL    HW123597   0.746   4.703   3.675
 7566SOL    HW223598   0.880   4.797   3.676
 7567SOL     OW23599   1.474   2.975   5.581
 7567SOL    HW123600   1.382   2.989   5.615
 7567SOL    HW223601   1.521   3.063   5.571
 7568SOL     OW23602   5.933   5.979   4.363
 7568SOL    HW123603   5.971   5.896   4.322
 7568SOL    HW223604   5.848   6.003   4.317
 7569SOL     OW23605   4.223   5.438   6.269
 7569SOL    HW123606   4.242   5.353   6.318
 7569SOL    HW223607   4.178   5.418   6.182
 7570SOL     OW23608   5.609   4.975   5.387
 7570SOL    HW123609   5.588   5.070   5.412
 7570SOL    HW223610   5.673   4.937   5.454
 7571SOL     OW23611   5.206   4.833   1.814
 7571SOL    HW123612   5.254   4.917   1.840
 7571SOL    HW223613   5.200   4.772   1.893
 7572SOL     OW23614   5.124   0.619   3.705
 7572SOL    HW123615   5.056   0.693   3.707
 7572SOL    HW223616   5.160   0.606   3.797
 7573SOL     OW23617   5.645   5.439   4.455
 7573SOL    HW123618   5.743   5.441   4.475
 7573SOL    HW223619   5.630   5.469   4.361
 7574SOL     OW23620   6.505   1.287   4.712
 7574SOL    HW123621   6.475   1.280   4.617
 7574SOL    HW223622   6.468   1.370   4.753
 7575SOL     OW23623   4.690   0.741   5.770
 7575SOL    HW123624   4.647   0.772   5.854
 7575SOL    HW223625   4.723   0.820   5.718
 7576SOL     OW23626   6.334   5.377   0.210
 7576SOL    HW123627   6.389   5.315   0.155
 7576SOL    HW223628   6.282   5.324   0.277
 7577SOL     OW23629   6.809   6.953   5.209
 7577SOL    HW123630   6.868   0.009   5.199
 7577SOL    HW223631   6.718   6.981   5.238
 7578SOL     OW23632   1.639   6.543   3.644
 7578SOL    HW123633   1.593   6.478   3.583
 7578SOL    HW223634   1.729   6.507   3.669
 7579SOL     OW23635   4.146   1.927   2.284
 7579SOL    HW123636   4.228   1.874   2.307
 7579SOL    HW223637   4.084   1.870   2.230
 7580SOL     OW23638   1.281   3.719   3.943
 7580SOL    HW123639   1.322   3.808   3.922
 7580SOL    HW223640   1.353   3.652   3.960
 7581SOL     OW23641   4.603   0.788   1.252
 7581SOL    HW123642   4.582   0.875   1.297
 7581SOL    HW223643   4.679   0.801   1.188
 7582SOL     OW23644   3.719   1.720   0.360
 7582SOL    HW123645   3.797   1.709   0.422
 7582SOL    HW223646   3.646   1.770   0.408
 7583SOL     OW23647   6.292   3.647   1.915
 7583SOL    HW123648   6.333   3.738   1.917
 7583SOL    HW223649   6.230   3.636   1.993
 7584SOL     OW23650   2.961   6.544   1.435
 7584SOL    HW123651   2.929   6.541   1.530
 7584SOL    HW223652   2.950   6.454   1.393
 7585SOL     OW23653   1.473   3.061   5.934
 7585SOL    HW123654   1.554   3.004   5.918
 7585SOL    HW223655   1.473   3.138   5.870
 7586SOL     OW23656   3.420   0.951   3.022
 7586SOL    HW123657   3.516   0.974   3.010
 7586SOL    HW223658   3.386   0.988   3.108
 7587SOL     OW23659   3.373   1.691   6.733
 7587SOL    HW123660   3.419   1.617   6.684
 7587SOL    HW223661   3.315   1.742   6.670
 7588SOL     OW23662   0.287   3.422   1.903
 7588SOL    HW123663   0.190   3.439   1.917
 7588SOL    HW223664   0.336   3.438   1.989
 7589SOL     OW23665   6.001   6.626   0.410
 7589SOL    HW123666   5.940   6.575   0.348
 7589SOL    HW223667   5.947   6.670   0.481
 7590SOL     OW23668   2.941   1.894   6.365
 7590SOL    HW123669   2.920   1.855   6.454
 7590SOL    HW223670   2.912   1.990   6.363
 7591SOL     OW23671   0.461   5.301   0.622
 7591SOL    HW123672   0.386   5.363   0.644
 7591SOL    HW223673   0.535   5.353   0.579
 7592SOL     OW23674   0.359   4.638   6.908
 7592SOL    HW123675   0.263   4.650   6.882
 7592SOL    HW223676   0.407   4.590   6.834
 7593SOL     OW23677   5.892   2.387   6.741
 7593SOL    HW123678   5.884   2.334   6.825
 7593SOL    HW223679   5.805   2.385   6.692
 7594SOL     OW23680   0.194   4.796   2.235
 7594SOL    HW123681   0.255   4.723   2.202
 7594SOL    HW223682   0.186   4.789   2.335
 7595SOL     OW23683   0.422   2.628   6.131
 7595SOL    HW123684   0.381   2.646   6.042
 7595SOL    HW223685   0.433   2.714   6.181
 7596SOL     OW23686   4.620   5.279   2.647
 7596SOL    HW123687   4.677   5.361   2.641
 7596SOL    HW223688   4.584   5.270   2.739
 7597SOL     OW23689   2.832   5.482   1.761
 7597SOL    HW123690   2.749   5.527   1.793
 7597SOL    HW223691   2.899   5.477   1.835
 7598SOL     OW23692   6.218   0.881   2.675
 7598SOL    HW123693   6.289   0.940   2.714
 7598SOL    HW223694   6.162   0.843   2.749
 7599SOL     OW23695   5.125   0.908   3.742
 7599SOL    HW123696   5.215   0.881   3.708
 7599SOL    HW223697   5.058   0.904   3.668
 7600SOL     OW23698   2.004   0.550   2.291
 7600SOL    HW123699   2.041   0.571   2.382
 7600SOL    HW223700   1.975   0.635   2.247
 7601SOL     OW23701   1.567   5.425   2.749
 7601SOL    HW123702   1.565   5.519   2.784
 7601SOL    HW223703   1.488   5.375   2.784
 7602SOL     OW23704   1.728   3.809   5.619
 7602SOL    HW123705   1.761   3.794   5.712
 7602SOL    HW223706   1.777   3.886   5.578
 7603SOL     OW23707   1.336   5.932   6.310
 7603SOL    HW123708   1.281   5.890   6.238
 7603SOL    HW223709   1.283   6.004   6.355
 7604SOL     OW23710   2.356   5.556   3.943
 7604SOL    HW123711   2.286   5.599   4.000
 7604SOL    HW223712   2.324   5.551   3.848
 7605SOL     OW23713   1.284   5.956   0.399
 7605SOL    HW123714   1.190   5.950   0.433
 7605SOL    HW223715   1.337   5.881   0.436
 7606SOL     OW23716   0.015   2.289   2.381
 7606SOL    HW123717   6.971   2.217   2.373
 7606SOL    HW223718   0.040   2.301   2.478
 7607SOL     OW23719   4.187   6.446   0.211
 7607SOL    HW123720   4.102   6.488   0.180
 7607SOL    HW223721   4.248   6.431   0.133
 7608SOL     OW23722   3.421   3.520   3.441
 7608SOL    HW123723   3.332   3.536   3.486
 7608SOL    HW223724   3.479   3.467   3.502
 7609SOL     OW23725   6.777   3.839   3.414
 7609SOL    HW123726   6.864   3.866   3.371
 7609SOL    HW223727   6.703   3.849   3.348
 7610SOL     OW23728   5.985   0.684   0.126
 7610SOL    HW123729   5.974   0.781   0.103
 7610SOL    HW223730   5.967   0.629   0.044
 7611SOL     OW23731   0.801   2.105   0.216
 7611SOL    HW123732   0.807   2.151   0.127
 7611SOL    HW223733   0.739   2.156   0.276
 7612SOL     OW23734   4.241   2.184   4.521
 7612SOL    HW123735   4.147   2.156   4.500
 7612SOL    HW223736   4.302   2.107   4.509
 7613SOL     OW23737   5.014   1.860   2.040
 7613SOL    HW123738   5.040   1.951   2.008
 7613SOL    HW223739   4.970   1.867   2.129
 7614SOL     OW23740   4.463   2.611   1.388
 7614SOL    HW123741   4.453   2.674   1.465
 7614SOL    HW223742   4.553   2.567   1.393
 7615SOL     OW23743   5.243   4.363   5.785
 7615SOL    HW123744   5.200   4.306   5.715
 7615SOL    HW223745   5.254   4.456   5.750
 7616SOL     OW23746   0.470   4.607   4.014
 7616SOL    HW123747   0.489   4.683   4.076
 7616SOL    HW223748   0.375   4.610   3.984
 7617SOL     OW23749   2.959   5.879   2.783
 7617SOL    HW123750   2.868   5.886   2.743
 7617SOL    HW223751   2.961   5.928   2.870
 7618SOL     OW23752   0.793   2.431   0.174
 7618SOL    HW123753   0.805   2.371   0.095
 7618SOL    HW223754   0.784   2.526   0.142
 7619SOL     OW23755   5.985   3.232   4.330
 7619SOL    HW123756   6.046   3.159   4.360
 7619SOL    HW223757   5.931   3.265   4.408
 7620SOL     OW23758   4.198   5.417   0.077
 7620SOL    HW123759   4.103   5.389   0.081
 7620SOL    HW223760   4.212   5.476   7.021
 7621SOL     OW23761   0.776   1.369   0.751
 7621SOL    HW123762   0.746   1.274   0.760
 7621SOL    HW223763   0.736   1.424   0.824
 7622SOL     OW23764   5.204   4.404   1.710
 7622SOL    HW123765   5.154   4.489   1.690
 7622SOL    HW223766   5.153   4.350   1.777
 7623SOL     OW23767   4.233   4.702   6.408
 7623SOL    HW123768   4.316   4.648   6.392
 7623SOL    HW223769   4.167   4.647   6.459
 7624SOL     OW23770   0.445   2.797   4.451
 7624SOL    HW123771   0.515   2.735   4.415
 7624SOL    HW223772   0.487   2.884   4.476
 7625SOL     OW23773   4.582   0.677   1.513
 7625SOL    HW123774   4.497   0.714   1.551
 7625SOL    HW223775   4.604   0.726   1.428
 7626SOL     OW23776   6.944   6.465   5.242
 7626SOL    HW123777   6.921   6.391   5.306
 7626SOL    HW223778   6.915   6.440   5.150
 7627SOL     OW23779   5.830   3.412   6.931
 7627SOL    HW123780   5.814   3.437   0.002
 7627SOL    HW223781   5.862   3.493   6.881
 7628SOL     OW23782   3.296   0.577   1.202
 7628SOL    HW123783   3.238   0.506   1.243
 7628SOL    HW223784   3.338   0.541   1.119
 7629SOL     OW23785   6.190   6.667   2.582
 7629SOL    HW123786   6.147   6.590   2.629
 7629SOL    HW223787   6.268   6.635   2.530
 7630SOL     OW23788   5.835   6.366   1.811
 7630SOL    HW123789   5.862   6.275   1.843
 7630SOL    HW223790   5.794   6.417   1.887
 7631SOL     OW23791   0.716   1.788   5.533
 7631SOL    HW123792   0.721   1.803   5.632
 7631SOL    HW223793   0.723   1.875   5.485
 7632SOL     OW23794   3.539   2.342   1.634
 7632SOL    HW123795   3.581   2.395   1.561
 7632SOL    HW223796   3.586   2.360   1.721
 7633SOL     OW23797   5.014   2.583   0.135
 7633SOL    HW123798   5.016   2.484   0.144
 7633SOL    HW223799   5.103   2.616   0.104
 7634SOL     OW23800   1.107   1.239   1.923
 7634SOL    HW123801   1.160   1.300   1.983
 7634SOL    HW223802   1.106   1.277   1.831
 7635SOL     OW23803   2.568   5.172   5.513
 7635SOL    HW123804   2.667   5.167   5.506
 7635SOL    HW223805   2.529   5.082   5.497
 7636SOL     OW23806   0.953   1.240   3.213
 7636SOL    HW123807   0.894   1.311   3.251
 7636SOL    HW223808   1.024   1.217   3.280
 7637SOL     OW23809   2.391   6.335   2.447
 7637SOL    HW123810   2.382   6.308   2.351
 7637SOL    HW223811   2.305   6.374   2.479
 7638SOL     OW23812   4.689   6.000   2.140
 7638SOL    HW123813   4.683   5.926   2.073
 7638SOL    HW223814   4.598   6.022   2.174
 7639SOL     OW23815   1.385   2.183   0.540
 7639SOL    HW123816   1.456   2.175   0.609
 7639SOL    HW223817   1.301   2.218   0.583
 7640SOL     OW23818   3.338   2.427   0.332
 7640SOL    HW123819   3.268   2.388   0.272
 7640SOL    HW223820   3.372   2.356   0.393
 7641SOL     OW23821   0.511   4.317   1.413
 7641SOL    HW123822   0.585   4.382   1.395
 7641SOL    HW223823   0.513   4.289   1.509
 7642SOL     OW23824   2.274   1.285   2.993
 7642SOL    HW123825   2.224   1.249   3.071
 7642SOL    HW223826   2.339   1.216   2.960
 7643SOL     OW23827   4.675   1.749   3.844
 7643SOL    HW123828   4.735   1.712   3.914
 7643SOL    HW223829   4.729   1.798   3.776
 7644SOL     OW23830   6.071   1.891   2.569
 7644SOL    HW123831   6.156   1.896   2.620
 7644SOL    HW223832   5.996   1.871   2.631
 7645SOL     OW23833   4.640   4.306   5.955
 7645SOL    HW123834   4.665   4.314   6.052
 7645SOL    HW223835   4.710   4.252   5.908
 7646SOL     OW23836   2.142   2.359   2.329
 7646SOL    HW123837   2.161   2.398   2.239
 7646SOL    HW223838   2.173   2.424   2.400
 7647SOL     OW23839   1.008   2.912   1.325
 7647SOL    HW123840   0.966   2.823   1.307
 7647SOL    HW223841   1.089   2.923   1.267
 7648SOL     OW23842   3.972   2.182   3.863
 7648SOL    HW123843   4.010   2.251   3.802
 7648SOL    HW223844   4.046   2.126   3.900
 7649SOL     OW23845   1.433   0.825   2.642
 7649SOL    HW123846   1.472   0.914   2.617
 7649SOL    HW223847   1.388   0.785   2.563
 7650SOL     OW23848   5.723   3.579   1.406
 7650SOL    HW123849   5.804   3.563   1.350
 7650SOL    HW223850   5.695   3.493   1.450
 7651SOL     OW23851   2.556   0.026   4.718
 7651SOL    HW123852   2.535   6.969   4.664
 7651SOL    HW223853   2.643   0.064   4.688
 7652SOL     OW23854   0.270   4.283   4.044
 7652SOL    HW123855   0.324   4.357   4.084
 7652SOL    HW223856   0.298   4.196   4.083
 7653SOL     OW23857   2.639   1.755   0.941
 7653SOL    HW123858   2.687   1.758   1.028
 7653SOL    HW223859   2.656   1.666   0.897
 7654SOL     OW23860   4.969   3.303   3.498
 7654SOL    HW123861   5.041   3.240   3.468
 7654SOL    HW223862   4.982   3.326   3.595
 7655SOL     OW23863   3.920   0.141   3.637
 7655SOL    HW123864   3.892   0.173   3.546
 7655SOL    HW223865   4.003   0.085   3.628
 7656SOL     OW23866   1.145   5.535   5.691
 7656SOL    HW123867   1.239   5.565   5.672
 7656SOL    HW223868   1.086   5.561   5.615
 7657SOL     OW23869   2.655   2.480   3.048
 7657SOL    HW123870   2.665   2.394   3.099
 7657SOL    HW223871   2.695   2.555   3.101
 7658SOL     OW23872   3.876   6.262   5.261
 7658SOL    HW123873   3.887   6.354   5.221
 7658SOL    HW223874   3.880   6.194   5.188
 7659SOL     OW23875   5.554   5.730   6.825
 7659SOL    HW123876   5.509   5.641   6.818
 7659SOL    HW223877   5.649   5.722   6.795
 7660SOL     OW23878   5.978   5.657   4.210
 7660SOL    HW123879   6.066   5.622   4.178
 7660SOL    HW223880   5.973   5.649   4.310
 7661SOL     OW23881   6.127   2.365   4.753
 7661SOL    HW123882   6.035   2.333   4.730
 7661SOL    HW223883   6.191   2.337   4.681
 7662SOL     OW23884   0.840   2.230   2.773
 7662SOL    HW123885   0.825   2.156   2.708
 7662SOL    HW223886   0.911   2.204   2.838
 7663SOL     OW23887   6.035   6.748   6.277
 7663SOL    HW123888   6.086   6.729   6.360
 7663SOL    HW223889   5.986   6.834   6.287
 7664SOL     OW23890   3.946   1.254   2.604
 7664SOL    HW123891   3.869   1.280   2.545
 7664SOL    HW223892   4.002   1.334   2.623
 7665SOL     OW23893   4.181   0.390   4.117
 7665SOL    HW123894   4.240   0.377   4.197
 7665SOL    HW223895   4.189   0.484   4.084
 7666SOL     OW23896   0.389   6.831   1.010
 7666SOL    HW123897   0.445   6.839   1.092
 7666SOL    HW223898   0.445   6.848   0.929
 7667SOL     OW23899   4.461   6.041   1.373
 7667SOL    HW123900   4.435   5.947   1.398
 7667SOL    HW223901   4.441   6.057   1.277
 7668SOL     OW23902   2.907   4.578   0.787
 7668SOL    HW123903   2.827   4.631   0.813
 7668SOL    HW223904   2.977   4.587   0.858
 7669SOL     OW23905   5.171   1.612   5.315
 7669SOL    HW123906   5.258   1.574   5.284
 7669SOL    HW223907   5.103   1.538   5.323
 7670SOL     OW23908   1.340   5.833   5.867
 7670SOL    HW123909   1.391   5.754   5.902
 7670SOL    HW223910   1.388   5.873   5.790
 7671SOL     OW23911   4.353   0.976   4.703
 7671SOL    HW123912   4.362   0.969   4.802
 7671SOL    HW223913   4.398   0.897   4.660
 7672SOL     OW23914   5.812   6.202   3.789
 7672SOL    HW123915   5.890   6.221   3.847
 7672SOL    HW223916   5.728   6.205   3.843
 7673SOL     OW23917   2.224   5.438   0.465
 7673SOL    HW123918   2.144   5.440   0.525
 7673SOL    HW223919   2.225   5.520   0.408
 7674SOL     OW23920   6.509   2.420   4.060
 7674SOL    HW123921   6.506   2.410   3.960
 7674SOL    HW223922   6.422   2.390   4.098
 7675SOL     OW23923   5.052   1.000   3.207
 7675SOL    HW123924   5.079   0.963   3.296
 7675SOL    HW223925   5.086   0.941   3.134
 7676SOL     OW23926   1.327   2.170   0.242
 7676SOL    HW123927   1.313   2.183   0.340
 7676SOL    HW223928   1.314   2.074   0.219
 7677SOL     OW23929   0.325   3.871   1.913
 7677SOL    HW123930   0.265   3.882   1.992
 7677SOL    HW223931   0.379   3.787   1.924
 7678SOL     OW23932   1.691   1.457   5.781
 7678SOL    HW123933   1.607   1.432   5.829
 7678SOL    HW223934   1.751   1.377   5.774
 7679SOL     OW23935   1.684   6.374   5.158
 7679SOL    HW123936   1.742   6.421   5.224
 7679SOL    HW223937   1.736   6.302   5.112
 7680SOL     OW23938   1.885   2.366   0.091
 7680SOL    HW123939   1.922   2.320   0.172
 7680SOL    HW223940   1.800   2.413   0.115
 7681SOL     OW23941   2.892   6.789   0.443
 7681SOL    HW123942   2.945   6.704   0.438
 7681SOL    HW223943   2.826   6.782   0.518
 7682SOL     OW23944   3.013   0.181   2.018
 7682SOL    HW123945   3.079   0.248   2.054
 7682SOL    HW223946   2.922   0.201   2.054
 7683SOL     OW23947   6.531   1.925   4.455
 7683SOL    HW123948   6.572   1.906   4.366
 7683SOL    HW223949   6.506   1.838   4.500
 7684SOL     OW23950   5.263   2.029   0.661
 7684SOL    HW123951   5.303   2.118   0.684
 7684SOL    HW223952   5.180   2.044   0.607
 7685SOL     OW23953   3.491   3.361   0.049
 7685SOL    HW123954   3.529   3.269   0.047
 7685SOL    HW223955   3.564   3.428   0.060
 7686SOL     OW23956   5.107   0.382   3.554
 7686SOL    HW123957   5.061   0.309   3.604
 7686SOL    HW223958   5.123   0.459   3.615
 7687SOL     OW23959   5.864   5.549   5.494
 7687SOL    HW123960   5.866   5.450   5.482
 7687SOL    HW223961   5.819   5.591   5.415
 7688SOL     OW23962   0.071   0.795   5.901
 7688SOL    HW123963   0.055   0.808   5.803
 7688SOL    HW223964   0.153   0.847   5.927
 7689SOL     OW23965   5.500   5.631   3.433
 7689SOL    HW123966   5.547   5.717   3.414
 7689SOL    HW223967   5.550   5.579   3.503
 7690SOL     OW23968   6.008   5.021   1.070
 7690SOL    HW123969   5.947   4.956   1.025
 7690SOL    HW223970   5.989   5.113   1.036
 7691SOL     OW23971   5.180   2.550   4.264
 7691SOL    HW123972   5.177   2.639   4.218
 7691SOL    HW223973   5.105   2.544   4.329
 7692SOL     OW23974   0.782   6.807   1.371
 7692SOL    HW123975   0.787   6.811   1.471
 7692SOL    HW223976   0.830   6.886   1.332
 7693SOL     OW23977   4.409   6.661   0.885
 7693SOL    HW123978   4.319   6.676   0.926
 7693SOL    HW223979   4.479   6.675   0.955
 7694SOL     OW23980   6.979   4.390   4.211
 7694SOL    HW123981   0.024   4.426   4.274
 7694SOL    HW223982   6.992   4.431   4.120
 7695SOL     OW23983   3.814   6.926   0.614
 7695SOL    HW123984   3.796   6.838   0.659
 7695SOL    HW223985   3.728   6.963   0.577
 7696SOL     OW23986   6.711   1.786   4.916
 7696SOL    HW123987   6.741   1.756   4.826
 7696SOL    HW223988   6.756   1.872   4.940
 7697SOL     OW23989   3.036   0.674   2.542
 7697SOL    HW123990   3.093   0.719   2.473
 7697SOL    HW223991   3.063   0.706   2.633
 7698SOL     OW23992   0.181   3.066   4.615
 7698SOL    HW123993   0.227   2.992   4.665
 7698SOL    HW223994   0.174   3.041   4.518
 7699SOL     OW23995   3.918   5.590   6.679
 7699SOL    HW123996   3.953   5.578   6.586
 7699SOL    HW223997   3.899   5.687   6.696
 7700SOL     OW23998   4.533   6.404   5.375
 7700SOL    HW123999   4.558   6.501   5.381
 7700SOL    HW224000   4.616   6.349   5.367
 7701SOL     OW24001   6.688   1.857   6.708
 7701SOL    HW124002   6.684   1.945   6.659
 7701SOL    HW224003   6.619   1.857   6.780
 7702SOL     OW24004   3.119   6.385   5.859
 7702SOL    HW124005   3.156   6.459   5.915
 7702SOL    HW224006   3.094   6.421   5.768
 7703SOL     OW24007   0.068   1.467   4.707
 7703SOL    HW124008   0.048   1.369   4.712
 7703SOL    HW224009   0.032   1.512   4.788
 7704SOL     OW24010   4.930   4.893   5.475
 7704SOL    HW124011   4.897   4.804   5.443
 7704SOL    HW224012   4.852   4.951   5.501
 7705SOL     OW24013   3.481   5.222   6.353
 7705SOL    HW124014   3.451   5.228   6.257
 7705SOL    HW224015   3.425   5.282   6.409
 7706SOL     OW24016   4.950   1.363   5.595
 7706SOL    HW124017   5.016   1.327   5.660
 7706SOL    HW224018   4.858   1.360   5.634
 7707SOL     OW24019   1.069   5.938   6.682
 7707SOL    HW124020   1.158   5.919   6.640
 7707SOL    HW224021   1.073   6.025   6.732
 7708SOL     OW24022   4.913   6.102   5.266
 7708SOL    HW124023   4.922   6.039   5.189
 7708SOL    HW224024   4.827   6.154   5.257
 7709SOL     OW24025   5.378   3.823   1.927
 7709SOL    HW124026   5.372   3.922   1.911
 7709SOL    HW224027   5.435   3.805   2.006
 7710SOL     OW24028   2.761   0.881   0.922
 7710SOL    HW124029   2.769   0.795   0.972
 7710SOL    HW224030   2.697   0.941   0.971
 7711SOL     OW24031   6.255   6.286   5.345
 7711SOL    HW124032   6.250   6.308   5.443
 7711SOL    HW224033   6.290   6.193   5.334
 7712SOL     OW24034   6.340   3.805   1.422
 7712SOL    HW124035   6.433   3.841   1.424
 7712SOL    HW224036   6.301   3.808   1.514
 7713SOL     OW24037   1.748   4.331   0.237
 7713SOL    HW124038   1.737   4.406   0.171
 7713SOL    HW224039   1.845   4.310   0.248
 7714SOL     OW24040   6.537   5.699   5.214
 7714SOL    HW124041   6.571   5.618   5.263
 7714SOL    HW224042   6.586   5.780   5.245
 7715SOL     OW24043   4.946   1.548   1.129
 7715SOL    HW124044   4.886   1.515   1.056
 7715SOL    HW224045   4.922   1.502   1.214
 7716SOL     OW24046   6.142   3.571   3.584
 7716SOL    HW124047   6.211   3.643   3.574
 7716SOL    HW224048   6.066   3.605   3.640
 7717SOL     OW24049   2.535   1.431   4.880
 7717SOL    HW124050   2.559   1.337   4.902
 7717SOL    HW224051   2.617   1.483   4.857
 7718SOL     OW24052   1.943   1.841   2.765
 7718SOL    HW124053   1.874   1.913   2.762
 7718SOL    HW224054   1.900   1.753   2.747
 7719SOL     OW24055   0.011   3.896   3.662
 7719SOL    HW124056   0.065   3.846   3.730
 7719SOL    HW224057   6.943   3.858   3.659
 7720SOL     OW24058   6.892   6.982   0.249
 7720SOL    HW124059   6.813   6.921   0.257
 7720SOL    HW224060   6.887   0.028   0.319
 7721SOL     OW24061   1.334   4.476   2.692
 7721SOL    HW124062   1.328   4.435   2.601
 7721SOL    HW224063   1.430   4.493   2.714
 7722SOL     OW24064   0.519   5.345   2.311
 7722SOL    HW124065   0.474   5.405   2.377
 7722SOL    HW224066   0.485   5.252   2.321
 7723SOL     OW24067   6.571   4.251   0.180
 7723SOL    HW124068   6.565   4.351   0.173
 7723SOL    HW224069   6.611   4.214   0.097
 7724SOL     OW24070   2.294   4.073   1.942
 7724SOL    HW124071   2.321   4.168   1.960
 7724SOL    HW224072   2.342   4.040   1.860
 7725SOL     OW24073   5.446   2.777   3.251
 7725SOL    HW124074   5.458   2.728   3.164
 7725SOL    HW224075   5.366   2.742   3.299
 7726SOL     OW24076   0.281   5.684   4.009
 7726SOL    HW124077   0.239   5.616   3.949
 7726SOL    HW224078   0.211   5.745   4.045
 7727SOL     OW24079   6.665   1.394   3.020
 7727SOL    HW124080   6.581   1.448   3.032
 7727SOL    HW224081   6.660   1.312   3.077
 7728SOL     OW24082   1.211   4.048   3.480
 7728SOL    HW124083   1.143   4.042   3.554
 7728SOL    HW224084   1.255   4.137   3.483
 7729SOL     OW24085   6.049   2.925   1.738
 7729SOL    HW124086   6.079   3.021   1.740
 7729SOL    HW224087   6.072   2.881   1.825
 7730SOL     OW24088   5.902   5.352   1.761
 7730SOL    HW124089   5.964   5.430   1.758
 7730SOL    HW224090   5.851   5.346   1.675
 7731SOL     OW24091   6.138   1.146   0.695
 7731SOL    HW124092   6.141   1.093   0.780
 7731SOL    HW224093   6.047   1.141   0.655
 7732SOL     OW24094   4.534   6.070   0.970
 7732SOL    HW124095   4.615   6.119   1.003
 7732SOL    HW224096   4.453   6.102   1.020
 7733SOL     OW24097   4.477   6.627   2.157
 7733SOL    HW124098   4.402   6.693   2.171
 7733SOL    HW224099   4.469   6.586   2.066
 7734SOL     OW24100   1.995   4.248   3.774
 7734SOL    HW124101   2.080   4.299   3.768
 7734SOL    HW224102   1.949   4.250   3.685
 7735SOL     OW24103   3.799   5.727   6.346
 7735SOL    HW124104   3.740   5.694   6.421
 7735SOL    HW224105   3.751   5.797   6.295
 7736SOL     OW24106   5.140   4.513   6.700
 7736SOL    HW124107   5.114   4.435   6.757
 7736SOL    HW224108   5.199   4.482   6.625
 7737SOL     OW24109   4.209   0.728   1.390
 7737SOL    HW124110   4.262   0.765   1.466
 7737SOL    HW224111   4.144   0.661   1.425
 7738SOL     OW24112   1.779   5.789   6.860
 7738SOL    HW124113   1.878   5.802   6.852
 7738SOL    HW224114   1.747   5.824   6.948
 7739SOL     OW24115   0.480   1.369   2.000
 7739SOL    HW124116   0.515   1.300   1.936
 7739SOL    HW224117   0.393   1.404   1.967
 7740SOL     OW24118   1.033   0.600   2.966
 7740SOL    HW124119   1.006   0.503   2.961
 7740SOL    HW224120   1.028   0.640   2.875
 7741SOL     OW24121   1.051   6.117   4.298
 7741SOL    HW124122   0.970   6.072   4.336
 7741SOL    HW224123   1.043   6.216   4.308
 7742SOL     OW24124   6.781   2.317   3.433
 7742SOL    HW124125   6.780   2.398   3.373
 7742SOL    HW224126   6.772   2.235   3.377
 7743SOL     OW24127   4.468   2.457   6.233
 7743SOL    HW124128   4.442   2.367   6.267
 7743SOL    HW224129   4.497   2.450   6.138
 7744SOL     OW24130   0.446   6.179   4.175
 7744SOL    HW124131   0.423   6.104   4.113
 7744SOL    HW224132   0.398   6.167   4.262
 7745SOL     OW24133   3.413   2.080   5.731
 7745SOL    HW124134   3.508   2.057   5.713
 7745SOL    HW224135   3.369   2.006   5.782
 7746SOL     OW24136   2.496   6.776   0.039
 7746SOL    HW124137   2.504   6.858   7.007
 7746SOL    HW224138   2.406   6.774   0.083
 7747SOL     OW24139   4.043   5.865   1.388
 7747SOL    HW124140   4.021   5.921   1.468
 7747SOL    HW224141   4.116   5.910   1.336
 7748SOL     OW24142   3.075   4.076   5.585
 7748SOL    HW124143   3.037   4.013   5.517
 7748SOL    HW224144   3.002   4.135   5.620
 7749SOL     OW24145   4.015   3.546   6.060
 7749SOL    HW124146   3.950   3.586   5.995
 7749SOL    HW224147   3.980   3.459   6.093
 7750SOL     OW24148   0.179   5.974   1.440
 7750SOL    HW124149   0.139   6.010   1.356
 7750SOL    HW224150   0.230   5.891   1.421
 7751SOL     OW24151   1.149   1.398   2.450
 7751SOL    HW124152   1.219   1.335   2.486
 7751SOL    HW224153   1.090   1.349   2.387
 7752SOL     OW24154   5.068   0.040   5.642
 7752SOL    HW124155   5.095   0.101   5.567
 7752SOL    HW224156   5.046   0.094   5.723
 7753SOL     OW24157   2.281   1.578   4.941
 7753SOL    HW124158   2.270   1.676   4.957
 7753SOL    HW224159   2.378   1.557   4.930
 7754SOL     OW24160   3.642   6.139   1.502
 7754SOL    HW124161   3.652   6.099   1.411
 7754SOL    HW224162   3.690   6.227   1.505
 7755SOL     OW24163   1.239   3.103   6.400
 7755SOL    HW124164   1.180   3.089   6.321
 7755SOL    HW224165   1.187   3.147   6.473
 7756SOL     OW24166   3.151   6.068   1.999
 7756SOL    HW124167   3.138   6.167   1.992
 7756SOL    HW224168   3.160   6.029   1.908
 7757SOL     OW24169   6.747   4.467   1.379
 7757SOL    HW124170   6.842   4.440   1.398
 7757SOL    HW224171   6.693   4.386   1.358
 7758SOL     OW24172   1.604   6.587   6.339
 7758SOL    HW124173   1.575   6.500   6.299
 7758SOL    HW224174   1.563   6.662   6.287
 7759SOL     OW24175   3.089   2.342   5.919
 7759SOL    HW124176   3.099   2.266   5.983
 7759SOL    HW224177   3.002   2.388   5.934
 7760SOL     OW24178   5.140   2.078   2.163
 7760SOL    HW124179   5.224   2.083   2.109
 7760SOL    HW224180   5.154   2.126   2.250
 7761SOL     OW24181   5.858   6.383   4.792
 7761SOL    HW124182   5.807   6.327   4.857
 7761SOL    HW224183   5.812   6.470   4.779
 7762SOL     OW24184   1.738   0.706   3.683
 7762SOL    HW124185   1.645   0.674   3.664
 7762SOL    HW224186   1.751   0.795   3.640
 7763SOL     OW24187   2.387   6.900   5.412
 7763SOL    HW124188   2.306   6.842   5.420
 7763SOL    HW224189   2.387   6.968   5.485
 7764SOL     OW24190   2.834   4.491   5.566
 7764SOL    HW124191   2.869   4.414   5.620
 7764SOL    HW224192   2.905   4.561   5.559
 7765SOL     OW24193   6.444   3.405   4.447
 7765SOL    HW124194   6.492   3.483   4.406
 7765SOL    HW224195   6.402   3.350   4.375
 7766SOL     OW24196   0.709   3.993   6.935
 7766SOL    HW124197   0.736   3.963   0.003
 7766SOL    HW224198   0.635   3.934   6.902
 7767SOL     OW24199   4.464   0.013   2.456
 7767SOL    HW124200   4.458   0.039   2.553
 7767SOL    HW224201   4.403   0.071   2.402
 7768SOL     OW24202   4.694   4.404   3.473
 7768SOL    HW124203   4.713   4.502   3.471
 7768SOL    HW224204   4.644   4.381   3.556
 7769SOL     OW24205   3.830   1.607   5.083
 7769SOL    HW124206   3.767   1.655   5.023
 7769SOL    HW224207   3.871   1.672   5.147
 7770SOL     OW24208   0.043   3.643   4.736
 7770SOL    HW124209   0.113   3.672   4.801
 7770SOL    HW224210   0.086   3.596   4.659
 7771SOL     OW24211   2.752   2.106   6.342
 7771SOL    HW124212   2.778   2.123   6.247
 7771SOL    HW224213   2.687   2.030   6.345
 7772SOL     OW24214   4.943   0.900   0.834
 7772SOL    HW124215   4.872   0.829   0.836
 7772SOL    HW224216   4.911   0.981   0.883
 7773SOL     OW24217   2.232   5.926   6.495
 7773SOL    HW124218   2.260   5.835   6.466
 7773SOL    HW224219   2.287   5.954   6.574
 7774SOL     OW24220   4.553   2.242   4.408
 7774SOL    HW124221   4.515   2.176   4.343
 7774SOL    HW224222   4.651   2.250   4.393
 7775SOL     OW24223   3.772   0.416   6.822
 7775SOL    HW124224   3.734   0.440   6.911
 7775SOL    HW224225   3.850   0.474   6.802
 7776SOL     OW24226   7.013   6.653   6.373
 7776SOL    HW124227   6.976   6.688   6.459
 7776SOL    HW224228   6.938   6.632   6.310
 7777SOL     OW24229   5.943   5.443   4.651
 7777SOL    HW124230   5.889   5.371   4.693
 7777SOL    HW224231   6.032   5.449   4.698
 7778SOL     OW24232   6.049   4.163   2.567
 7778SOL    HW124233   6.095   4.208   2.644
 7778SOL    HW224234   6.062   4.064   2.573
 7779SOL     OW24235   3.437   0.523   2.793
 7779SOL    HW124236   3.478   0.486   2.710
 7779SOL    HW224237   3.338   0.524   2.784
 7780SOL     OW24238   6.993   6.101   6.073
 7780SOL    HW124239   6.914   6.156   6.045
 7780SOL    HW224240   0.052   6.144   6.039
 7781SOL     OW24241   1.631   3.937   0.300
 7781SOL    HW124242   1.714   3.937   0.243
 7781SOL    HW224243   1.612   4.030   0.330
 7782SOL     OW24244   5.697   4.332   3.310
 7782SOL    HW124245   5.697   4.343   3.211
 7782SOL    HW224246   5.650   4.409   3.353
 7783SOL     OW24247   0.365   0.040   5.714
 7783SOL    HW124248   0.280   7.013   5.699
 7783SOL    HW224249   0.442   7.012   5.678
 7784SOL     OW24250   2.889   2.414   1.636
 7784SOL    HW124251   2.790   2.422   1.619
 7784SOL    HW224252   2.903   2.380   1.729
 7785SOL     OW24253   1.315   6.498   3.446
 7785SOL    HW124254   1.251   6.535   3.379
 7785SOL    HW224255   1.404   6.484   3.404
 7786SOL     OW24256   4.695   1.053   6.865
 7786SOL    HW124257   4.678   1.082   6.959
 7786SOL    HW224258   4.620   1.084   6.806
 7787SOL     OW24259   2.261   3.094   0.897
 7787SOL    HW124260   2.187   3.058   0.954
 7787SOL    HW224261   2.302   3.173   0.941
 7788SOL     OW24262   1.371   6.136   1.987
 7788SOL    HW124263   1.274   6.145   2.012
 7788SOL    HW224264   1.423   6.211   2.028
 7789SOL     OW24265   3.278   6.995   6.158
 7789SOL    HW124266   3.343   0.014   6.220
 7789SOL    HW224267   3.235   0.040   6.100
 7790SOL     OW24268   6.508   4.997   2.651
 7790SOL    HW124269   6.567   5.042   2.584
 7790SOL    HW224270   6.562   4.929   2.702
 7791SOL     OW24271   2.037   5.547   1.553
 7791SOL    HW124272   2.029   5.497   1.467
 7791SOL    HW224273   1.946   5.576   1.583
 7792SOL     OW24274   0.284   0.980   2.584
 7792SOL    HW124275   0.260   0.954   2.678
 7792SOL    HW224276   0.338   0.908   2.542
 7793SOL     OW24277   5.121   1.218   6.332
 7793SOL    HW124278   5.179   1.189   6.256
 7793SOL    HW224279   5.164   1.196   6.419
 7794SOL     OW24280   0.418   5.338   2.057
 7794SOL    HW124281   0.468   5.357   2.141
 7794SOL    HW224282   0.408   5.422   2.004
 7795SOL     OW24283   3.106   5.218   5.293
 7795SOL    HW124284   3.063   5.174   5.371
 7795SOL    HW224285   3.193   5.174   5.273
 7796SOL     OW24286   4.088   3.702   5.749
 7796SOL    HW124287   4.087   3.760   5.667
 7796SOL    HW224288   4.029   3.623   5.734
 7797SOL     OW24289   1.471   5.195   1.901
 7797SOL    HW124290   1.386   5.188   1.952
 7797SOL    HW224291   1.464   5.142   1.817
 7798SOL     OW24292   1.109   1.345   1.660
 7798SOL    HW124293   1.131   1.293   1.578
 7798SOL    HW224294   1.178   1.416   1.674
 7799SOL     OW24295   2.815   5.941   3.026
 7799SOL    HW124296   2.773   5.851   3.039
 7799SOL    HW224297   2.899   5.947   3.080
 7800SOL     OW24298   0.475   5.908   1.835
 7800SOL    HW124299   0.447   5.885   1.928
 7800SOL    HW224300   0.399   5.948   1.786
 7801SOL     OW24301   1.657   1.922   2.795
 7801SOL    HW124302   1.659   2.022   2.801
 7801SOL    HW224303   1.572   1.893   2.751
 7802SOL     OW24304   6.791   4.806   6.638
 7802SOL    HW124305   6.877   4.847   6.668
 7802SOL    HW224306   6.810   4.741   6.563
 7803SOL     OW24307   5.450   2.204   6.887
 7803SOL    HW124308   5.424   2.289   6.933
 7803SOL    HW224309   5.370   2.145   6.880
 7804SOL     OW24310   3.175   1.772   3.904
 7804SOL    HW124311   3.209   1.819   3.985
 7804SOL    HW224312   3.158   1.839   3.831
 7805SOL     OW24313   5.165   2.893   1.906
 7805SOL    HW124314   5.207   2.804   1.884
 7805SOL    HW224315   5.066   2.885   1.904
 7806SOL     OW24316   6.716   2.368   6.324
 7806SOL    HW124317   6.732   2.393   6.420
 7806SOL    HW224318   6.791   2.309   6.293
 7807SOL     OW24319   1.333   4.389   6.065
 7807SOL    HW124320   1.274   4.363   6.141
 7807SOL    HW224321   1.419   4.425   6.101
 7808SOL     OW24322   4.689   4.381   2.572
 7808SOL    HW124323   4.694   4.282   2.558
 7808SOL    HW224324   4.646   4.424   2.493
 7809SOL     OW24325   4.929   5.349   4.602
 7809SOL    HW124326   4.977   5.337   4.689
 7809SOL    HW224327   4.872   5.431   4.607
 7810SOL     OW24328   3.800   0.210   4.524
 7810SOL    HW124329   3.844   0.146   4.461
 7810SOL    HW224330   3.763   0.159   4.602
 7811SOL     OW24331   1.252   5.666   2.970
 7811SOL    HW124332   1.279   5.671   2.874
 7811SOL    HW224333   1.286   5.747   3.018
 7812SOL     OW24334   2.301   3.166   5.371
 7812SOL    HW124335   2.327   3.261   5.353
 7812SOL    HW224336   2.374   3.105   5.341
 7813SOL     OW24337   4.518   2.719   1.137
 7813SOL    HW124338   4.513   2.810   1.177
 7813SOL    HW224339   4.511   2.650   1.209
 7814SOL     OW24340   6.740   3.283   2.627
 7814SOL    HW124341   6.753   3.322   2.718
 7814SOL    HW224342   6.811   3.214   2.610
 7815SOL     OW24343   5.444   1.883   5.402
 7815SOL    HW124344   5.493   1.951   5.457
 7815SOL    HW224345   5.389   1.825   5.462
 7816SOL     OW24346   0.373   1.616   5.798
 7816SOL    HW124347   0.418   1.527   5.785
 7816SOL    HW224348   0.327   1.617   5.887
 7817SOL     OW24349   3.871   3.899   5.614
 7817SOL    HW124350   3.841   3.993   5.595
 7817SOL    HW224351   3.961   3.883   5.573
 7818SOL     OW24352   4.582   1.420   2.161
 7818SOL    HW124353   4.504   1.375   2.117
 7818SOL    HW224354   4.569   1.519   2.160
 7819SOL     OW24355   0.247   3.842   4.276
 7819SOL    HW124356   0.156   3.811   4.248
 7819SOL    HW224357   0.238   3.915   4.343
 7820SOL     OW24358   1.934   1.065   5.556
 7820SOL    HW124359   1.897   1.143   5.506
 7820SOL    HW224360   1.962   1.094   5.648
 7821SOL     OW24361   5.938   5.757   0.395
 7821SOL    HW124362   6.011   5.781   0.458
 7821SOL    HW224363   5.860   5.819   0.408
 7822SOL     OW24364   0.998   1.803   5.648
 7822SOL    HW124365   1.019   1.709   5.621
 7822SOL    HW224366   0.910   1.805   5.695
 7823SOL     OW24367   1.352   4.300   6.355
 7823SOL    HW124368   1.407   4.225   6.317
 7823SOL    HW224369   1.337   4.284   6.452
 7824SOL     OW24370   5.844   0.924   4.406
 7824SOL    HW124371   5.827   0.910   4.504
 7824SOL    HW224372   5.801   1.009   4.376
 7825SOL     OW24373   2.525   2.896   1.745
 7825SOL    HW124374   2.499   2.801   1.761
 7825SOL    HW224375   2.449   2.943   1.699
 7826SOL     OW24376   5.476   1.677   6.878
 7826SOL    HW124377   5.505   1.623   6.957
 7826SOL    HW224378   5.390   1.642   6.843
 7827SOL     OW24379   3.632   4.635   1.457
 7827SOL    HW124380   3.707   4.659   1.395
 7827SOL    HW224381   3.565   4.709   1.457
 7828SOL     OW24382   0.560   5.734   0.777
 7828SOL    HW124383   0.544   5.783   0.862
 7828SOL    HW224384   0.580   5.638   0.796
 7829SOL     OW24385   2.584   3.638   1.321
 7829SOL    HW124386   2.647   3.661   1.247
 7829SOL    HW224387   2.542   3.722   1.356
 7830SOL     OW24388   5.712   3.747   5.954
 7830SOL    HW124389   5.754   3.661   5.924
 7830SOL    HW224390   5.699   3.744   6.053
 7831SOL     OW24391   1.336   4.407   6.906
 7831SOL    HW124392   1.277   4.414   6.987
 7831SOL    HW224393   1.322   4.487   6.848
 7832SOL     OW24394   3.331   1.553   5.180
 7832SOL    HW124395   3.293   1.553   5.087
 7832SOL    HW224396   3.275   1.494   5.238
 7833SOL     OW24397   1.345   0.565   0.709
 7833SOL    HW124398   1.369   0.657   0.679
 7833SOL    HW224399   1.289   0.570   0.792
 7834SOL     OW24400   0.164   1.670   2.002
 7834SOL    HW124401   0.101   1.610   1.953
 7834SOL    HW224402   0.193   1.626   2.087
 7835SOL     OW24403   2.413   2.773   4.654
 7835SOL    HW124404   2.481   2.814   4.714
 7835SOL    HW224405   2.414   2.673   4.665
 7836SOL     OW24406   2.909   0.275   6.695
 7836SOL    HW124407   2.891   0.288   6.597
 7836SOL    HW224408   2.999   0.312   6.717
 7837SOL     OW24409   5.975   6.814   1.846
 7837SOL    HW124410   5.965   6.715   1.833
 7837SOL    HW224411   5.892   6.860   1.816
 7838SOL     OW24412   4.522   6.478   5.778
 7838SOL    HW124413   4.587   6.509   5.847
 7838SOL    HW224414   4.450   6.424   5.822
 7839SOL     OW24415   6.522   4.027   4.494
 7839SOL    HW124416   6.543   4.085   4.415
 7839SOL    HW224417   6.459   3.954   4.466
 7840SOL     OW24418   4.829   2.272   4.382
 7840SOL    HW124419   4.878   2.185   4.386
 7840SOL    HW224420   4.891   2.343   4.347
 7841SOL     OW24421   5.343   2.331   6.417
 7841SOL    HW124422   5.398   2.373   6.344
 7841SOL    HW224423   5.281   2.399   6.456
 7842SOL     OW24424   1.179   0.940   3.404
 7842SOL    HW124425   1.276   0.958   3.415
 7842SOL    HW224426   1.157   0.848   3.435
 7843SOL     OW24427   5.703   4.051   1.473
 7843SOL    HW124428   5.626   4.101   1.435
 7843SOL    HW224429   5.751   4.109   1.539
 7844SOL     OW24430   4.318   0.550   3.773
 7844SOL    HW124431   4.258   0.489   3.722
 7844SOL    HW224432   4.262   0.616   3.824
 7845SOL     OW24433   0.967   0.934   3.824
 7845SOL    HW124434   0.940   0.861   3.761
 7845SOL    HW224435   0.972   0.898   3.917
 7846SOL     OW24436   2.493   1.017   1.357
 7846SOL    HW124437   2.486   1.001   1.455
 7846SOL    HW224438   2.563   1.086   1.339
 7847SOL     OW24439   0.352   0.992   1.014
 7847SOL    HW124440   0.396   0.997   0.923
 7847SOL    HW224441   0.331   0.897   1.035
 7848SOL     OW24442   3.322   4.581   0.929
 7848SOL    HW124443   3.319   4.481   0.928
 7848SOL    HW224444   3.368   4.615   0.847
 7849SOL     OW24445   5.197   3.716   3.779
 7849SOL    HW124446   5.240   3.627   3.795
 7849SOL    HW224447   5.238   3.759   3.698
 7850SOL     OW24448   0.109   0.826   3.900
 7850SOL    HW124449   0.084   0.871   3.986
 7850SOL    HW224450   0.116   0.728   3.915
 7851SOL     OW24451   6.070   6.343   0.196
 7851SOL    HW124452   6.164   6.377   0.195
 7851SOL    HW224453   6.045   6.316   0.289
 7852SOL     OW24454   3.060   6.253   6.995
 7852SOL    HW124455   3.150   6.296   6.991
 7852SOL    HW224456   3.061   6.169   6.940
 7853SOL     OW24457   3.262   1.758   0.372
 7853SOL    HW124458   3.196   1.766   0.297
 7853SOL    HW224459   3.328   1.833   0.366
 7854SOL     OW24460   3.760   3.715   0.970
 7854SOL    HW124461   3.665   3.739   0.950
 7854SOL    HW224462   3.768   3.615   0.977
 7855SOL     OW24463   4.358   5.911   6.322
 7855SOL    HW124464   4.293   5.898   6.397
 7855SOL    HW224465   4.330   5.991   6.268
 7856SOL     OW24466   6.202   4.394   4.576
 7856SOL    HW124467   6.155   4.384   4.488
 7856SOL    HW224468   6.141   4.364   4.649
 7857SOL     OW24469   6.626   2.325   5.835
 7857SOL    HW124470   6.677   2.281   5.909
 7857SOL    HW224471   6.611   2.259   5.760
 7858SOL     OW24472   5.203   4.460   3.161
 7858SOL    HW124473   5.192   4.536   3.225
 7858SOL    HW224474   5.146   4.383   3.190
 7859SOL     OW24475   0.195   3.766   6.277
 7859SOL    HW124476   0.149   3.701   6.336
 7859SOL    HW224477   0.134   3.842   6.256
 7860SOL     OW24478   3.993   6.361   2.621
 7860SOL    HW124479   3.989   6.420   2.701
 7860SOL    HW224480   3.900   6.334   2.594
 7861SOL     OW24481   4.388   5.320   1.709
 7861SOL    HW124482   4.388   5.246   1.641
 7861SOL    HW224483   4.454   5.299   1.781
 7862SOL     OW24484   3.014   4.258   1.739
 7862SOL    HW124485   2.981   4.347   1.769
 7862SOL    HW224486   2.957   4.225   1.664
 7863SOL     OW24487   6.453   5.968   3.284
 7863SOL    HW124488   6.447   6.023   3.201
 7863SOL    HW224489   6.463   5.871   3.259
 7864SOL     OW24490   6.961   6.013   5.648
 7864SOL    HW124491   0.001   5.997   5.573
 7864SOL    HW224492   6.903   6.091   5.625
 7865SOL     OW24493   4.280   6.536   4.080
 7865SOL    HW124494   4.214   6.592   4.130
 7865SOL    HW224495   4.311   6.585   3.999
 7866SOL     OW24496   2.501   1.721   2.079
 7866SOL    HW124497   2.577   1.656   2.071
 7866SOL    HW224498   2.437   1.707   2.003
 7867SOL     OW24499   5.656   5.119   2.360
 7867SOL    HW124500   5.690   5.033   2.323
 7867SOL    HW224501   5.574   5.102   2.415
 7868SOL     OW24502   5.171   6.805   2.106
 7868SOL    HW124503   5.163   6.716   2.061
 7868SOL    HW224504   5.220   6.794   2.193
 7869SOL     OW24505   6.134   3.810   1.010
 7869SOL    HW124506   6.059   3.872   0.985
 7869SOL    HW224507   6.157   3.823   1.106
 7870SOL     OW24508   5.978   4.993   3.443
 7870SOL    HW124509   5.903   4.934   3.471
 7870SOL    HW224510   6.055   4.982   3.506
 7871SOL     OW24511   5.547   3.993   3.193
 7871SOL    HW124512   5.627   3.998   3.133
 7871SOL    HW224513   5.466   4.024   3.143
 7872SOL     OW24514   0.935   4.439   2.162
 7872SOL    HW124515   0.959   4.532   2.192
 7872SOL    HW224516   0.994   4.373   2.209
 7873SOL     OW24517   6.772   0.523   5.408
 7873SOL    HW124518   6.690   0.475   5.439
 7873SOL    HW224519   6.762   0.621   5.427
 7874SOL     OW24520   6.460   1.469   6.755
 7874SOL    HW124521   6.390   1.538   6.741
 7874SOL    HW224522   6.550   1.513   6.753
 7875SOL     OW24523   4.599   4.245   6.648
 7875SOL    HW124524   4.594   4.225   6.746
 7875SOL    HW224525   4.617   4.161   6.597
 7876SOL     OW24526   6.734   0.485   4.596
 7876SOL    HW124527   6.667   0.422   4.636
 7876SOL    HW224528   6.744   0.465   4.499
 7877SOL     OW24529   0.166   2.808   2.345
 7877SOL    HW124530   0.160   2.714   2.311
 7877SOL    HW224531   0.245   2.816   2.405
 7878SOL     OW24532   5.227   4.587   2.906
 7878SOL    HW124533   5.158   4.658   2.896
 7878SOL    HW224534   5.218   4.544   2.996
 7879SOL     OW24535   4.410   6.091   3.199
 7879SOL    HW124536   4.461   6.075   3.284
 7879SOL    HW224537   4.468   6.067   3.121
 7880SOL     OW24538   0.076   6.326   0.695
 7880SOL    HW124539   7.009   6.357   0.720
 7880SOL    HW224540   0.105   6.370   0.610
 7881SOL     OW24541   0.306   4.040   4.465
 7881SOL    HW124542   0.275   4.079   4.551
 7881SOL    HW224543   0.402   4.015   4.472
 7882SOL     OW24544   1.867   2.439   2.411
 7882SOL    HW124545   1.959   2.402   2.393
 7882SOL    HW224546   1.874   2.512   2.479
 7883SOL     OW24547   1.799   0.612   1.571
 7883SOL    HW124548   1.764   0.522   1.544
 7883SOL    HW224549   1.876   0.637   1.512
 7884SOL     OW24550   1.611   4.349   3.446
 7884SOL    HW124551   1.667   4.423   3.484
 7884SOL    HW224552   1.620   4.347   3.347
 7885SOL     OW24553   5.765   5.576   3.064
 7885SOL    HW124554   5.759   5.604   2.968
 7885SOL    HW224555   5.673   5.562   3.100
 7886SOL     OW24556   5.854   3.846   1.385
 7886SOL    HW124557   5.796   3.921   1.417
 7886SOL    HW224558   5.800   3.782   1.332
 7887SOL     OW24559   3.174   2.637   5.324
 7887SOL    HW124560   3.197   2.544   5.295
 7887SOL    HW224561   3.147   2.636   5.421
 7888SOL     OW24562   0.235   1.561   4.271
 7888SOL    HW124563   0.144   1.520   4.258
 7888SOL    HW224564   0.300   1.519   4.207
 7889SOL     OW24565   0.349   5.550   0.036
 7889SOL    HW124566   0.380   5.541   6.965
 7889SOL    HW224567   0.312   5.642   0.049
 7890SOL     OW24568   1.453   2.542   3.877
 7890SOL    HW124569   1.498   2.610   3.819
 7890SOL    HW224570   1.479   2.557   3.972
 7891SOL     OW24571   1.011   3.044   4.234
 7891SOL    HW124572   1.047   2.955   4.206
 7891SOL    HW224573   1.041   3.114   4.169
 7892SOL     OW24574   1.194   1.981   4.269
 7892SOL    HW124575   1.193   2.008   4.365
 7892SOL    HW224576   1.100   1.981   4.234
 7893SOL     OW24577   5.971   6.299   1.560
 7893SOL    HW124578   5.899   6.326   1.624
 7893SOL    HW224579   6.049   6.264   1.612
 7894SOL     OW24580   2.359   1.490   0.453
 7894SOL    HW124581   2.435   1.516   0.392
 7894SOL    HW224582   2.387   1.412   0.509
 7895SOL     OW24583   3.644   6.161   4.267
 7895SOL    HW124584   3.739   6.188   4.286
 7895SOL    HW224585   3.632   6.065   4.291
 7896SOL     OW24586   4.761   3.347   1.459
 7896SOL    HW124587   4.691   3.365   1.529
 7896SOL    HW224588   4.850   3.379   1.492
 7897SOL     OW24589   3.823   3.822   6.874
 7897SOL    HW124590   3.836   3.832   6.775
 7897SOL    HW224591   3.813   3.912   6.915
 7898SOL     OW24592   4.814   0.072   4.190
 7898SOL    HW124593   4.715   0.086   4.184
 7898SOL    HW224594   4.837   0.031   4.278
 7899SOL     OW24595   5.428   6.522   1.717
 7899SOL    HW124596   5.405   6.475   1.802
 7899SOL    HW224597   5.383   6.476   1.640
 7900SOL     OW24598   0.650   3.789   0.540
 7900SOL    HW124599   0.722   3.858   0.537
 7900SOL    HW224600   0.625   3.764   0.446
 7901SOL     OW24601   5.284   1.468   5.809
 7901SOL    HW124602   5.212   1.536   5.819
 7901SOL    HW224603   5.244   1.376   5.813
 7902SOL     OW24604   0.063   6.285   3.244
 7902SOL    HW124605   0.064   6.372   3.293
 7902SOL    HW224606   0.092   6.300   3.150
 7903SOL     OW24607   4.103   1.722   3.770
 7903SOL    HW124608   4.060   1.762   3.689
 7903SOL    HW224609   4.170   1.653   3.741
 7904SOL     OW24610   5.810   0.079   3.526
 7904SOL    HW124611   5.903   0.059   3.556
 7904SOL    HW224612   5.812   0.114   3.432
 7905SOL     OW24613   5.263   0.866   0.379
 7905SOL    HW124614   5.176   0.910   0.399
 7905SOL    HW224615   5.330   0.890   0.449
 7906SOL     OW24616   1.117   5.118   1.028
 7906SOL    HW124617   1.085   5.211   1.008
 7906SOL    HW224618   1.177   5.120   1.108
 7907SOL     OW24619   6.278   0.847   3.075
 7907SOL    HW124620   6.287   0.947   3.073
 7907SOL    HW224621   6.182   0.823   3.061
 7908SOL     OW24622   1.175   2.177   6.436
 7908SOL    HW124623   1.223   2.158   6.522
 7908SOL    HW224624   1.163   2.276   6.427
 7909SOL     OW24625   5.038   4.233   3.209
 7909SOL    HW124626   5.049   4.173   3.130
 7909SOL    HW224627   4.941   4.249   3.227
 7910SOL     OW24628   1.618   2.863   1.410
 7910SOL    HW124629   1.609   2.885   1.313
 7910SOL    HW224630   1.582   2.938   1.465
 7911SOL     OW24631   0.687   3.870   1.409
 7911SOL    HW124632   0.657   3.925   1.487
 7911SOL    HW224633   0.742   3.927   1.348
 7912SOL     OW24634   5.650   4.915   0.563
 7912SOL    HW124635   5.552   4.920   0.584
 7912SOL    HW224636   5.663   4.907   0.464
 7913SOL     OW24637   1.974   4.302   0.913
 7913SOL    HW124638   2.038   4.329   0.842
 7913SOL    HW224639   1.898   4.367   0.916
 7914SOL     OW24640   0.197   5.241   6.936
 7914SOL    HW124641   0.132   5.215   6.865
 7914SOL    HW224642   0.284   5.195   6.920
 7915SOL     OW24643   4.160   1.005   3.057
 7915SOL    HW124644   4.129   1.100   3.066
 7915SOL    HW224645   4.186   0.986   2.963
 7916SOL     OW24646   0.724   0.452   4.679
 7916SOL    HW124647   0.811   0.445   4.729
 7916SOL    HW224648   0.680   0.362   4.675
 7917SOL     OW24649   3.990   2.428   5.687
 7917SOL    HW124650   3.978   2.525   5.667
 7917SOL    HW224651   4.028   2.382   5.606
 7918SOL     OW24652   0.946   1.468   5.243
 7918SOL    HW124653   0.899   1.410   5.176
 7918SOL    HW224654   1.020   1.518   5.199
 7919SOL     OW24655   1.108   5.014   2.776
 7919SOL    HW124656   1.019   4.977   2.803
 7919SOL    HW224657   1.180   4.946   2.796
 7920SOL     OW24658   4.748   1.050   2.108
 7920SOL    HW124659   4.817   0.979   2.096
 7920SOL    HW224660   4.730   1.063   2.206
 7921SOL     OW24661   5.906   1.419   1.448
 7921SOL    HW124662   5.944   1.376   1.530
 7921SOL    HW224663   5.969   1.406   1.372
 7922SOL     OW24664   0.557   6.375   6.727
 7922SOL    HW124665   0.457   6.388   6.728
 7922SOL    HW224666   0.598   6.431   6.799
 7923SOL     OW24667   2.958   2.349   6.723
 7923SOL    HW124668   2.961   2.320   6.627
 7923SOL    HW224669   3.015   2.288   6.778
 7924SOL     OW24670   5.156   6.700   1.406
 7924SOL    HW124671   5.232   6.743   1.358
 7924SOL    HW224672   5.139   6.747   1.492
 7925SOL     OW24673   1.853   6.476   0.817
 7925SOL    HW124674   1.845   6.432   0.907
 7925SOL    HW224675   1.767   6.524   0.796
 7926SOL     OW24676   5.529   1.250   6.533
 7926SOL    HW124677   5.498   1.155   6.535
 7926SOL    HW224678   5.629   1.253   6.544
 7927SOL     OW24679   5.460   0.406   1.756
 7927SOL    HW124680   5.466   0.308   1.774
 7927SOL    HW224681   5.366   0.429   1.731
 7928SOL     OW24682   6.703   1.128   3.167
 7928SOL    HW124683   6.753   1.060   3.114
 7928SOL    HW224684   6.741   1.133   3.260
 7929SOL     OW24685   4.533   3.989   6.388
 7929SOL    HW124686   4.495   3.965   6.298
 7929SOL    HW224687   4.478   3.945   6.460
 7930SOL     OW24688   3.121   5.339   5.922
 7930SOL    HW124689   3.128   5.437   5.937
 7930SOL    HW224690   3.076   5.321   5.834
 7931SOL     OW24691   3.778   2.967   0.578
 7931SOL    HW124692   3.755   2.873   0.554
 7931SOL    HW224693   3.869   2.989   0.544
 7932SOL     OW24694   0.202   4.850   1.326
 7932SOL    HW124695   0.158   4.889   1.245
 7932SOL    HW224696   0.136   4.791   1.374
 7933SOL     OW24697   6.650   0.642   5.801
 7933SOL    HW124698   6.638   0.741   5.797
 7933SOL    HW224699   6.696   0.611   5.718
 7934SOL     OW24700   1.243   4.832   0.577
 7934SOL    HW124701   1.316   4.814   0.511
 7934SOL    HW224702   1.154   4.815   0.534
 7935SOL     OW24703   4.985   4.244   2.764
 7935SOL    HW124704   4.905   4.256   2.705
 7935SOL    HW224705   4.956   4.207   2.852
 7936SOL     OW24706   3.048   5.655   3.146
 7936SOL    HW124707   3.075   5.731   3.088
 7936SOL    HW224708   3.040   5.572   3.090
 7937SOL     OW24709   2.025   5.241   4.369
 7937SOL    HW124710   2.063   5.279   4.285
 7937SOL    HW224711   2.024   5.141   4.363
 7938SOL     OW24712   5.108   6.758   5.272
 7938SOL    HW124713   5.096   6.831   5.204
 7938SOL    HW224714   5.179   6.784   5.337
 7939SOL     OW24715   0.426   1.875   5.811
 7939SOL    HW124716   0.525   1.885   5.823
 7939SOL    HW224717   0.405   1.780   5.788
 7940SOL     OW24718   3.577   1.742   2.190
 7940SOL    HW124719   3.478   1.748   2.176
 7940SOL    HW224720   3.616   1.834   2.184
 7941SOL     OW24721   4.743   6.559   3.079
 7941SOL    HW124722   4.744   6.634   3.145
 7941SOL    HW224723   4.671   6.494   3.104
 7942SOL     OW24724   0.584   2.593   2.690
 7942SOL    HW124725   0.662   2.538   2.660
 7942SOL    HW224726   0.551   2.558   2.778
 7943SOL     OW24727   1.069   4.632   5.695
 7943SOL    HW124728   1.122   4.600   5.617
 7943SOL    HW224729   1.082   4.569   5.772
 7944SOL     OW24730   0.523   2.440   1.835
 7944SOL    HW124731   0.566   2.380   1.902
 7944SOL    HW224732   0.459   2.387   1.779
 7945SOL     OW24733   6.431   5.175   2.852
 7945SOL    HW124734   6.475   5.107   2.793
 7945SOL    HW224735   6.333   5.159   2.854
 7946SOL     OW24736   3.941   0.078   6.011
 7946SOL    HW124737   3.988   7.015   6.024
 7946SOL    HW224738   3.959   0.112   5.919
 7947SOL     OW24739   2.431   1.981   5.350
 7947SOL    HW124740   2.441   1.985   5.251
 7947SOL    HW224741   2.433   2.073   5.388
 7948SOL     OW24742   0.954   4.696   1.081
 7948SOL    HW124743   0.926   4.714   1.176
 7948SOL    HW224744   0.873   4.671   1.027
 7949SOL     OW24745   4.300   4.024   5.721
 7949SOL    HW124746   4.369   4.070   5.777
 7949SOL    HW224747   4.210   4.065   5.739
 7950SOL     OW24748   5.038   6.297   4.810
 7950SOL    HW124749   5.029   6.210   4.762
 7950SOL    HW224750   4.967   6.304   4.880
 7951SOL     OW24751   1.871   4.838   2.965
 7951SOL    HW124752   1.791   4.779   2.956
 7951SOL    HW224753   1.848   4.930   2.931
 7952SOL     OW24754   6.618   3.408   6.808
 7952SOL    HW124755   6.685   3.339   6.835
 7952SOL    HW224756   6.599   3.468   6.885
 7953SOL     OW24757   4.844   2.157   1.588
 7953SOL    HW124758   4.780   2.161   1.511
 7953SOL    HW224759   4.853   2.062   1.619
 7954SOL     OW24760   4.201   3.723   6.171
 7954SOL    HW124761   4.139   3.680   6.106
 7954SOL    HW224762   4.255   3.793   6.124
 7955SOL     OW24763   2.418   1.637   6.509
 7955SOL    HW124764   2.502   1.648   6.456
 7955SOL    HW224765   2.408   1.542   6.538
 7956SOL     OW24766   6.010   1.390   1.722
 7956SOL    HW124767   5.953   1.331   1.780
 7956SOL    HW224768   6.018   1.480   1.765
 7957SOL     OW24769   3.558   0.909   6.390
 7957SOL    HW124770   3.477   0.866   6.429
 7957SOL    HW224771   3.622   0.933   6.463
 7958SOL     OW24772   5.450   4.201   6.270
 7958SOL    HW124773   5.447   4.289   6.222
 7958SOL    HW224774   5.418   4.129   6.209
 7959SOL     OW24775   5.109   0.688   6.455
 7959SOL    HW124776   5.169   0.763   6.486
 7959SOL    HW224777   5.123   0.609   6.514
 7960SOL     OW24778   0.602   1.454   6.137
 7960SOL    HW124779   0.506   1.426   6.126
 7960SOL    HW224780   0.661   1.377   6.116
 7961SOL     OW24781   6.588   0.011   0.781
 7961SOL    HW124782   6.490   7.015   0.775
 7961SOL    HW224783   6.638   6.972   0.723
 7962SOL     OW24784   0.145   1.756   5.612
 7962SOL    HW124785   0.171   1.765   5.516
 7962SOL    HW224786   0.221   1.717   5.664
 7963SOL     OW24787   6.559   5.413   3.923
 7963SOL    HW124788   6.485   5.443   3.863
 7963SOL    HW224789   6.612   5.342   3.877
 7964SOL     OW24790   6.389   2.548   1.850
 7964SOL    HW124791   6.342   2.577   1.766
 7964SOL    HW224792   6.479   2.590   1.854
 7965SOL     OW24793   3.843   2.387   6.508
 7965SOL    HW124794   3.859   2.430   6.419
 7965SOL    HW224795   3.926   2.391   6.562
 7966SOL     OW24796   3.904   3.915   5.909
 7966SOL    HW124797   3.947   3.991   5.861
 7966SOL    HW224798   3.928   3.829   5.865
 7967SOL     OW24799   2.297   5.215   2.248
 7967SOL    HW124800   2.263   5.285   2.311
 7967SOL    HW224801   2.391   5.192   2.270
 7968SOL     OW24802   6.029   2.215   5.300
 7968SOL    HW124803   5.969   2.285   5.263
 7968SOL    HW224804   6.068   2.162   5.225
 7969SOL     OW24805   4.962   6.244   0.261
 7969SOL    HW124806   4.925   6.289   0.342
 7969SOL    HW224807   5.052   6.283   0.240
 7970SOL     OW24808   6.078   2.946   3.040
 7970SOL    HW124809   6.077   2.930   2.941
 7970SOL    HW224810   5.992   2.915   3.080
 7971SOL     OW24811   2.950   0.964   1.651
 7971SOL    HW124812   2.874   0.901   1.639
 7971SOL    HW224813   2.999   0.973   1.564
 7972SOL     OW24814   3.283   3.884   1.572
 7972SOL    HW124815   3.283   3.937   1.487
 7972SOL    HW224816   3.312   3.942   1.648
 7973SOL     OW24817   5.349   4.286   4.507
 7973SOL    HW124818   5.283   4.220   4.471
 7973SOL    HW224819   5.350   4.368   4.450
 7974SOL     OW24820   6.040   0.951   5.231
 7974SOL    HW124821   6.108   0.893   5.187
 7974SOL    HW224822   6.055   1.046   5.204
 7975SOL     OW24823   4.601   0.748   0.718
 7975SOL    HW124824   4.524   0.718   0.773
 7975SOL    HW224825   4.603   0.696   0.633
 7976SOL     OW24826   1.139   6.858   5.608
 7976SOL    HW124827   1.054   6.838   5.658
 7976SOL    HW224828   1.135   6.952   5.574
 7977SOL     OW24829   5.533   6.037   2.005
 7977SOL    HW124830   5.581   6.109   1.955
 7977SOL    HW224831   5.598   5.984   2.059
 7978SOL     OW24832   0.520   3.046   6.458
 7978SOL    HW124833   0.567   3.040   6.546
 7978SOL    HW224834   0.583   3.085   6.390
 7979SOL     OW24835   2.046   4.362   5.904
 7979SOL    HW124836   2.109   4.376   5.828
 7979SOL    HW224837   1.954   4.389   5.876
 7980SOL     OW24838   2.974   5.614   6.322
 7980SOL    HW124839   2.966   5.687   6.390
 7980SOL    HW224840   3.032   5.541   6.359
 7981SOL     OW24841   1.086   4.877   1.809
 7981SOL    HW124842   1.048   4.786   1.793
 7981SOL    HW224843   1.047   4.941   1.742
 7982SOL     OW24844   1.745   1.988   6.241
 7982SOL    HW124845   1.674   1.981   6.311
 7982SOL    HW224846   1.724   1.926   6.166
 7983SOL     OW24847   6.142   1.129   1.410
 7983SOL    HW124848   6.187   1.166   1.492
 7983SOL    HW224849   6.093   1.046   1.434
 7984SOL     OW24850   0.771   1.591   0.520
 7984SOL    HW124851   0.854   1.647   0.533
 7984SOL    HW224852   0.753   1.540   0.604
 7985SOL     OW24853   2.078   2.386   4.371
 7985SOL    HW124854   2.112   2.422   4.284
 7985SOL    HW224855   2.146   2.402   4.443
 7986SOL     OW24856   3.826   1.115   5.455
 7986SOL    HW124857   3.780   1.175   5.391
 7986SOL    HW224858   3.910   1.079   5.413
 7987SOL     OW24859   2.403   3.594   0.848
 7987SOL    HW124860   2.416   3.693   0.850
 7987SOL    HW224861   2.305   3.573   0.847
 7988SOL     OW24862   0.793   1.213   1.630
 7988SOL    HW124863   0.890   1.237   1.640
 7988SOL    HW224864   0.778   1.119   1.662
 7989SOL     OW24865   2.020   4.033   0.311
 7989SOL    HW124866   2.034   4.130   0.293
 7989SOL    HW224867   1.934   4.003   0.270
 7990SOL     OW24868   2.622   5.801   4.443
 7990SOL    HW124869   2.534   5.755   4.449
 7990SOL    HW224870   2.662   5.786   4.352
 7991SOL     OW24871   5.661   1.488   4.616
 7991SOL    HW124872   5.704   1.547   4.683
 7991SOL    HW224873   5.599   1.424   4.662
 7992SOL     OW24874   1.901   0.189   0.258
 7992SOL    HW124875   1.985   0.138   0.240
 7992SOL    HW224876   1.917   0.287   0.245
 7993SOL     OW24877   0.565   0.020   1.514
 7993SOL    HW124878   0.476   7.007   1.488
 7993SOL    HW224879   0.591   7.009   1.604
 7994SOL     OW24880   5.092   0.684   3.166
 7994SOL    HW124881   5.127   0.635   3.246
 7994SOL    HW224882   5.147   0.659   3.086
 7995SOL     OW24883   5.544   4.630   3.133
 7995SOL    HW124884   5.630   4.680   3.142
 7995SOL    HW224885   5.557   4.552   3.072
 7996SOL     OW24886   4.045   6.713   4.198
 7996SOL    HW124887   4.010   6.756   4.115
 7996SOL    HW224888   3.974   6.654   4.237
 7997SOL     OW24889   0.268   1.741   0.516
 7997SOL    HW124890   0.240   1.837   0.511
 7997SOL    HW224891   0.365   1.733   0.492
 7998SOL     OW24892   2.942   6.240   0.222
 7998SOL    HW124893   2.919   6.334   0.248
 7998SOL    HW224894   3.002   6.241   0.142
 7999SOL     OW24895   1.228   1.905   6.026
 7999SOL    HW124896   1.277   1.859   5.952
 7999SOL    HW224897   1.294   1.938   6.094
 8000SOL     OW24898   5.862   6.995   6.268
 8000SOL    HW124899   5.813   0.023   6.337
 8000SOL    HW224900   5.874   0.027   6.186
 8001SOL     OW24901   4.310   6.273   1.494
 8001SOL    HW124902   4.392   6.327   1.518
 8001SOL    HW224903   4.338   6.181   1.469
 8002SOL     OW24904   0.848   1.384   5.887
 8002SOL    HW124905   0.826   1.409   5.793
 8002SOL    HW224906   0.782   1.317   5.921
 8003SOL     OW24907   1.501   5.874   2.000
 8003SOL    HW124908   1.448   5.957   1.983
 8003SOL    HW224909   1.467   5.828   2.082
 8004SOL     OW24910   1.862   3.230   3.301
 8004SOL    HW124911   1.869   3.242   3.400
 8004SOL    HW224912   1.927   3.291   3.256
 8005SOL     OW24913   2.951   0.530   3.160
 8005SOL    HW124914   2.868   0.576   3.190
 8005SOL    HW224915   2.958   0.441   3.205
 8006SOL     OW24916   2.709   5.688   5.602
 8006SOL    HW124917   2.648   5.765   5.585
 8006SOL    HW224918   2.659   5.602   5.594
 8007SOL     OW24919   5.651   2.174   5.976
 8007SOL    HW124920   5.654   2.121   6.061
 8007SOL    HW224921   5.718   2.249   5.981
 8008SOL     OW24922   3.140   5.769   6.885
 8008SOL    HW124923   3.219   5.803   6.936
 8008SOL    HW224924   3.056   5.799   6.931
 8009SOL     OW24925   4.424   1.289   0.825
 8009SOL    HW124926   4.456   1.382   0.808
 8009SOL    HW224927   4.342   1.291   0.881
 8010SOL     OW24928   2.892   2.339   5.257
 8010SOL    HW124929   2.942   2.335   5.170
 8010SOL    HW224930   2.939   2.401   5.320
 8011SOL     OW24931   3.421   2.107   1.584
 8011SOL    HW124932   3.454   2.035   1.645
 8011SOL    HW224933   3.461   2.194   1.611
 8012SOL     OW24934   1.006   3.148   6.257
 8012SOL    HW124935   0.983   3.059   6.219
 8012SOL    HW224936   1.026   3.212   6.183
 8013SOL     OW24937   0.919   3.257   3.654
 8013SOL    HW124938   1.010   3.298   3.643
 8013SOL    HW224939   0.915   3.205   3.739
 8014SOL     OW24940   1.926   0.474   4.406
 8014SOL    HW124941   1.878   0.386   4.411
 8014SOL    HW224942   1.927   0.506   4.312
 8015SOL     OW24943   2.027   0.096   5.902
 8015SOL    HW124944   1.974   0.042   5.968
 8015SOL    HW224945   1.969   0.168   5.863
 8016SOL     OW24946   4.067   1.337   5.275
 8016SOL    HW124947   3.970   1.361   5.278
 8016SOL    HW224948   4.115   1.380   5.352
 8017SOL     OW24949   6.516   0.108   6.697
 8017SOL    HW124950   6.416   0.107   6.704
 8017SOL    HW224951   6.542   0.147   6.608
 8018SOL     OW24952   3.455   2.749   6.526
 8018SOL    HW124953   3.499   2.838   6.512
 8018SOL    HW224954   3.432   2.737   6.622
 8019SOL     OW24955   2.074   3.821   0.816
 8019SOL    HW124956   1.985   3.783   0.844
 8019SOL    HW224957   2.060   3.891   0.746
 8020SOL     OW24958   6.257   1.015   6.061
 8020SOL    HW124959   6.178   0.967   6.100
 8020SOL    HW224960   6.259   1.109   6.096
 8021SOL     OW24961   1.858   2.820   1.155
 8021SOL    HW124962   1.775   2.875   1.157
 8021SOL    HW224963   1.838   2.729   1.192
 8022SOL     OW24964   6.063   0.560   1.544
 8022SOL    HW124965   6.150   0.512   1.547
 8022SOL    HW224966   6.015   0.538   1.459
 8023SOL     OW24967   5.822   4.986   2.576
 8023SOL    HW124968   5.807   5.076   2.617
 8023SOL    HW224969   5.833   4.996   2.477
 8024SOL     OW24970   1.264   5.779   5.473
 8024SOL    HW124971   1.191   5.790   5.539
 8024SOL    HW224972   1.227   5.787   5.380
 8025SOL     OW24973   1.909   4.975   1.048
 8025SOL    HW124974   1.865   5.064   1.037
 8025SOL    HW224975   1.852   4.918   1.108
 8026SOL     OW24976   0.179   4.387   0.808
 8026SOL    HW124977   0.135   4.415   0.723
 8026SOL    HW224978   0.268   4.348   0.789
 8027SOL     OW24979   3.234   6.397   5.329
 8027SOL    HW124980   3.184   6.360   5.250
 8027SOL    HW224981   3.174   6.397   5.409
 8028SOL     OW24982   2.798   5.921   4.606
 8028SOL    HW124983   2.773   5.903   4.701
 8028SOL    HW224984   2.726   5.888   4.545
 8029SOL     OW24985   4.961   2.291   1.836
 8029SOL    HW124986   5.020   2.358   1.792
 8029SOL    HW224987   4.902   2.248   1.768
 8030SOL     OW24988   6.154   5.257   0.366
 8030SOL    HW124989   6.178   5.320   0.440
 8030SOL    HW224990   6.103   5.180   0.404
 8031SOL     OW24991   6.254   6.553   3.065
 8031SOL    HW124992   6.259   6.600   3.153
 8031SOL    HW224993   6.268   6.619   2.991
 8032SOL     OW24994   5.219   3.975   1.646
 8032SOL    HW124995   5.279   3.928   1.710
 8032SOL    HW224996   5.128   3.933   1.648
 8033SOL     OW24997   4.692   3.456   0.215
 8033SOL    HW124998   4.771   3.398   0.230
 8033SOL    HW224999   4.644   3.427   0.132
 8034SOL     OW25000   5.590   0.136   5.954
 8034SOL    HW125001   5.529   0.121   5.877
 8034SOL    HW225002   5.536   0.155   6.036
 8035SOL     OW25003   4.820   1.323   1.994
 8035SOL    HW125004   4.830   1.224   1.999
 8035SOL    HW225005   4.760   1.355   2.067
 8036SOL     OW25006   0.154   3.483   3.464
 8036SOL    HW125007   0.201   3.445   3.544
 8036SOL    HW225008   0.175   3.580   3.456
 8037SOL     OW25009   2.042   3.456   6.787
 8037SOL    HW125010   2.029   3.555   6.782
 8037SOL    HW225011   1.973   3.417   6.848
 8038SOL     OW25012   4.858   6.246   2.117
 8038SOL    HW125013   4.761   6.225   2.129
 8038SOL    HW225014   4.907   6.225   2.201
 8039SOL     OW25015   0.198   2.603   4.845
 8039SOL    HW125016   0.148   2.521   4.816
 8039SOL    HW225017   0.296   2.584   4.847
 8040SOL     OW25018   2.193   6.411   6.878
 8040SOL    HW125019   2.113   6.363   6.842
 8040SOL    HW225020   2.165   6.502   6.910
 8041SOL     OW25021   3.154   1.067   2.624
 8041SOL    HW125022   3.156   0.969   2.643
 8041SOL    HW225023   3.232   1.112   2.667
 8042SOL     OW25024   4.654   4.091   5.327
 8042SOL    HW125025   4.699   4.142   5.400
 8042SOL    HW225026   4.563   4.129   5.311
 8043SOL     OW25027   3.692   4.501   0.072
 8043SOL    HW125028   3.708   4.599   0.085
 8043SOL    HW225029   3.759   4.449   0.125
 8044SOL     OW25030   3.417   3.318   0.760
 8044SOL    HW125031   3.466   3.330   0.674
 8044SOL    HW225032   3.340   3.256   0.747
 8045SOL     OW25033   6.577   2.064   2.753
 8045SOL    HW125034   6.629   2.137   2.709
 8045SOL    HW225035   6.560   2.089   2.849
 8046SOL     OW25036   0.538   4.836   2.083
 8046SOL    HW125037   0.567   4.772   2.013
 8046SOL    HW225038   0.513   4.786   2.166
 8047SOL     OW25039   4.289   6.613   6.864
 8047SOL    HW125040   4.273   6.575   6.773
 8047SOL    HW225041   4.205   6.606   6.919
 8048SOL     OW25042   3.211   2.994   6.765
 8048SOL    HW125043   3.205   2.896   6.786
 8048SOL    HW225044   3.248   3.042   6.845
 8049SOL     OW25045   1.034   6.831   0.031
 8049SOL    HW125046   1.069   6.911   0.079
 8049SOL    HW225047   1.084   6.818   6.970
 8050SOL     OW25048   2.148   3.301   4.429
 8050SOL    HW125049   2.071   3.362   4.449
 8050SOL    HW225050   2.189   3.328   4.342
 8051SOL     OW25051   4.712   5.783   4.524
 8051SOL    HW125052   4.651   5.863   4.517
 8051SOL    HW225053   4.747   5.760   4.433
 8052SOL     OW25054   2.362   2.087   1.802
 8052SOL    HW125055   2.319   2.000   1.825
 8052SOL    HW225056   2.378   2.140   1.885
 8053SOL     OW25057   2.927   2.759   5.335
 8053SOL    HW125058   2.999   2.709   5.287
 8053SOL    HW225059   2.953   2.769   5.432
 8054SOL     OW25060   6.087   3.845   4.723
 8054SOL    HW125061   6.046   3.865   4.634
 8054SOL    HW225062   6.040   3.768   4.765
 8055SOL     OW25063   6.988   0.898   5.393
 8055SOL    HW125064   6.905   0.931   5.437
 8055SOL    HW225065   6.984   0.919   5.295
 8056SOL     OW25066   3.337   0.064   3.330
 8056SOL    HW125067   3.255   0.027   3.286
 8056SOL    HW225068   3.412   7.023   3.323
 8057SOL     OW25069   2.786   2.077   2.441
 8057SOL    HW125070   2.774   1.978   2.427
 8057SOL    HW225071   2.861   2.092   2.505
 8058SOL     OW25072   3.350   6.215   3.182
 8058SOL    HW125073   3.356   6.306   3.223
 8058SOL    HW225074   3.336   6.223   3.083
 8059SOL     OW25075   3.280   0.735   5.856
 8059SOL    HW125076   3.184   0.743   5.884
 8059SOL    HW225077   3.302   0.807   5.790
 8060SOL     OW25078   0.141   1.942   6.142
 8060SOL    HW125079   0.220   1.987   6.101
 8060SOL    HW225080   0.171   1.871   6.205
 8061SOL     OW25081   0.598   0.470   2.810
 8061SOL    HW125082   0.498   0.459   2.812
 8061SOL    HW225083   0.624   0.520   2.728
 8062SOL     OW25084   3.919   5.622   5.108
 8062SOL    HW125085   3.950   5.712   5.138
 8062SOL    HW225086   3.855   5.584   5.175
 8063SOL     OW25087   2.705   1.117   3.223
 8063SOL    HW125088   2.612   1.080   3.220
 8063SOL    HW225089   2.717   1.183   3.150
 8064SOL     OW25090   6.251   2.831   0.231
 8064SOL    HW125091   6.235   2.805   0.136
 8064SOL    HW225092   6.166   2.822   0.283
 8065SOL     OW25093   3.375   6.653   4.221
 8065SOL    HW125094   3.458   6.665   4.275
 8065SOL    HW225095   3.348   6.740   4.180
 8066SOL     OW25096   6.508   0.067   4.486
 8066SOL    HW125097   6.430   0.041   4.543
 8066SOL    HW225098   6.593   0.049   4.536
 8067SOL     OW25099   4.753   2.329   3.704
 8067SOL    HW125100   4.735   2.277   3.788
 8067SOL    HW225101   4.695   2.295   3.630
 8068SOL     OW25102   0.431   4.609   0.765
 8068SOL    HW125103   0.414   4.574   0.857
 8068SOL    HW225104   0.483   4.694   0.770
 8069SOL     OW25105   2.279   4.873   2.144
 8069SOL    HW125106   2.254   4.879   2.241
 8069SOL    HW225107   2.374   4.904   2.132
 8070SOL     OW25108   4.275   2.813   0.341
 8070SOL    HW125109   4.214   2.750   0.293
 8070SOL    HW225110   4.231   2.843   0.426
 8071SOL     OW25111   3.364   6.611   5.072
 8071SOL    HW125112   3.415   6.608   4.986
 8071SOL    HW225113   3.279   6.661   5.059
 8072SOL     OW25114   3.285   2.446   0.689
 8072SOL    HW125115   3.281   2.354   0.728
 8072SOL    HW225116   3.215   2.455   0.619
 8073SOL     OW25117   2.549   5.651   5.269
 8073SOL    HW125118   2.520   5.640   5.174
 8073SOL    HW225119   2.558   5.748   5.291
 8074SOL     OW25120   2.621   1.093   1.053
 8074SOL    HW125121   2.633   1.159   0.979
 8074SOL    HW225122   2.656   1.131   1.138
 8075SOL     OW25123   0.275   0.292   0.359
 8075SOL    HW125124   0.280   0.203   0.316
 8075SOL    HW225125   0.203   0.347   0.317
 8076SOL     OW25126   6.764   0.369   5.183
 8076SOL    HW125127   6.801   0.417   5.262
 8076SOL    HW225128   6.838   0.355   5.116
 8077SOL     OW25129   4.132   6.315   2.394
 8077SOL    HW125130   4.140   6.394   2.333
 8077SOL    HW225131   4.096   6.344   2.482
 8078SOL     OW25132   0.977   1.920   0.940
 8078SOL    HW125133   0.913   1.938   0.866
 8078SOL    HW225134   0.969   1.991   1.010
 8079SOL     OW25135   6.607   1.767   3.805
 8079SOL    HW125136   6.621   1.802   3.712
 8079SOL    HW225137   6.670   1.691   3.822
 8080SOL     OW25138   1.266   2.420   2.211
 8080SOL    HW125139   1.307   2.350   2.269
 8080SOL    HW225140   1.294   2.406   2.116
 8081SOL     OW25141   6.265   5.452   5.940
 8081SOL    HW125142   6.320   5.368   5.930
 8081SOL    HW225143   6.299   5.521   5.877
 8082SOL     OW25144   3.636   0.639   2.064
 8082SOL    HW125145   3.552   0.691   2.046
 8082SOL    HW225146   3.675   0.609   1.977
 8083SOL     OW25147   5.210   2.782   4.148
 8083SOL    HW125148   5.226   2.868   4.198
 8083SOL    HW225149   5.140   2.797   4.079
 8084SOL     OW25150   2.619   0.611   6.761
 8084SOL    HW125151   2.592   0.596   6.665
 8084SOL    HW225152   2.649   0.705   6.773
 8085SOL     OW25153   6.161   5.732   3.102
 8085SOL    HW125154   6.165   5.823   3.061
 8085SOL    HW225155   6.156   5.664   3.030
 8086SOL     OW25156   0.376   1.194   1.189
 8086SOL    HW125157   0.463   1.184   1.236
 8086SOL    HW225158   0.373   1.130   1.111
 8087SOL     OW25159   1.800   0.495   6.325
 8087SOL    HW125160   1.737   0.568   6.352
 8087SOL    HW225161   1.890   0.511   6.366
 8088SOL     OW25162   5.634   0.637   6.952
 8088SOL    HW125163   5.699   0.563   6.967
 8088SOL    HW225164   5.541   0.604   6.972
 8089SOL     OW25165   5.921   3.094   6.641
 8089SOL    HW125166   5.851   3.166   6.642
 8089SOL    HW225167   5.956   3.084   6.548
 8090SOL     OW25168   3.993   1.060   6.292
 8090SOL    HW125169   4.008   0.961   6.292
 8090SOL    HW225170   3.944   1.086   6.375
 8091SOL     OW25171   1.269   3.989   5.389
 8091SOL    HW125172   1.227   3.937   5.316
 8091SOL    HW225173   1.351   3.941   5.422
 8092SOL     OW25174   4.775   1.912   5.444
 8092SOL    HW125175   4.766   1.819   5.408
 8092SOL    HW225176   4.870   1.942   5.434
 8093SOL     OW25177   2.832   5.446   3.454
 8093SOL    HW125178   2.751   5.404   3.414
 8093SOL    HW225179   2.831   5.545   3.437
 8094SOL     OW25180   0.239   3.051   5.668
 8094SOL    HW125181   0.331   3.014   5.657
 8094SOL    HW225182   0.209   3.092   5.582
 8095SOL     OW25183   0.911   4.378   4.939
 8095SOL    HW125184   0.879   4.458   4.991
 8095SOL    HW225185   0.942   4.408   4.848
 8096SOL     OW25186   2.516   0.628   2.341
 8096SOL    HW125187   2.610   0.663   2.338
 8096SOL    HW225188   2.495   0.583   2.254
 8097SOL     OW25189   4.205   0.271   4.516
 8097SOL    HW125190   4.215   0.185   4.466
 8097SOL    HW225191   4.142   0.259   4.593
 8098SOL     OW25192   2.714   6.047   3.985
 8098SOL    HW125193   2.618   6.026   4.003
 8098SOL    HW225194   2.771   5.979   4.031
 8099SOL     OW25195   4.742   6.562   4.479
 8099SOL    HW125196   4.707   6.656   4.475
 8099SOL    HW225197   4.708   6.518   4.562
 8100SOL     OW25198   6.834   1.482   7.013
 8100SOL    HW125199   6.905   1.549   6.989
 8100SOL    HW225200   6.855   1.394   6.970
 8101SOL     OW25201   1.201   5.756   0.853
 8101SOL    HW125202   1.266   5.799   0.791
 8101SOL    HW225203   1.156   5.825   0.909
 8102SOL     OW25204   0.513   4.340   3.040
 8102SOL    HW125205   0.428   4.301   3.076
 8102SOL    HW225206   0.535   4.296   2.952
 8103SOL     OW25207   3.832   0.431   2.138
 8103SOL    HW125208   3.753   0.489   2.118
 8103SOL    HW225209   3.914   0.488   2.146
 8104SOL     OW25210   1.741   0.419   6.034
 8104SOL    HW125211   1.704   0.507   6.064
 8104SOL    HW225212   1.666   0.357   6.011
 8105SOL     OW25213   0.053   2.562   2.286
 8105SOL    HW125214   0.055   2.552   2.186
 8105SOL    HW225215   0.029   2.475   2.328
 8106SOL     OW25216   2.815   6.333   3.022
 8106SOL    HW125217   2.902   6.308   3.064
 8106SOL    HW225218   2.769   6.401   3.079
 8107SOL     OW25219   1.472   5.839   3.924
 8107SOL    HW125220   1.560   5.859   3.967
 8107SOL    HW225221   1.436   5.753   3.961
 8108SOL     OW25222   6.995   2.365   6.693
 8108SOL    HW125223   0.003   2.445   6.642
 8108SOL    HW225224   6.944   2.305   6.632
 8109SOL     OW25225   0.090   3.700   6.662
 8109SOL    HW125226   0.024   3.636   6.623
 8109SOL    HW225227   0.174   3.699   6.607
 8110SOL     OW25228   3.820   5.499   2.094
 8110SOL    HW125229   3.770   5.459   2.170
 8110SOL    HW225230   3.913   5.463   2.092
 8111SOL     OW25231   5.061   1.050   4.520
 8111SOL    HW125232   5.081   1.117   4.448
 8111SOL    HW225233   5.130   1.057   4.592
 8112SOL     OW25234   2.475   2.501   4.641
 8112SOL    HW125235   2.500   2.420   4.586
 8112SOL    HW225236   2.549   2.520   4.706
 8113SOL     OW25237   6.663   3.744   0.768
 8113SOL    HW125238   6.735   3.809   0.789
 8113SOL    HW225239   6.685   3.655   0.808
 8114SOL     OW25240   1.824   3.678   2.370
 8114SOL    HW125241   1.742   3.653   2.422
 8114SOL    HW225242   1.821   3.633   2.281
 8115SOL     OW25243   2.988   6.276   6.224
 8115SOL    HW125244   2.986   6.204   6.154
 8115SOL    HW225245   2.992   6.235   6.315
 8116SOL     OW25246   4.028   4.606   0.010
 8116SOL    HW125247   4.017   4.576   6.939
 8116SOL    HW225248   4.010   4.704   0.016
 8117SOL     OW25249   1.821   0.568   3.069
 8117SOL    HW125250   1.913   0.567   3.106
 8117SOL    HW225251   1.822   0.611   2.978
 8118SOL     OW25252   5.396   3.998   6.049
 8118SOL    HW125253   5.337   4.077   6.033
 8118SOL    HW225254   5.456   3.985   5.970
 8119SOL     OW25255   5.314   6.484   6.350
 8119SOL    HW125256   5.411   6.462   6.346
 8119SOL    HW225257   5.263   6.425   6.287
 8120SOL     OW25258   3.017   5.088   0.760
 8120SOL    HW125259   3.080   5.158   0.793
 8120SOL    HW225260   3.003   5.019   0.831
 8121SOL     OW25261   0.666   4.550   1.382
 8121SOL    HW125262   0.687   4.524   1.288
 8121SOL    HW225263   0.595   4.620   1.382
 8122SOL     OW25264   0.734   4.650   2.843
 8122SOL    HW125265   0.636   4.632   2.857
 8122SOL    HW225266   0.784   4.564   2.843
 8123SOL     OW25267   0.280   2.127   6.910
 8123SOL    HW125268   0.312   2.037   6.939
 8123SOL    HW225269   0.234   2.120   6.822
 8124SOL     OW25270   5.376   5.950   2.827
 8124SOL    HW125271   5.412   5.905   2.746
 8124SOL    HW225272   5.279   5.971   2.814
 8125SOL     OW25273   1.391   0.828   3.068
 8125SOL    HW125274   1.343   0.751   3.110
 8125SOL    HW225275   1.434   0.798   2.983
 8126SOL     OW25276   5.405   4.768   3.342
 8126SOL    HW125277   5.420   4.762   3.440
 8126SOL    HW225278   5.457   4.695   3.296
 8127SOL     OW25279   2.922   3.505   6.469
 8127SOL    HW125280   2.878   3.429   6.422
 8127SOL    HW225281   3.008   3.527   6.425
 8128SOL     OW25282   3.006   2.160   2.173
 8128SOL    HW125283   3.049   2.190   2.259
 8128SOL    HW225284   2.958   2.236   2.132
 8129SOL     OW25285   3.748   1.706   6.397
 8129SOL    HW125286   3.758   1.800   6.363
 8129SOL    HW225287   3.651   1.687   6.411
 8130SOL     OW25288   0.592   5.836   6.759
 8130SOL    HW125289   0.673   5.832   6.816
 8130SOL    HW225290   0.583   5.928   6.720
 8131SOL     OW25291   3.098   1.569   1.798
 8131SOL    HW125292   3.070   1.657   1.836
 8131SOL    HW225293   3.110   1.578   1.699
 8132SOL     OW25294   5.683   7.013   4.988
 8132SOL    HW125295   5.728   6.985   5.073
 8132SOL    HW225296   5.584   7.006   4.999
 8133SOL     OW25297   3.452   5.318   2.471
 8133SOL    HW125298   3.417   5.404   2.508
 8133SOL    HW225299   3.388   5.283   2.403
 8134SOL     OW25300   0.333   1.769   6.248
 8134SOL    HW125301   0.325   1.828   6.329
 8134SOL    HW225302   0.429   1.759   6.224
 8135SOL     OW25303   2.439   1.005   1.637
 8135SOL    HW125304   2.422   1.103   1.631
 8135SOL    HW225305   2.358   0.959   1.673
 8136SOL     OW25306   5.197   5.361   2.086
 8136SOL    HW125307   5.193   5.414   2.001
 8136SOL    HW225308   5.188   5.423   2.164
 8137SOL     OW25309   3.390   0.870   4.891
 8137SOL    HW125310   3.413   0.952   4.943
 8137SOL    HW225311   3.364   0.894   4.798
 8138SOL     OW25312   5.621   1.302   1.445
 8138SOL    HW125313   5.593   1.372   1.379
 8138SOL    HW225314   5.721   1.302   1.453
 8139SOL     OW25315   0.416   0.978   1.780
 8139SOL    HW125316   0.467   1.005   1.699
 8139SOL    HW225317   0.394   0.880   1.776
 8140SOL     OW25318   5.494   0.388   5.775
 8140SOL    HW125319   5.545   0.345   5.849
 8140SOL    HW225320   5.464   0.318   5.710
 8141SOL     OW25321   4.451   5.375   5.903
 8141SOL    HW125322   4.438   5.416   5.993
 8141SOL    HW225323   4.375   5.402   5.843
 8142SOL     OW25324   6.761   5.135   0.709
 8142SOL    HW125325   6.810   5.194   0.645
 8142SOL    HW225326   6.719   5.190   0.780
 8143SOL     OW25327   6.486   4.378   0.462
 8143SOL    HW125328   6.544   4.297   0.456
 8143SOL    HW225329   6.459   4.392   0.558
 8144SOL     OW25330   5.871   6.218   6.809
 8144SOL    HW125331   5.923   6.143   6.849
 8144SOL    HW225332   5.931   6.297   6.798
 8145SOL     OW25333   5.584   5.932   1.366
 8145SOL    HW125334   5.487   5.923   1.344
 8145SOL    HW225335   5.636   5.864   1.314
 8146SOL     OW25336   3.466   1.210   5.304
 8146SOL    HW125337   3.469   1.214   5.204
 8146SOL    HW225338   3.510   1.291   5.341
 8147SOL     OW25339   5.833   2.395   3.246
 8147SOL    HW125340   5.867   2.486   3.268
 8147SOL    HW225341   5.766   2.366   3.315
 8148SOL     OW25342   5.337   4.113   1.962
 8148SOL    HW125343   5.247   4.154   1.945
 8148SOL    HW225344   5.340   4.074   2.054
 8149SOL     OW25345   2.416   5.590   2.176
 8149SOL    HW125346   2.508   5.552   2.175
 8149SOL    HW225347   2.403   5.646   2.257
 8150SOL     OW25348   0.319   5.390   0.242
 8150SOL    HW125349   0.351   5.432   0.327
 8150SOL    HW225350   0.315   5.459   0.171
 8151SOL     OW25351   6.742   2.231   2.643
 8151SOL    HW125352   6.694   2.305   2.596
 8151SOL    HW225353   6.818   2.269   2.696
 8152SOL     OW25354   0.637   2.318   2.476
 8152SOL    HW125355   0.574   2.372   2.419
 8152SOL    HW225356   0.633   2.352   2.570
 8153SOL     OW25357   3.729   0.477   3.085
 8153SOL    HW125358   3.819   0.443   3.058
 8153SOL    HW225359   3.659   0.413   3.054
 8154SOL     OW25360   2.546   6.185   3.731
 8154SOL    HW125361   2.607   6.109   3.709
 8154SOL    HW225362   2.453   6.162   3.703
 8155SOL     OW25363   2.685   3.410   1.808
 8155SOL    HW125364   2.693   3.379   1.713
 8155SOL    HW225365   2.589   3.417   1.833
 8156SOL     OW25366   5.557   6.867   6.014
 8156SOL    HW125367   5.530   6.960   5.986
 8156SOL    HW225368   5.479   6.805   6.002
 8157SOL     OW25369   5.955   5.786   6.296
 8157SOL    HW125370   5.911   5.761   6.210
 8157SOL    HW225371   6.041   5.833   6.277
 8158SOL     OW25372   0.643   5.448   0.845
 8158SOL    HW125373   0.580   5.383   0.887
 8158SOL    HW225374   0.733   5.405   0.833
 8159SOL     OW25375   2.702   5.928   2.625
 8159SOL    HW125376   2.647   5.966   2.551
 8159SOL    HW225377   2.731   6.003   2.685
 8160SOL     OW25378   4.456   1.743   1.650
 8160SOL    HW125379   4.512   1.715   1.573
 8160SOL    HW225380   4.375   1.791   1.617
 8161SOL     OW25381   5.053   0.630   0.672
 8161SOL    HW125382   4.983   0.624   0.743
 8161SOL    HW225383   5.139   0.594   0.707
 8162SOL     OW25384   6.176   6.816   6.019
 8162SOL    HW125385   6.122   6.803   6.102
 8162SOL    HW225386   6.141   6.895   5.968
 8163SOL     OW25387   2.141   4.058   5.811
 8163SOL    HW125388   2.154   4.155   5.834
 8163SOL    HW225389   2.046   4.043   5.785
 8164SOL     OW25390   5.614   3.785   0.495
 8164SOL    HW125391   5.565   3.841   0.429
 8164SOL    HW225392   5.703   3.758   0.457
 8165SOL     OW25393   1.441   4.413   0.203
 8165SOL    HW125394   1.352   4.457   0.219
 8165SOL    HW225395   1.506   4.482   0.171
 8166SOL     OW25396   2.596   1.426   2.032
 8166SOL    HW125397   2.511   1.398   1.988
 8166SOL    HW225398   2.662   1.455   1.963
 8167SOL     OW25399   5.821   1.435   4.360
 8167SOL    HW125400   5.789   1.519   4.316
 8167SOL    HW225401   5.828   1.450   4.459
 8168SOL     OW25402   3.346   1.469   2.417
 8168SOL    HW125403   3.437   1.451   2.453
 8168SOL    HW225404   3.280   1.475   2.492
 8169SOL     OW25405   4.800   3.159   0.923
 8169SOL    HW125406   4.837   3.073   0.960
 8169SOL    HW225407   4.871   3.206   0.871
 8170SOL     OW25408   1.855   5.904   3.213
 8170SOL    HW125409   1.777   5.965   3.200
 8170SOL    HW225410   1.939   5.953   3.189
 8171SOL     OW25411   0.907   1.911   6.646
 8171SOL    HW125412   0.925   2.004   6.678
 8171SOL    HW225413   0.959   1.894   6.562
 8172SOL     OW25414   0.490   0.786   1.296
 8172SOL    HW125415   0.468   0.689   1.300
 8172SOL    HW225416   0.580   0.799   1.256
 8173SOL     OW25417   3.490   2.584   0.500
 8173SOL    HW125418   3.445   2.539   0.423
 8173SOL    HW225419   3.463   2.540   0.586
 8174SOL     OW25420   5.207   1.841   1.298
 8174SOL    HW125421   5.211   1.941   1.290
 8174SOL    HW225422   5.272   1.810   1.366
 8175SOL     OW25423   0.422   2.873   6.240
 8175SOL    HW125424   0.481   2.929   6.298
 8175SOL    HW225425   0.369   2.933   6.179
 8176SOL     OW25426   2.749   5.955   2.023
 8176SOL    HW125427   2.750   6.020   1.948
 8176SOL    HW225428   2.808   5.988   2.097
 8177SOL     OW25429   1.421   6.139   3.754
 8177SOL    HW125430   1.358   6.206   3.714
 8177SOL    HW225431   1.387   6.047   3.737
 8178SOL     OW25432   1.523   0.269   6.301
 8178SOL    HW125433   1.611   0.314   6.291
 8178SOL    HW225434   1.532   0.172   6.278
 8179SOL     OW25435   3.874   3.338   0.255
 8179SOL    HW125436   3.895   3.290   0.170
 8179SOL    HW225437   3.775   3.340   0.268
 8180SOL     OW25438   6.295   6.928   4.010
 8180SOL    HW125439   6.279   6.872   4.091
 8180SOL    HW225440   6.258   6.882   3.930
 8181SOL     OW25441   2.200   1.514   2.771
 8181SOL    HW125442   2.236   1.441   2.828
 8181SOL    HW225443   2.273   1.550   2.712
 8182SOL     OW25444   3.710   1.588   6.759
 8182SOL    HW125445   3.797   1.634   6.740
 8182SOL    HW225446   3.658   1.578   6.674
 8183SOL     OW25447   0.249   2.871   5.354
 8183SOL    HW125448   0.317   2.943   5.372
 8183SOL    HW225449   0.182   2.905   5.289
 8184SOL     OW25450   5.798   1.468   5.930
 8184SOL    HW125451   5.703   1.493   5.911
 8184SOL    HW225452   5.801   1.415   6.015
 8185SOL     OW25453   2.932   0.384   0.382
 8185SOL    HW125454   3.019   0.338   0.402
 8185SOL    HW225455   2.872   0.377   0.461
 8186SOL     OW25456   3.200   6.130   5.968
 8186SOL    HW125457   3.258   6.154   6.046
 8186SOL    HW225458   3.163   6.214   5.927
 8187SOL     OW25459   1.348   1.804   5.109
 8187SOL    HW125460   1.378   1.845   5.023
 8187SOL    HW225461   1.384   1.858   5.186
 8188SOL     OW25462   4.873   1.639   2.411
 8188SOL    HW125463   4.963   1.598   2.425
 8188SOL    HW225464   4.872   1.688   2.324
 8189SOL     OW25465   4.828   4.209   2.258
 8189SOL    HW125466   4.901   4.140   2.253
 8189SOL    HW225467   4.790   4.224   2.167
 8190SOL     OW25468   5.434   4.672   4.104
 8190SOL    HW125469   5.345   4.705   4.136
 8190SOL    HW225470   5.507   4.717   4.154
 8191SOL     OW25471   1.833   5.285   3.607
 8191SOL    HW125472   1.844   5.191   3.640
 8191SOL    HW225473   1.735   5.305   3.596
 8192SOL     OW25474   2.874   5.644   0.368
 8192SOL    HW125475   2.830   5.555   0.378
 8192SOL    HW225476   2.836   5.709   0.434
 8193SOL     OW25477   5.900   6.425   5.173
 8193SOL    HW125478   5.948   6.513   5.173
 8193SOL    HW225479   5.967   6.351   5.174
 8194SOL     OW25480   6.348   2.619   6.751
 8194SOL    HW125481   6.250   2.615   6.732
 8194SOL    HW225482   6.375   2.715   6.765
 8195SOL     OW25483   0.216   0.733   0.759
 8195SOL    HW125484   0.315   0.715   0.765
 8195SOL    HW225485   0.167   0.647   0.749
 8196SOL     OW25486   3.819   6.463   5.487
 8196SOL    HW125487   3.860   6.420   5.406
 8196SOL    HW225488   3.871   6.545   5.511
 8197SOL     OW25489   6.014   1.481   6.231
 8197SOL    HW125490   6.000   1.574   6.195
 8197SOL    HW225491   6.000   1.415   6.158
 8198SOL     OW25492   3.198   6.523   2.257
 8198SOL    HW125493   3.267   6.488   2.194
 8198SOL    HW225494   3.151   6.446   2.301
 8199SOL     OW25495   6.984   4.010   0.117
 8199SOL    HW125496   6.939   3.977   0.200
 8199SOL    HW225497   0.050   3.967   0.109
 8200SOL     OW25498   4.329   5.011   1.156
 8200SOL    HW125499   4.355   4.952   1.080
 8200SOL    HW225500   4.396   5.085   1.166
 8201SOL     OW25501   5.285   0.544   4.594
 8201SOL    HW125502   5.302   0.468   4.656
 8201SOL    HW225503   5.197   0.587   4.616
 8202SOL     OW25504   1.418   5.361   4.469
 8202SOL    HW125505   1.485   5.288   4.458
 8202SOL    HW225506   1.340   5.327   4.522
 8203SOL     OW25507   4.784   3.637   0.896
 8203SOL    HW125508   4.697   3.678   0.873
 8203SOL    HW225509   4.858   3.702   0.879
 8204SOL     OW25510   3.524   6.499   1.305
 8204SOL    HW125511   3.524   6.557   1.386
 8204SOL    HW225512   3.614   6.457   1.293
 8205SOL     OW25513   5.550   5.192   1.298
 8205SOL    HW125514   5.602   5.167   1.379
 8205SOL    HW225515   5.472   5.130   1.288
 8206SOL     OW25516   2.938   2.792   6.061
 8206SOL    HW125517   2.896   2.788   5.971
 8206SOL    HW225518   2.911   2.877   6.107
 8207SOL     OW25519   3.392   4.677   5.299
 8207SOL    HW125520   3.296   4.657   5.280
 8207SOL    HW225521   3.429   4.737   5.227
 8208SOL     OW25522   2.884   6.108   1.507
 8208SOL    HW125523   2.870   6.010   1.509
 8208SOL    HW225524   2.797   6.155   1.522
 8209SOL     OW25525   1.620   1.213   5.580
 8209SOL    HW125526   1.561   1.140   5.544
 8209SOL    HW225527   1.682   1.175   5.648
 8210SOL     OW25528   2.798   0.700   0.483
 8210SOL    HW125529   2.733   0.644   0.433
 8210SOL    HW225530   2.872   0.730   0.422
 8211SOL     OW25531   3.488   4.073   4.775
 8211SOL    HW125532   3.556   4.019   4.725
 8211SOL    HW225533   3.535   4.131   4.842
 8212SOL     OW25534   2.465   7.024   0.761
 8212SOL    HW125535   2.428   7.010   0.853
 8212SOL    HW225536   2.563   0.017   0.766
 8213SOL     OW25537   4.418   5.230   3.253
 8213SOL    HW125538   4.331   5.269   3.223
 8213SOL    HW225539   4.401   5.148   3.308
 8214SOL     OW25540   2.449   5.959   4.049
 8214SOL    HW125541   2.400   5.896   4.109
 8214SOL    HW225542   2.402   6.047   4.048
 8215SOL     OW25543   4.086   6.245   6.949
 8215SOL    HW125544   4.104   6.230   6.852
 8215SOL    HW225545   4.167   6.221   7.002
 8216SOL     OW25546   5.144   6.644   2.799
 8216SOL    HW125547   5.177   6.619   2.709
 8216SOL    HW225548   5.044   6.654   2.797
 8217SOL     OW25549   2.082   4.226   2.835
 8217SOL    HW125550   2.157   4.290   2.818
 8217SOL    HW225551   2.116   4.132   2.827
 8218SOL     OW25552   2.011   0.160   4.957
 8218SOL    HW125553   2.052   0.097   5.022
 8218SOL    HW225554   1.969   0.109   4.882
 8219SOL     OW25555   3.108   4.051   1.900
 8219SOL    HW125556   3.089   4.130   1.842
 8219SOL    HW225557   3.073   3.968   1.856
 8220SOL     OW25558   3.590   4.318   5.270
 8220SOL    HW125559   3.572   4.358   5.360
 8220SOL    HW225560   3.509   4.270   5.238
 8221SOL     OW25561   5.892   4.224   2.872
 8221SOL    HW125562   5.828   4.203   2.947
 8221SOL    HW225563   5.842   4.225   2.786
 8222SOL     OW25564   5.895   3.127   1.192
 8222SOL    HW125565   5.832   3.114   1.269
 8222SOL    HW225566   5.900   3.043   1.138
 8223SOL     OW25567   6.786   5.247   4.966
 8223SOL    HW125568   6.851   5.319   4.941
 8223SOL    HW225569   6.830   5.183   5.028
 8224SOL     OW25570   5.091   1.338   0.572
 8224SOL    HW125571   5.050   1.301   0.488
 8224SOL    HW225572   5.023   1.390   0.623
 8225SOL     OW25573   3.894   0.576   0.318
 8225SOL    HW125574   3.974   0.634   0.303
 8225SOL    HW225575   3.847   0.605   0.402
 8226SOL     OW25576   3.739   0.762   0.174
 8226SOL    HW125577   3.727   0.668   0.206
 8226SOL    HW225578   3.691   0.825   0.235
 8227SOL     OW25579   5.580   1.445   2.967
 8227SOL    HW125580   5.542   1.475   2.879
 8227SOL    HW225581   5.627   1.522   3.011
 8228SOL     OW25582   0.867   1.259   5.066
 8228SOL    HW125583   0.907   1.321   4.998
 8228SOL    HW225584   0.919   1.174   5.069
 8229SOL     OW25585   3.766   4.760   0.984
 8229SOL    HW125586   3.745   4.781   1.080
 8229SOL    HW225587   3.844   4.697   0.980
 8230SOL     OW25588   4.201   0.137   5.509
 8230SOL    HW125589   4.260   0.207   5.468
 8230SOL    HW225590   4.124   0.119   5.448
 8231SOL     OW25591   3.417   1.533   2.045
 8231SOL    HW125592   3.410   1.447   2.095
 8231SOL    HW225593   3.346   1.596   2.076
 8232SOL     OW25594   4.269   1.416   2.390
 8232SOL    HW125595   4.252   1.318   2.394
 8232SOL    HW225596   4.235   1.452   2.303
 8233SOL     OW25597   0.727   0.965   5.905
 8233SOL    HW125598   0.772   0.934   5.821
 8233SOL    HW225599   0.767   0.917   5.983
 8234SOL     OW25600   3.129   3.641   0.131
 8234SOL    HW125601   3.137   3.597   0.221
 8234SOL    HW225602   3.203   3.609   0.072
 8235SOL     OW25603   6.613   5.008   6.640
 8235SOL    HW125604   6.671   4.927   6.634
 8235SOL    HW225605   6.601   5.033   6.736
 8236SOL     OW25606   0.381   5.866   5.789
 8236SOL    HW125607   0.313   5.799   5.758
 8236SOL    HW225608   0.386   5.865   5.889
 8237SOL     OW25609   4.334   5.516   6.731
 8237SOL    HW125610   4.287   5.575   6.666
 8237SOL    HW225611   4.301   5.534   6.824
 8238SOL     OW25612   1.838   5.606   0.379
 8238SOL    HW125613   1.880   5.663   0.449
 8238SOL    HW225614   1.904   5.589   0.306
 8239SOL     OW25615   0.765   1.941   4.852
 8239SOL    HW125616   0.842   1.959   4.913
 8239SOL    HW225617   0.797   1.892   4.771
 8240SOL     OW25618   3.583   2.867   3.438
 8240SOL    HW125619   3.655   2.880   3.370
 8240SOL    HW225620   3.494   2.868   3.393
 8241SOL     OW25621   1.605   3.310   6.751
 8241SOL    HW125622   1.618   3.399   6.707
 8241SOL    HW225623   1.600   3.239   6.681
 8242SOL     OW25624   0.742   3.735   4.276
 8242SOL    HW125625   0.808   3.810   4.277
 8242SOL    HW225626   0.740   3.694   4.185
 8243SOL     OW25627   0.441   4.870   5.983
 8243SOL    HW125628   0.504   4.926   5.930
 8243SOL    HW225629   0.373   4.828   5.921
 8244SOL     OW25630   0.692   0.130   3.429
 8244SOL    HW125631   0.594   0.149   3.434
 8244SOL    HW225632   0.726   0.156   3.338
 8245SOL     OW25633   4.894   1.379   3.770
 8245SOL    HW125634   4.796   1.392   3.789
 8245SOL    HW225635   4.910   1.383   3.671
 8246SOL     OW25636   1.292   4.161   6.606
 8246SOL    HW125637   1.263   4.073   6.642
 8246SOL    HW225638   1.388   4.178   6.630
 8247SOL     OW25639   3.153   4.897   3.584
 8247SOL    HW125640   3.236   4.894   3.528
 8247SOL    HW225641   3.093   4.822   3.558
 8248SOL     OW25642   0.946   5.550   3.285
 8248SOL    HW125643   0.937   5.514   3.192
 8248SOL    HW225644   1.042   5.549   3.313
 8249SOL     OW25645   2.240   2.427   5.364
 8249SOL    HW125646   2.194   2.387   5.285
 8249SOL    HW225647   2.179   2.492   5.409
 8250SOL     OW25648   2.394   1.867   0.430
 8250SOL    HW125649   2.478   1.859   0.485
 8250SOL    HW225650   2.321   1.813   0.473
 8251SOL     OW25651   0.017   2.203   4.649
 8251SOL    HW125652   6.968   2.208   4.581
 8251SOL    HW225653   0.007   2.277   4.714
 8252SOL     OW25654   2.528   2.128   6.975
 8252SOL    HW125655   2.484   2.097   6.890
 8252SOL    HW225656   2.529   2.228   6.977
 8253SOL     OW25657   3.167   5.872   6.256
 8253SOL    HW125658   3.130   5.858   6.347
 8253SOL    HW225659   3.187   5.783   6.214
 8254SOL     OW25660   6.012   4.865   0.009
 8254SOL    HW125661   6.024   4.954   0.053
 8254SOL    HW225662   6.020   4.793   0.078
 8255SOL     OW25663   0.419   6.976   6.086
 8255SOL    HW125664   0.464   0.035   6.054
 8255SOL    HW225665   0.451   6.898   6.032
 8256SOL     OW25666   1.318   6.535   2.456
 8256SOL    HW125667   1.391   6.469   2.438
 8256SOL    HW225668   1.234   6.504   2.412
 8257SOL     OW25669   5.520   4.070   4.188
 8257SOL    HW125670   5.606   4.061   4.239
 8257SOL    HW225671   5.491   4.165   4.189
 8258SOL     OW25672   5.533   2.744   1.657
 8258SOL    HW125673   5.468   2.669   1.643
 8258SOL    HW225674   5.583   2.761   1.572
 8259SOL     OW25675   4.329   2.389   4.631
 8259SOL    HW125676   4.372   2.450   4.566
 8259SOL    HW225677   4.282   2.316   4.582
 8260SOL     OW25678   2.616   6.884   0.334
 8260SOL    HW125679   2.558   6.816   0.379
 8260SOL    HW225680   2.697   6.840   0.297
 8261SOL     OW25681   5.719   5.705   2.840
 8261SOL    HW125682   5.787   5.754   2.784
 8261SOL    HW225683   5.641   5.681   2.783
 8262SOL     OW25684   0.309   4.781   0.479
 8262SOL    HW125685   0.321   4.878   0.498
 8262SOL    HW225686   0.325   4.728   0.562
 8263SOL     OW25687   0.036   2.590   6.543
 8263SOL    HW125688   0.109   2.645   6.503
 8263SOL    HW225689   7.003   2.648   6.601
 8264SOL     OW25690   2.175   6.993   1.622
 8264SOL    HW125691   2.271   7.006   1.648
 8264SOL    HW225692   2.116   0.008   1.693
 8265SOL     OW25693   4.344   0.285   1.416
 8265SOL    HW125694   4.287   0.341   1.475
 8265SOL    HW225695   4.436   0.277   1.456
 8266SOL     OW25696   2.697   0.315   4.027
 8266SOL    HW125697   2.750   0.239   4.065
 8266SOL    HW225698   2.691   0.388   4.095
 8267SOL     OW25699   1.145   4.649   2.718
 8267SOL    HW125700   1.220   4.585   2.702
 8267SOL    HW225701   1.059   4.609   2.687
 8268SOL     OW25702   3.248   3.715   6.510
 8268SOL    HW125703   3.232   3.701   6.608
 8268SOL    HW225704   3.188   3.787   6.476
 8269SOL     OW25705   4.243   2.350   3.226
 8269SOL    HW125706   4.285   2.397   3.303
 8269SOL    HW225707   4.151   2.321   3.250
 8270SOL     OW25708   3.500   6.862   6.007
 8270SOL    HW125709   3.431   6.796   6.037
 8270SOL    HW225710   3.473   6.954   6.035
 8271SOL     OW25711   5.510   6.193   4.223
 8271SOL    HW125712   5.410   6.193   4.217
 8271SOL    HW225713   5.541   6.279   4.263
 8272SOL     OW25714   0.680   0.246   2.350
 8272SOL    HW125715   0.678   0.342   2.379
 8272SOL    HW225716   0.673   0.241   2.250
 8273SOL     OW25717   2.540   6.993   6.924
 8273SOL    HW125718   2.525   0.028   7.003
 8273SOL    HW225719   2.538   0.023   6.840
 8274SOL     OW25720   4.858   5.124   0.099
 8274SOL    HW125721   4.814   5.186   0.164
 8274SOL    HW225722   4.810   5.036   0.099
 8275SOL     OW25723   7.012   0.009   4.075
 8275SOL    HW125724   0.032   6.946   4.098
 8275SOL    HW225725   0.057   0.081   4.071
 8276SOL     OW25726   6.813   2.460   5.604
 8276SOL    HW125727   6.848   2.382   5.552
 8276SOL    HW225728   6.737   2.430   5.662
 8277SOL     OW25729   1.526   6.106   5.414
 8277SOL    HW125730   1.619   6.089   5.382
 8277SOL    HW225731   1.524   6.190   5.467
 8278SOL     OW25732   3.574   1.889   6.518
 8278SOL    HW125733   3.513   1.866   6.594
 8278SOL    HW225734   3.635   1.963   6.546
 8279SOL     OW25735   4.670   5.796   6.619
 8279SOL    HW125736   4.746   5.781   6.683
 8279SOL    HW225737   4.707   5.827   6.531
 8280SOL     OW25738   5.497   2.759   0.577
 8280SOL    HW125739   5.463   2.841   0.624
 8280SOL    HW225740   5.527   2.784   0.485
 8281SOL     OW25741   1.272   5.085   0.658
 8281SOL    HW125742   1.248   4.988   0.650
 8281SOL    HW225743   1.293   5.122   0.567
 8282SOL     OW25744   2.495   2.691   1.410
 8282SOL    HW125745   2.483   2.618   1.478
 8282SOL    HW225746   2.453   2.662   1.324
 8283SOL     OW25747   0.467   4.889   4.060
 8283SOL    HW125748   0.397   4.858   3.995
 8283SOL    HW225749   0.541   4.934   4.010
 8284SOL     OW25750   2.742   2.356   2.819
 8284SOL    HW125751   2.742   2.397   2.727
 8284SOL    HW225752   2.688   2.412   2.881
 8285SOL     OW25753   2.904   4.282   5.727
 8285SOL    HW125754   2.980   4.318   5.781
 8285SOL    HW225755   2.825   4.267   5.787
 8286SOL     OW25756   5.746   0.864   4.698
 8286SOL    HW125757   5.820   0.849   4.763
 8286SOL    HW225758   5.716   0.776   4.661
 8287SOL     OW25759   1.270   0.197   3.487
 8287SOL    HW125760   1.242   0.206   3.392
 8287SOL    HW225761   1.333   0.119   3.496
 8288SOL     OW25762   2.267   1.902   2.140
 8288SOL    HW125763   2.233   1.896   2.234
 8288SOL    HW225764   2.367   1.901   2.141
 8289SOL     OW25765   5.770   1.876   5.233
 8289SOL    HW125766   5.715   1.944   5.184
 8289SOL    HW225767   5.749   1.880   5.331
 8290SOL     OW25768   3.546   2.718   1.495
 8290SOL    HW125769   3.636   2.682   1.472
 8290SOL    HW225770   3.513   2.674   1.579
 8291SOL     OW25771   5.610   6.673   6.732
 8291SOL    HW125772   5.646   6.669   6.639
 8291SOL    HW225773   5.534   6.610   6.742
 8292SOL     OW25774   0.855   5.266   5.465
 8292SOL    HW125775   0.803   5.192   5.422
 8292SOL    HW225776   0.895   5.233   5.551
 8293SOL     OW25777   2.121   4.776   2.350
 8293SOL    HW125778   2.176   4.693   2.334
 8293SOL    HW225779   2.130   4.805   2.445
 8294SOL     OW25780   0.275   3.791   5.746
 8294SOL    HW125781   0.217   3.833   5.676
 8294SOL    HW225782   0.333   3.860   5.788
 8295SOL     OW25783   5.019   3.761   2.889
 8295SOL    HW125784   5.077   3.799   2.817
 8295SOL    HW225785   4.978   3.836   2.942
 8296SOL     OW25786   3.212   5.601   0.289
 8296SOL    HW125787   3.151   5.598   0.210
 8296SOL    HW225788   3.175   5.664   0.357
 8297SOL     OW25789   6.990   4.449   2.668
 8297SOL    HW125790   6.906   4.498   2.693
 8297SOL    HW225791   0.005   4.406   2.749
 8298SOL     OW25792   0.683   1.020   6.886
 8298SOL    HW125793   0.668   1.090   6.816
 8298SOL    HW225794   0.604   1.016   6.947
 8299SOL     OW25795   0.147   3.774   2.153
 8299SOL    HW125796   0.063   3.810   2.194
 8299SOL    HW225797   0.225   3.794   2.212
 8300SOL     OW25798   6.189   5.263   4.037
 8300SOL    HW125799   6.179   5.359   4.062
 8300SOL    HW225800   6.235   5.214   4.111
 8301SOL     OW25801   3.746   0.123   0.167
 8301SOL    HW125802   3.794   0.174   0.239
 8301SOL    HW225803   3.805   0.113   0.088
 8302SOL     OW25804   3.456   6.292   4.143
 8302SOL    HW125805   3.493   6.360   4.080
 8302SOL    HW225806   3.530   6.245   4.190
 8303SOL     OW25807   6.316   0.361   1.973
 8303SOL    HW125808   6.266   0.433   2.023
 8303SOL    HW225809   6.413   0.383   1.971
 8304SOL     OW25810   5.752   3.293   3.855
 8304SOL    HW125811   5.685   3.277   3.782
 8304SOL    HW225812   5.736   3.383   3.896
 8305SOL     OW25813   4.498   5.315   3.685
 8305SOL    HW125814   4.456   5.226   3.662
 8305SOL    HW225815   4.453   5.353   3.765
 8306SOL     OW25816   6.753   0.732   2.195
 8306SOL    HW125817   6.722   0.805   2.134
 8306SOL    HW225818   6.673   0.686   2.234
 8307SOL     OW25819   1.355   4.888   1.689
 8307SOL    HW125820   1.263   4.922   1.708
 8307SOL    HW225821   1.350   4.809   1.628
 8308SOL     OW25822   1.031   4.676   0.128
 8308SOL    HW125823   0.963   4.608   0.101
 8308SOL    HW225824   1.104   4.631   0.179
 8309SOL     OW25825   6.712   4.526   4.897
 8309SOL    HW125826   6.746   4.459   4.831
 8309SOL    HW225827   6.724   4.491   4.990
 8310SOL     OW25828   0.269   6.803   0.516
 8310SOL    HW125829   0.275   6.710   0.551
 8310SOL    HW225830   0.229   6.862   0.585
 8311SOL     OW25831   5.603   6.245   3.943
 8311SOL    HW125832   5.590   6.214   4.037
 8311SOL    HW225833   5.515   6.273   3.905
 8312SOL     OW25834   5.134   6.972   6.985
 8312SOL    HW125835   5.215   6.915   6.971
 8312SOL    HW225836   5.157   0.043   6.965
 8313SOL     OW25837   4.121   0.031   5.237
 8313SOL    HW125838   4.088   0.059   5.147
 8313SOL    HW225839   4.048   0.043   5.304
 8314SOL     OW25840   5.177   6.318   6.160
 8314SOL    HW125841   5.187   6.258   6.240
 8314SOL    HW225842   5.237   6.286   6.087
 8315SOL     OW25843   3.652   3.197   4.495
 8315SOL    HW125844   3.751   3.181   4.493
 8315SOL    HW225845   3.605   3.113   4.467
 8316SOL     OW25846   0.871   3.039   0.291
 8316SOL    HW125847   0.789   2.993   0.254
 8316SOL    HW225848   0.843   3.113   0.352
 8317SOL     OW25849   2.151   1.823   4.990
 8317SOL    HW125850   2.094   1.853   5.067
 8317SOL    HW225851   2.093   1.800   4.912
 8318SOL     OW25852   4.017   0.542   6.553
 8318SOL    HW125853   4.045   0.515   6.645
 8318SOL    HW225854   4.052   0.475   6.487
 8319SOL     OW25855   1.261   0.260   5.982
 8319SOL    HW125856   1.216   0.322   5.918
 8319SOL    HW225857   1.243   0.290   6.076
 8320SOL     OW25858   3.057   4.044   4.337
 8320SOL    HW125859   3.099   4.080   4.420
 8320SOL    HW225860   2.962   4.077   4.331
 8321SOL     OW25861   0.139   0.502   0.112
 8321SOL    HW125862   0.083   0.565   0.058
 8321SOL    HW225863   0.232   0.538   0.119
 8322SOL     OW25864   6.978   1.122   0.506
 8322SOL    HW125865   6.951   1.177   0.584
 8322SOL    HW225866   0.039   1.074   0.527
 8323SOL     OW25867   4.898   4.681   1.050
 8323SOL    HW125868   4.864   4.673   0.957
 8323SOL    HW225869   4.970   4.613   1.065
 8324SOL     OW25870   5.967   0.391   6.587
 8324SOL    HW125871   5.967   0.291   6.599
 8324SOL    HW225872   5.887   0.430   6.632
 8325SOL     OW25873   1.654   5.438   4.672
 8325SOL    HW125874   1.589   5.363   4.685
 8325SOL    HW225875   1.673   5.449   4.575
 8326SOL     OW25876   2.580   3.854   0.073
 8326SOL    HW125877   2.539   3.925   0.130
 8326SOL    HW225878   2.542   3.765   0.099
 8327SOL     OW25879   0.763   0.872   5.641
 8327SOL    HW125880   0.811   0.785   5.627
 8327SOL    HW225881   0.809   0.944   5.588
 8328SOL     OW25882   0.617   5.852   5.642
 8328SOL    HW125883   0.526   5.863   5.684
 8328SOL    HW225884   0.613   5.880   5.547
 8329SOL     OW25885   0.766   2.866   4.992
 8329SOL    HW125886   0.719   2.782   5.020
 8329SOL    HW225887   0.706   2.920   4.933
 8330SOL     OW25888   4.129   0.936   6.658
 8330SOL    HW125889   4.085   0.979   6.580
 8330SOL    HW225890   4.155   1.006   6.725
 8331SOL     OW25891   2.087   1.816   0.741
 8331SOL    HW125892   2.103   1.791   0.645
 8331SOL    HW225893   2.171   1.803   0.793
 8332SOL     OW25894   5.390   4.931   1.641
 8332SOL    HW125895   5.344   4.880   1.714
 8332SOL    HW225896   5.489   4.924   1.652
 8333SOL     OW25897   1.814   4.786   1.212
 8333SOL    HW125898   1.817   4.686   1.216
 8333SOL    HW225899   1.771   4.821   1.295
 8334SOL     OW25900   3.318   2.459   6.832
 8334SOL    HW125901   3.274   2.535   6.880
 8334SOL    HW225902   3.417   2.463   6.847
 8335SOL     OW25903   4.702   3.057   6.873
 8335SOL    HW125904   4.656   2.968   6.874
 8335SOL    HW225905   4.700   3.096   6.965
 8336SOL     OW25906   1.515   3.279   2.678
 8336SOL    HW125907   1.537   3.279   2.580
 8336SOL    HW225908   1.573   3.213   2.725
 8337SOL     OW25909   0.756   1.542   4.765
 8337SOL    HW125910   0.725   1.515   4.673
 8337SOL    HW225911   0.678   1.542   4.827
 8338SOL     OW25912   3.830   4.891   2.157
 8338SOL    HW125913   3.926   4.886   2.128
 8338SOL    HW225914   3.775   4.831   2.099
 8339SOL     OW25915   0.023   0.654   0.469
 8339SOL    HW125916   7.010   0.743   0.498
 8339SOL    HW225917   0.111   0.668   0.424
 8340SOL     OW25918   5.225   2.524   0.792
 8340SOL    HW125919   5.270   2.504   0.705
 8340SOL    HW225920   5.133   2.561   0.775
 8341SOL     OW25921   3.391   0.197   6.965
 8341SOL    HW125922   3.371   0.110   7.009
 8341SOL    HW225923   3.385   0.271   0.008
 8342SOL     OW25924   3.600   6.604   6.926
 8342SOL    HW125925   3.615   6.520   6.875
 8342SOL    HW225926   3.667   6.673   6.898
 8343SOL     OW25927   6.602   4.759   3.680
 8343SOL    HW125928   6.617   4.756   3.581
 8343SOL    HW225929   6.506   4.779   3.698
 8344SOL     OW25930   0.646   4.843   4.317
 8344SOL    HW125931   0.577   4.887   4.259
 8344SOL    HW225932   0.713   4.911   4.346
 8345SOL     OW25933   5.417   0.770   3.234
 8345SOL    HW125934   5.487   0.842   3.239
 8345SOL    HW225935   5.329   0.807   3.266
 8346SOL     OW25936   4.642   3.192   6.060
 8346SOL    HW125937   4.640   3.291   6.046
 8346SOL    HW225938   4.551   3.161   6.088
 8347SOL     OW25939   2.434   6.841   5.923
 8347SOL    HW125940   2.513   6.847   5.863
 8347SOL    HW225941   2.463   6.818   6.016
 8348SOL     OW25942   3.791   6.680   1.211
 8348SOL    HW125943   3.693   6.670   1.192
 8348SOL    HW225944   3.804   6.737   1.292
 8349SOL     OW25945   0.288   6.405   2.334
 8349SOL    HW125946   0.328   6.397   2.425
 8349SOL    HW225947   0.360   6.416   2.266
 8350SOL     OW25948   2.730   6.786   6.380
 8350SOL    HW125949   2.743   6.881   6.410
 8350SOL    HW225950   2.658   6.782   6.311
 8351SOL     OW25951   6.483   5.309   4.403
 8351SOL    HW125952   6.487   5.376   4.476
 8351SOL    HW225953   6.494   5.355   4.315
 8352SOL     OW25954   2.271   6.181   1.773
 8352SOL    HW125955   2.323   6.119   1.831
 8352SOL    HW225956   2.274   6.273   1.812
 8353SOL     OW25957   1.009   4.010   1.685
 8353SOL    HW125958   1.073   4.026   1.609
 8353SOL    HW225959   1.046   4.049   1.769
 8354SOL     OW25960   3.751   6.373   3.794
 8354SOL    HW125961   3.667   6.397   3.746
 8354SOL    HW225962   3.772   6.444   3.862
 8355SOL     OW25963   1.281   6.763   6.330
 8355SOL    HW125964   1.371   6.801   6.309
 8355SOL    HW225965   1.237   6.733   6.246
 8356SOL     OW25966   1.395   5.822   1.680
 8356SOL    HW125967   1.490   5.837   1.707
 8356SOL    HW225968   1.353   5.754   1.740
 8357SOL     OW25969   4.188   5.423   5.767
 8357SOL    HW125970   4.191   5.480   5.686
 8357SOL    HW225971   4.130   5.343   5.749
 8358SOL     OW25972   1.347   2.723   5.675
 8358SOL    HW125973   1.415   2.796   5.666
 8358SOL    HW225974   1.343   2.671   5.590
 8359SOL     OW25975   2.935   0.543   4.721
 8359SOL    HW125976   3.006   0.541   4.652
 8359SOL    HW225977   2.958   0.610   4.792
 8360SOL     OW25978   4.701   6.634   0.773
 8360SOL    HW125979   4.623   6.655   0.832
 8360SOL    HW225980   4.747   6.719   0.747
 8361SOL     OW25981   1.977   0.242   6.522
 8361SOL    HW125982   1.896   0.256   6.579
 8361SOL    HW225983   2.019   0.154   6.545
 8362SOL     OW25984   6.796   2.859   0.354
 8362SOL    HW125985   6.830   2.951   0.330
 8362SOL    HW225986   6.698   2.854   0.337
 8363SOL     OW25987   4.164   2.362   0.429
 8363SOL    HW125988   4.103   2.406   0.496
 8363SOL    HW225989   4.112   2.340   0.347
 8364SOL     OW25990   0.154   2.680   3.652
 8364SOL    HW125991   0.213   2.759   3.632
 8364SOL    HW225992   0.163   2.655   3.748
 8365SOL     OW25993   1.835   2.484   1.901
 8365SOL    HW125994   1.795   2.393   1.916
 8365SOL    HW225995   1.925   2.473   1.858
 8366SOL     OW25996   4.232   5.840   1.158
 8366SOL    HW125997   4.187   5.890   1.085
 8366SOL    HW225998   4.281   5.762   1.120
 8367SOL     OW25999   3.019   5.152   4.653
 8367SOL    HW126000   3.087   5.083   4.675
 8367SOL    HW226001   2.928   5.111   4.652
 8368SOL     OW26002   0.758   6.481   6.927
 8368SOL    HW126003   0.791   6.567   6.964
 8368SOL    HW226004   0.722   6.424   7.001
 8369SOL     OW26005   1.034   1.664   0.826
 8369SOL    HW126006   1.016   1.746   0.881
 8369SOL    HW226007   1.009   1.682   0.731
 8370SOL     OW26008   2.916   1.947   6.734
 8370SOL    HW126009   2.917   1.849   6.717
 8370SOL    HW226010   2.823   1.976   6.755
 8371SOL     OW26011   1.623   3.210   5.562
 8371SOL    HW126012   1.697   3.177   5.503
 8371SOL    HW226013   1.629   3.310   5.571
 8372SOL     OW26014   2.583   6.455   2.166
 8372SOL    HW126015   2.559   6.526   2.232
 8372SOL    HW226016   2.677   6.470   2.133
 8373SOL     OW26017   0.877   1.764   4.380
 8373SOL    HW126018   0.940   1.842   4.373
 8373SOL    HW226019   0.783   1.798   4.384
 8374SOL     OW26020   1.305   0.794   3.907
 8374SOL    HW126021   1.317   0.711   3.960
 8374SOL    HW226022   1.213   0.830   3.921
 8375SOL     OW26023   4.416   0.938   5.783
 8375SOL    HW126024   4.414   0.968   5.688
 8375SOL    HW226025   4.455   1.009   5.840
 8376SOL     OW26026   1.459   0.975   3.429
 8376SOL    HW126027   1.512   0.970   3.345
 8376SOL    HW226028   1.500   1.043   3.491
 8377SOL     OW26029   5.383   5.449   0.143
 8377SOL    HW126030   5.284   5.442   0.134
 8377SOL    HW226031   5.406   5.518   0.212
 8378SOL     OW26032   5.293   5.252   3.328
 8378SOL    HW126033   5.255   5.335   3.286
 8378SOL    HW226034   5.390   5.268   3.350
 8379SOL     OW26035   4.977   1.874   1.670
 8379SOL    HW126036   4.896   1.873   1.729
 8379SOL    HW226037   5.048   1.928   1.714
 8380SOL     OW26038   0.192   6.750   6.860
 8380SOL    HW126039   0.153   6.703   6.939
 8380SOL    HW226040   0.250   6.826   6.891
 8381SOL     OW26041   0.157   2.310   2.643
 8381SOL    HW126042   0.134   2.312   2.741
 8381SOL    HW226043   0.208   2.393   2.620
 8382SOL     OW26044   2.580   0.259   0.049
 8382SOL    HW126045   2.654   0.290   7.014
 8382SOL    HW226046   2.615   0.246   0.142
 8383SOL     OW26047   2.427   0.397   4.920
 8383SOL    HW126048   2.509   0.365   4.968
 8383SOL    HW226049   2.404   0.489   4.951
 8384SOL     OW26050   6.552   1.787   1.163
 8384SOL    HW126051   6.600   1.874   1.148
 8384SOL    HW226052   6.542   1.771   1.261
 8385SOL     OW26053   4.553   3.226   1.000
 8385SOL    HW126054   4.630   3.173   0.965
 8385SOL    HW226055   4.472   3.168   1.005
 8386SOL     OW26056   1.973   6.610   1.243
 8386SOL    HW126057   2.044   6.676   1.218
 8386SOL    HW226058   1.925   6.641   1.325
 8387SOL     OW26059   2.340   1.806   1.658
 8387SOL    HW126060   2.284   1.822   1.739
 8387SOL    HW226061   2.286   1.826   1.576
 8388SOL     OW26062   1.615   6.949   0.331
 8388SOL    HW126063   1.612   0.008   0.386
 8388SOL    HW226064   1.654   6.875   0.386
 8389SOL     OW26065   1.668   3.347   4.068
 8389SOL    HW126066   1.755   3.360   4.020
 8389SOL    HW226067   1.686   3.343   4.167
 8390SOL     OW26068   2.965   0.741   6.214
 8390SOL    HW126069   2.982   0.741   6.313
 8390SOL    HW226070   2.871   0.769   6.196
 8391SOL     OW26071   5.293   5.651   1.492
 8391SOL    HW126072   5.289   5.739   1.445
 8391SOL    HW226073   5.388   5.618   1.494
 8392SOL     OW26074   6.375   6.108   5.072
 8392SOL    HW126075   6.361   6.071   5.164
 8392SOL    HW226076   6.312   6.184   5.057
 8393SOL     OW26077   0.108   0.116   3.618
 8393SOL    HW126078   0.018   0.131   3.578
 8393SOL    HW226079   0.108   0.031   3.670
 8394SOL     OW26080   0.796   1.731   2.654
 8394SOL    HW126081   0.874   1.677   2.685
 8394SOL    HW226082   0.794   1.732   2.554
 8395SOL     OW26083   0.313   6.195   4.436
 8395SOL    HW126084   0.215   6.207   4.422
 8395SOL    HW226085   0.338   6.231   4.526
 8396SOL     OW26086   4.008   4.776   2.759
 8396SOL    HW126087   3.914   4.747   2.740
 8396SOL    HW226088   4.016   4.874   2.746
 8397SOL     OW26089   2.477   6.911   2.451
 8397SOL    HW126090   2.447   6.824   2.411
 8397SOL    HW226091   2.447   6.916   2.546
 8398SOL     OW26092   4.111   1.688   0.272
 8398SOL    HW126093   4.201   1.649   0.254
 8398SOL    HW226094   4.048   1.660   0.199
 8399SOL     OW26095   5.917   5.858   0.844
 8399SOL    HW126096   5.946   5.881   0.751
 8399SOL    HW226097   5.857   5.778   0.841
 8400SOL     OW26098   0.163   0.304   3.087
 8400SOL    HW126099   0.085   0.344   3.040
 8400SOL    HW226100   0.142   0.209   3.112
 8401SOL     OW26101   4.388   3.004   5.822
 8401SOL    HW126102   4.310   3.064   5.803
 8401SOL    HW226103   4.399   2.939   5.747
 8402SOL     OW26104   3.508   2.033   5.469
 8402SOL    HW126105   3.430   2.058   5.527
 8402SOL    HW226106   3.496   1.939   5.436
 8403SOL     OW26107   0.654   1.294   3.188
 8403SOL    HW126108   0.686   1.383   3.221
 8403SOL    HW226109   0.634   1.235   3.267
 8404SOL     OW26110   5.670   6.593   6.464
 8404SOL    HW126111   5.644   6.505   6.426
 8404SOL    HW226112   5.689   6.657   6.389
 8405SOL     OW26113   1.785   2.117   6.958
 8405SOL    HW126114   1.749   2.063   6.882
 8405SOL    HW226115   1.752   2.212   6.949
 8406SOL     OW26116   4.503   1.538   0.803
 8406SOL    HW126117   4.557   1.590   0.737
 8406SOL    HW226118   4.465   1.600   0.871
 8407SOL     OW26119   5.967   4.696   4.655
 8407SOL    HW126120   6.028   4.643   4.714
 8407SOL    HW226121   6.021   4.740   4.583
 8408SOL     OW26122   5.272   0.082   3.789
 8408SOL    HW126123   5.336   0.148   3.750
 8408SOL    HW226124   5.294   0.066   3.885
 8409SOL     OW26125   0.512   2.033   3.869
 8409SOL    HW126126   0.441   2.000   3.807
 8409SOL    HW226127   0.602   2.015   3.829
 8410SOL     OW26128   4.836   1.058   1.424
 8410SOL    HW126129   4.872   1.014   1.507
 8410SOL    HW226130   4.748   1.017   1.400
 8411SOL     OW26131   1.428   5.126   3.436
 8411SOL    HW126132   1.490   5.048   3.443
 8411SOL    HW226133   1.336   5.094   3.418
 8412SOL     OW26134   4.511   1.866   0.935
 8412SOL    HW126135   4.501   1.959   0.970
 8412SOL    HW226136   4.422   1.832   0.906
 8413SOL     OW26137   4.061   5.468   0.796
 8413SOL    HW126138   4.085   5.416   0.878
 8413SOL    HW226139   4.094   5.420   0.715
 8414SOL     OW26140   3.791   0.401   2.418
 8414SOL    HW126141   3.803   0.421   2.321
 8414SOL    HW226142   3.847   0.465   2.472
 8415SOL     OW26143   7.018   5.146   3.856
 8415SOL    HW126144   0.051   5.175   3.779
 8415SOL    HW226145   6.929   5.192   3.851
 8416SOL     OW26146   5.237   3.887   2.729
 8416SOL    HW126147   5.171   3.929   2.668
 8416SOL    HW226148   5.315   3.853   2.677
 8417SOL     OW26149   2.300   6.171   5.488
 8417SOL    HW126150   2.363   6.207   5.556
 8417SOL    HW226151   2.225   6.124   5.534
 8418SOL     OW26152   5.454   5.418   1.730
 8418SOL    HW126153   5.383   5.442   1.796
 8418SOL    HW226154   5.426   5.339   1.676
 8419SOL     OW26155   4.636   1.073   2.368
 8419SOL    HW126156   4.662   1.050   2.462
 8419SOL    HW226157   4.604   1.168   2.364
 8420SOL     OW26158   4.100   6.895   0.711
 8420SOL    HW126159   4.008   6.913   0.677
 8420SOL    HW226160   4.111   6.936   0.802
 8421SOL     OW26161   2.814   6.477   1.008
 8421SOL    HW126162   2.763   6.548   1.056
 8421SOL    HW226163   2.780   6.387   1.036
 8422SOL     OW26164   5.753   6.144   1.038
 8422SOL    HW126165   5.776   6.057   1.083
 8422SOL    HW226166   5.744   6.129   0.940
 8423SOL     OW26167   3.801   4.830   6.709
 8423SOL    HW126168   3.887   4.780   6.702
 8423SOL    HW226169   3.726   4.769   6.682
 8424SOL     OW26170   3.209   2.082   2.549
 8424SOL    HW126171   3.155   2.152   2.595
 8424SOL    HW226172   3.286   2.055   2.606
 8425SOL     OW26173   6.790   5.498   0.896
 8425SOL    HW126174   6.827   5.468   0.984
 8425SOL    HW226175   6.865   5.512   0.831
 8426SOL     OW26176   3.894   3.108   3.639
 8426SOL    HW126177   3.931   3.193   3.675
 8426SOL    HW226178   3.800   3.097   3.670
 8427SOL     OW26179   1.594   4.144   5.619
 8427SOL    HW126180   1.560   4.051   5.629
 8427SOL    HW226181   1.582   4.193   5.706
 8428SOL     OW26182   6.743   4.451   2.035
 8428SOL    HW126183   6.738   4.548   2.058
 8428SOL    HW226184   6.669   4.428   1.973
 8429SOL     OW26185   2.186   4.706   4.740
 8429SOL    HW126186   2.173   4.644   4.662
 8429SOL    HW226187   2.262   4.672   4.796
 8430SOL     OW26188   4.511   5.286   2.892
 8430SOL    HW126189   4.415   5.268   2.917
 8430SOL    HW226190   4.562   5.312   2.974
 8431SOL     OW26191   2.379   5.118   1.481
 8431SOL    HW126192   2.428   5.204   1.465
 8431SOL    HW226193   2.414   5.075   1.564
 8432SOL     OW26194   4.020   5.200   5.705
 8432SOL    HW126195   4.028   5.130   5.776
 8432SOL    HW226196   3.928   5.238   5.707
 8433SOL     OW26197   0.710   3.002   6.785
 8433SOL    HW126198   0.669   3.093   6.795
 8433SOL    HW226199   0.639   2.935   6.763
 8434SOL     OW26200   3.288   6.999   5.148
 8434SOL    HW126201   3.303   0.019   5.236
 8434SOL    HW226202   3.375   6.974   5.107
 8435SOL     OW26203   5.069   1.606   1.585
 8435SOL    HW126204   4.984   1.563   1.552
 8435SOL    HW226205   5.053   1.703   1.600
 8436SOL     OW26206   3.917   6.367   3.572
 8436SOL    HW126207   4.001   6.407   3.608
 8436SOL    HW226208   3.846   6.369   3.642
 8437SOL     OW26209   1.070   0.493   1.865
 8437SOL    HW126210   1.112   0.418   1.916
 8437SOL    HW226211   1.126   0.576   1.875
 8438SOL     OW26212   2.860   4.711   2.538
 8438SOL    HW126213   2.909   4.733   2.623
 8438SOL    HW226214   2.831   4.796   2.494
 8439SOL     OW26215   6.469   5.637   1.651
 8439SOL    HW126216   6.426   5.547   1.641
 8439SOL    HW226217   6.517   5.641   1.738
 8440SOL     OW26218   6.785   1.046   2.768
 8440SOL    HW126219   6.744   1.138   2.765
 8440SOL    HW226220   6.877   1.050   2.728
 8441SOL     OW26221   5.721   6.126   0.774
 8441SOL    HW126222   5.775   6.097   0.695
 8441SOL    HW226223   5.678   6.214   0.753
 8442SOL     OW26224   3.901   3.423   6.829
 8442SOL    HW126225   3.902   3.496   6.761
 8442SOL    HW226226   3.935   3.338   6.787
 8443SOL     OW26227   1.168   0.072   2.593
 8443SOL    HW126228   1.090   0.042   2.538
 8443SOL    HW226229   1.160   0.033   2.685
 8444SOL     OW26230   3.141   6.261   3.401
 8444SOL    HW126231   3.194   6.344   3.383
 8444SOL    HW226232   3.092   6.272   3.488
 8445SOL     OW26233   2.848   4.972   2.457
 8445SOL    HW126234   2.942   4.961   2.490
 8445SOL    HW226235   2.848   5.020   2.370
 8446SOL     OW26236   4.973   5.772   1.955
 8446SOL    HW126237   4.944   5.697   2.015
 8446SOL    HW226238   5.054   5.745   1.904
 8447SOL     OW26239   5.776   2.340   2.770
 8447SOL    HW126240   5.795   2.317   2.674
 8447SOL    HW226241   5.724   2.425   2.774
 8448SOL     OW26242   0.246   4.179   5.554
 8448SOL    HW126243   0.257   4.256   5.491
 8448SOL    HW226244   0.334   4.136   5.571
 8449SOL     OW26245   7.024   3.365   4.187
 8449SOL    HW126246   0.081   3.422   4.199
 8449SOL    HW226247   6.991   3.374   4.094
 8450SOL     OW26248   2.062   5.604   2.484
 8450SOL    HW126249   2.061   5.679   2.550
 8450SOL    HW226250   1.971   5.564   2.477
 8451SOL     OW26251   3.693   2.821   1.101
 8451SOL    HW126252   3.743   2.889   1.046
 8451SOL    HW226253   3.736   2.732   1.088
 8452SOL     OW26254   6.969   0.058   1.108
 8452SOL    HW126255   7.005   0.044   1.200
 8452SOL    HW226256   7.004   7.010   1.047
 8453SOL     OW26257   6.792   4.972   5.929
 8453SOL    HW126258   6.776   4.902   5.860
 8453SOL    HW226259   6.804   4.929   6.019
 8454SOL     OW26260   1.549   5.886   2.416
 8454SOL    HW126261   1.499   5.828   2.352
 8454SOL    HW226262   1.489   5.959   2.448
 8455SOL     OW26263   5.215   1.586   1.204
 8455SOL    HW126264   5.141   1.561   1.140
 8455SOL    HW226265   5.206   1.682   1.229
 8456SOL     OW26266   5.839   5.617   3.437
 8456SOL    HW126267   5.786   5.694   3.402
 8456SOL    HW226268   5.844   5.546   3.366
 8457SOL     OW26269   6.898   6.716   5.531
 8457SOL    HW126270   6.925   6.745   5.439
 8457SOL    HW226271   6.870   6.796   5.585
 8458SOL     OW26272   1.938   1.007   6.762
 8458SOL    HW126273   1.850   1.043   6.794
 8458SOL    HW226274   1.927   0.971   6.669
 8459SOL     OW26275   3.634   6.589   1.811
 8459SOL    HW126276   3.680   6.558   1.895
 8459SOL    HW226277   3.535   6.587   1.825
 8460SOL     OW26278   3.771   2.779   6.545
 8460SOL    HW126279   3.787   2.713   6.472
 8460SOL    HW226280   3.700   2.843   6.517
 8461SOL     OW26281   0.734   3.359   1.255
 8461SOL    HW126282   0.659   3.311   1.301
 8461SOL    HW226283   0.743   3.451   1.292
 8462SOL     OW26284   3.668   2.886   6.789
 8462SOL    HW126285   3.718   2.820   6.733
 8462SOL    HW226286   3.706   2.888   6.881
 8463SOL     OW26287   0.027   2.065   0.139
 8463SOL    HW126288   0.031   2.118   0.223
 8463SOL    HW226289   0.114   2.018   0.124
 8464SOL     OW26290   0.133   4.109   5.283
 8464SOL    HW126291   0.189   4.185   5.317
 8464SOL    HW226292   0.190   4.027   5.277
 8465SOL     OW26293   2.645   2.390   1.201
 8465SOL    HW126294   2.617   2.486   1.193
 8465SOL    HW226295   2.599   2.335   1.131
 8466SOL     OW26296   6.638   0.224   5.372
 8466SOL    HW126297   6.575   0.281   5.426
 8466SOL    HW226298   6.662   0.272   5.288
 8467SOL     OW26299   4.144   1.006   0.839
 8467SOL    HW126300   4.239   0.987   0.866
 8467SOL    HW226301   4.122   1.101   0.859
 8468SOL     OW26302   6.266   3.569   6.441
 8468SOL    HW126303   6.312   3.592   6.527
 8468SOL    HW226304   6.330   3.523   6.380
 8469SOL     OW26305   2.893   3.034   5.583
 8469SOL    HW126306   2.870   3.129   5.563
 8469SOL    HW226307   2.844   2.974   5.521
 8470SOL     OW26308   1.016   4.786   0.429
 8470SOL    HW126309   1.021   4.862   0.365
 8470SOL    HW226310   0.920   4.761   0.443
 8471SOL     OW26311   3.345   0.565   5.561
 8471SOL    HW126312   3.342   0.476   5.606
 8471SOL    HW226313   3.434   0.608   5.577
 8472SOL     OW26314   5.676   1.672   5.593
 8472SOL    HW126315   5.583   1.674   5.630
 8472SOL    HW226316   5.677   1.617   5.510
 8473SOL     OW26317   4.479   4.843   0.644
 8473SOL    HW126318   4.414   4.915   0.621
 8473SOL    HW226319   4.437   4.754   0.627
 8474SOL     OW26320   2.931   3.764   2.599
 8474SOL    HW126321   2.919   3.829   2.524
 8474SOL    HW226322   2.981   3.684   2.567
 8475SOL     OW26323   6.702   3.015   1.986
 8475SOL    HW126324   6.712   3.063   1.898
 8475SOL    HW226325   6.610   2.977   1.993
 8476SOL     OW26326   0.155   1.168   1.799
 8476SOL    HW126327   0.087   1.146   1.729
 8476SOL    HW226328   0.214   1.088   1.815
 8477SOL     OW26329   5.160   6.338   1.971
 8477SOL    HW126330   5.151   6.297   1.880
 8477SOL    HW226331   5.120   6.276   2.039
 8478SOL     OW26332   1.068   1.598   5.918
 8478SOL    HW126333   0.969   1.600   5.924
 8478SOL    HW226334   1.107   1.609   6.010
 8479SOL     OW26335   1.154   2.813   1.806
 8479SOL    HW126336   1.149   2.736   1.742
 8479SOL    HW226337   1.133   2.898   1.758
 8480SOL     OW26338   4.922   2.721   6.875
 8480SOL    HW126339   4.938   2.662   6.955
 8480SOL    HW226340   4.825   2.747   6.872
 8481SOL     OW26341   4.287   2.201   5.216
 8481SOL    HW126342   4.359   2.253   5.170
 8481SOL    HW226343   4.300   2.104   5.198
 8482SOL     OW26344   4.173   0.115   1.286
 8482SOL    HW126345   4.236   0.193   1.287
 8482SOL    HW226346   4.186   0.060   1.369
 8483SOL     OW26347   2.214   5.507   3.147
 8483SOL    HW126348   2.142   5.511   3.216
 8483SOL    HW226349   2.200   5.427   3.088
 8484SOL     OW26350   0.119   5.905   4.698
 8484SOL    HW126351   0.062   5.866   4.770
 8484SOL    HW226352   0.067   5.909   4.613
 8485SOL     OW26353   3.929   2.468   0.572
 8485SOL    HW126354   3.917   2.551   0.519
 8485SOL    HW226355   3.913   2.487   0.669
 8486SOL     OW26356   1.647   1.088   2.926
 8486SOL    HW126357   1.568   1.127   2.974
 8486SOL    HW226358   1.619   1.004   2.878
 8487SOL     OW26359   5.343   1.960   5.871
 8487SOL    HW126360   5.352   2.052   5.833
 8487SOL    HW226361   5.434   1.918   5.877
 8488SOL     OW26362   5.540   5.511   3.183
 8488SOL    HW126363   5.478   5.529   3.107
 8488SOL    HW226364   5.498   5.544   3.268
 8489SOL     OW26365   0.081   0.414   1.336
 8489SOL    HW126366   0.159   0.451   1.285
 8489SOL    HW226367   0.086   0.444   1.431
 8490SOL     OW26368   3.297   6.669   5.679
 8490SOL    HW126369   3.329   6.593   5.736
 8490SOL    HW226370   3.338   6.663   5.588
 8491SOL     OW26371   2.190   6.220   2.730
 8491SOL    HW126372   2.226   6.129   2.711
 8491SOL    HW226373   2.158   6.262   2.646
 8492SOL     OW26374   5.953   4.875   3.768
 8492SOL    HW126375   5.966   4.845   3.862
 8492SOL    HW226376   5.940   4.796   3.709
 8493SOL     OW26377   2.488   1.275   0.102
 8493SOL    HW126378   2.412   1.282   0.166
 8493SOL    HW226379   2.461   1.220   0.024
 8494SOL     OW26380   4.651   5.191   2.228
 8494SOL    HW126381   4.711   5.230   2.159
 8494SOL    HW226382   4.700   5.120   2.280
 8495SOL     OW26383   0.291   5.486   0.733
 8495SOL    HW126384   0.191   5.489   0.730
 8495SOL    HW226385   0.326   5.573   0.766
 8496SOL     OW26386   5.312   1.226   2.188
 8496SOL    HW126387   5.282   1.308   2.139
 8496SOL    HW226388   5.407   1.206   2.167
 8497SOL     OW26389   0.750   6.938   3.558
 8497SOL    HW126390   0.721   7.005   3.489
 8497SOL    HW226391   0.824   6.977   3.613
 8498SOL     OW26392   5.668   6.508   3.235
 8498SOL    HW126393   5.745   6.449   3.259
 8498SOL    HW226394   5.582   6.463   3.260
 8499SOL     OW26395   0.840   4.496   0.017
 8499SOL    HW126396   0.812   4.419   6.984
 8499SOL    HW226397   0.868   4.572   6.984
 8500SOL     OW26398   1.783   6.411   6.098
 8500SOL    HW126399   1.845   6.379   6.169
 8500SOL    HW226400   1.698   6.358   6.101
 8501SOL     OW26401   0.715   2.655   0.019
 8501SOL    HW126402   0.619   2.681   0.005
 8501SOL    HW226403   0.759   2.640   6.955
 8502SOL     OW26404   0.977   2.872   0.910
 8502SOL    HW126405   1.004   2.913   0.823
 8502SOL    HW226406   0.878   2.859   0.912
 8503SOL     OW26407   6.368   6.031   5.325
 8503SOL    HW126408   6.460   6.067   5.341
 8503SOL    HW226409   6.352   5.952   5.384
 8504SOL     OW26410   1.613   5.170   2.148
 8504SOL    HW126411   1.565   5.144   2.065
 8504SOL    HW226412   1.644   5.265   2.140
 8505SOL     OW26413   5.357   3.306   2.774
 8505SOL    HW126414   5.344   3.312   2.873
 8505SOL    HW226415   5.385   3.395   2.738
 8506SOL     OW26416   0.936   0.912   0.025
 8506SOL    HW126417   0.960   0.973   0.101
 8506SOL    HW226418   0.841   0.929   7.022
 8507SOL     OW26419   3.915   7.009   4.412
 8507SOL    HW126420   3.929   6.970   4.503
 8507SOL    HW226421   3.995   6.990   4.355
 8508SOL     OW26422   4.023   1.618   5.787
 8508SOL    HW126423   3.962   1.583   5.717
 8508SOL    HW226424   4.109   1.648   5.745
 8509SOL     OW26425   5.705   6.532   3.861
 8509SOL    HW126426   5.692   6.434   3.875
 8509SOL    HW226427   5.742   6.573   3.944
 8510SOL     OW26428   5.692   3.417   3.415
 8510SOL    HW126429   5.672   3.429   3.317
 8510SOL    HW226430   5.783   3.377   3.426
 8511SOL     OW26431   6.972   2.989   2.166
 8511SOL    HW126432   6.995   3.048   2.244
 8511SOL    HW226433   6.938   2.901   2.199
 8512SOL     OW26434   2.594   0.150   2.605
 8512SOL    HW126435   2.599   0.238   2.652
 8512SOL    HW226436   2.503   0.137   2.566
 8513SOL     OW26437   6.907   5.777   0.924
 8513SOL    HW126438   6.848   5.781   1.005
 8513SOL    HW226439   6.856   5.736   0.848
 8514SOL     OW26440   3.280   6.994   3.046
 8514SOL    HW126441   3.271   6.982   2.947
 8514SOL    HW226442   3.317   6.910   3.086
 8515SOL     OW26443   4.737   2.403   0.854
 8515SOL    HW126444   4.663   2.372   0.794
 8515SOL    HW226445   4.729   2.502   0.868
 8516SOL     OW26446   6.519   1.727   2.371
 8516SOL    HW126447   6.438   1.769   2.330
 8516SOL    HW226448   6.518   1.628   2.356
 8517SOL     OW26449   0.987   2.907   6.078
 8517SOL    HW126450   1.059   2.960   6.033
 8517SOL    HW226451   0.959   2.831   6.018
 8518SOL     OW26452   4.065   4.659   0.393
 8518SOL    HW126453   4.066   4.682   0.296
 8518SOL    HW226454   4.032   4.565   0.404
 8519SOL     OW26455   1.963   5.805   2.227
 8519SOL    HW126456   1.998   5.753   2.305
 8519SOL    HW226457   1.895   5.871   2.259
 8520SOL     OW26458   3.963   1.148   0.499
 8520SOL    HW126459   3.954   1.119   0.403
 8520SOL    HW226460   3.883   1.201   0.525
 8521SOL     OW26461   1.433   6.300   5.822
 8521SOL    HW126462   1.434   6.348   5.735
 8521SOL    HW226463   1.475   6.210   5.811
 8522SOL     OW26464   1.808   5.492   2.443
 8522SOL    HW126465   1.777   5.465   2.352
 8522SOL    HW226466   1.742   5.555   2.484
 8523SOL     OW26467   2.284   0.445   5.679
 8523SOL    HW126468   2.263   0.440   5.776
 8523SOL    HW226469   2.278   0.354   5.639
 8524SOL     OW26470   1.302   3.052   4.440
 8524SOL    HW126471   1.234   3.125   4.434
 8524SOL    HW226472   1.343   3.037   4.350
 8525SOL     OW26473   6.155   3.897   2.831
 8525SOL    HW126474   6.176   3.944   2.917
 8525SOL    HW226475   6.239   3.881   2.780
 8526SOL     OW26476   2.850   3.673   1.812
 8526SOL    HW126477   2.797   3.600   1.768
 8526SOL    HW226478   2.848   3.660   1.911
 8527SOL     OW26479   3.970   0.969   4.350
 8527SOL    HW126480   4.025   0.996   4.429
 8527SOL    HW226481   3.995   0.877   4.322
 8528SOL     OW26482   4.815   4.045   6.210
 8528SOL    HW126483   4.720   4.015   6.216
 8528SOL    HW226484   4.876   3.967   6.218
 8529SOL     OW26485   1.006   6.183   0.165
 8529SOL    HW126486   0.941   6.109   0.180
 8529SOL    HW226487   1.093   6.145   0.133
 8530SOL     OW26488   1.404   5.186   5.254
 8530SOL    HW126489   1.418   5.089   5.276
 8530SOL    HW226490   1.389   5.237   5.339
 8531SOL     OW26491   5.635   4.372   3.054
 8531SOL    HW126492   5.682   4.374   2.966
 8531SOL    HW226493   5.548   4.324   3.044
 8532SOL     OW26494   4.380   4.770   4.874
 8532SOL    HW126495   4.461   4.821   4.901
 8532SOL    HW226496   4.375   4.685   4.925
 8533SOL     OW26497   2.215   1.163   5.403
 8533SOL    HW126498   2.185   1.252   5.369
 8533SOL    HW226499   2.135   1.111   5.434
 8534SOL     OW26500   0.570   4.835   2.493
 8534SOL    HW126501   0.605   4.921   2.531
 8534SOL    HW226502   0.645   4.769   2.488
 8535SOL     OW26503   0.795   2.223   4.769
 8535SOL    HW126504   0.807   2.123   4.770
 8535SOL    HW226505   0.825   2.261   4.856
 8536SOL     OW26506   6.468   2.623   4.950
 8536SOL    HW126507   6.470   2.538   5.002
 8536SOL    HW226508   6.411   2.612   4.869
 8537SOL     OW26509   5.873   1.411   0.700
 8537SOL    HW126510   5.867   1.477   0.625
 8537SOL    HW226511   5.944   1.439   0.764
 8538SOL     OW26512   0.223   0.870   4.963
 8538SOL    HW126513   0.225   0.923   5.048
 8538SOL    HW226514   0.172   0.921   4.893
 8539SOL     OW26515   6.547   2.367   2.809
 8539SOL    HW126516   6.515   2.341   2.718
 8539SOL    HW226517   6.490   2.324   2.879
 8540SOL     OW26518   3.341   1.209   1.066
 8540SOL    HW126519   3.279   1.137   1.095
 8540SOL    HW226520   3.423   1.208   1.123
 8541SOL     OW26521   2.906   1.792   5.234
 8541SOL    HW126522   2.954   1.868   5.190
 8541SOL    HW226523   2.882   1.724   5.165
 8542SOL     OW26524   3.086   4.303   6.438
 8542SOL    HW126525   3.097   4.275   6.343
 8542SOL    HW226526   3.164   4.358   6.466
 8543SOL     OW26527   2.396   2.233   5.601
 8543SOL    HW126528   2.361   2.156   5.655
 8543SOL    HW226529   2.406   2.313   5.661
 8544SOL     OW26530   5.248   3.566   5.320
 8544SOL    HW126531   5.248   3.488   5.382
 8544SOL    HW226532   5.208   3.539   5.232
 8545SOL     OW26533   3.255   6.751   4.662
 8545SOL    HW126534   3.265   6.806   4.579
 8545SOL    HW226535   3.258   6.654   4.638
 8546SOL     OW26536   5.521   0.594   0.935
 8546SOL    HW126537   5.464   0.528   0.982
 8546SOL    HW226538   5.504   0.686   0.973
 8547SOL     OW26539   7.016   0.110   5.165
 8547SOL    HW126540   0.047   0.029   5.145
 8547SOL    HW226541   0.032   0.159   5.242
 8548SOL     OW26542   0.173   3.162   5.443
 8548SOL    HW126543   0.217   3.245   5.409
 8548SOL    HW226544   0.117   3.122   5.371
 8549SOL     OW26545   1.204   2.136   3.843
 8549SOL    HW126546   1.217   2.228   3.807
 8549SOL    HW226547   1.291   2.087   3.841
 8550SOL     OW26548   0.614   4.376   6.471
 8550SOL    HW126549   0.707   4.411   6.479
 8550SOL    HW226550   0.579   4.394   6.379
 8551SOL     OW26551   2.154   2.369   6.469
 8551SOL    HW126552   2.223   2.427   6.426
 8551SOL    HW226553   2.194   2.321   6.547
 8552SOL     OW26554   3.161   0.635   1.724
 8552SOL    HW126555   3.168   0.652   1.822
 8552SOL    HW226556   3.253   0.624   1.685
 8553SOL     OW26557   3.845   3.458   0.941
 8553SOL    HW126558   3.786   3.378   0.952
 8553SOL    HW226559   3.877   3.464   0.847
 8554SOL     OW26560   0.837   6.815   1.093
 8554SOL    HW126561   0.911   6.881   1.084
 8554SOL    HW226562   0.848   6.764   1.178
 8555SOL     OW26563   4.074   1.255   3.837
 8555SOL    HW126564   4.133   1.235   3.759
 8555SOL    HW226565   3.981   1.273   3.804
 8556SOL     OW26566   1.537   6.325   6.133
 8556SOL    HW126567   1.550   6.226   6.141
 8556SOL    HW226568   1.452   6.352   6.178
 8557SOL     OW26569   6.527   0.930   0.722
 8557SOL    HW126570   6.590   0.945   0.647
 8557SOL    HW226571   6.433   0.937   0.689
 8558SOL     OW26572   2.297   4.186   3.552
 8558SOL    HW126573   2.316   4.176   3.650
 8558SOL    HW226574   2.242   4.268   3.537
 8559SOL     OW26575   0.336   6.360   2.658
 8559SOL    HW126576   0.412   6.300   2.632
 8559SOL    HW226577   0.275   6.311   2.721
 8560SOL     OW26578   1.660   5.442   1.261
 8560SOL    HW126579   1.735   5.420   1.323
 8560SOL    HW226580   1.695   5.454   1.169
 8561SOL     OW26581   4.046   0.441   2.993
 8561SOL    HW126582   4.065   0.470   3.087
 8561SOL    HW226583   4.052   0.519   2.932
 8562SOL     OW26584   3.943   1.288   0.198
 8562SOL    HW126585   3.932   1.386   0.217
 8562SOL    HW226586   3.869   1.257   0.139
 8563SOL     OW26587   1.335   6.047   2.469
 8563SOL    HW126588   1.238   6.035   2.451
 8563SOL    HW226589   1.349   6.066   2.566
 8564SOL     OW26590   3.944   6.033   6.375
 8564SOL    HW126591   3.845   6.029   6.359
 8564SOL    HW226592   3.965   5.992   6.464
 8565SOL     OW26593   3.596   5.372   1.708
 8565SOL    HW126594   3.666   5.343   1.774
 8565SOL    HW226595   3.571   5.295   1.650
 8566SOL     OW26596   2.774   0.682   2.472
 8566SOL    HW126597   2.870   0.684   2.502
 8566SOL    HW226598   2.765   0.622   2.393
 8567SOL     OW26599   1.558   1.721   1.774
 8567SOL    HW126600   1.534   1.625   1.790
 8567SOL    HW226601   1.590   1.732   1.680
 8568SOL     OW26602   6.928   1.500   0.728
 8568SOL    HW126603   6.903   1.406   0.707
 8568SOL    HW226604   6.888   1.562   0.660
 8569SOL     OW26605   5.045   2.175   5.928
 8569SOL    HW126606   5.116   2.196   5.995
 8569SOL    HW226607   5.075   2.206   5.837
 8570SOL     OW26608   1.657   1.695   4.643
 8570SOL    HW126609   1.618   1.684   4.552
 8570SOL    HW226610   1.705   1.783   4.648
 8571SOL     OW26611   1.604   1.542   4.854
 8571SOL    HW126612   1.644   1.598   4.781
 8571SOL    HW226613   1.566   1.458   4.814
 8572SOL     OW26614   2.579   3.902   5.561
 8572SOL    HW126615   2.632   3.904   5.477
 8572SOL    HW226616   2.486   3.935   5.542
 8573SOL     OW26617   2.740   5.984   7.023
 8573SOL    HW126618   2.691   5.906   6.985
 8573SOL    HW226619   2.703   6.069   6.986
 8574SOL     OW26620   6.495   6.705   6.150
 8574SOL    HW126621   6.487   6.749   6.239
 8574SOL    HW226622   6.495   6.775   6.078
 8575SOL     OW26623   3.558   1.024   2.366
 8575SOL    HW126624   3.464   1.012   2.337
 8575SOL    HW226625   3.618   0.968   2.308
 8576SOL     OW26626   1.066   4.230   4.341
 8576SOL    HW126627   1.130   4.300   4.373
 8576SOL    HW226628   1.059   4.234   4.241
 8577SOL     OW26629   1.727   1.159   6.083
 8577SOL    HW126630   1.714   1.232   6.150
 8577SOL    HW226631   1.640   1.114   6.064
 8578SOL     OW26632   6.424   6.290   5.621
 8578SOL    HW126633   6.361   6.214   5.634
 8578SOL    HW226634   6.436   6.339   5.707
 8579SOL     OW26635   2.416   6.363   2.782
 8579SOL    HW126636   2.325   6.330   2.805
 8579SOL    HW226637   2.452   6.314   2.703
 8580SOL     OW26638   0.884   6.469   1.206
 8580SOL    HW126639   0.801   6.515   1.176
 8580SOL    HW226640   0.861   6.380   1.245
 8581SOL     OW26641   3.945   5.151   1.653
 8581SOL    HW126642   4.019   5.210   1.621
 8581SOL    HW226643   3.872   5.150   1.586
 8582SOL     OW26644   4.164   4.801   5.686
 8582SOL    HW126645   4.091   4.867   5.704
 8582SOL    HW226646   4.171   4.737   5.763
 8583SOL     OW26647   4.206   0.236   3.236
 8583SOL    HW126648   4.111   0.247   3.266
 8583SOL    HW226649   4.241   0.325   3.204
 8584SOL     OW26650   7.018   0.918   4.534
 8584SOL    HW126651   6.921   0.938   4.521
 8584SOL    HW226652   0.041   1.001   4.562
 8585SOL     OW26653   5.783   1.990   1.026
 8585SOL    HW126654   5.695   1.944   1.028
 8585SOL    HW226655   5.821   1.993   1.118
 8586SOL     OW26656   5.536   6.508   1.358
 8586SOL    HW126657   5.602   6.484   1.430
 8586SOL    HW226658   5.550   6.449   1.279
 8587SOL     OW26659   1.071   1.934   4.707
 8587SOL    HW126660   1.014   1.853   4.693
 8587SOL    HW226661   1.114   1.929   4.797
 8588SOL     OW26662   4.187   1.255   0.244
 8588SOL    HW126663   4.089   1.278   0.243
 8588SOL    HW226664   4.199   1.166   0.288
 8589SOL     OW26665   6.770   2.949   4.903
 8589SOL    HW126666   6.741   2.900   4.821
 8589SOL    HW226667   6.832   2.891   4.957
 8590SOL     OW26668   6.973   6.927   3.066
 8590SOL    HW126669   6.972   6.837   3.111
 8590SOL    HW226670   0.015   6.986   3.111
 8591SOL     OW26671   6.300   4.486   0.257
 8591SOL    HW126672   6.365   4.466   0.331
 8591SOL    HW226673   6.208   4.459   0.284
 8592SOL     OW26674   0.355   2.401   0.462
 8592SOL    HW126675   0.271   2.351   0.438
 8592SOL    HW226676   0.379   2.463   0.388
 8593SOL     OW26677   2.708   0.864   6.783
 8593SOL    HW126678   2.806   0.876   6.769
 8593SOL    HW226679   2.660   0.950   6.767
 8594SOL     OW26680   6.272   2.679   5.775
 8594SOL    HW126681   6.271   2.761   5.832
 8594SOL    HW226682   6.222   2.605   5.821
 8595SOL     OW26683   5.440   0.269   3.698
 8595SOL    HW126684   5.399   0.351   3.659
 8595SOL    HW226685   5.538   0.267   3.679
 8596SOL     OW26686   1.137   3.663   3.155
 8596SOL    HW126687   1.180   3.591   3.209
 8596SOL    HW226688   1.043   3.635   3.133
 8597SOL     OW26689   6.273   2.698   0.532
 8597SOL    HW126690   6.298   2.630   0.463
 8597SOL    HW226691   6.350   2.758   0.550
 8598SOL     OW26692   5.831   0.418   5.050
 8598SOL    HW126693   5.866   0.439   4.958
 8598SOL    HW226694   5.821   0.503   5.101
 8599SOL     OW26695   1.538   2.796   3.811
 8599SOL    HW126696   1.609   2.814   3.880
 8599SOL    HW226697   1.578   2.802   3.720
 8600SOL     OW26698   5.100   3.941   1.209
 8600SOL    HW126699   5.011   3.917   1.247
 8600SOL    HW226700   5.163   3.864   1.218
 8601SOL     OW26701   0.120   0.924   3.644
 8601SOL    HW126702   0.190   0.995   3.636
 8601SOL    HW226703   0.123   0.884   3.735
 8602SOL     OW26704   2.383   6.932   3.253
 8602SOL    HW126705   2.463   6.993   3.248
 8602SOL    HW226706   2.403   6.846   3.207
 8603SOL     OW26707   5.993   1.129   6.283
 8603SOL    HW126708   5.936   1.204   6.317
 8603SOL    HW226709   6.028   1.153   6.193
 8604SOL     OW26710   0.750   2.963   6.271
 8604SOL    HW126711   0.799   2.928   6.191
 8604SOL    HW226712   0.734   2.889   6.336
 8605SOL     OW26713   1.234   4.457   4.339
 8605SOL    HW126714   1.331   4.433   4.332
 8605SOL    HW226715   1.212   4.480   4.433
 8606SOL     OW26716   3.174   2.233   6.948
 8606SOL    HW126717   3.223   2.166   7.004
 8606SOL    HW226718   3.240   2.299   6.910
 8607SOL     OW26719   2.193   4.905   0.084
 8607SOL    HW126720   2.268   4.970   0.089
 8607SOL    HW226721   2.216   4.832   0.019
 8608SOL     OW26722   2.107   4.645   2.929
 8608SOL    HW126723   2.060   4.604   2.852
 8608SOL    HW226724   2.043   4.704   2.980
 8609SOL     OW26725   4.916   0.799   3.624
 8609SOL    HW126726   4.859   0.855   3.564
 8609SOL    HW226727   4.857   0.750   3.689
 8610SOL     OW26728   6.962   6.644   3.131
 8610SOL    HW126729   0.032   6.647   3.166
 8610SOL    HW226730   6.953   6.567   3.068
 8611SOL     OW26731   2.890   0.981   4.364
 8611SOL    HW126732   2.954   0.910   4.393
 8611SOL    HW226733   2.940   1.063   4.339
 8612SOL     OW26734   2.978   3.395   2.353
 8612SOL    HW126735   2.975   3.295   2.356
 8612SOL    HW226736   2.963   3.426   2.259
 8613SOL     OW26737   2.391   2.654   2.007
 8613SOL    HW126738   2.368   2.751   2.003
 8613SOL    HW226739   2.440   2.628   1.924
 8614SOL     OW26740   1.039   2.514   2.891
 8614SOL    HW126741   1.098   2.438   2.867
 8614SOL    HW226742   0.999   2.553   2.807
 8615SOL     OW26743   4.451   1.722   5.169
 8615SOL    HW126744   4.478   1.785   5.096
 8615SOL    HW226745   4.351   1.717   5.174
 8616SOL     OW26746   2.599   4.578   2.312
 8616SOL    HW126747   2.631   4.531   2.230
 8616SOL    HW226748   2.657   4.657   2.330
 8617SOL     OW26749   5.721   0.500   4.123
 8617SOL    HW126750   5.658   0.494   4.045
 8617SOL    HW226751   5.704   0.586   4.172
 8618SOL     OW26752   6.561   4.172   0.817
 8618SOL    HW126753   6.526   4.087   0.778
 8618SOL    HW226754   6.656   4.159   0.844
 8619SOL     OW26755   4.357   4.976   2.901
 8619SOL    HW126756   4.297   4.988   2.980
 8619SOL    HW226757   4.414   4.895   2.916
 8620SOL     OW26758   1.768   0.241   4.413
 8620SOL    HW126759   1.775   0.171   4.342
 8620SOL    HW226760   1.671   0.264   4.428
 8621SOL     OW26761   4.773   2.760   2.137
 8621SOL    HW126762   4.768   2.811   2.223
 8621SOL    HW226763   4.738   2.816   2.062
 8622SOL     OW26764   6.243   5.103   1.902
 8622SOL    HW126765   6.271   5.014   1.938
 8622SOL    HW226766   6.317   5.168   1.912
 8623SOL     OW26767   0.051   3.192   5.006
 8623SOL    HW126768   0.028   3.188   4.909
 8623SOL    HW226769   0.150   3.199   5.016
 8624SOL     OW26770   3.567   3.859   6.284
 8624SOL    HW126771   3.579   3.886   6.189
 8624SOL    HW226772   3.654   3.868   6.333
 8625SOL     OW26773   4.620   1.152   6.052
 8625SOL    HW126774   4.528   1.115   6.059
 8625SOL    HW226775   4.672   1.130   6.135
 8626SOL     OW26776   4.002   3.142   0.470
 8626SOL    HW126777   4.046   3.217   0.519
 8626SOL    HW226778   3.969   3.175   0.381
 8627SOL     OW26779   2.208   1.779   2.382
 8627SOL    HW126780   2.286   1.795   2.443
 8627SOL    HW226781   2.216   1.687   2.343
 8628SOL     OW26782   6.722   6.765   0.349
 8628SOL    HW126783   6.692   6.686   0.297
 8628SOL    HW226784   6.643   6.812   0.388
 8629SOL     OW26785   1.037   6.829   4.612
 8629SOL    HW126786   1.064   6.854   4.705
 8629SOL    HW226787   1.066   6.735   4.593
 8630SOL     OW26788   5.055   3.606   3.461
 8630SOL    HW126789   5.018   3.513   3.454
 8630SOL    HW226790   5.002   3.658   3.529
 8631SOL     OW26791   2.048   6.433   6.215
 8631SOL    HW126792   2.106   6.354   6.194
 8631SOL    HW226793   2.061   6.459   6.310
 8632SOL     OW26794   4.067   4.414   5.346
 8632SOL    HW126795   4.091   4.498   5.395
 8632SOL    HW226796   4.134   4.396   5.275
 8633SOL     OW26797   5.826   3.536   5.848
 8633SOL    HW126798   5.805   3.470   5.776
 8633SOL    HW226799   5.842   3.487   5.934
 8634SOL     OW26800   5.210   4.586   0.014
 8634SOL    HW126801   5.158   4.671   0.012
 8634SOL    HW226802   5.253   4.571   6.949
 8635SOL     OW26803   6.118   2.269   7.008
 8635SOL    HW126804   6.067   2.325   0.048
 8635SOL    HW226805   6.056   2.201   6.967
 8636SOL     OW26806   4.016   5.677   0.644
 8636SOL    HW126807   4.021   5.611   0.718
 8636SOL    HW226808   3.974   5.761   0.677
 8637SOL     OW26809   2.296   1.417   6.147
 8637SOL    HW126810   2.315   1.502   6.196
 8637SOL    HW226811   2.228   1.364   6.197
 8638SOL     OW26812   3.873   2.567   5.375
 8638SOL    HW126813   3.955   2.582   5.321
 8638SOL    HW226814   3.888   2.600   5.468
 8639SOL     OW26815   4.912   3.641   6.797
 8639SOL    HW126816   4.835   3.601   6.846
 8639SOL    HW226817   4.998   3.613   6.841
 8640SOL     OW26818   4.175   3.557   1.266
 8640SOL    HW126819   4.086   3.548   1.222
 8640SOL    HW226820   4.165   3.547   1.365
 8641SOL     OW26821   4.177   5.040   3.537
 8641SOL    HW126822   4.101   5.086   3.490
 8641SOL    HW226823   4.216   5.103   3.604
 8642SOL     OW26824   0.044   6.873   3.427
 8642SOL    HW126825   6.978   6.856   3.386
 8642SOL    HW226826   0.033   6.912   3.518
 8643SOL     OW26827   1.723   0.153   0.453
 8643SOL    HW126828   1.762   0.211   0.525
 8643SOL    HW226829   1.779   0.161   0.370
 8644SOL     OW26830   6.509   2.359   6.601
 8644SOL    HW126831   6.419   2.319   6.617
 8644SOL    HW226832   6.562   2.355   6.686
 8645SOL     OW26833   4.900   4.952   1.600
 8645SOL    HW126834   4.950   4.977   1.517
 8645SOL    HW226835   4.802   4.957   1.581
 8646SOL     OW26836   0.671   1.807   6.765
 8646SOL    HW126837   0.734   1.842   6.696
 8646SOL    HW226838   0.704   1.718   6.799
 8647SOL     OW26839   2.784   5.463   0.966
 8647SOL    HW126840   2.842   5.468   0.885
 8647SOL    HW226841   2.691   5.441   0.940
 8648SOL     OW26842   5.742   6.674   0.837
 8648SOL    HW126843   5.750   6.576   0.818
 8648SOL    HW226844   5.811   6.702   0.903
 8649SOL     OW26845   4.633   6.333   6.803
 8649SOL    HW126846   4.732   6.346   6.794
 8649SOL    HW226847   4.590   6.420   6.829
 8650SOL     OW26848   1.629   6.737   4.114
 8650SOL    HW126849   1.717   6.695   4.137
 8650SOL    HW226850   1.594   6.786   4.194
 8651SOL     OW26851   2.910   1.818   0.804
 8651SOL    HW126852   2.920   1.824   0.904
 8651SOL    HW226853   2.947   1.900   0.762
 8652SOL     OW26854   0.966   4.734   3.936
 8652SOL    HW126855   1.016   4.766   4.016
 8652SOL    HW226856   1.027   4.733   3.856
 8653SOL     OW26857   6.324   1.553   5.272
 8653SOL    HW126858   6.291   1.491   5.344
 8653SOL    HW226859   6.377   1.501   5.205
 8654SOL     OW26860   0.862   4.774   1.311
 8654SOL    HW126861   0.909   4.831   1.378
 8654SOL    HW226862   0.795   4.716   1.357
 8655SOL     OW26863   6.504   1.343   5.194
 8655SOL    HW126864   6.579   1.350   5.129
 8655SOL    HW226865   6.535   1.369   5.285
 8656SOL     OW26866   5.491   0.336   2.138
 8656SOL    HW126867   5.436   0.288   2.069
 8656SOL    HW226868   5.586   0.307   2.130
 8657SOL     OW26869   5.845   6.216   0.363
 8657SOL    HW126870   5.823   6.175   0.274
 8657SOL    HW226871   5.919   6.165   0.406
 8658SOL     OW26872   5.613   5.597   0.456
 8658SOL    HW126873   5.618   5.497   0.455
 8658SOL    HW226874   5.557   5.628   0.380
 8659SOL     OW26875   4.414   2.464   3.017
 8659SOL    HW126876   4.444   2.554   3.046
 8659SOL    HW226877   4.358   2.422   3.089
 8660SOL     OW26878   0.493   2.336   2.128
 8660SOL    HW126879   0.590   2.356   2.139
 8660SOL    HW226880   0.439   2.412   2.164
 8661SOL     OW26881   5.991   3.472   2.629
 8661SOL    HW126882   6.079   3.513   2.653
 8661SOL    HW226883   5.922   3.496   2.698
 8662SOL     OW26884   3.336   6.056   2.212
 8662SOL    HW126885   3.419   6.107   2.188
 8662SOL    HW226886   3.272   6.059   2.136
 8663SOL     OW26887   2.490   5.349   2.978
 8663SOL    HW126888   2.393   5.339   2.957
 8663SOL    HW226889   2.544   5.335   2.895
 8664SOL     OW26890   2.698   5.704   3.029
 8664SOL    HW126891   2.656   5.692   3.119
 8664SOL    HW226892   2.750   5.623   3.005
 8665SOL     OW26893   6.640   5.480   5.345
 8665SOL    HW126894   6.658   5.440   5.255
 8665SOL    HW226895   6.597   5.411   5.404
 8666SOL     OW26896   5.619   0.010   4.611
 8666SOL    HW126897   5.651   6.975   4.537
 8666SOL    HW226898   5.561   6.981   4.673
 8667SOL     OW26899   5.515   1.265   4.736
 8667SOL    HW126900   5.502   1.178   4.783
 8667SOL    HW226901   5.455   1.334   4.777
 8668SOL     OW26902   5.200   2.800   4.607
 8668SOL    HW126903   5.197   2.785   4.508
 8668SOL    HW226904   5.124   2.858   4.635
 8669SOL     OW26905   6.644   6.717   6.919
 8669SOL    HW126906   6.578   6.792   6.919
 8669SOL    HW226907   6.692   6.715   6.831
 8670SOL     OW26908   5.438   5.146   5.954
 8670SOL    HW126909   5.445   5.200   6.037
 8670SOL    HW226910   5.402   5.203   5.880
 8671SOL     OW26911   0.689   1.617   2.276
 8671SOL    HW126912   0.673   1.536   2.332
 8671SOL    HW226913   0.609   1.677   2.281
 8672SOL     OW26914   0.478   6.988   3.659
 8672SOL    HW126915   0.466   0.053   3.703
 8672SOL    HW226916   0.570   6.983   3.620
 8673SOL     OW26917   0.023   1.556   0.339
 8673SOL    HW126918   0.017   1.603   0.427
 8673SOL    HW226919   6.959   1.515   0.318
 8674SOL     OW26920   6.902   4.304   3.180
 8674SOL    HW126921   6.938   4.253   3.257
 8674SOL    HW226922   6.870   4.394   3.211
 8675SOL     OW26923   4.347   1.099   6.030
 8675SOL    HW126924   4.342   1.112   6.129
 8675SOL    HW226925   4.255   1.089   5.993
 8676SOL     OW26926   5.564   1.061   1.183
 8676SOL    HW126927   5.592   1.147   1.141
 8676SOL    HW226928   5.471   1.069   1.217
 8677SOL     OW26929   1.653   6.100   5.799
 8677SOL    HW126930   1.659   6.010   5.757
 8677SOL    HW226931   1.698   6.099   5.888
 8678SOL     OW26932   0.713   6.955   0.690
 8678SOL    HW126933   0.796   6.969   0.744
 8678SOL    HW226934   0.729   6.986   0.597
 8679SOL     OW26935   1.804   1.512   4.433
 8679SOL    HW126936   1.724   1.486   4.487
 8679SOL    HW226937   1.783   1.597   4.383
 8680SOL     OW26938   6.506   2.613   6.499
 8680SOL    HW126939   6.493   2.521   6.536
 8680SOL    HW226940   6.510   2.679   6.574
 8681SOL     OW26941   4.517   5.190   1.240
 8681SOL    HW126942   4.519   5.283   1.276
 8681SOL    HW226943   4.608   5.165   1.206
 8682SOL     OW26944   6.880   0.231   0.921
 8682SOL    HW126945   6.799   0.287   0.940
 8682SOL    HW226946   6.909   0.185   1.005
 8683SOL     OW26947   1.475   3.101   4.633
 8683SOL    HW126948   1.415   3.075   4.558
 8683SOL    HW226949   1.513   3.019   4.676
 8684SOL     OW26950   7.010   3.899   4.606
 8684SOL    HW126951   0.002   3.810   4.650
 8684SOL    HW226952   6.970   3.962   4.673
 8685SOL     OW26953   5.504   2.660   6.368
 8685SOL    HW126954   5.540   2.729   6.431
 8685SOL    HW226955   5.561   2.578   6.371
 8686SOL     OW26956   6.017   6.753   2.908
 8686SOL    HW126957   5.983   6.723   2.819
 8686SOL    HW226958   6.101   6.703   2.930
 8687SOL     OW26959   6.161   4.253   2.814
 8687SOL    HW126960   6.070   4.247   2.854
 8687SOL    HW226961   6.182   4.348   2.792
 8688SOL     OW26962   1.913   4.406   6.526
 8688SOL    HW126963   1.999   4.444   6.491
 8688SOL    HW226964   1.891   4.323   6.475
 8689SOL     OW26965   4.463   3.087   0.720
 8689SOL    HW126966   4.458   3.045   0.811
 8689SOL    HW226967   4.516   3.172   0.727
 8690SOL     OW26968   0.506   2.497   2.932
 8690SOL    HW126969   0.440   2.566   2.960
 8690SOL    HW226970   0.557   2.466   3.013
 8691SOL     OW26971   3.578   1.476   5.371
 8691SOL    HW126972   3.601   1.570   5.394
 8691SOL    HW226973   3.646   1.439   5.308
 8692SOL     OW26974   3.643   1.512   5.746
 8692SOL    HW126975   3.568   1.455   5.779
 8692SOL    HW226976   3.721   1.454   5.724
 8693SOL     OW26977   6.767   1.510   6.614
 8693SOL    HW126978   6.706   1.579   6.575
 8693SOL    HW226979   6.862   1.537   6.597
 8694SOL     OW26980   5.613   2.047   5.083
 8694SOL    HW126981   5.534   1.990   5.105
 8694SOL    HW226982   5.632   2.041   4.984
 8695SOL     OW26983   4.478   3.370   6.348
 8695SOL    HW126984   4.575   3.344   6.345
 8695SOL    HW226985   4.424   3.291   6.377
 8696SOL     OW26986   2.509   6.209   4.729
 8696SOL    HW126987   2.497   6.110   4.734
 8696SOL    HW226988   2.590   6.236   4.782
 8697SOL     OW26989   1.158   4.473   5.885
 8697SOL    HW126990   1.064   4.475   5.920
 8697SOL    HW226991   1.220   4.442   5.956
 8698SOL     OW26992   5.086   5.852   6.136
 8698SOL    HW126993   5.084   5.861   6.236
 8698SOL    HW226994   5.172   5.809   6.109
 8699SOL     OW26995   2.237   3.437   6.212
 8699SOL    HW126996   2.306   3.365   6.209
 8699SOL    HW226997   2.190   3.443   6.124
 8700SOL     OW26998   1.199   1.150   5.571
 8700SOL    HW126999   1.289   1.114   5.598
 8700SOL    HW227000   1.175   1.226   5.632
 8701SOL     OW27001   1.748   1.216   6.856
 8701SOL    HW127002   1.683   1.148   6.824
 8701SOL    HW227003   1.728   1.241   6.951
 8702SOL     OW27004   4.796   5.322   2.031
 8702SOL    HW127005   4.851   5.398   2.067
 8702SOL    HW227006   4.854   5.263   1.975
 8703SOL     OW27007   3.289   4.532   6.686
 8703SOL    HW127008   3.203   4.506   6.729
 8703SOL    HW227009   3.344   4.450   6.669
 8704SOL     OW27010   0.124   3.115   3.737
 8704SOL    HW127011   0.172   3.031   3.714
 8704SOL    HW227012   0.042   3.094   3.791
 8705SOL     OW27013   4.498   2.153   6.563
 8705SOL    HW127014   4.491   2.200   6.651
 8705SOL    HW227015   4.466   2.213   6.490
 8706SOL     OW27016   5.868   2.754   0.165
 8706SOL    HW127017   5.924   2.827   0.125
 8706SOL    HW227018   5.858   2.679   0.100
 8707SOL     OW27019   0.717   2.197   3.613
 8707SOL    HW127020   0.794   2.163   3.666
 8707SOL    HW227021   0.661   2.257   3.670
 8708SOL     OW27022   4.490   1.739   4.511
 8708SOL    HW127023   4.571   1.728   4.569
 8708SOL    HW227024   4.471   1.654   4.463
 8709SOL     OW27025   6.983   0.155   6.653
 8709SOL    HW127026   0.042   0.182   6.700
 8709SOL    HW227027   6.920   0.113   6.719
 8710SOL     OW27028   2.033   2.076   3.588
 8710SOL    HW127029   2.021   2.051   3.491
 8710SOL    HW227030   2.012   1.996   3.645
 8711SOL     OW27031   1.280   0.830   1.448
 8711SOL    HW127032   1.360   0.771   1.447
 8711SOL    HW227033   1.239   0.832   1.357
 8712SOL     OW27034   2.891   1.803   4.898
 8712SOL    HW127035   2.835   1.732   4.941
 8712SOL    HW227036   2.832   1.866   4.848
 8713SOL     OW27037   0.318   4.062   1.505
 8713SOL    HW127038   0.284   4.137   1.448
 8713SOL    HW227039   0.334   3.981   1.448
 8714SOL     OW27040   0.657   6.662   0.173
 8714SOL    HW127041   0.629   6.650   0.268
 8714SOL    HW227042   0.755   6.644   0.165
 8715SOL     OW27043   3.255   2.027   0.090
 8715SOL    HW127044   3.322   2.054   0.159
 8715SOL    HW227045   3.300   1.970   0.020
 8716SOL     OW27046   0.037   6.576   0.963
 8716SOL    HW127047   7.006   6.612   0.887
 8716SOL    HW227048   7.001   6.532   1.030
 8717SOL     OW27049   2.329   3.063   6.027
 8717SOL    HW127050   2.347   2.993   6.096
 8717SOL    HW227051   2.366   3.151   6.059
 8718SOL     OW27052   1.458   2.918   6.479
 8718SOL    HW127053   1.468   2.862   6.397
 8718SOL    HW227054   1.383   2.983   6.466
 8719SOL     OW27055   4.348   1.293   0.036
 8719SOL    HW127056   4.283   1.273   0.109
 8719SOL    HW227057   4.440   1.266   0.065
 8720SOL     OW27058   0.150   5.239   5.573
 8720SOL    HW127059   0.202   5.191   5.644
 8720SOL    HW227060   0.056   5.251   5.604
 8721SOL     OW27061   6.457   6.895   6.871
 8721SOL    HW127062   6.469   6.993   6.860
 8721SOL    HW227063   6.398   6.877   6.950
 8722SOL     OW27064   3.133   1.027   0.498
 8722SOL    HW127065   3.208   1.092   0.483
 8722SOL    HW227066   3.047   1.070   0.471
 8723SOL     OW27067   5.452   6.406   2.206
 8723SOL    HW127068   5.496   6.496   2.212
 8723SOL    HW227069   5.520   6.335   2.223
 8724SOL     OW27070   5.104   6.998   4.119
 8724SOL    HW127071   5.121   6.965   4.212
 8724SOL    HW227072   5.006   7.006   4.103
 8725SOL     OW27073   0.314   6.284   4.698
 8725SOL    HW127074   0.316   6.383   4.711
 8725SOL    HW227075   0.347   6.239   4.781
 8726SOL     OW27076   6.855   1.232   0.739
 8726SOL    HW127077   6.781   1.202   0.679
 8726SOL    HW227078   6.847   1.187   0.828
 8727SOL     OW27079   5.800   6.943   0.012
 8727SOL    HW127080   5.837   6.922   0.103
 8727SOL    HW227081   5.793   6.858   6.984
 8728SOL     OW27082   5.434   0.966   2.784
 8728SOL    HW127083   5.354   0.936   2.732
 8728SOL    HW227084   5.433   1.065   2.793
 8729SOL     OW27085   3.188   5.519   5.485
 8729SOL    HW127086   3.245   5.440   5.510
 8729SOL    HW227087   3.108   5.523   5.544
 8730SOL     OW27088   5.276   4.302   3.399
 8730SOL    HW127089   5.207   4.259   3.340
 8730SOL    HW227090   5.317   4.379   3.351
 8731SOL     OW27091   0.365   2.938   2.765
 8731SOL    HW127092   0.435   2.984   2.822
 8731SOL    HW227093   0.290   3.002   2.748
 8732SOL     OW27094   5.134   4.533   1.026
 8732SOL    HW127095   5.223   4.575   1.043
 8732SOL    HW227096   5.130   4.444   1.071
 8733SOL     OW27097   0.589   5.394   1.450
 8733SOL    HW127098   0.649   5.336   1.395
 8733SOL    HW227099   0.644   5.454   1.507
 8734SOL     OW27100   6.876   3.438   2.401
 8734SOL    HW127101   6.843   3.364   2.342
 8734SOL    HW227102   6.798   3.489   2.437
 8735SOL     OW27103   1.206   3.559   4.959
 8735SOL    HW127104   1.107   3.569   4.961
 8735SOL    HW227105   1.248   3.646   4.932
 8736SOL     OW27106   0.764   5.262   2.160
 8736SOL    HW127107   0.754   5.182   2.101
 8736SOL    HW227108   0.697   5.256   2.235
 8737SOL     OW27109   2.588   5.940   6.236
 8737SOL    HW127110   2.587   6.001   6.315
 8737SOL    HW227111   2.678   5.898   6.226
 8738SOL     OW27112   1.553   4.129   3.611
 8738SOL    HW127113   1.563   4.146   3.709
 8738SOL    HW227114   1.581   4.210   3.560
 8739SOL     OW27115   5.276   4.549   4.674
 8739SOL    HW127116   5.365   4.505   4.659
 8739SOL    HW227117   5.221   4.492   4.735
 8740SOL     OW27118   3.803   2.124   2.915
 8740SOL    HW127119   3.900   2.123   2.941
 8740SOL    HW227120   3.794   2.133   2.816
 8741SOL     OW27121   2.729   6.930   2.361
 8741SOL    HW127122   2.768   6.839   2.353
 8741SOL    HW227123   2.634   6.923   2.393
 8742SOL     OW27124   3.887   0.940   2.602
 8742SOL    HW127125   3.794   0.905   2.602
 8742SOL    HW227126   3.885   1.040   2.608
 8743SOL     OW27127   2.108   1.223   1.885
 8743SOL    HW127128   2.117   1.227   1.785
 8743SOL    HW227129   2.097   1.316   1.921
 8744SOL     OW27130   4.825   2.704   0.293
 8744SOL    HW127131   4.884   2.646   0.237
 8744SOL    HW227132   4.774   2.647   0.357
 8745SOL     OW27133   6.862   2.138   6.550
 8745SOL    HW127134   6.765   2.116   6.558
 8745SOL    HW227135   6.890   2.133   6.454
 8746SOL     OW27136   4.793   5.362   4.121
 8746SOL    HW127137   4.874   5.358   4.180
 8746SOL    HW227138   4.821   5.388   4.028
 8747SOL     OW27139   6.682   1.416   2.086
 8747SOL    HW127140   6.781   1.431   2.092
 8747SOL    HW227141   6.634   1.503   2.095
 8748SOL     OW27142   0.887   1.563   3.806
 8748SOL    HW127143   0.923   1.579   3.714
 8748SOL    HW227144   0.887   1.465   3.826
 8749SOL     OW27145   2.575   1.289   5.737
 8749SOL    HW127146   2.508   1.305   5.810
 8749SOL    HW227147   2.607   1.195   5.742
 8750SOL     OW27148   4.063   2.739   5.874
 8750SOL    HW127149   4.158   2.726   5.844
 8750SOL    HW227150   4.041   2.673   5.945
 8751SOL     OW27151   6.535   0.152   0.309
 8751SOL    HW127152   6.607   0.213   0.341
 8751SOL    HW227153   6.467   0.204   0.257
 8752SOL     OW27154   5.411   2.944   6.917
 8752SOL    HW127155   5.499   2.973   6.879
 8752SOL    HW227156   5.375   2.868   6.863
 8753SOL     OW27157   2.334   3.542   7.008
 8753SOL    HW127158   2.362   3.525   6.913
 8753SOL    HW227159   2.299   3.457   0.023
 8754SOL     OW27160   2.668   4.938   6.312
 8754SOL    HW127161   2.669   4.875   6.235
 8754SOL    HW227162   2.694   4.889   6.395
 8755SOL     OW27163   1.193   0.683   0.914
 8755SOL    HW127164   1.259   0.747   0.954
 8755SOL    HW227165   1.104   0.726   0.907
 8756SOL     OW27166   2.191   3.002   3.702
 8756SOL    HW127167   2.147   3.030   3.788
 8756SOL    HW227168   2.187   3.077   3.636
 8757SOL     OW27169   4.900   6.137   6.080
 8757SOL    HW127170   4.973   6.069   6.085
 8757SOL    HW227171   4.930   6.222   6.123
 8758SOL     OW27172   4.430   6.908   3.348
 8758SOL    HW127173   4.336   6.877   3.367
 8758SOL    HW227174   4.451   6.894   3.252
 8759SOL     OW27175   6.191   1.992   6.832
 8759SOL    HW127176   6.104   2.036   6.854
 8759SOL    HW227177   6.199   1.906   6.883
 8760SOL     OW27178   2.228   2.065   4.037
 8760SOL    HW127179   2.160   2.031   4.101
 8760SOL    HW227180   2.235   2.002   3.959
 8761SOL     OW27181   5.406   1.773   1.963
 8761SOL    HW127182   5.472   1.783   2.038
 8761SOL    HW227183   5.328   1.718   1.993
 8762SOL     OW27184   1.729   6.093   3.715
 8762SOL    HW127185   1.647   6.146   3.737
 8762SOL    HW227186   1.733   6.011   3.772
 8763SOL     OW27187   6.872   0.745   4.881
 8763SOL    HW127188   6.866   0.796   4.795
 8763SOL    HW227189   6.954   0.688   4.880
 8764SOL     OW27190   4.301   6.139   6.203
 8764SOL    HW127191   4.383   6.183   6.166
 8764SOL    HW227192   4.222   6.164   6.148
 8765SOL     OW27193   5.752   0.888   5.224
 8765SOL    HW127194   5.689   0.948   5.272
 8765SOL    HW227195   5.845   0.905   5.255
 8766SOL     OW27196   4.411   4.303   5.509
 8766SOL    HW127197   4.409   4.233   5.437
 8766SOL    HW227198   4.416   4.394   5.468
 8767SOL     OW27199   3.454   0.316   3.948
 8767SOL    HW127200   3.460   0.405   3.992
 8767SOL    HW227201   3.545   0.286   3.920
 8768SOL     OW27202   0.885   2.291   6.986
 8768SOL    HW127203   0.883   2.239   6.901
 8768SOL    HW227204   0.977   2.327   7.001
 8769SOL     OW27205   6.703   1.481   1.728
 8769SOL    HW127206   6.794   1.449   1.754
 8769SOL    HW227207   6.703   1.504   1.630
 8770SOL     OW27208   5.266   4.033   2.229
 8770SOL    HW127209   5.313   4.092   2.295
 8770SOL    HW227210   5.172   4.017   2.260
 8771SOL     OW27211   0.548   3.586   6.287
 8771SOL    HW127212   0.639   3.548   6.269
 8771SOL    HW227213   0.558   3.679   6.325
 8772SOL     OW27214   5.120   0.838   4.888
 8772SOL    HW127215   5.204   0.867   4.843
 8772SOL    HW227216   5.129   0.743   4.917
 8773SOL     OW27217   6.157   2.236   3.570
 8773SOL    HW127218   6.073   2.240   3.516
 8773SOL    HW227219   6.137   2.199   3.661
 8774SOL     OW27220   0.638   6.992   6.572
 8774SOL    HW127221   0.560   6.943   6.610
 8774SOL    HW227222   0.641   6.979   6.473
 8775SOL     OW27223   5.695   1.596   5.307
 8775SOL    HW127224   5.719   1.690   5.282
 8775SOL    HW227225   5.690   1.540   5.225
 8776SOL     OW27226   4.912   3.300   1.170
 8776SOL    HW127227   4.850   3.259   1.103
 8776SOL    HW227228   4.876   3.285   1.262
 8777SOL     OW27229   0.659   3.374   2.852
 8777SOL    HW127230   0.759   3.375   2.841
 8777SOL    HW227231   0.635   3.431   2.931
 8778SOL     OW27232   4.409   4.189   5.918
 8778SOL    HW127233   4.332   4.249   5.897
 8778SOL    HW227234   4.486   4.244   5.953
 8779SOL     OW27235   2.684   5.345   2.422
 8779SOL    HW127236   2.631   5.261   2.431
 8779SOL    HW227237   2.768   5.338   2.477
 8780SOL     OW27238   0.167   5.800   2.402
 8780SOL    HW127239   0.101   5.743   2.451
 8780SOL    HW227240   0.248   5.814   2.460
 8781SOL     OW27241   4.382   0.088   3.024
 8781SOL    HW127242   4.420   7.020   3.035
 8781SOL    HW227243   4.315   0.104   3.097
 8782SOL     OW27244   5.755   1.451   2.157
 8782SOL    HW127245   5.749   1.508   2.075
 8782SOL    HW227246   5.849   1.421   2.171
 8783SOL     OW27247   5.653   2.880   4.049
 8783SOL    HW127248   5.736   2.853   4.097
 8783SOL    HW227249   5.665   2.865   3.950
 8784SOL     OW27250   6.279   6.003   0.718
 8784SOL    HW127251   6.348   6.007   0.645
 8784SOL    HW227252   6.289   6.082   0.777
 8785SOL     OW27253   0.621   5.341   5.927
 8785SOL    HW127254   0.619   5.334   6.026
 8785SOL    HW227255   0.705   5.388   5.899
 8786SOL     OW27256   4.076   1.954   2.550
 8786SOL    HW127257   4.094   2.034   2.492
 8786SOL    HW227258   3.999   1.973   2.610
 8787SOL     OW27259   3.853   0.612   1.420
 8787SOL    HW127260   3.777   0.642   1.362
 8787SOL    HW227261   3.893   0.529   1.381
 8788SOL     OW27262   6.945   0.948   5.102
 8788SOL    HW127263   6.917   0.853   5.088
 8788SOL    HW227264   7.005   0.976   5.028
 8789SOL     OW27265   0.047   3.776   5.205
 8789SOL    HW127266   7.017   3.858   5.188
 8789SOL    HW227267   0.113   3.795   5.278
 8790SOL     OW27268   6.531   2.046   0.460
 8790SOL    HW127269   6.542   2.111   0.385
 8790SOL    HW227270   6.448   1.992   0.445
 8791SOL     OW27271   4.438   6.143   5.130
 8791SOL    HW127272   4.403   6.054   5.103
 8791SOL    HW227273   4.362   6.202   5.158
 8792SOL     OW27274   3.658   5.440   2.324
 8792SOL    HW127275   3.616   5.530   2.316
 8792SOL    HW227276   3.602   5.382   2.383
 8793SOL     OW27277   0.997   4.820   4.543
 8793SOL    HW127278   0.945   4.741   4.511
 8793SOL    HW227279   1.058   4.793   4.617
 8794SOL     OW27280   5.884   1.205   3.481
 8794SOL    HW127281   5.818   1.217   3.555
 8794SOL    HW227282   5.835   1.200   3.394
 8795SOL     OW27283   1.458   4.929   5.348
 8795SOL    HW127284   1.553   4.899   5.337
 8795SOL    HW227285   1.410   4.867   5.410
 8796SOL     OW27286   6.173   3.806   3.150
 8796SOL    HW127287   6.248   3.742   3.169
 8796SOL    HW227288   6.132   3.836   3.236
 8797SOL     OW27289   0.357   0.321   4.244
 8797SOL    HW127290   0.308   0.335   4.331
 8797SOL    HW227291   0.429   0.254   4.258
 8798SOL     OW27292   4.608   6.615   5.546
 8798SOL    HW127293   4.702   6.637   5.572
 8798SOL    HW227294   4.584   6.525   5.581
 8799SOL     OW27295   1.857   4.813   2.323
 8799SOL    HW127296   1.956   4.816   2.305
 8799SOL    HW227297   1.814   4.745   2.263
 8800SOL     OW27298   6.022   6.085   5.666
 8800SOL    HW127299   6.003   6.049   5.575
 8800SOL    HW227300   6.119   6.075   5.686
 8801SOL     OW27301   6.051   1.929   5.425
 8801SOL    HW127302   6.067   2.010   5.481
 8801SOL    HW227303   5.953   1.920   5.406
 8802SOL     OW27304   1.317   5.983   5.256
 8802SOL    HW127305   1.228   6.017   5.285
 8802SOL    HW227306   1.387   6.012   5.322
 8803SOL     OW27307   6.864   0.976   0.292
 8803SOL    HW127308   6.910   1.033   0.361
 8803SOL    HW227309   6.812   1.035   0.230
 8804SOL     OW27310   2.041   6.041   1.382
 8804SOL    HW127311   2.138   6.032   1.360
 8804SOL    HW227312   2.029   6.037   1.481
 8805SOL     OW27313   4.172   5.486   3.469
 8805SOL    HW127314   4.154   5.557   3.401
 8805SOL    HW227315   4.265   5.453   3.459
 8806SOL     OW27316   2.257   6.066   0.434
 8806SOL    HW127317   2.187   6.017   0.383
 8806SOL    HW227318   2.216   6.109   0.514
 8807SOL     OW27319   4.870   2.127   0.033
 8807SOL    HW127320   4.788   2.088   7.018
 8807SOL    HW227321   4.862   2.227   0.034
 8808SOL     OW27322   1.298   2.574   0.627
 8808SOL    HW127323   1.379   2.576   0.685
 8808SOL    HW227324   1.260   2.666   0.620
 8809SOL     OW27325   2.170   3.979   3.281
 8809SOL    HW127326   2.142   4.074   3.269
 8809SOL    HW227327   2.167   3.956   3.378
 8810SOL     OW27328   6.048   1.213   5.101
 8810SOL    HW127329   6.132   1.238   5.053
 8810SOL    HW227330   5.994   1.295   5.117
 8811SOL     OW27331   4.912   0.272   2.744
 8811SOL    HW127332   4.846   0.328   2.795
 8811SOL    HW227333   4.911   0.299   2.648
 8812SOL     OW27334   3.377   0.289   6.683
 8812SOL    HW127335   3.373   0.211   6.621
 8812SOL    HW227336   3.397   0.257   6.775
 8813SOL     OW27337   2.135   4.318   2.498
 8813SOL    HW127338   2.067   4.378   2.455
 8813SOL    HW227339   2.169   4.361   2.581
 8814SOL     OW27340   5.585   0.012   0.688
 8814SOL    HW127341   5.544   0.005   0.597
 8814SOL    HW227342   5.583   6.947   0.733
 8815SOL     OW27343   5.761   0.967   0.967
 8815SOL    HW127344   5.840   0.952   1.028
 8815SOL    HW227345   5.735   0.881   0.923
 8816SOL     OW27346   0.074   6.419   6.543
 8816SOL    HW127347   0.137   6.458   6.610
 8816SOL    HW227348   0.047   6.491   6.478
 8817SOL     OW27349   0.802   3.282   4.276
 8817SOL    HW127350   0.772   3.277   4.181
 8817SOL    HW227351   0.811   3.190   4.313
 8818SOL     OW27352   1.557   6.734   3.240
 8818SOL    HW127353   1.573   6.763   3.335
 8818SOL    HW227354   1.512   6.807   3.190
 8819SOL     OW27355   5.534   4.362   5.271
 8819SOL    HW127356   5.440   4.387   5.290
 8819SOL    HW227357   5.592   4.391   5.347
 8820SOL     OW27358   3.207   0.956   4.306
 8820SOL    HW127359   3.148   1.036   4.295
 8820SOL    HW227360   3.265   0.947   4.224
 8821SOL     OW27361   0.986   4.993   0.242
 8821SOL    HW127362   0.981   5.091   0.218
 8821SOL    HW227363   0.919   4.943   0.188
 8822SOL     OW27364   0.096   0.077   3.250
 8822SOL    HW127365   0.084   0.004   3.318
 8822SOL    HW227366   0.101   0.165   3.297
 8823SOL     OW27367   2.789   0.562   2.821
 8823SOL    HW127368   2.768   0.556   2.724
 8823SOL    HW227369   2.766   0.475   2.866
 8824SOL     OW27370   1.608   0.027   1.793
 8824SOL    HW127371   1.678   0.045   1.862
 8824SOL    HW227372   1.581   0.113   1.749
 8825SOL     OW27373   0.516   0.786   1.570
 8825SOL    HW127374   0.509   0.807   1.473
 8825SOL    HW227375   0.471   0.698   1.588
 8826SOL     OW27376   0.936   3.338   0.748
 8826SOL    HW127377   0.979   3.253   0.717
 8826SOL    HW227378   0.869   3.318   0.819
 8827SOL     OW27379   3.972   0.769   2.426
 8827SOL    HW127380   3.950   0.822   2.508
 8827SOL    HW227381   4.053   0.713   2.445
 8828SOL     OW27382   3.977   4.410   6.407
 8828SOL    HW127383   3.918   4.488   6.385
 8828SOL    HW227384   3.930   4.325   6.382
 8829SOL     OW27385   6.065   1.898   1.869
 8829SOL    HW127386   6.006   1.978   1.880
 8829SOL    HW227387   6.136   1.918   1.802
 8830SOL     OW27388   1.897   1.675   1.722
 8830SOL    HW127389   1.800   1.698   1.732
 8830SOL    HW227390   1.946   1.752   1.682
 8831SOL     OW27391   6.738   2.823   2.190
 8831SOL    HW127392   6.746   2.892   2.118
 8831SOL    HW227393   6.651   2.832   2.236
 8832SOL     OW27394   6.912   6.163   4.315
 8832SOL    HW127395   7.001   6.164   4.269
 8832SOL    HW227396   6.889   6.255   4.346
 8833SOL     OW27397   3.684   3.527   1.336
 8833SOL    HW127398   3.635   3.478   1.408
 8833SOL    HW227399   3.765   3.476   1.310
 8834SOL     OW27400   5.938   3.607   5.037
 8834SOL    HW127401   6.015   3.574   4.981
 8834SOL    HW227402   5.877   3.662   4.980
 8835SOL     OW27403   5.938   1.024   5.859
 8835SOL    HW127404   6.001   1.101   5.842
 8835SOL    HW227405   5.942   0.998   5.955
 8836SOL     OW27406   6.292   2.529   0.315
 8836SOL    HW127407   6.238   2.450   0.344
 8836SOL    HW227408   6.297   2.531   0.216
 8837SOL     OW27409   0.291   0.126   1.650
 8837SOL    HW127410   0.218   0.087   1.707
 8837SOL    HW227411   0.318   0.059   1.580
 8838SOL     OW27412   0.819   4.103   2.482
 8838SOL    HW127413   0.845   4.040   2.409
 8838SOL    HW227414   0.901   4.148   2.518
 8839SOL     OW27415   4.902   5.436   2.392
 8839SOL    HW127416   4.871   5.394   2.477
 8839SOL    HW227417   4.995   5.472   2.404
 8840SOL     OW27418   6.173   0.588   2.031
 8840SOL    HW127419   6.095   0.638   1.994
 8840SOL    HW227420   6.200   0.629   2.118
 8841SOL     OW27421   4.099   1.198   2.186
 8841SOL    HW127422   4.018   1.140   2.198
 8841SOL    HW227423   4.158   1.190   2.266
 8842SOL     OW27424   3.215   3.827   4.011
 8842SOL    HW127425   3.198   3.824   4.109
 8842SOL    HW227426   3.129   3.812   3.962
 8843SOL     OW27427   1.917   3.264   4.939
 8843SOL    HW127428   1.917   3.173   4.979
 8843SOL    HW227429   2.009   3.304   4.946
 8844SOL     OW27430   6.673   2.179   5.620
 8844SOL    HW127431   6.657   2.083   5.642
 8844SOL    HW227432   6.652   2.195   5.523
 8845SOL     OW27433   2.114   5.383   1.084
 8845SOL    HW127434   2.143   5.361   0.991
 8845SOL    HW227435   2.169   5.458   1.120
 8846SOL     OW27436   5.591   4.774   4.308
 8846SOL    HW127437   5.610   4.868   4.338
 8846SOL    HW227438   5.569   4.718   4.388
 8847SOL     OW27439   1.560   1.379   2.261
 8847SOL    HW127440   1.556   1.477   2.284
 8847SOL    HW227441   1.655   1.348   2.269
 8848SOL     OW27442   3.114   1.844   1.804
 8848SOL    HW127443   3.096   1.877   1.896
 8848SOL    HW227444   3.155   1.917   1.749
 8849SOL     OW27445   2.352   5.311   3.709
 8849SOL    HW127446   2.398   5.276   3.791
 8849SOL    HW227447   2.372   5.252   3.631
 8850SOL     OW27448   2.693   1.440   0.727
 8850SOL    HW127449   2.708   1.486   0.640
 8850SOL    HW227450   2.778   1.398   0.758
 8851SOL     OW27451   0.926   4.535   2.631
 8851SOL    HW127452   0.884   4.465   2.688
 8851SOL    HW227453   0.860   4.564   2.561
 8852SOL     OW27454   5.104   3.203   6.529
 8852SOL    HW127455   5.159   3.232   6.607
 8852SOL    HW227456   5.010   3.235   6.541
 8853SOL     OW27457   3.586   0.653   4.829
 8853SOL    HW127458   3.501   0.697   4.799
 8853SOL    HW227459   3.656   0.665   4.758
 8854SOL     OW27460   2.203   0.367   5.925
 8854SOL    HW127461   2.165   0.275   5.929
 8854SOL    HW227462   2.152   0.427   5.987
 8855SOL     OW27463   6.224   5.851   6.936
 8855SOL    HW127464   6.283   5.775   6.908
 8855SOL    HW227465   6.277   5.935   6.940
 8856SOL     OW27466   6.929   0.165   4.616
 8856SOL    HW127467   6.926   0.251   4.666
 8856SOL    HW227468   6.846   0.112   4.634
 8857SOL     OW27469   6.052   1.852   3.251
 8857SOL    HW127470   6.112   1.810   3.319
 8857SOL    HW227471   5.970   1.887   3.295
 8858SOL     OW27472   1.547   3.595   5.867
 8858SOL    HW127473   1.478   3.656   5.906
 8858SOL    HW227474   1.637   3.618   5.906
 8859SOL     OW27475   0.948   7.001   5.400
 8859SOL    HW127476   0.935   0.043   5.326
 8859SOL    HW227477   0.896   0.006   5.480
 8860SOL     OW27478   1.822   3.962   2.487
 8860SOL    HW127479   1.804   3.887   2.424
 8860SOL    HW227480   1.913   4.000   2.470
 8861SOL     OW27481   3.496   3.085   5.991
 8861SOL    HW127482   3.452   3.053   6.075
 8861SOL    HW227483   3.429   3.135   5.936
 8862SOL     OW27484   6.010   1.661   4.213
 8862SOL    HW127485   5.911   1.670   4.209
 8862SOL    HW227486   6.049   1.678   4.122
 8863SOL     OW27487   2.131   5.931   4.809
 8863SOL    HW127488   2.154   5.993   4.734
 8863SOL    HW227489   2.040   5.892   4.794
 8864SOL     OW27490   2.449   3.235   6.229
 8864SOL    HW127491   2.531   3.178   6.237
 8864SOL    HW227492   2.423   3.269   6.320
 8865SOL     OW27493   3.098   0.827   4.696
 8865SOL    HW127494   3.049   0.799   4.778
 8865SOL    HW227495   3.038   0.816   4.617
 8866SOL     OW27496   4.225   6.437   3.305
 8866SOL    HW127497   4.282   6.394   3.374
 8866SOL    HW227498   4.274   6.438   3.217
 8867SOL     OW27499   5.513   2.566   3.064
 8867SOL    HW127500   5.574   2.487   3.065
 8867SOL    HW227501   5.468   2.573   2.975
 8868SOL     OW27502   5.232   3.712   0.832
 8868SOL    HW127503   5.261   3.759   0.749
 8868SOL    HW227504   5.295   3.735   0.907
 8869SOL     OW27505   4.246   4.711   3.320
 8869SOL    HW127506   4.265   4.715   3.222
 8869SOL    HW227507   4.314   4.653   3.365
 8870SOL     OW27508   3.212   0.365   0.865
 8870SOL    HW127509   3.210   0.426   0.786
 8870SOL    HW227510   3.143   0.394   0.931
 8871SOL     OW27511   3.153   1.591   3.552
 8871SOL    HW127512   3.187   1.527   3.620
 8871SOL    HW227513   3.190   1.567   3.462
 8872SOL     OW27514   1.669   3.890   4.338
 8872SOL    HW127515   1.638   3.902   4.433
 8872SOL    HW227516   1.602   3.836   4.288
 8873SOL     OW27517   6.340   5.778   2.232
 8873SOL    HW127518   6.416   5.842   2.236
 8873SOL    HW227519   6.329   5.744   2.138
 8874SOL     OW27520   2.164   0.169   1.263
 8874SOL    HW127521   2.118   0.084   1.289
 8874SOL    HW227522   2.144   0.239   1.332
 8875SOL     OW27523   1.424   2.715   4.416
 8875SOL    HW127524   1.427   2.625   4.458
 8875SOL    HW227525   1.339   2.761   4.442
 8876SOL     OW27526   0.308   0.126   4.770
 8876SOL    HW127527   0.246   0.086   4.703
 8876SOL    HW227528   0.315   0.224   4.755
 8877SOL     OW27529   2.585   0.490   4.207
 8877SOL    HW127530   2.647   0.533   4.273
 8877SOL    HW227531   2.491   0.494   4.242
 8878SOL     OW27532   0.400   4.854   1.071
 8878SOL    HW127533   0.319   4.893   1.115
 8878SOL    HW227534   0.473   4.922   1.069
 8879SOL     OW27535   5.610   5.076   0.890
 8879SOL    HW127536   5.589   5.157   0.944
 8879SOL    HW227537   5.537   5.009   0.901
 8880SOL     OW27538   0.532   5.596   4.922
 8880SOL    HW127539   0.544   5.513   4.868
 8880SOL    HW227540   0.604   5.603   4.990
 8881SOL     OW27541   6.019   0.452   3.418
 8881SOL    HW127542   6.076   0.411   3.346
 8881SOL    HW227543   6.030   0.399   3.502
 8882SOL     OW27544   4.974   0.697   0.425
 8882SOL    HW127545   4.994   0.794   0.409
 8882SOL    HW227546   5.000   0.673   0.518
 8883SOL     OW27547   0.478   1.206   6.351
 8883SOL    HW127548   0.443   1.114   6.365
 8883SOL    HW227549   0.417   1.256   6.290
 8884SOL     OW27550   5.587   6.366   6.350
 8884SOL    HW127551   5.530   6.285   6.334
 8884SOL    HW227552   5.652   6.376   6.275
 8885SOL     OW27553   6.357   3.597   1.268
 8885SOL    HW127554   6.349   3.691   1.302
 8885SOL    HW227555   6.319   3.534   1.336
 8886SOL     OW27556   2.947   5.911   5.236
 8886SOL    HW127557   2.939   5.984   5.304
 8886SOL    HW227558   3.043   5.889   5.222
 8887SOL     OW27559   2.940   1.198   1.091
 8887SOL    HW127560   2.924   1.257   1.012
 8887SOL    HW227561   2.973   1.109   1.059
 8888SOL     OW27562   1.258   2.051   1.041
 8888SOL    HW127563   1.196   2.019   1.112
 8888SOL    HW227564   1.303   1.973   0.998
 8889SOL     OW27565   4.908   6.416   5.828
 8889SOL    HW127566   4.931   6.333   5.776
 8889SOL    HW227567   4.819   6.403   5.872
 8890SOL     OW27568   6.592   6.305   5.092
 8890SOL    HW127569   6.531   6.233   5.058
 8890SOL    HW227570   6.676   6.306   5.037
 8891SOL     OW27571   6.061   3.075   5.941
 8891SOL    HW127572   5.987   3.020   5.980
 8891SOL    HW227573   6.068   3.162   5.989
 8892SOL     OW27574   2.976   6.304   3.602
 8892SOL    HW127575   2.891   6.346   3.570
 8892SOL    HW227576   2.963   6.205   3.611
 8893SOL     OW27577   0.496   0.721   1.881
 8893SOL    HW127578   0.568   0.790   1.877
 8893SOL    HW227579   0.536   0.631   1.897
 8894SOL     OW27580   4.218   3.363   6.170
 8894SOL    HW127581   4.161   3.434   6.128
 8894SOL    HW227582   4.210   3.369   6.269
 8895SOL     OW27583   0.344   0.562   1.635
 8895SOL    HW127584   0.380   0.497   1.702
 8895SOL    HW227585   0.246   0.546   1.622
 8896SOL     OW27586   1.059   3.261   4.738
 8896SOL    HW127587   1.023   3.176   4.776
 8896SOL    HW227588   1.156   3.269   4.761
 8897SOL     OW27589   1.582   1.662   2.139
 8897SOL    HW127590   1.532   1.667   2.225
 8897SOL    HW227591   1.655   1.730   2.138
 8898SOL     OW27592   6.348   3.484   4.695
 8898SOL    HW127593   6.369   3.469   4.598
 8898SOL    HW227594   6.419   3.540   4.737
 8899SOL     OW27595   1.871   4.171   6.832
 8899SOL    HW127596   1.855   4.270   6.830
 8899SOL    HW227597   1.812   4.130   6.902
 8900SOL     OW27598   5.371   3.323   3.053
 8900SOL    HW127599   5.469   3.344   3.056
 8900SOL    HW227600   5.357   3.226   3.072
 8901SOL     OW27601   2.371   0.577   3.755
 8901SOL    HW127602   2.451   0.594   3.813
 8901SOL    HW227603   2.318   0.662   3.746
 8902SOL     OW27604   2.865   5.898   6.216
 8902SOL    HW127605   2.890   5.963   6.144
 8902SOL    HW227606   2.946   5.875   6.269
 8903SOL     OW27607   2.331   1.416   4.067
 8903SOL    HW127608   2.375   1.493   4.114
 8903SOL    HW227609   2.284   1.449   3.985
 8904SOL     OW27610   6.747   5.225   3.759
 8904SOL    HW127611   6.714   5.307   3.711
 8904SOL    HW227612   6.745   5.147   3.697
 8905SOL     OW27613   1.848   4.256   4.447
 8905SOL    HW127614   1.762   4.241   4.398
 8905SOL    HW227615   1.842   4.342   4.498
 8906SOL     OW27616   6.760   7.021   6.755
 8906SOL    HW127617   6.772   6.964   6.673
 8906SOL    HW227618   6.676   0.049   6.747
 8907SOL     OW27619   3.345   2.130   5.191
 8907SOL    HW127620   3.291   2.075   5.254
 8907SOL    HW227621   3.314   2.225   5.193
 8908SOL     OW27622   1.434   3.055   0.073
 8908SOL    HW127623   1.478   3.015   0.153
 8908SOL    HW227624   1.353   3.001   0.050
 8909SOL     OW27625   1.925   0.511   5.290
 8909SOL    HW127626   1.877   0.599   5.286
 8909SOL    HW227627   1.910   0.468   5.379
 8910SOL     OW27628   2.060   3.097   6.046
 8910SOL    HW127629   2.010   3.109   6.132
 8910SOL    HW227630   2.158   3.086   6.066
 8911SOL     OW27631   3.483   2.114   4.717
 8911SOL    HW127632   3.394   2.131   4.758
 8911SOL    HW227633   3.555   2.142   4.780
 8912SOL     OW27634   4.226   1.147   6.868
 8912SOL    HW127635   4.306   1.162   6.809
 8912SOL    HW227636   4.247   1.179   6.960
 8913SOL     OW27637   5.000   4.793   1.260
 8913SOL    HW127638   5.043   4.712   1.300
 8913SOL    HW227639   4.959   4.769   1.172
 8914SOL     OW27640   4.677   0.976   5.607
 8914SOL    HW127641   4.659   1.040   5.682
 8914SOL    HW227642   4.755   1.008   5.554
 8915SOL     OW27643   1.446   2.303   4.019
 8915SOL    HW127644   1.367   2.270   4.070
 8915SOL    HW227645   1.417   2.376   3.957
 8916SOL     OW27646   0.677   3.308   1.690
 8916SOL    HW127647   0.626   3.287   1.773
 8916SOL    HW227648   0.764   3.351   1.714
 8917SOL     OW27649   5.910   4.978   5.973
 8917SOL    HW127650   5.942   4.883   5.970
 8917SOL    HW227651   5.896   5.005   6.068
 8918SOL     OW27652   6.678   6.074   0.354
 8918SOL    HW127653   6.678   6.009   0.278
 8918SOL    HW227654   6.769   6.078   0.395
 8919SOL     OW27655   4.326   3.588   0.511
 8919SOL    HW127656   4.270   3.529   0.453
 8919SOL    HW227657   4.273   3.669   0.536
 8920SOL     OW27658   6.978   6.326   6.773
 8920SOL    HW127659   0.007   6.351   6.692
 8920SOL    HW227660   6.987   6.397   6.842
 8921SOL     OW27661   1.698   1.753   3.126
 8921SOL    HW127662   1.774   1.721   3.070
 8921SOL    HW227663   1.612   1.735   3.079
 8922SOL     OW27664   2.480   5.236   0.921
 8922SOL    HW127665   2.480   5.148   0.968
 8922SOL    HW227666   2.534   5.230   0.838
 8923SOL     OW27667   2.165   3.943   6.303
 8923SOL    HW127668   2.246   3.978   6.348
 8923SOL    HW227669   2.189   3.905   6.213
 8924SOL     OW27670   2.975   5.592   5.653
 8924SOL    HW127671   2.891   5.638   5.626
 8924SOL    HW227672   3.014   5.640   5.732
 8925SOL     OW27673   0.943   0.739   2.126
 8925SOL    HW127674   0.875   0.712   2.058
 8925SOL    HW227675   0.928   0.834   2.152
 8926SOL     OW27676   5.576   2.648   0.818
 8926SOL    HW127677   5.537   2.694   0.739
 8926SOL    HW227678   5.631   2.570   0.788
 8927SOL     OW27679   2.391   1.895   5.062
 8927SOL    HW127680   2.401   1.972   5.000
 8927SOL    HW227681   2.296   1.862   5.060
 8928SOL     OW27682   0.053   1.069   4.838
 8928SOL    HW127683   0.105   1.123   4.905
 8928SOL    HW227684   0.045   1.121   4.753
 8929SOL     OW27685   0.398   3.636   3.817
 8929SOL    HW127686   0.462   3.559   3.819
 8929SOL    HW227687   0.318   3.613   3.873
 8930SOL     OW27688   1.815   4.860   5.073
 8930SOL    HW127689   1.847   4.779   5.024
 8930SOL    HW227690   1.893   4.921   5.091
 8931SOL     OW27691   3.858   2.790   0.806
 8931SOL    HW127692   3.803   2.834   0.734
 8931SOL    HW227693   3.948   2.834   0.809
 8932SOL     OW27694   5.333   6.839   6.501
 8932SOL    HW127695   5.387   6.755   6.490
 8932SOL    HW227696   5.379   6.899   6.566
 8933SOL     OW27697   0.985   2.060   5.536
 8933SOL    HW127698   1.027   1.978   5.573
 8933SOL    HW227699   0.943   2.040   5.448
 8934SOL     OW27700   2.631   5.272   3.344
 8934SOL    HW127701   2.565   5.221   3.399
 8934SOL    HW227702   2.661   5.216   3.267
 8935SOL     OW27703   4.989   3.662   1.849
 8935SOL    HW127704   4.996   3.713   1.763
 8935SOL    HW227705   5.021   3.568   1.835
 8936SOL     OW27706   0.287   3.644   0.913
 8936SOL    HW127707   0.248   3.621   0.824
 8936SOL    HW227708   0.357   3.576   0.937
 8937SOL     OW27709   0.620   0.965   4.106
 8937SOL    HW127710   0.616   0.941   4.009
 8937SOL    HW227711   0.714   0.993   4.129
 8938SOL     OW27712   6.279   1.347   0.505
 8938SOL    HW127713   6.252   1.283   0.577
 8938SOL    HW227714   6.237   1.319   0.419
 8939SOL     OW27715   6.388   2.979   4.722
 8939SOL    HW127716   6.434   3.047   4.664
 8939SOL    HW227717   6.364   3.021   4.810
 8940SOL     OW27718   6.333   2.507   0.056
 8940SOL    HW127719   6.429   2.486   0.043
 8940SOL    HW227720   6.277   2.426   0.033
 8941SOL     OW27721   5.190   2.049   1.792
 8941SOL    HW127722   5.270   2.061   1.850
 8941SOL    HW227723   5.198   2.106   1.711
 8942SOL     OW27724   0.272   5.068   3.900
 8942SOL    HW127725   0.173   5.077   3.890
 8942SOL    HW227726   0.307   5.143   3.956
 8943SOL     OW27727   4.259   4.491   0.105
 8943SOL    HW127728   4.179   4.519   0.053
 8943SOL    HW227729   4.231   4.431   0.180
 8944SOL     OW27730   4.857   4.630   4.118
 8944SOL    HW127731   4.770   4.581   4.119
 8944SOL    HW227732   4.887   4.648   4.211
 8945SOL     OW27733   6.718   3.166   4.761
 8945SOL    HW127734   6.703   3.086   4.819
 8945SOL    HW227735   6.816   3.185   4.754
 8946SOL     OW27736   3.864   0.694   4.708
 8946SOL    HW127737   3.879   0.682   4.807
 8946SOL    HW227738   3.951   0.716   4.664
 8947SOL     OW27739   1.628   4.459   6.496
 8947SOL    HW127740   1.563   4.394   6.537
 8947SOL    HW227741   1.720   4.440   6.530
 8948SOL     OW27742   6.474   6.313   3.831
 8948SOL    HW127743   6.449   6.398   3.877
 8948SOL    HW227744   6.573   6.311   3.815
 8949SOL     OW27745   3.820   5.972   0.198
 8949SOL    HW127746   3.799   6.064   0.164
 8949SOL    HW227747   3.781   5.962   0.290
 8950SOL     OW27748   4.637   3.861   1.175
 8950SOL    HW127749   4.675   3.887   1.264
 8950SOL    HW227750   4.573   3.785   1.188
 8951SOL     OW27751   2.447   1.201   4.223
 8951SOL    HW127752   2.434   1.288   4.174
 8951SOL    HW227753   2.513   1.145   4.174
 8952SOL     OW27754   2.080   4.602   3.966
 8952SOL    HW127755   2.135   4.553   3.899
 8952SOL    HW227756   2.006   4.650   3.919
 8953SOL     OW27757   2.475   5.403   1.755
 8953SOL    HW127758   2.447   5.329   1.816
 8953SOL    HW227759   2.511   5.364   1.670
 8954SOL     OW27760   0.848   5.873   4.029
 8954SOL    HW127761   0.904   5.874   3.946
 8954SOL    HW227762   0.899   5.828   4.103
 8955SOL     OW27763   6.926   2.817   2.643
 8955SOL    HW127764   6.901   2.769   2.559
 8955SOL    HW227765   6.921   2.916   2.628
 8956SOL     OW27766   0.938   6.941   6.715
 8956SOL    HW127767   0.998   6.863   6.733
 8956SOL    HW227768   0.853   6.908   6.675
 8957SOL     OW27769   1.925   5.359   1.920
 8957SOL    HW127770   1.919   5.459   1.910
 8957SOL    HW227771   2.003   5.336   1.977
 8958SOL     OW27772   1.622   2.917   4.820
 8958SOL    HW127773   1.632   2.836   4.761
 8958SOL    HW227774   1.704   2.973   4.814
 8959SOL     OW27775   0.880   3.424   2.248
 8959SOL    HW127776   0.783   3.447   2.249
 8959SOL    HW227777   0.895   3.336   2.295
 8960SOL     OW27778   6.440   4.301   4.138
 8960SOL    HW127779   6.359   4.358   4.138
 8960SOL    HW227780   6.417   4.210   4.174
 8961SOL     OW27781   2.907   0.151   4.137
 8961SOL    HW127782   2.937   0.219   4.204
 8961SOL    HW227783   2.963   0.069   4.147
 8962SOL     OW27784   0.781   6.203   1.607
 8962SOL    HW127785   0.695   6.152   1.598
 8962SOL    HW227786   0.852   6.157   1.554
 8963SOL     OW27787   3.477   5.715   4.499
 8963SOL    HW127788   3.528   5.664   4.568
 8963SOL    HW227789   3.428   5.791   4.543
 8964SOL     OW27790   5.737   3.748   3.093
 8964SOL    HW127791   5.811   3.728   3.158
 8964SOL    HW227792   5.655   3.697   3.119
 8965SOL     OW27793   3.021   4.488   0.154
 8965SOL    HW127794   3.104   4.518   0.109
 8965SOL    HW227795   3.020   4.388   0.157
 8966SOL     OW27796   6.545   5.653   6.198
 8966SOL    HW127797   6.524   5.556   6.183
 8966SOL    HW227798   6.525   5.704   6.115
 8967SOL     OW27799   4.065   0.430   3.706
 8967SOL    HW127800   4.035   0.459   3.797
 8967SOL    HW227801   4.033   0.337   3.688
 8968SOL     OW27802   2.636   4.847   1.777
 8968SOL    HW127803   2.587   4.834   1.863
 8968SOL    HW227804   2.722   4.894   1.795
 8969SOL     OW27805   0.347   6.913   3.385
 8969SOL    HW127806   0.256   6.890   3.419
 8969SOL    HW227807   0.408   6.834   3.399
 8970SOL     OW27808   1.692   2.687   6.136
 8970SOL    HW127809   1.691   2.709   6.039
 8970SOL    HW227810   1.695   2.772   6.190
 8971SOL     OW27811   4.701   6.729   1.336
 8971SOL    HW127812   4.696   6.731   1.435
 8971SOL    HW227813   4.775   6.788   1.304
 8972SOL     OW27814   5.598   4.747   0.131
 8972SOL    HW127815   5.653   4.823   0.165
 8972SOL    HW227816   5.592   4.751   0.031
 8973SOL     OW27817   0.443   2.593   2.265
 8973SOL    HW127818   0.382   2.650   2.210
 8973SOL    HW227819   0.537   2.625   2.253
 8974SOL     OW27820   2.075   3.667   4.171
 8974SOL    HW127821   2.119   3.713   4.248
 8974SOL    HW227822   2.106   3.707   4.086
 8975SOL     OW27823   0.405   6.899   6.605
 8975SOL    HW127824   0.398   6.906   6.704
 8975SOL    HW227825   0.337   6.959   6.563
 8976SOL     OW27826   6.402   6.399   1.448
 8976SOL    HW127827   6.371   6.474   1.507
 8976SOL    HW227828   6.465   6.434   1.379
 8977SOL     OW27829   0.061   5.139   6.213
 8977SOL    HW127830   0.142   5.192   6.187
 8977SOL    HW227831   7.022   5.198   6.263
 8978SOL     OW27832   5.324   6.426   4.906
 8978SOL    HW127833   5.273   6.457   4.987
 8978SOL    HW227834   5.282   6.343   4.870
 8979SOL     OW27835   0.986   5.650   6.060
 8979SOL    HW127836   1.081   5.621   6.071
 8979SOL    HW227837   0.984   5.740   6.015
 8980SOL     OW27838   4.387   2.000   5.888
 8980SOL    HW127839   4.360   2.069   5.954
 8980SOL    HW227840   4.409   1.915   5.936
 8981SOL     OW27841   4.615   2.095   5.794
 8981SOL    HW127842   4.622   2.121   5.698
 8981SOL    HW227843   4.522   2.062   5.813
 8982SOL     OW27844   6.437   1.749   1.414
 8982SOL    HW127845   6.350   1.798   1.411
 8982SOL    HW227846   6.445   1.701   1.501
 8983SOL     OW27847   1.258   4.993   1.996
 8983SOL    HW127848   1.244   4.922   1.927
 8983SOL    HW227849   1.347   4.980   2.040
 8984SOL     OW27850   5.912   0.210   4.342
 8984SOL    HW127851   5.813   0.195   4.353
 8984SOL    HW227852   5.932   0.306   4.358
 8985SOL     OW27853   4.918   1.511   0.705
 8985SOL    HW127854   4.855   1.456   0.760
 8985SOL    HW227855   4.957   1.583   0.762
 8986SOL     OW27856   5.355   4.440   2.028
 8986SOL    HW127857   5.349   4.352   1.982
 8986SOL    HW227858   5.387   4.427   2.121
 8987SOL     OW27859   3.022   0.526   1.012
 8987SOL    HW127860   2.985   0.618   1.024
 8987SOL    HW227861   3.029   0.482   1.102
 8988SOL     OW27862   1.706   5.505   1.003
 8988SOL    HW127863   1.771   5.578   0.984
 8988SOL    HW227864   1.618   5.527   0.962
 8989SOL     OW27865   5.113   2.959   2.963
 8989SOL    HW127866   5.209   2.934   2.976
 8989SOL    HW227867   5.054   2.888   3.001
 8990SOL     OW27868   2.584   6.176   0.849
 8990SOL    HW127869   2.640   6.196   0.769
 8990SOL    HW227870   2.492   6.151   0.820
 8991SOL     OW27871   2.121   2.722   1.058
 8991SOL    HW127872   2.154   2.736   1.152
 8991SOL    HW227873   2.023   2.740   1.054
 8992SOL     OW27874   0.410   3.178   0.364
 8992SOL    HW127875   0.414   3.162   0.266
 8992SOL    HW227876   0.322   3.147   0.400
 8993SOL     OW27877   4.801   1.885   3.656
 8993SOL    HW127878   4.880   1.824   3.667
 8993SOL    HW227879   4.833   1.977   3.633
 8994SOL     OW27880   1.611   4.950   4.619
 8994SOL    HW127881   1.601   5.041   4.659
 8994SOL    HW227882   1.556   4.884   4.670
 8995SOL     OW27883   0.978   2.813   5.181
 8995SOL    HW127884   0.942   2.720   5.177
 8995SOL    HW227885   0.916   2.875   5.133
 8996SOL     OW27886   0.597   3.705   1.028
 8996SOL    HW127887   0.548   3.656   1.100
 8996SOL    HW227888   0.531   3.752   0.969
 8997SOL     OW27889   5.194   0.955   5.750
 8997SOL    HW127890   5.181   0.912   5.661
 8997SOL    HW227891   5.152   0.898   5.820
 8998SOL     OW27892   7.005   2.418   4.813
 8998SOL    HW127893   0.020   2.379   4.896
 8998SOL    HW227894   6.938   2.488   4.837
 8999SOL     OW27895   5.303   1.113   6.141
 8999SOL    HW127896   5.322   1.071   6.053
 8999SOL    HW227897   5.367   1.078   6.210
 9000SOL     OW27898   3.301   3.870   6.888
 9000SOL    HW127899   3.210   3.888   6.927
 9000SOL    HW227900   3.370   3.883   6.958
 9001SOL     OW27901   1.446   4.703   3.503
 9001SOL    HW127902   1.470   4.726   3.597
 9001SOL    HW227903   1.491   4.618   3.476
 9002SOL     OW27904   6.590   5.239   5.495
 9002SOL    HW127905   6.671   5.230   5.552
 9002SOL    HW227906   6.593   5.172   5.421
 9003SOL     OW27907   6.610   2.487   0.116
 9003SOL    HW127908   6.597   2.484   0.215
 9003SOL    HW227909   6.707   2.503   0.096
 9004SOL     OW27910   5.080   6.856   1.627
 9004SOL    HW127911   5.075   6.808   1.714
 9004SOL    HW227912   5.008   6.926   1.623
 9005SOL     OW27913   5.096   2.005   4.140
 9005SOL    HW127914   5.180   2.055   4.121
 9005SOL    HW227915   5.097   1.918   4.091
 9006SOL     OW27916   1.254   5.387   1.146
 9006SOL    HW127917   1.293   5.311   1.197
 9006SOL    HW227918   1.310   5.405   1.065
 9007SOL     OW27919   2.980   5.050   3.390
 9007SOL    HW127920   3.040   4.974   3.415
 9007SOL    HW227921   2.957   5.102   3.472
 9008SOL     OW27922   6.750   4.575   2.721
 9008SOL    HW127923   6.706   4.623   2.645
 9008SOL    HW227924   6.688   4.505   2.756
 9009SOL     OW27925   3.005   6.779   0.978
 9009SOL    HW127926   3.037   6.778   1.072
 9009SOL    HW227927   2.966   6.868   0.956
 9010SOL     OW27928   1.138   6.540   4.481
 9010SOL    HW127929   1.097   6.527   4.391
 9010SOL    HW227930   1.089   6.485   4.548
 9011SOL     OW27931   4.142   2.236   1.408
 9011SOL    HW127932   4.210   2.301   1.376
 9011SOL    HW227933   4.052   2.280   1.411
 9012SOL     OW27934   1.598   5.183   0.941
 9012SOL    HW127935   1.666   5.198   1.013
 9012SOL    HW227936   1.579   5.085   0.932
 9013SOL     OW27937   6.302   5.973   4.399
 9013SOL    HW127938   6.364   5.944   4.325
 9013SOL    HW227939   6.280   5.894   4.457
 9014SOL     OW27940   1.705   1.386   0.050
 9014SOL    HW127941   1.637   1.330   0.098
 9014SOL    HW227942   1.662   1.470   0.018
 9015SOL     OW27943   0.344   1.120   6.780
 9015SOL    HW127944   0.253   1.158   6.792
 9015SOL    HW227945   0.400   1.181   6.724
 9016SOL     OW27946   6.696   6.366   5.789
 9016SOL    HW127947   6.623   6.431   5.811
 9016SOL    HW227948   6.781   6.417   5.771
 9017SOL     OW27949   6.287   2.082   4.091
 9017SOL    HW127950   6.364   2.024   4.063
 9017SOL    HW227951   6.225   2.028   4.149
 9018SOL     OW27952   3.787   1.351   5.189
 9018SOL    HW127953   3.818   1.435   5.145
 9018SOL    HW227954   3.759   1.285   5.119
 9019SOL     OW27955   2.443   6.458   6.743
 9019SOL    HW127956   2.492   6.544   6.734
 9019SOL    HW227957   2.345   6.476   6.758
 9020SOL     OW27958   1.720   4.303   2.290
 9020SOL    HW127959   1.786   4.366   2.250
 9020SOL    HW227960   1.638   4.300   2.233
 9021SOL     OW27961   6.754   6.556   3.976
 9021SOL    HW127962   6.705   6.638   3.946
 9021SOL    HW227963   6.735   6.481   3.913
 9022SOL     OW27964   2.434   0.068   0.315
 9022SOL    HW127965   2.489   0.150   0.302
 9022SOL    HW227966   2.494   7.013   0.327
 9023SOL     OW27967   3.231   3.564   3.656
 9023SOL    HW127968   3.219   3.485   3.716
 9023SOL    HW227969   3.250   3.645   3.712
 9024SOL     OW27970   1.771   6.003   6.020
 9024SOL    HW127971   1.766   5.913   6.065
 9024SOL    HW227972   1.809   6.070   6.084
 9025SOL     OW27973   6.483   5.410   1.166
 9025SOL    HW127974   6.449   5.317   1.177
 9025SOL    HW227975   6.463   5.463   1.249
 9026SOL     OW27976   3.833   3.069   4.074
 9026SOL    HW127977   3.767   3.014   4.124
 9026SOL    HW227978   3.860   3.021   3.990
 9027SOL     OW27979   2.978   2.036   3.221
 9027SOL    HW127980   2.931   2.099   3.158
 9027SOL    HW227981   3.076   2.045   3.209
 9028SOL     OW27982   1.983   4.703   6.168
 9028SOL    HW127983   2.014   4.743   6.254
 9028SOL    HW227984   2.026   4.750   6.092
 9029SOL     OW27985   3.560   5.020   4.742
 9029SOL    HW127986   3.544   4.959   4.665
 9029SOL    HW227987   3.488   5.008   4.810
 9030SOL     OW27988   1.926   0.805   2.193
 9030SOL    HW127989   1.853   0.814   2.125
 9030SOL    HW227990   1.984   0.886   2.190
 9031SOL     OW27991   3.034   5.603   5.277
 9031SOL    HW127992   3.103   5.554   5.331
 9031SOL    HW227993   3.012   5.549   5.195
 9032SOL     OW27994   3.148   2.676   1.281
 9032SOL    HW127995   3.057   2.636   1.293
 9032SOL    HW227996   3.139   2.769   1.246
 9033SOL     OW27997   2.139   3.027   4.444
 9033SOL    HW127998   2.153   3.125   4.458
 9033SOL    HW227999   2.158   2.978   4.529
 9034SOL     OW28000   2.689   6.900   5.390
 9034SOL    HW128001   2.635   6.817   5.376
 9034SOL    HW228002   2.691   6.954   5.306
 9035SOL     OW28003   0.501   6.830   5.098
 9035SOL    HW128004   0.509   6.768   5.020
 9035SOL    HW228005   0.467   6.919   5.067
 9036SOL     OW28006   1.933   2.569   5.242
 9036SOL    HW128007   1.941   2.550   5.340
 9036SOL    HW228008   1.991   2.646   5.218
 9037SOL     OW28009   2.406   4.061   6.435
 9037SOL    HW128010   2.419   4.115   6.518
 9037SOL    HW228011   2.477   3.990   6.431
 9038SOL     OW28012   5.574   0.969   6.243
 9038SOL    HW128013   5.566   0.893   6.307
 9038SOL    HW228014   5.530   0.945   6.156
 9039SOL     OW28015   1.821   4.459   5.443
 9039SOL    HW128016   1.835   4.375   5.391
 9039SOL    HW228017   1.848   4.445   5.538
 9040SOL     OW28018   2.907   0.827   2.926
 9040SOL    HW128019   2.914   0.728   2.919
 9040SOL    HW228020   2.811   0.854   2.923
 9041SOL     OW28021   0.655   1.868   2.057
 9041SOL    HW128022   0.585   1.847   2.125
 9041SOL    HW228023   0.618   1.855   1.965
 9042SOL     OW28024   2.703   6.740   3.415
 9042SOL    HW128025   2.709   6.826   3.365
 9042SOL    HW228026   2.608   6.718   3.434
 9043SOL     OW28027   1.957   2.146   6.068
 9043SOL    HW128028   1.918   2.096   6.145
 9043SOL    HW228029   2.055   2.158   6.082
 9044SOL     OW28030   6.027   0.847   0.569
 9044SOL    HW128031   6.058   0.795   0.489
 9044SOL    HW228032   5.973   0.926   0.539
 9045SOL     OW28033   4.093   0.591   3.227
 9045SOL    HW128034   4.059   0.560   3.316
 9045SOL    HW228035   4.023   0.646   3.182
 9046SOL     OW28036   3.568   4.060   5.661
 9046SOL    HW128037   3.502   4.036   5.590
 9046SOL    HW228038   3.610   4.148   5.639
 9047SOL     OW28039   1.975   4.102   5.115
 9047SOL    HW128040   2.050   4.104   5.180
 9047SOL    HW228041   2.011   4.089   5.022
 9048SOL     OW28042   1.869   3.512   5.937
 9048SOL    HW128043   1.907   3.593   5.894
 9048SOL    HW228044   1.895   3.431   5.884
 9049SOL     OW28045   5.172   6.205   6.408
 9049SOL    HW128046   5.205   6.144   6.481
 9049SOL    HW228047   5.105   6.268   6.446
 9050SOL     OW28048   0.814   5.219   0.114
 9050SOL    HW128049   0.881   5.284   0.078
 9050SOL    HW228050   0.736   5.268   0.151
 9051SOL     OW28051   4.207   6.234   0.870
 9051SOL    HW128052   4.293   6.233   0.818
 9051SOL    HW228053   4.131   6.249   0.807
 9052SOL     OW28054   2.534   4.716   4.585
 9052SOL    HW128055   2.514   4.814   4.577
 9052SOL    HW228056   2.569   4.697   4.677
 9053SOL     OW28057   2.412   2.549   3.946
 9053SOL    HW128058   2.481   2.493   3.900
 9053SOL    HW228059   2.366   2.607   3.879
 9054SOL     OW28060   1.883   0.331   2.047
 9054SOL    HW128061   1.958   0.381   2.090
 9054SOL    HW228062   1.854   0.380   1.964
 9055SOL     OW28063   0.750   3.514   3.566
 9055SOL    HW128064   0.838   3.497   3.520
 9055SOL    HW228065   0.746   3.609   3.596
 9056SOL     OW28066   5.093   0.812   1.631
 9056SOL    HW128067   5.086   0.891   1.570
 9056SOL    HW228068   5.185   0.806   1.668
 9057SOL     OW28069   5.932   4.758   6.607
 9057SOL    HW128070   5.906   4.794   6.518
 9057SOL    HW228071   5.899   4.818   6.679
 9058SOL     OW28072   1.785   1.936   4.700
 9058SOL    HW128073   1.776   1.972   4.793
 9058SOL    HW228074   1.820   2.007   4.640
 9059SOL     OW28075   6.300   0.637   3.273
 9059SOL    HW128076   6.306   0.713   3.208
 9059SOL    HW228077   6.392   0.602   3.291
 9060SOL     OW28078   6.821   3.491   2.069
 9060SOL    HW128079   6.917   3.519   2.061
 9060SOL    HW228080   6.817   3.397   2.105
 9061SOL     OW28081   4.642   5.376   3.141
 9061SOL    HW128082   4.682   5.448   3.198
 9061SOL    HW228083   4.560   5.340   3.186
 9062SOL     OW28084   1.337   4.635   2.023
 9062SOL    HW128085   1.415   4.697   2.011
 9062SOL    HW228086   1.284   4.663   2.103
 9063SOL     OW28087   2.974   1.448   2.623
 9063SOL    HW128088   2.888   1.437   2.672
 9063SOL    HW228089   3.011   1.539   2.642
 9064SOL     OW28090   6.628   4.228   4.346
 9064SOL    HW128091   6.725   4.223   4.373
 9064SOL    HW228092   6.621   4.233   4.247
 9065SOL     OW28093   2.621   6.071   5.669
 9065SOL    HW128094   2.591   5.978   5.646
 9065SOL    HW228095   2.547   6.119   5.716
 9066SOL     OW28096   6.423   6.897   5.961
 9066SOL    HW128097   6.331   6.863   5.979
 9066SOL    HW228098   6.421   6.957   5.881
 9067SOL     OW28099   6.645   6.185   4.657
 9067SOL    HW128100   6.689   6.264   4.700
 9067SOL    HW228101   6.546   6.198   4.658
 9068SOL     OW28102   3.897   6.953   5.047
 9068SOL    HW128103   3.952   0.011   5.030
 9068SOL    HW228104   3.812   6.979   5.094
 9069SOL     OW28105   5.138   2.406   2.796
 9069SOL    HW128106   5.078   2.405   2.876
 9069SOL    HW228107   5.100   2.467   2.726
 9070SOL     OW28108   1.641   2.300   6.417
 9070SOL    HW128109   1.626   2.258   6.327
 9070SOL    HW228110   1.737   2.289   6.443
 9071SOL     OW28111   5.118   0.574   6.196
 9071SOL    HW128112   5.066   0.630   6.132
 9071SOL    HW228113   5.104   0.607   6.289
 9072SOL     OW28114   5.025   6.972   1.937
 9072SOL    HW128115   5.071   6.909   1.999
 9072SOL    HW228116   5.083   0.028   1.923
 9073SOL     OW28117   4.285   6.673   0.648
 9073SOL    HW128118   4.203   6.725   0.671
 9073SOL    HW228119   4.340   6.658   0.730
 9074SOL     OW28120   1.708   0.956   1.147
 9074SOL    HW128121   1.690   0.863   1.117
 9074SOL    HW228122   1.652   0.976   1.228
 9075SOL     OW28123   6.978   0.831   2.278
 9075SOL    HW128124   6.972   0.916   2.225
 9075SOL    HW228125   6.899   0.774   2.257
 9076SOL     OW28126   4.638   1.444   3.824
 9076SOL    HW128127   4.654   1.464   3.921
 9076SOL    HW228128   4.542   1.418   3.811
 9077SOL     OW28129   4.853   1.522   6.241
 9077SOL    HW128130   4.779   1.552   6.180
 9077SOL    HW228131   4.840   1.426   6.264
 9078SOL     OW28132   5.587   5.027   6.294
 9078SOL    HW128133   5.648   5.051   6.219
 9078SOL    HW228134   5.509   5.090   6.296
 9079SOL     OW28135   1.494   0.330   5.114
 9079SOL    HW128136   1.562   0.267   5.076
 9079SOL    HW228137   1.424   0.278   5.163
 9080SOL     OW28138   6.358   2.889   6.786
 9080SOL    HW128139   6.328   2.915   6.694
 9080SOL    HW228140   6.355   2.969   6.846
 9081SOL     OW28141   3.361   1.778   1.376
 9081SOL    HW128142   3.431   1.828   1.326
 9081SOL    HW228143   3.270   1.810   1.349
 9082SOL     OW28144   2.689   6.641   4.788
 9082SOL    HW128145   2.628   6.579   4.739
 9082SOL    HW228146   2.649   6.664   4.876
 9083SOL     OW28147   4.558   4.598   6.082
 9083SOL    HW128148   4.640   4.544   6.064
 9083SOL    HW228149   4.577   4.666   6.153
 9084SOL     OW28150   0.887   2.218   6.408
 9084SOL    HW128151   0.850   2.302   6.368
 9084SOL    HW228152   0.986   2.216   6.396
 9085SOL     OW28153   2.582   5.935   1.417
 9085SOL    HW128154   2.659   5.928   1.479
 9085SOL    HW228155   2.521   6.008   1.448
 9086SOL     OW28156   6.229   4.241   0.960
 9086SOL    HW128157   6.294   4.167   0.946
 9086SOL    HW228158   6.149   4.206   1.009
 9087SOL     OW28159   5.524   2.966   2.658
 9087SOL    HW128160   5.567   2.961   2.748
 9087SOL    HW228161   5.427   2.989   2.669
 9088SOL     OW28162   5.695   6.987   1.784
 9088SOL    HW128163   5.741   0.019   1.852
 9088SOL    HW228164   5.599   7.015   1.777
 9089SOL     OW28165   4.001   5.601   4.857
 9089SOL    HW128166   3.950   5.608   4.943
 9089SOL    HW228167   4.007   5.505   4.830
 9090SOL     OW28168   4.989   6.567   4.758
 9090SOL    HW128169   5.005   6.469   4.773
 9090SOL    HW228170   4.902   6.593   4.800
 9091SOL     OW28171   3.036   2.849   0.740
 9091SOL    HW128172   3.127   2.860   0.701
 9091SOL    HW228173   3.038   2.872   0.837
 9092SOL     OW28174   1.436   0.764   6.186
 9092SOL    HW128175   1.488   0.726   6.262
 9092SOL    HW228176   1.353   0.808   6.222
 9093SOL     OW28177   1.835   6.289   6.923
 9093SOL    HW128178   1.808   6.383   6.903
 9093SOL    HW228179   1.752   6.233   6.932
 9094SOL     OW28180   0.808   5.395   2.886
 9094SOL    HW128181   0.713   5.425   2.887
 9094SOL    HW228182   0.865   5.465   2.929
 9095SOL     OW28183   5.271   3.852   6.229
 9095SOL    HW128184   5.328   3.891   6.157
 9095SOL    HW228185   5.241   3.925   6.291
 9096SOL     OW28186   4.991   3.265   2.779
 9096SOL    HW128187   4.983   3.344   2.840
 9096SOL    HW228188   4.990   3.296   2.684
 9097SOL     OW28189   0.282   3.188   0.091
 9097SOL    HW128190   0.333   3.273   0.105
 9097SOL    HW228191   0.186   3.210   0.073
 9098SOL     OW28192   3.713   3.186   1.253
 9098SOL    HW128193   3.660   3.103   1.271
 9098SOL    HW228194   3.667   3.265   1.294
 9099SOL     OW28195   3.448   3.536   0.897
 9099SOL    HW128196   3.457   3.453   0.842
 9099SOL    HW228197   3.399   3.515   0.982
 9100SOL     OW28198   0.898   2.728   2.668
 9100SOL    HW128199   0.941   2.741   2.757
 9100SOL    HW228200   0.817   2.786   2.661
 9101SOL     OW28201   2.267   2.875   2.662
 9101SOL    HW128202   2.245   2.907   2.754
 9101SOL    HW228203   2.197   2.907   2.598
 9102SOL     OW28204   3.678   6.410   1.569
 9102SOL    HW128205   3.734   6.455   1.639
 9102SOL    HW228206   3.721   6.422   1.480
 9103SOL     OW28207   6.528   3.917   0.143
 9103SOL    HW128208   6.585   3.841   0.110
 9103SOL    HW228209   6.545   3.998   0.088
 9104SOL     OW28210   4.014   6.138   2.110
 9104SOL    HW128211   4.024   6.223   2.057
 9104SOL    HW228212   3.971   6.159   2.198
 9105SOL     OW28213   1.312   0.811   0.296
 9105SOL    HW128214   1.257   0.823   0.214
 9105SOL    HW228215   1.254   0.776   0.370
 9106SOL     OW28216   5.421   3.937   6.732
 9106SOL    HW128217   5.322   3.928   6.720
 9106SOL    HW228218   5.441   4.006   6.801
 9107SOL     OW28219   4.147   0.382   6.341
 9107SOL    HW128220   4.148   0.392   6.242
 9107SOL    HW228221   4.236   0.407   6.378
 9108SOL     OW28222   4.714   4.530   5.742
 9108SOL    HW128223   4.792   4.469   5.758
 9108SOL    HW228224   4.630   4.481   5.765
 9109SOL     OW28225   1.333   2.554   2.749
 9109SOL    HW128226   1.344   2.568   2.848
 9109SOL    HW228227   1.255   2.493   2.733
 9110SOL     OW28228   1.895   4.515   4.161
 9110SOL    HW128229   1.947   4.557   4.086
 9110SOL    HW228230   1.958   4.477   4.228
 9111SOL     OW28231   4.567   3.628   0.389
 9111SOL    HW128232   4.590   3.550   0.331
 9111SOL    HW228233   4.492   3.603   0.451
 9112SOL     OW28234   0.427   4.642   4.547
 9112SOL    HW128235   0.428   4.736   4.515
 9112SOL    HW228236   0.498   4.589   4.500
 9113SOL     OW28237   4.437   6.368   0.816
 9113SOL    HW128238   4.419   6.462   0.845
 9113SOL    HW228239   4.524   6.338   0.854
 9114SOL     OW28240   1.832   4.866   1.614
 9114SOL    HW128241   1.932   4.869   1.625
 9114SOL    HW228242   1.790   4.848   1.703
 9115SOL     OW28243   1.117   5.921   5.681
 9115SOL    HW128244   1.131   6.003   5.626
 9115SOL    HW228245   1.198   5.904   5.738
 9116SOL     OW28246   6.539   2.190   0.865
 9116SOL    HW128247   6.513   2.213   0.958
 9116SOL    HW228248   6.637   2.205   0.853
 9117SOL     OW28249   5.988   2.909   6.972
 9117SOL    HW128250   6.016   3.005   6.970
 9117SOL    HW228251   6.066   2.851   6.949
 9118SOL     OW28252   6.558   5.808   0.763
 9118SOL    HW128253   6.576   5.859   0.847
 9118SOL    HW228254   6.542   5.872   0.688
 9119SOL     OW28255   5.341   1.455   2.373
 9119SOL    HW128256   5.328   1.369   2.323
 9119SOL    HW228257   5.316   1.532   2.314
 9120SOL     OW28258   5.860   3.251   5.717
 9120SOL    HW128259   5.818   3.172   5.671
 9120SOL    HW228260   5.894   3.223   5.807
 9121SOL     OW28261   1.965   2.878   6.710
 9121SOL    HW128262   1.962   2.905   6.613
 9121SOL    HW228263   1.882   2.909   6.755
 9122SOL     OW28264   1.647   3.194   2.125
 9122SOL    HW128265   1.593   3.272   2.095
 9122SOL    HW228266   1.642   3.121   2.057
 9123SOL     OW28267   3.700   0.107   4.761
 9123SOL    HW128268   3.615   0.055   4.751
 9123SOL    HW228269   3.692   0.171   4.837
 9124SOL     OW28270   5.558   6.962   5.701
 9124SOL    HW128271   5.598   7.005   5.621
 9124SOL    HW228272   5.459   6.954   5.689
 9125SOL     OW28273   5.109   3.779   2.059
 9125SOL    HW128274   5.047   3.742   1.990
 9125SOL    HW228275   5.201   3.788   2.019
 9126SOL     OW28276   5.563   2.247   2.430
 9126SOL    HW128277   5.543   2.207   2.519
 9126SOL    HW228278   5.596   2.341   2.441
 9127SOL     OW28279   6.580   1.585   6.187
 9127SOL    HW128280   6.611   1.675   6.158
 9127SOL    HW228281   6.523   1.594   6.269
 9128SOL     OW28282   4.183   1.295   5.008
 9128SOL    HW128283   4.124   1.265   4.932
 9128SOL    HW228284   4.126   1.332   5.081
 9129SOL     OW28285   0.470   3.143   1.313
 9129SOL    HW128286   0.385   3.116   1.268
 9129SOL    HW228287   0.526   3.062   1.332
 9130SOL     OW28288   6.720   3.468   0.798
 9130SOL    HW128289   6.672   3.381   0.807
 9130SOL    HW228290   6.819   3.452   0.798
 9131SOL     OW28291   6.911   2.969   5.929
 9131SOL    HW128292   6.867   3.005   5.846
 9131SOL    HW228293   6.980   3.035   5.960
 9132SOL     OW28294   0.166   4.921   4.495
 9132SOL    HW128295   0.148   4.839   4.549
 9132SOL    HW228296   0.265   4.930   4.480
 9133SOL     OW28297   3.785   6.408   1.331
 9133SOL    HW128298   3.815   6.486   1.276
 9133SOL    HW228299   3.813   6.323   1.287
 9134SOL     OW28300   4.115   5.708   0.369
 9134SOL    HW128301   4.087   5.705   0.465
 9134SOL    HW228302   4.179   5.784   0.355
 9135SOL     OW28303   6.334   5.842   1.929
 9135SOL    HW128304   6.419   5.858   1.880
 9135SOL    HW228305   6.319   5.743   1.940
 9136SOL     OW28306   5.350   5.310   5.757
 9136SOL    HW128307   5.426   5.371   5.779
 9136SOL    HW228308   5.264   5.352   5.786
 9137SOL     OW28309   5.206   2.144   1.272
 9137SOL    HW128310   5.264   2.219   1.241
 9137SOL    HW228311   5.139   2.178   1.338
 9138SOL     OW28312   6.513   5.714   5.730
 9138SOL    HW128313   6.564   5.628   5.734
 9138SOL    HW228314   6.416   5.695   5.712
 9139SOL     OW28315   2.382   1.909   4.600
 9139SOL    HW128316   2.406   1.872   4.509
 9139SOL    HW228317   2.401   1.839   4.669
 9140SOL     OW28318   6.097   2.918   2.773
 9140SOL    HW128319   6.174   2.864   2.742
 9140SOL    HW228320   6.061   2.973   2.698
 9141SOL     OW28321   5.725   0.533   6.670
 9141SOL    HW128322   5.645   0.487   6.632
 9141SOL    HW228323   5.704   0.566   6.762
 9142SOL     OW28324   0.953   2.134   1.114
 9142SOL    HW128325   0.903   2.207   1.067
 9142SOL    HW228326   0.906   2.110   1.199
 9143SOL     OW28327   5.508   2.900   1.271
 9143SOL    HW128328   5.554   2.877   1.185
 9143SOL    HW228329   5.418   2.857   1.272
 9144SOL     OW28330   2.549   5.420   5.628
 9144SOL    HW128331   2.602   5.423   5.713
 9144SOL    HW228332   2.538   5.325   5.599
 9145SOL     OW28333   6.663   5.383   0.131
 9145SOL    HW128334   6.681   5.417   0.223
 9145SOL    HW228335   6.611   5.298   0.136
 9146SOL     OW28336   5.061   2.742   3.147
 9146SOL    HW128337   5.084   2.798   3.226
 9146SOL    HW228338   5.109   2.655   3.152
 9147SOL     OW28339   5.999   0.213   3.934
 9147SOL    HW128340   6.018   0.310   3.923
 9147SOL    HW228341   6.056   0.176   4.007
 9148SOL     OW28342   5.017   6.304   0.617
 9148SOL    HW128343   5.012   6.343   0.709
 9148SOL    HW228344   4.994   6.375   0.550
 9149SOL     OW28345   5.590   3.267   3.642
 9149SOL    HW128346   5.580   3.340   3.575
 9149SOL    HW228347   5.662   3.204   3.612
 9150SOL     OW28348   2.914   5.287   2.564
 9150SOL    HW128349   2.894   5.201   2.612
 9150SOL    HW228350   3.002   5.279   2.517
 9151SOL     OW28351   1.864   4.742   3.860
 9151SOL    HW128352   1.777   4.694   3.858
 9151SOL    HW228353   1.861   4.816   3.928
 9152SOL     OW28354   2.314   4.715   5.009
 9152SOL    HW128355   2.256   4.706   5.090
 9152SOL    HW228356   2.338   4.812   4.996
 9153SOL     OW28357   1.000   3.120   1.015
 9153SOL    HW128358   1.033   3.030   0.987
 9153SOL    HW228359   1.077   3.184   1.018
 9154SOL     OW28360   4.280   5.173   6.322
 9154SOL    HW128361   4.271   5.102   6.392
 9154SOL    HW228362   4.203   5.167   6.258
 9155SOL     OW28363   1.436   3.288   1.706
 9155SOL    HW128364   1.458   3.327   1.796
 9155SOL    HW228365   1.351   3.330   1.672
 9156SOL     OW28366   1.394   2.719   1.011
 9156SOL    HW128367   1.300   2.686   1.022
 9156SOL    HW228368   1.440   2.665   0.941
 9157SOL     OW28369   6.837   4.549   6.075
 9157SOL    HW128370   6.760   4.526   6.135
 9157SOL    HW228371   6.877   4.465   6.038
 9158SOL     OW28372   5.889   3.560   4.674
 9158SOL    HW128373   5.862   3.559   4.578
 9158SOL    HW228374   5.882   3.467   4.712
 9159SOL     OW28375   1.958   6.990   2.226
 9159SOL    HW128376   1.927   0.056   2.258
 9159SOL    HW228377   2.036   6.960   2.280
 9160SOL     OW28378   6.489   0.403   5.075
 9160SOL    HW128379   6.573   0.349   5.079
 9160SOL    HW228380   6.483   0.461   5.157
 9161SOL     OW28381   4.575   4.381   4.862
 9161SOL    HW128382   4.490   4.410   4.906
 9161SOL    HW228383   4.625   4.462   4.830
 9162SOL     OW28384   4.435   0.753   4.573
 9162SOL    HW128385   4.440   0.789   4.480
 9162SOL    HW228386   4.527   0.739   4.608
 9163SOL     OW28387   1.672   3.086   4.212
 9163SOL    HW128388   1.745   3.112   4.149
 9163SOL    HW228389   1.712   3.066   4.302
 9164SOL     OW28390   2.741   1.209   6.415
 9164SOL    HW128391   2.809   1.199   6.342
 9164SOL    HW228392   2.787   1.228   6.502
 9165SOL     OW28393   5.973   2.380   5.540
 9165SOL    HW128394   5.996   2.328   5.458
 9165SOL    HW228395   5.874   2.385   5.550
 9166SOL     OW28396   4.060   5.959   0.967
 9166SOL    HW128397   4.123   6.031   0.939
 9166SOL    HW228398   4.013   5.922   0.887
 9167SOL     OW28399   2.239   2.509   6.817
 9167SOL    HW128400   2.196   2.587   6.863
 9167SOL    HW228401   2.207   2.424   6.858
 9168SOL     OW28402   6.831   0.172   6.416
 9168SOL    HW128403   6.876   0.246   6.365
 9168SOL    HW228404   6.884   0.150   6.498
 9169SOL     OW28405   6.004   1.197   4.534
 9169SOL    HW128406   6.051   1.119   4.575
 9169SOL    HW228407   5.905   1.183   4.537
 9170SOL     OW28408   1.476   5.706   6.909
 9170SOL    HW128409   1.476   5.694   6.809
 9170SOL    HW228410   1.519   5.627   6.952
 9171SOL     OW28411   4.083   4.990   0.764
 9171SOL    HW128412   4.012   5.058   0.780
 9171SOL    HW228413   4.168   5.036   0.737
 9172SOL     OW28414   3.706   1.082   3.841
 9172SOL    HW128415   3.642   1.013   3.806
 9172SOL    HW228416   3.678   1.109   3.933
 9173SOL     OW28417   6.318   3.709   5.073
 9173SOL    HW128418   6.288   3.788   5.021
 9173SOL    HW228419   6.402   3.672   5.032
 9174SOL     OW28420   5.627   3.718   1.774
 9174SOL    HW128421   5.545   3.661   1.781
 9174SOL    HW228422   5.600   3.813   1.760
 9175SOL     OW28423   1.003   0.538   5.029
 9175SOL    HW128424   0.995   0.543   4.929
 9175SOL    HW228425   0.986   0.629   5.068
 9176SOL     OW28426   3.104   1.166   5.233
 9176SOL    HW128427   3.156   1.248   5.260
 9176SOL    HW228428   3.102   1.102   5.310
 9177SOL     OW28429   0.812   4.931   5.121
 9177SOL    HW128430   0.724   4.963   5.085
 9177SOL    HW228431   0.886   4.974   5.070
 9178SOL     OW28432   1.590   5.498   0.358
 9178SOL    HW128433   1.609   5.400   0.365
 9178SOL    HW228434   1.673   5.550   0.379
 9179SOL     OW28435   2.468   4.977   4.523
 9179SOL    HW128436   2.536   5.018   4.584
 9179SOL    HW228437   2.459   5.034   4.441
 9180SOL     OW28438   6.576   2.702   3.083
 9180SOL    HW128439   6.618   2.712   2.993
 9180SOL    HW228440   6.477   2.711   3.075
 9181SOL     OW28441   4.387   1.922   5.383
 9181SOL    HW128442   4.434   1.945   5.298
 9181SOL    HW228443   4.410   1.990   5.453
 9182SOL     OW28444   2.775   6.681   2.074
 9182SOL    HW128445   2.743   6.774   2.088
 9182SOL    HW228446   2.872   6.682   2.048
 9183SOL     OW28447   4.791   5.618   0.797
 9183SOL    HW128448   4.745   5.615   0.709
 9183SOL    HW228449   4.882   5.578   0.788
 9184SOL     OW28450   5.144   1.250   0.832
 9184SOL    HW128451   5.070   1.185   0.844
 9184SOL    HW228452   5.146   1.282   0.737
 9185SOL     OW28453   4.237   6.786   4.384
 9185SOL    HW128454   4.210   6.715   4.449
 9185SOL    HW228455   4.176   6.783   4.305
 9186SOL     OW28456   5.734   5.829   4.528
 9186SOL    HW128457   5.699   5.919   4.502
 9186SOL    HW228458   5.757   5.829   4.625
 9187SOL     OW28459   2.614   2.012   0.913
 9187SOL    HW128460   2.677   2.040   0.840
 9187SOL    HW228461   2.622   1.913   0.928
 9188SOL     OW28462   1.356   6.383   1.286
 9188SOL    HW128463   1.275   6.435   1.311
 9188SOL    HW228464   1.371   6.309   1.352
 9189SOL     OW28465   4.307   5.840   1.709
 9189SOL    HW128466   4.292   5.741   1.701
 9189SOL    HW228467   4.390   5.865   1.660
 9190SOL     OW28468   3.083   4.340   5.934
 9190SOL    HW128469   3.181   4.338   5.950
 9190SOL    HW228470   3.038   4.392   6.007
 9191SOL     OW28471   6.505   2.486   6.196
 9191SOL    HW128472   6.579   2.426   6.228
 9191SOL    HW228473   6.428   2.481   6.260
 9192SOL     OW28474   0.764   3.452   6.169
 9192SOL    HW128475   0.763   3.428   6.072
 9192SOL    HW228476   0.813   3.539   6.180
 9193SOL     OW28477   4.574   4.591   6.865
 9193SOL    HW128478   4.536   4.554   6.781
 9193SOL    HW228479   4.660   4.639   6.845
 9194SOL     OW28480   3.111   0.650   3.384
 9194SOL    HW128481   3.205   0.684   3.390
 9194SOL    HW228482   3.088   0.632   3.289
 9195SOL     OW28483   1.651   1.728   3.671
 9195SOL    HW128484   1.657   1.743   3.573
 9195SOL    HW228485   1.609   1.640   3.689
 9196SOL     OW28486   5.323   0.134   2.588
 9196SOL    HW128487   5.238   0.133   2.536
 9196SOL    HW228488   5.366   0.223   2.580
 9197SOL     OW28489   1.974   5.362   1.349
 9197SOL    HW128490   2.009   5.368   1.255
 9197SOL    HW228491   1.992   5.271   1.386
 9198SOL     OW28492   6.140   5.331   6.786
 9198SOL    HW128493   6.139   5.289   6.695
 9198SOL    HW228494   6.046   5.340   6.819
 9199SOL     OW28495   0.936   3.918   6.016
 9199SOL    HW128496   0.948   3.916   6.115
 9199SOL    HW228497   0.875   3.993   5.992
 9200SOL     OW28498   2.544   6.479   7.007
 9200SOL    HW128499   2.506   6.440   6.923
 9200SOL    HW228500   2.517   6.575   7.014
 9201SOL     OW28501   6.903   2.578   0.369
 9201SOL    HW128502   6.936   2.539   0.454
 9201SOL    HW228503   6.854   2.664   0.389
 9202SOL     OW28504   1.432   6.295   2.344
 9202SOL    HW128505   1.405   6.333   2.256
 9202SOL    HW228506   1.379   6.211   2.361
 9203SOL     OW28507   0.649   4.096   6.392
 9203SOL    HW128508   0.728   4.089   6.453
 9203SOL    HW228509   0.607   4.186   6.404
 9204SOL     OW28510   4.963   2.906   6.109
 9204SOL    HW128511   4.995   2.909   6.014
 9204SOL    HW228512   4.935   2.997   6.138
 9205SOL     OW28513   5.865   4.722   3.546
 9205SOL    HW128514   5.810   4.721   3.462
 9205SOL    HW228515   5.842   4.642   3.602
 9206SOL     OW28516   3.987   5.885   2.754
 9206SOL    HW128517   4.046   5.939   2.694
 9206SOL    HW228518   3.904   5.860   2.704
 9207SOL     OW28519   5.236   3.666   6.006
 9207SOL    HW128520   5.160   3.707   5.956
 9207SOL    HW228521   5.263   3.725   6.082
 9208SOL     OW28522   5.841   4.340   3.572
 9208SOL    HW128523   5.760   4.364   3.519
 9208SOL    HW228524   5.869   4.417   3.629
 9209SOL     OW28525   4.022   0.510   6.828
 9209SOL    HW128526   4.037   0.606   6.853
 9209SOL    HW228527   4.005   0.457   6.911
 9210SOL     OW28528   0.059   0.749   2.512
 9210SOL    HW128529   0.011   0.812   2.451
 9210SOL    HW228530   0.049   0.656   2.478
 9211SOL     OW28531   0.841   2.411   6.097
 9211SOL    HW128532   0.790   2.473   6.037
 9211SOL    HW228533   0.911   2.363   6.044
 9212SOL     OW28534   4.937   5.660   4.002
 9212SOL    HW128535   5.024   5.619   4.030
 9212SOL    HW228536   4.943   5.760   4.011
 9213SOL     OW28537   5.695   3.412   5.134
 9213SOL    HW128538   5.678   3.506   5.104
 9213SOL    HW228539   5.698   3.351   5.055
 9214SOL     OW28540   6.597   3.666   6.458
 9214SOL    HW128541   6.537   3.715   6.521
 9214SOL    HW228542   6.606   3.571   6.487
 9215SOL     OW28543   0.783   2.537   1.424
 9215SOL    HW128544   0.729   2.491   1.354
 9215SOL    HW228545   0.723   2.576   1.493
 9216SOL     OW28546   3.433   0.380   2.210
 9216SOL    HW128547   3.493   0.361   2.133
 9216SOL    HW228548   3.391   0.294   2.241
 9217SOL     OW28549   0.115   2.429   0.162
 9217SOL    HW128550   0.133   2.380   0.248
 9217SOL    HW228551   0.088   2.363   0.092
 9218SOL     OW28552   1.794   6.866   0.116
 9218SOL    HW128553   1.756   6.777   0.092
 9218SOL    HW228554   1.736   6.911   0.184
 9219SOL     OW28555   6.271   3.075   1.025
 9219SOL    HW128556   6.343   3.111   1.084
 9219SOL    HW228557   6.248   2.982   1.053
 9220SOL     OW28558   1.615   6.484   1.271
 9220SOL    HW128559   1.525   6.440   1.277
 9220SOL    HW228560   1.648   6.505   1.363
 9221SOL     OW28561   3.496   0.630   3.134
 9221SOL    HW128562   3.586   0.589   3.120
 9221SOL    HW228563   3.434   0.601   3.062
 9222SOL     OW28564   2.667   6.942   6.123
 9222SOL    HW128565   2.645   6.871   6.055
 9222SOL    HW228566   2.584   6.964   6.175
 9223SOL     OW28567   1.080   1.209   4.008
 9223SOL    HW128568   1.163   1.202   4.063
 9223SOL    HW228569   1.019   1.132   4.031
 9224SOL     OW28570   1.332   5.024   4.912
 9224SOL    HW128571   1.411   5.051   4.967
 9224SOL    HW228572   1.282   4.951   4.958
 9225SOL     OW28573   2.953   6.696   6.255
 9225SOL    HW128574   2.876   6.723   6.312
 9225SOL    HW228575   3.021   6.649   6.311
 9226SOL     OW28576   6.055   6.381   0.637
 9226SOL    HW128577   6.068   6.374   0.736
 9226SOL    HW228578   6.089   6.470   0.605
 9227SOL     OW28579   1.246   5.442   0.466
 9227SOL    HW128580   1.246   5.533   0.423
 9227SOL    HW228581   1.284   5.449   0.558
 9228SOL     OW28582   1.377   2.207   5.395
 9228SOL    HW128583   1.309   2.202   5.467
 9228SOL    HW228584   1.378   2.121   5.343
 9229SOL     OW28585   0.903   5.854   4.929
 9229SOL    HW128586   0.969   5.911   4.979
 9229SOL    HW228587   0.942   5.763   4.915
 9230SOL     OW28588   4.413   1.433   3.471
 9230SOL    HW128589   4.317   1.405   3.480
 9230SOL    HW228590   4.472   1.358   3.502
 9231SOL     OW28591   0.332   4.386   4.627
 9231SOL    HW128592   0.368   4.477   4.606
 9231SOL    HW228593   0.408   4.320   4.631
 9232SOL     OW28594   3.787   5.371   0.347
 9232SOL    HW128595   3.739   5.290   0.312
 9232SOL    HW228596   3.762   5.386   0.442
 9233SOL     OW28597   5.617   5.334   1.937
 9233SOL    HW128598   5.561   5.361   1.859
 9233SOL    HW228599   5.703   5.295   1.905
 9234SOL     OW28600   3.390   5.942   5.893
 9234SOL    HW128601   3.303   5.990   5.901
 9234SOL    HW228602   3.375   5.848   5.863
 9235SOL     OW28603   1.545   3.033   3.514
 9235SOL    HW128604   1.584   2.942   3.501
 9235SOL    HW228605   1.455   3.025   3.558
 9236SOL     OW28606   2.662   4.598   5.776
 9236SOL    HW128607   2.682   4.555   5.687
 9236SOL    HW228608   2.658   4.697   5.764
 9237SOL     OW28609   2.072   5.264   4.684
 9237SOL    HW128610   2.025   5.252   4.597
 9237SOL    HW228611   2.073   5.178   4.734
 9238SOL     OW28612   3.513   1.574   0.005
 9238SOL    HW128613   3.570   1.583   6.948
 9238SOL    HW228614   3.422   1.544   7.003
 9239SOL     OW28615   0.095   4.513   0.584
 9239SOL    HW128616   0.095   4.605   0.623
 9239SOL    HW228617   0.112   4.518   0.486
 9240SOL     OW28618   5.478   1.520   1.313
 9240SOL    HW128619   5.413   1.573   1.367
 9240SOL    HW228620   5.437   1.495   1.225
 9241SOL     OW28621   0.599   5.424   5.435
 9241SOL    HW128622   0.686   5.376   5.427
 9241SOL    HW228623   0.524   5.363   5.412
 9242SOL     OW28624   0.409   5.540   0.474
 9242SOL    HW128625   0.506   5.525   0.492
 9242SOL    HW228626   0.383   5.631   0.507
 9243SOL     OW28627   5.540   6.787   1.413
 9243SOL    HW128628   5.539   6.688   1.395
 9243SOL    HW228629   5.617   6.829   1.364
 9244SOL     OW28630   4.229   5.689   6.490
 9244SOL    HW128631   4.284   5.727   6.416
 9244SOL    HW228632   4.175   5.612   6.455
 9245SOL     OW28633   1.222   4.696   3.282
 9245SOL    HW128634   1.128   4.670   3.304
 9245SOL    HW228635   1.275   4.703   3.366
 9246SOL     OW28636   0.270   5.312   2.594
 9246SOL    HW128637   0.189   5.366   2.571
 9246SOL    HW228638   0.246   5.215   2.593
 9247SOL     OW28639   1.483   6.679   2.841
 9247SOL    HW128640   1.523   6.723   2.921
 9247SOL    HW228641   1.481   6.745   2.765
 9248SOL     OW28642   1.605   2.322   5.030
 9248SOL    HW128643   1.616   2.417   5.001
 9248SOL    HW228644   1.531   2.315   5.097
 9249SOL     OW28645   4.481   4.295   0.268
 9249SOL    HW128646   4.517   4.311   0.176
 9249SOL    HW228647   4.496   4.377   0.324
 9250SOL     OW28648   5.718   3.053   4.333
 9250SOL    HW128649   5.752   3.078   4.243
 9250SOL    HW228650   5.750   3.119   4.401
 9251SOL     OW28651   4.065   2.114   2.967
 9251SOL    HW128652   4.158   2.094   2.937
 9251SOL    HW228653   4.065   2.140   3.063
 9252SOL     OW28654   5.836   0.557   4.511
 9252SOL    HW128655   5.763   0.579   4.447
 9252SOL    HW228656   5.908   0.507   4.463
 9253SOL     OW28657   5.610   6.484   5.436
 9253SOL    HW128658   5.571   6.529   5.355
 9253SOL    HW228659   5.640   6.554   5.501
 9254SOL     OW28660   6.308   4.264   3.082
 9254SOL    HW128661   6.294   4.281   2.985
 9254SOL    HW228662   6.222   4.280   3.132
 9255SOL     OW28663   5.128   3.581   0.387
 9255SOL    HW128664   5.070   3.617   0.460
 9255SOL    HW228665   5.136   3.482   0.396
 9256SOL     OW28666   4.137   6.960   2.623
 9256SOL    HW128667   4.204   6.889   2.600
 9256SOL    HW228668   4.091   6.936   2.709
 9257SOL     OW28669   0.839   3.765   2.920
 9257SOL    HW128670   0.743   3.785   2.938
 9257SOL    HW228671   0.863   3.794   2.828
 9258SOL     OW28672   3.438   3.441   4.101
 9258SOL    HW128673   3.375   3.368   4.126
 9258SOL    HW228674   3.402   3.528   4.135
 9259SOL     OW28675   1.433   2.809   6.895
 9259SOL    HW128676   1.405   2.767   6.809
 9259SOL    HW228677   1.363   2.875   6.924
 9260SOL     OW28678   5.089   1.820   4.809
 9260SOL    HW128679   5.143   1.770   4.876
 9260SOL    HW228680   5.147   1.887   4.763
 9261SOL     OW28681   4.747   0.529   6.616
 9261SOL    HW128682   4.712   0.547   6.707
 9261SOL    HW228683   4.728   0.607   6.556
 9262SOL     OW28684   0.051   3.658   5.828
 9262SOL    HW128685   6.984   3.694   5.807
 9262SOL    HW228686   0.120   3.724   5.801
 9263SOL     OW28687   5.624   5.605   1.576
 9263SOL    HW128688   5.549   5.554   1.620
 9263SOL    HW228689   5.679   5.542   1.521
 9264SOL     OW28690   5.763   4.026   0.347
 9264SOL    HW128691   5.771   4.089   0.425
 9264SOL    HW228692   5.666   4.015   0.323
 9265SOL     OW28693   4.004   1.921   0.075
 9265SOL    HW128694   3.923   1.861   0.076
 9265SOL    HW228695   4.086   1.866   0.088
 9266SOL     OW28696   2.636   6.593   1.848
 9266SOL    HW128697   2.677   6.663   1.907
 9266SOL    HW228698   2.615   6.512   1.903
 9267SOL     OW28699   0.751   3.952   5.604
 9267SOL    HW128700   0.777   3.926   5.511
 9267SOL    HW228701   0.751   3.871   5.663
 9268SOL     OW28702   1.533   5.466   1.602
 9268SOL    HW128703   1.593   5.527   1.550
 9268SOL    HW228704   1.585   5.426   1.678
 9269SOL     OW28705   2.944   1.776   5.940
 9269SOL    HW128706   2.907   1.736   5.856
 9269SOL    HW228707   3.030   1.822   5.919
 9270SOL     OW28708   4.392   6.786   5.985
 9270SOL    HW128709   4.478   6.833   5.964
 9270SOL    HW228710   4.335   6.784   5.902
 9271SOL     OW28711   1.172   0.027   0.133
 9271SOL    HW128712   1.271   0.027   0.120
 9271SOL    HW228713   1.129   0.086   0.066
 9272SOL     OW28714   1.771   5.254   5.085
 9272SOL    HW128715   1.830   5.185   5.128
 9272SOL    HW228716   1.755   5.329   5.149
 9273SOL     OW28717   5.515   6.094   3.394
 9273SOL    HW128718   5.447   6.041   3.445
 9273SOL    HW228719   5.576   6.140   3.458
 9274SOL     OW28720   6.509   2.793   0.338
 9274SOL    HW128721   6.431   2.854   0.324
 9274SOL    HW228722   6.480   2.698   0.323
 9275SOL     OW28723   6.685   2.313   6.841
 9275SOL    HW128724   6.776   2.304   6.882
 9275SOL    HW228725   6.615   2.304   6.913
 9276SOL     OW28726   1.945   4.504   2.407
 9276SOL    HW128727   1.888   4.585   2.415
 9276SOL    HW228728   1.944   4.471   2.312
 9277SOL     OW28729   5.451   3.078   0.651
 9277SOL    HW128730   5.438   3.083   0.552
 9277SOL    HW228731   5.397   3.151   0.695
 9278SOL     OW28732   1.197   0.400   5.774
 9278SOL    HW128733   1.137   0.386   5.695
 9278SOL    HW228734   1.161   0.474   5.831
 9279SOL     OW28735   5.213   0.863   1.964
 9279SOL    HW128736   5.120   0.845   1.997
 9279SOL    HW228737   5.216   0.954   1.923
 9280SOL     OW28738   1.453   1.217   3.097
 9280SOL    HW128739   1.497   1.304   3.119
 9280SOL    HW228740   1.416   1.175   3.180
 9281SOL     OW28741   3.076   4.631   1.010
 9281SOL    HW128742   3.168   4.614   0.977
 9281SOL    HW228743   3.069   4.604   1.107
 9282SOL     OW28744   5.046   0.780   4.623
 9282SOL    HW128745   5.049   0.867   4.574
 9282SOL    HW228746   5.065   0.797   4.720
 9283SOL     OW28747   6.044   0.493   4.112
 9283SOL    HW128748   5.962   0.523   4.062
 9283SOL    HW228749   6.126   0.520   4.062
 9284SOL     OW28750   3.283   4.496   6.410
 9284SOL    HW128751   3.245   4.578   6.367
 9284SOL    HW228752   3.312   4.518   6.503
 9285SOL     OW28753   4.924   2.446   1.272
 9285SOL    HW128754   4.887   2.390   1.198
 9285SOL    HW228755   4.967   2.386   1.340
 9286SOL     OW28756   5.249   6.506   6.603
 9286SOL    HW128757   5.285   6.483   6.513
 9286SOL    HW228758   5.184   6.582   6.595
 9287SOL     OW28759   3.167   5.246   6.747
 9287SOL    HW128760   3.100   5.215   6.679
 9287SOL    HW228761   3.232   5.173   6.766
 9288SOL     OW28762   4.149   1.545   4.408
 9288SOL    HW128763   4.150   1.480   4.484
 9288SOL    HW228764   4.076   1.612   4.422
 9289SOL     OW28765   4.131   1.462   2.652
 9289SOL    HW128766   4.160   1.468   2.556
 9289SOL    HW228767   4.189   1.519   2.709
 9290SOL     OW28768   4.955   1.548   3.271
 9290SOL    HW128769   4.991   1.458   3.247
 9290SOL    HW228770   4.855   1.547   3.264
 9291SOL     OW28771   1.942   6.961   4.012
 9291SOL    HW128772   1.862   6.942   3.955
 9291SOL    HW228773   2.007   6.885   4.005
 9292SOL     OW28774   0.989   3.473   6.734
 9292SOL    HW128775   0.916   3.413   6.768
 9292SOL    HW228776   0.962   3.511   6.645
 9293SOL     OW28777   5.280   3.868   0.008
 9293SOL    HW128778   5.204   3.926   7.004
 9293SOL    HW228779   5.244   3.780   0.040
 9294SOL     OW28780   3.075   6.968   4.711
 9294SOL    HW128781   3.124   6.888   4.679
 9294SOL    HW228782   2.986   6.940   4.749
 9295SOL     OW28783   5.518   2.346   4.173
 9295SOL    HW128784   5.610   2.338   4.134
 9295SOL    HW228785   5.481   2.437   4.152
 9296SOL     OW28786   0.387   6.631   6.550
 9296SOL    HW128787   0.425   6.585   6.469
 9296SOL    HW228788   0.397   6.730   6.540
 9297SOL     OW28789   6.574   1.316   0.383
 9297SOL    HW128790   6.578   1.309   0.483
 9297SOL    HW228791   6.484   1.286   0.352
 9298SOL     OW28792   1.613   0.825   4.526
 9298SOL    HW128793   1.707   0.797   4.508
 9298SOL    HW228794   1.610   0.873   4.614
 9299SOL     OW28795   0.777   2.398   3.910
 9299SOL    HW128796   0.684   2.390   3.874
 9299SOL    HW228797   0.775   2.380   4.009
 9300SOL     OW28798   0.794   4.599   5.544
 9300SOL    HW128799   0.729   4.661   5.499
 9300SOL    HW228800   0.857   4.652   5.601
 9301SOL     OW28801   4.620   4.405   3.728
 9301SOL    HW128802   4.650   4.358   3.811
 9301SOL    HW228803   4.546   4.468   3.750
 9302SOL     OW28804   2.348   2.766   4.385
 9302SOL    HW128805   2.393   2.789   4.472
 9302SOL    HW228806   2.398   2.692   4.341
 9303SOL     OW28807   3.421   5.525   0.482
 9303SOL    HW128808   3.364   5.550   0.404
 9303SOL    HW228809   3.507   5.576   0.479
 9304SOL     OW28810   4.658   4.501   2.263
 9304SOL    HW128811   4.627   4.416   2.219
 9304SOL    HW228812   4.758   4.504   2.262
 9305SOL     OW28813   3.587   0.885   1.383
 9305SOL    HW128814   3.612   0.823   1.309
 9305SOL    HW228815   3.613   0.979   1.358
 9306SOL     OW28816   0.130   4.412   4.811
 9306SOL    HW128817   0.217   4.402   4.762
 9306SOL    HW228818   0.121   4.506   4.844
 9307SOL     OW28819   1.122   3.730   1.333
 9307SOL    HW128820   1.060   3.681   1.272
 9307SOL    HW228821   1.199   3.670   1.357
 9308SOL     OW28822   1.664   4.417   0.703
 9308SOL    HW128823   1.734   4.443   0.637
 9308SOL    HW228824   1.684   4.459   0.792
 9309SOL     OW28825   3.161   4.999   5.571
 9309SOL    HW128826   3.250   5.005   5.525
 9309SOL    HW228827   3.171   4.949   5.657
 9310SOL     OW28828   4.403   5.547   6.107
 9310SOL    HW128829   4.408   5.641   6.073
 9310SOL    HW228830   4.327   5.538   6.171
 9311SOL     OW28831   4.197   4.768   2.150
 9311SOL    HW128832   4.245   4.693   2.104
 9311SOL    HW228833   4.169   4.836   2.083
 9312SOL     OW28834   0.984   3.177   1.373
 9312SOL    HW128835   1.003   3.079   1.369
 9312SOL    HW228836   0.917   3.201   1.303
 9313SOL     OW28837   0.083   0.386   0.972
 9313SOL    HW128838   0.074   0.447   0.894
 9313SOL    HW228839   0.005   0.323   0.976
 9314SOL     OW28840   4.635   6.081   6.073
 9314SOL    HW128841   4.584   6.166   6.057
 9314SOL    HW228842   4.732   6.102   6.083
 9315SOL     OW28843   6.517   1.034   5.152
 9315SOL    HW128844   6.572   0.993   5.080
 9315SOL    HW228845   6.505   1.131   5.134
 9316SOL     OW28846   3.979   5.424   5.496
 9316SOL    HW128847   3.993   5.331   5.528
 9316SOL    HW228848   3.895   5.461   5.537
 9317SOL     OW28849   6.672   5.237   3.326
 9317SOL    HW128850   6.741   5.165   3.313
 9317SOL    HW228851   6.618   5.247   3.242
 9318SOL     OW28852   6.531   0.423   5.916
 9318SOL    HW128853   6.461   0.390   5.852
 9318SOL    HW228854   6.575   0.504   5.877
 9319SOL     OW28855   1.307   2.902   0.297
 9319SOL    HW128856   1.343   2.992   0.273
 9319SOL    HW228857   1.211   2.895   0.269
 9320SOL     OW28858   3.847   0.742   5.543
 9320SOL    HW128859   3.876   0.649   5.566
 9320SOL    HW228860   3.867   0.803   5.619
 9321SOL     OW28861   6.054   0.320   3.654
 9321SOL    HW128862   6.075   0.226   3.625
 9321SOL    HW228863   6.134   0.359   3.699
 9322SOL     OW28864   1.212   4.592   6.512
 9322SOL    HW128865   1.298   4.596   6.461
 9322SOL    HW228866   1.137   4.572   6.450
 9323SOL     OW28867   1.349   0.754   5.528
 9323SOL    HW128868   1.259   0.796   5.540
 9323SOL    HW228869   1.360   0.679   5.594
 9324SOL     OW28870   1.094   4.551   0.613
 9324SOL    HW128871   1.073   4.640   0.571
 9324SOL    HW228872   1.192   4.535   0.610
 9325SOL     OW28873   4.889   1.275   6.837
 9325SOL    HW128874   4.845   1.207   6.895
 9325SOL    HW228875   4.870   1.366   6.873
 9326SOL     OW28876   2.315   6.146   0.789
 9326SOL    HW128877   2.233   6.167   0.843
 9326SOL    HW228878   2.306   6.054   0.750
 9327SOL     OW28879   5.368   6.874   3.117
 9327SOL    HW128880   5.357   6.788   3.168
 9327SOL    HW228881   5.420   6.939   3.173
 9328SOL     OW28882   3.031   0.792   5.952
 9328SOL    HW128883   3.047   0.778   6.050
 9328SOL    HW228884   2.979   0.716   5.915
 9329SOL     OW28885   6.069   4.086   1.739
 9329SOL    HW128886   6.087   4.175   1.699
 9329SOL    HW228887   6.018   4.098   1.824
 9330SOL     OW28888   6.285   6.670   6.748
 9330SOL    HW128889   6.265   6.657   6.845
 9330SOL    HW228890   6.377   6.709   6.738
 9331SOL     OW28891   1.643   0.995   6.744
 9331SOL    HW128892   1.665   0.901   6.768
 9331SOL    HW228893   1.544   1.007   6.742
 9332SOL     OW28894   3.827   4.082   1.792
 9332SOL    HW128895   3.868   4.137   1.720
 9332SOL    HW228896   3.749   4.031   1.755
 9333SOL     OW28897   4.001   3.747   1.399
 9333SOL    HW128898   3.977   3.712   1.309
 9333SOL    HW228899   3.921   3.745   1.459
 9334SOL     OW28900   5.350   5.613   3.854
 9334SOL    HW128901   5.406   5.535   3.828
 9334SOL    HW228902   5.409   5.691   3.875
 9335SOL     OW28903   0.940   1.170   6.468
 9335SOL    HW128904   1.003   1.122   6.407
 9335SOL    HW228905   0.960   1.268   6.466
 9336SOL     OW28906   2.824   5.188   5.424
 9336SOL    HW128907   2.819   5.128   5.344
 9336SOL    HW228908   2.801   5.281   5.397
 9337SOL     OW28909   4.802   1.806   4.334
 9337SOL    HW128910   4.773   1.804   4.429
 9337SOL    HW228911   4.890   1.854   4.327
 9338SOL     OW28912   4.497   0.790   2.228
 9338SOL    HW128913   4.516   0.695   2.252
 9338SOL    HW228914   4.556   0.851   2.280
 9339SOL     OW28915   5.850   0.174   1.313
 9339SOL    HW128916   5.814   0.084   1.288
 9339SOL    HW228917   5.854   0.232   1.231
 9340SOL     OW28918   5.815   3.572   4.376
 9340SOL    HW128919   5.798   3.660   4.332
 9340SOL    HW228920   5.728   3.525   4.391
 9341SOL     OW28921   6.831   5.676   0.545
 9341SOL    HW128922   6.849   5.751   0.481
 9341SOL    HW228923   6.769   5.709   0.617
 9342SOL     OW28924   1.650   6.793   3.537
 9342SOL    HW128925   1.645   6.705   3.584
 9342SOL    HW228926   1.722   6.849   3.578
 9343SOL     OW28927   6.109   3.900   2.548
 9343SOL    HW128928   6.134   3.893   2.452
 9343SOL    HW228929   6.183   3.865   2.605
 9344SOL     OW28930   4.519   6.208   2.300
 9344SOL    HW128931   4.506   6.306   2.318
 9344SOL    HW228932   4.430   6.164   2.292
 9345SOL     OW28933   6.087   4.774   2.325
 9345SOL    HW128934   6.176   4.797   2.365
 9345SOL    HW228935   6.099   4.706   2.253
 9346SOL     OW28936   6.565   0.760   0.918
 9346SOL    HW128937   6.510   0.677   0.923
 9346SOL    HW228938   6.528   0.821   0.848
 9347SOL     OW28939   1.532   3.606   0.930
 9347SOL    HW128940   1.517   3.513   0.964
 9347SOL    HW228941   1.625   3.635   0.951
 9348SOL     OW28942   3.663   5.998   2.109
 9348SOL    HW128943   3.639   6.067   2.177
 9348SOL    HW228944   3.600   6.004   2.032
 9349SOL     OW28945   0.371   6.135   3.469
 9349SOL    HW128946   0.467   6.147   3.494
 9349SOL    HW228947   0.349   6.037   3.468
 9350SOL     OW28948   0.815   3.853   5.369
 9350SOL    HW128949   0.793   3.920   5.298
 9350SOL    HW228950   0.911   3.862   5.395
 9351SOL     OW28951   2.476   0.185   6.753
 9351SOL    HW128952   2.504   0.227   6.667
 9351SOL    HW228953   2.485   0.252   6.827
 9352SOL     OW28954   3.598   1.948   0.148
 9352SOL    HW128955   3.550   1.903   0.073
 9352SOL    HW228956   3.608   2.045   0.128
 9353SOL     OW28957   0.438   4.192   0.231
 9353SOL    HW128958   0.529   4.174   0.268
 9353SOL    HW228959   0.370   4.179   0.302
 9354SOL     OW28960   0.060   1.800   6.381
 9354SOL    HW128961   0.105   1.858   6.449
 9354SOL    HW228962   0.092   1.706   6.392
 9355SOL     OW28963   0.327   2.541   4.308
 9355SOL    HW128964   0.354   2.549   4.404
 9355SOL    HW228965   0.254   2.607   4.288
 9356SOL     OW28966   4.915   0.479   1.845
 9356SOL    HW128967   4.837   0.521   1.799
 9356SOL    HW228968   4.884   0.397   1.894
 9357SOL     OW28969   1.213   3.378   5.845
 9357SOL    HW128970   1.199   3.361   5.747
 9357SOL    HW228971   1.310   3.397   5.862
 9358SOL     OW28972   6.504   3.875   2.144
 9358SOL    HW128973   6.535   3.856   2.051
 9358SOL    HW228974   6.537   3.966   2.172
 9359SOL     OW28975   1.316   4.993   6.507
 9359SOL    HW128976   1.280   4.929   6.439
 9359SOL    HW228977   1.414   4.976   6.519
 9360SOL     OW28978   1.323   5.202   6.122
 9360SOL    HW128979   1.272   5.288   6.123
 9360SOL    HW228980   1.337   5.172   6.028
 9361SOL     OW28981   1.524   4.895   3.821
 9361SOL    HW128982   1.600   4.949   3.784
 9361SOL    HW228983   1.509   4.920   3.917
 9362SOL     OW28984   0.929   1.287   2.296
 9362SOL    HW128985   0.858   1.310   2.363
 9362SOL    HW228986   0.887   1.273   2.207
 9363SOL     OW28987   2.913   5.118   2.242
 9363SOL    HW128988   2.963   5.090   2.159
 9363SOL    HW228989   2.912   5.218   2.248
 9364SOL     OW28990   2.379   2.138   0.424
 9364SOL    HW128991   2.289   2.177   0.405
 9364SOL    HW228992   2.378   2.041   0.403
 9365SOL     OW28993   3.372   1.773   3.208
 9365SOL    HW128994   3.281   1.731   3.214
 9365SOL    HW228995   3.415   1.770   3.298
 9366SOL     OW28996   2.753   5.660   0.086
 9366SOL    HW128997   2.829   5.607   0.049
 9366SOL    HW228998   2.759   5.661   0.186
 9367SOL     OW28999   6.421   6.883   2.192
 9367SOL    HW129000   6.493   6.876   2.122
 9367SOL    HW229001   6.342   6.931   2.154
 9368SOL     OW29002   3.319   0.133   2.343
 9368SOL    HW129003   3.397   0.081   2.308
 9368SOL    HW229004   3.234   0.084   2.322
 9369SOL     OW29005   6.629   6.820   3.512
 9369SOL    HW129006   6.613   6.754   3.438
 9369SOL    HW229007   6.612   6.776   3.600
 9370SOL     OW29008   5.361   6.915   4.727
 9370SOL    HW129009   5.408   6.859   4.796
 9370SOL    HW229010   5.304   6.856   4.670
 9371SOL     OW29011   2.741   5.750   0.821
 9371SOL    HW129012   2.732   5.811   0.900
 9371SOL    HW229013   2.802   5.791   0.754
 9372SOL     OW29014   5.090   0.332   1.511
 9372SOL    HW129015   5.158   0.334   1.438
 9372SOL    HW229016   5.111   0.402   1.579
 9373SOL     OW29017   4.897   2.208   0.750
 9373SOL    HW129018   4.867   2.281   0.812
 9373SOL    HW229019   4.951   2.247   0.676
 9374SOL     OW29020   0.442   3.311   6.180
 9374SOL    HW129021   0.471   3.400   6.145
 9374SOL    HW229022   0.519   3.268   6.229
 9375SOL     OW29023   0.215   1.815   0.898
 9375SOL    HW129024   0.296   1.818   0.840
 9375SOL    HW229025   0.133   1.832   0.843
 9376SOL     OW29026   2.132   3.887   1.738
 9376SOL    HW129027   2.108   3.870   1.643
 9376SOL    HW229028   2.206   3.954   1.743
 9377SOL     OW29029   1.638   4.938   3.428
 9377SOL    HW129030   1.710   4.992   3.384
 9377SOL    HW229031   1.622   4.855   3.375
 9378SOL     OW29032   3.826   1.271   3.684
 9378SOL    HW129033   3.764   1.349   3.680
 9378SOL    HW229034   3.780   1.194   3.728
 9379SOL     OW29035   4.893   0.476   4.447
 9379SOL    HW129036   4.862   0.551   4.505
 9379SOL    HW229037   4.879   0.500   4.351
 9380SOL     OW29038   3.542   5.625   5.232
 9380SOL    HW129039   3.539   5.600   5.135
 9380SOL    HW229040   3.530   5.724   5.241
 9381SOL     OW29041   5.288   3.038   5.431
 9381SOL    HW129042   5.264   3.035   5.334
 9381SOL    HW229043   5.256   2.954   5.476
 9382SOL     OW29044   4.159   1.518   3.980
 9382SOL    HW129045   4.137   1.601   3.929
 9382SOL    HW229046   4.166   1.441   3.916
 9383SOL     OW29047   5.519   4.645   4.544
 9383SOL    HW129048   5.547   4.709   4.615
 9383SOL    HW229049   5.547   4.552   4.570
 9384SOL     OW29050   3.537   0.037   1.916
 9384SOL    HW129051   3.637   0.030   1.907
 9384SOL    HW229052   3.510   0.133   1.908
 9385SOL     OW29053   4.450   1.499   4.417
 9385SOL    HW129054   4.405   1.494   4.328
 9385SOL    HW229055   4.540   1.456   4.411
 9386SOL     OW29056   3.072   5.600   4.837
 9386SOL    HW129057   3.138   5.535   4.798
 9386SOL    HW229058   3.000   5.618   4.771
 9387SOL     OW29059   3.129   2.409   1.082
 9387SOL    HW129060   3.169   2.489   1.038
 9387SOL    HW229061   3.049   2.436   1.135
 9388SOL     OW29062   1.587   6.396   3.419
 9388SOL    HW129063   1.625   6.312   3.380
 9388SOL    HW229064   1.628   6.475   3.374
 9389SOL     OW29065   2.984   6.338   2.708
 9389SOL    HW129066   2.902   6.281   2.712
 9389SOL    HW229067   3.064   6.283   2.730
 9390SOL     OW29068   5.955   5.459   5.962
 9390SOL    HW129069   5.925   5.542   6.010
 9390SOL    HW229070   6.052   5.466   5.940
 9391SOL     OW29071   0.099   0.789   5.628
 9391SOL    HW129072   0.081   0.695   5.654
 9391SOL    HW229073   0.029   0.819   5.562
 9392SOL     OW29074   4.919   4.439   4.371
 9392SOL    HW129075   4.888   4.533   4.358
 9392SOL    HW229076   4.870   4.378   4.309
 9393SOL     OW29077   2.901   6.823   5.531
 9393SOL    HW129078   2.843   6.751   5.569
 9393SOL    HW229079   2.848   6.878   5.466
 9394SOL     OW29080   6.493   0.598   1.245
 9394SOL    HW129081   6.563   0.532   1.271
 9394SOL    HW229082   6.473   0.658   1.323
 9395SOL     OW29083   2.378   0.807   0.721
 9395SOL    HW129084   2.338   0.890   0.760
 9395SOL    HW229085   2.477   0.819   0.711
 9396SOL     OW29086   1.674   4.382   5.027
 9396SOL    HW129087   1.638   4.442   5.098
 9396SOL    HW229088   1.650   4.287   5.048
 9397SOL     OW29089   2.772   6.635   5.685
 9397SOL    HW129090   2.733   6.703   5.747
 9397SOL    HW229091   2.699   6.579   5.646
 9398SOL     OW29092   6.181   1.382   5.473
 9398SOL    HW129093   6.132   1.390   5.386
 9398SOL    HW229094   6.115   1.377   5.548
 9399SOL     OW29095   0.721   2.882   4.182
 9399SOL    HW129096   0.765   2.798   4.214
 9399SOL    HW229097   0.752   2.959   4.238
 9400SOL     OW29098   4.511   0.307   0.482
 9400SOL    HW129099   4.453   0.257   0.547
 9400SOL    HW229100   4.600   0.262   0.477
 9401SOL     OW29101   0.135   2.130   2.198
 9401SOL    HW129102   0.109   2.206   2.257
 9401SOL    HW229103   0.136   2.045   2.251
 9402SOL     OW29104   1.569   4.419   3.156
 9402SOL    HW129105   1.544   4.347   3.091
 9402SOL    HW229106   1.515   4.501   3.138
 9403SOL     OW29107   6.505   1.624   2.065
 9403SOL    HW129108   6.457   1.598   1.981
 9403SOL    HW229109   6.540   1.717   2.055
 9404SOL     OW29110   0.172   2.113   1.378
 9404SOL    HW129111   0.205   2.208   1.383
 9404SOL    HW229112   0.224   2.064   1.309
 9405SOL     OW29113   1.426   4.102   4.529
 9405SOL    HW129114   1.507   4.051   4.559
 9405SOL    HW229115   1.368   4.043   4.472
 9406SOL     OW29116   1.210   3.191   0.435
 9406SOL    HW129117   1.292   3.232   0.396
 9406SOL    HW229118   1.130   3.221   0.382
 9407SOL     OW29119   2.743   5.205   4.421
 9407SOL    HW129120   2.744   5.211   4.521
 9407SOL    HW229121   2.648   5.196   4.389
 9408SOL     OW29122   0.678   1.986   6.412
 9408SOL    HW129123   0.751   2.054   6.422
 9408SOL    HW229124   0.615   2.016   6.340
 9409SOL     OW29125   6.291   5.582   2.021
 9409SOL    HW129126   6.366   5.542   1.968
 9409SOL    HW229127   6.260   5.517   2.090
 9410SOL     OW29128   5.075   1.337   1.697
 9410SOL    HW129129   5.103   1.433   1.697
 9410SOL    HW229130   4.976   1.332   1.709
 9411SOL     OW29131   3.389   3.804   3.064
 9411SOL    HW129132   3.487   3.782   3.062
 9411SOL    HW229133   3.368   3.855   3.147
 9412SOL     OW29134   1.453   0.491   2.164
 9412SOL    HW129135   1.533   0.469   2.220
 9412SOL    HW229136   1.406   0.406   2.138
 9413SOL     OW29137   5.005   5.059   4.584
 9413SOL    HW129138   4.998   5.140   4.642
 9413SOL    HW229139   4.947   5.070   4.503
 9414SOL     OW29140   3.074   1.793   4.259
 9414SOL    HW129141   3.032   1.865   4.314
 9414SOL    HW229142   3.150   1.833   4.206
 9415SOL     OW29143   2.400   0.217   1.398
 9415SOL    HW129144   2.334   0.159   1.351
 9415SOL    HW229145   2.493   0.189   1.373
 9416SOL     OW29146   0.529   1.005   5.456
 9416SOL    HW129147   0.540   1.057   5.372
 9416SOL    HW229148   0.619   0.982   5.493
 9417SOL     OW29149   3.982   6.534   1.639
 9417SOL    HW129150   4.032   6.526   1.725
 9417SOL    HW229151   3.910   6.602   1.649
 9418SOL     OW29152   2.359   1.415   2.503
 9418SOL    HW129153   2.264   1.395   2.527
 9418SOL    HW229154   2.396   1.340   2.449
 9419SOL     OW29155   2.706   3.452   6.877
 9419SOL    HW129156   2.788   3.510   6.881
 9419SOL    HW229157   2.731   3.362   6.842
 9420SOL     OW29158   5.454   4.517   0.130
 9420SOL    HW129159   5.503   4.604   0.132
 9420SOL    HW229160   5.360   4.532   0.101
 9421SOL     OW29161   2.680   5.353   4.075
 9421SOL    HW129162   2.620   5.292   4.023
 9421SOL    HW229163   2.749   5.299   4.124
 9422SOL     OW29164   2.989   5.952   3.964
 9422SOL    HW129165   3.066   5.966   3.902
 9422SOL    HW229166   2.996   6.015   4.042
 9423SOL     OW29167   4.261   6.405   3.021
 9423SOL    HW129168   4.317   6.330   2.987
 9423SOL    HW229169   4.175   6.409   2.970
 9424SOL     OW29170   5.215   1.584   4.494
 9424SOL    HW129171   5.233   1.566   4.397
 9424SOL    HW229172   5.209   1.497   4.543
 9425SOL     OW29173   5.546   5.313   1.059
 9425SOL    HW129174   5.547   5.411   1.078
 9425SOL    HW229175   5.509   5.263   1.137
 9426SOL     OW29176   1.937   1.834   5.886
 9426SOL    HW129177   1.992   1.917   5.890
 9426SOL    HW229178   1.861   1.841   5.951
 9427SOL     OW29179   2.522   5.975   3.110
 9427SOL    HW129180   2.515   5.982   3.011
 9427SOL    HW229181   2.603   6.025   3.141
 9428SOL     OW29182   6.572   6.914   0.130
 9428SOL    HW129183   6.658   6.875   0.097
 9428SOL    HW229184   6.589   7.005   0.168
 9429SOL     OW29185   1.678   2.242   3.876
 9429SOL    HW129186   1.695   2.310   3.804
 9429SOL    HW229187   1.591   2.263   3.921
 9430SOL     OW29188   0.585   2.586   4.157
 9430SOL    HW129189   0.516   2.516   4.140
 9430SOL    HW229190   0.609   2.631   4.071
 9431SOL     OW29191   6.334   4.466   1.161
 9431SOL    HW129192   6.403   4.416   1.109
 9431SOL    HW229193   6.354   4.563   1.158
 9432SOL     OW29194   6.459   1.679   4.540
 9432SOL    HW129195   6.481   1.625   4.621
 9432SOL    HW229196   6.372   1.649   4.502
 9433SOL     OW29197   4.067   5.959   3.614
 9433SOL    HW129198   4.152   6.011   3.623
 9433SOL    HW229199   3.993   6.021   3.588
 9434SOL     OW29200   5.804   5.216   3.436
 9434SOL    HW129201   5.871   5.142   3.430
 9434SOL    HW229202   5.823   5.284   3.365
 9435SOL     OW29203   0.175   1.869   2.769
 9435SOL    HW129204   0.194   1.944   2.832
 9435SOL    HW229205   0.152   1.907   2.679
 9436SOL     OW29206   1.358   1.235   2.596
 9436SOL    HW129207   1.454   1.211   2.583
 9436SOL    HW229208   1.329   1.207   2.688
 9437SOL     OW29209   0.894   5.065   3.819
 9437SOL    HW129210   0.988   5.067   3.852
 9437SOL    HW229211   0.892   5.042   3.722
 9438SOL     OW29212   0.923   0.091   2.216
 9438SOL    HW129213   0.915   0.191   2.213
 9438SOL    HW229214   0.872   0.051   2.140
 9439SOL     OW29215   0.583   3.052   0.940
 9439SOL    HW129216   0.576   3.103   0.855
 9439SOL    HW229217   0.616   3.112   1.013
 9440SOL     OW29218   2.853   4.891   3.209
 9440SOL    HW129219   2.875   4.966   3.271
 9440SOL    HW229220   2.756   4.867   3.219
 9441SOL     OW29221   6.403   5.906   5.892
 9441SOL    HW129222   6.426   5.819   5.847
 9441SOL    HW229223   6.309   5.902   5.926
 9442SOL     OW29224   4.518   3.500   1.621
 9442SOL    HW129225   4.472   3.414   1.598
 9442SOL    HW229226   4.513   3.515   1.720
 9443SOL     OW29227   2.726   5.867   1.649
 9443SOL    HW129228   2.812   5.818   1.629
 9443SOL    HW229229   2.668   5.810   1.706
 9444SOL     OW29230   1.626   4.154   0.624
 9444SOL    HW129231   1.640   4.249   0.654
 9444SOL    HW229232   1.699   4.097   0.660
 9445SOL     OW29233   0.029   2.306   3.543
 9445SOL    HW129234   0.066   2.214   3.529
 9445SOL    HW229235   6.967   2.315   3.494
 9446SOL     OW29236   0.341   5.228   4.364
 9446SOL    HW129237   0.263   5.202   4.306
 9446SOL    HW229238   0.423   5.184   4.329
 9447SOL     OW29239   5.107   4.823   3.024
 9447SOL    HW129240   5.144   4.900   3.076
 9447SOL    HW229241   5.008   4.816   3.041
 9448SOL     OW29242   6.166   6.916   5.631
 9448SOL    HW129243   6.169   6.959   5.722
 9448SOL    HW229244   6.129   6.981   5.565
 9449SOL     OW29245   5.261   6.751   0.506
 9449SOL    HW129246   5.311   6.679   0.554
 9449SOL    HW229247   5.163   6.742   0.524
 9450SOL     OW29248   1.656   5.207   3.847
 9450SOL    HW129249   1.648   5.290   3.791
 9450SOL    HW229250   1.674   5.129   3.788
 9451SOL     OW29251   4.015   5.864   6.142
 9451SOL    HW129252   3.981   5.937   6.083
 9451SOL    HW229253   3.993   5.886   6.237
 9452SOL     OW29254   0.424   3.919   0.120
 9452SOL    HW129255   0.425   4.019   0.125
 9452SOL    HW229256   0.484   3.882   0.191
 9453SOL     OW29257   2.658   4.651   2.696
 9453SOL    HW129258   2.595   4.712   2.648
 9453SOL    HW229259   2.738   4.632   2.638
 9454SOL     OW29260   4.173   3.616   0.157
 9454SOL    HW129261   4.203   3.710   0.174
 9454SOL    HW229262   4.092   3.617   0.098
 9455SOL     OW29263   2.483   1.922   2.645
 9455SOL    HW129264   2.485   1.995   2.577
 9455SOL    HW229265   2.390   1.884   2.651
 9456SOL     OW29266   6.247   4.221   1.992
 9456SOL    HW129267   6.159   4.177   2.012
 9456SOL    HW229268   6.275   4.196   1.899
 9457SOL     OW29269   0.539   4.491   4.324
 9457SOL    HW129270   0.592   4.424   4.376
 9457SOL    HW229271   0.583   4.507   4.236
 9458SOL     OW29272   7.001   3.836   0.612
 9458SOL    HW129273   7.004   3.859   0.709
 9458SOL    HW229274   6.934   3.895   0.567
 9459SOL     OW29275   5.264   4.239   3.866
 9459SOL    HW129276   5.282   4.336   3.854
 9459SOL    HW229277   5.232   4.222   3.960
 9460SOL     OW29278   2.092   2.706   4.470
 9460SOL    HW129279   2.023   2.666   4.409
 9460SOL    HW229280   2.176   2.724   4.419
 9461SOL     OW29281   0.837   1.262   1.055
 9461SOL    HW129282   0.779   1.184   1.033
 9461SOL    HW229283   0.906   1.275   0.983
 9462SOL     OW29284   1.691   2.809   3.589
 9462SOL    HW129285   1.760   2.737   3.581
 9462SOL    HW229286   1.732   2.890   3.630
 9463SOL     OW29287   4.940   0.233   1.270
 9463SOL    HW129288   4.890   0.147   1.269
 9463SOL    HW229289   5.038   0.215   1.260
 9464SOL     OW29290   6.099   0.277   1.017
 9464SOL    HW129291   6.010   0.257   0.976
 9464SOL    HW229292   6.165   0.207   0.989
 9465SOL     OW29293   0.078   3.838   1.764
 9465SOL    HW129294   0.040   3.880   1.846
 9465SOL    HW229295   0.095   3.741   1.781
 9466SOL     OW29296   4.030   5.095   6.257
 9466SOL    HW129297   3.947   5.047   6.230
 9466SOL    HW229298   4.035   5.099   6.357
 9467SOL     OW29299   1.505   2.607   0.785
 9467SOL    HW129300   1.551   2.519   0.781
 9467SOL    HW229301   1.568   2.679   0.756
 9468SOL     OW29302   6.588   3.408   6.546
 9468SOL    HW129303   6.627   3.402   6.638
 9468SOL    HW229304   6.523   3.333   6.534
 9469SOL     OW29305   6.962   6.024   0.795
 9469SOL    HW129306   6.932   5.943   0.844
 9469SOL    HW229307   6.940   6.106   0.848
 9470SOL     OW29308   4.781   3.991   6.535
 9470SOL    HW129309   4.818   3.899   6.524
 9470SOL    HW229310   4.714   4.009   6.463
 9471SOL     OW29311   5.635   2.404   5.399
 9471SOL    HW129312   5.621   2.312   5.435
 9471SOL    HW229313   5.563   2.426   5.334
 9472SOL     OW29314   0.879   4.166   5.972
 9472SOL    HW129315   0.882   4.264   5.991
 9472SOL    HW229316   0.883   4.151   5.873
 9473SOL     OW29317   3.189   3.659   6.768
 9473SOL    HW129318   3.103   3.645   6.817
 9473SOL    HW229319   3.250   3.716   6.823
 9474SOL     OW29320   5.848   3.262   1.684
 9474SOL    HW129321   5.947   3.275   1.673
 9474SOL    HW229322   5.831   3.212   1.769
 9475SOL     OW29323   4.676   3.154   0.096
 9475SOL    HW129324   4.715   3.098   0.170
 9475SOL    HW229325   4.590   3.195   0.127
 9476SOL     OW29326   3.640   3.749   5.722
 9476SOL    HW129327   3.677   3.842   5.725
 9476SOL    HW229328   3.571   3.738   5.793
 9477SOL     OW29329   1.835   3.160   0.942
 9477SOL    HW129330   1.753   3.103   0.945
 9477SOL    HW229331   1.808   3.256   0.941
 9478SOL     OW29332   4.399   2.973   0.972
 9478SOL    HW129333   4.410   2.880   0.937
 9478SOL    HW229334   4.402   2.971   1.072
 9479SOL     OW29335   4.047   0.249   1.085
 9479SOL    HW129336   4.090   0.241   0.995
 9479SOL    HW229337   4.077   0.175   1.144
 9480SOL     OW29338   6.084   5.090   0.119
 9480SOL    HW129339   6.039   5.179   0.116
 9480SOL    HW229340   6.129   5.078   0.208
 9481SOL     OW29341   4.997   2.340   3.053
 9481SOL    HW129342   4.900   2.364   3.062
 9481SOL    HW229343   5.006   2.242   3.034
 9482SOL     OW29344   6.065   6.914   2.584
 9482SOL    HW129345   6.097   6.967   2.506
 9482SOL    HW229346   6.115   6.828   2.589
 9483SOL     OW29347   1.574   0.920   7.021
 9483SOL    HW129348   1.533   0.878   6.940
 9483SOL    HW229349   1.655   0.868   0.024
 9484SOL     OW29350   2.610   0.206   4.323
 9484SOL    HW129351   2.549   0.141   4.368
 9484SOL    HW229352   2.556   0.281   4.285
 9485SOL     OW29353   6.263   1.469   0.974
 9485SOL    HW129354   6.302   1.548   0.928
 9485SOL    HW229355   6.163   1.472   0.966
 9486SOL     OW29356   5.176   6.095   1.467
 9486SOL    HW129357   5.221   6.183   1.453
 9486SOL    HW229358   5.151   6.085   1.563
 9487SOL     OW29359   3.267   3.727   4.550
 9487SOL    HW129360   3.202   3.746   4.624
 9487SOL    HW229361   3.225   3.752   4.463
 9488SOL     OW29362   2.147   0.133   1.002
 9488SOL    HW129363   2.127   0.217   0.951
 9488SOL    HW229364   2.149   0.154   1.100
 9489SOL     OW29365   5.123   4.286   1.243
 9489SOL    HW129366   5.183   4.228   1.299
 9489SOL    HW229367   5.029   4.277   1.276
 9490SOL     OW29368   6.807   6.334   3.247
 9490SOL    HW129369   6.804   6.381   3.159
 9490SOL    HW229370   6.898   6.294   3.260
 9491SOL     OW29371   5.954   5.657   4.462
 9491SOL    HW129372   5.957   5.583   4.529
 9491SOL    HW229373   5.878   5.718   4.484
 9492SOL     OW29374   4.569   3.477   6.000
 9492SOL    HW129375   4.541   3.535   6.076
 9492SOL    HW229376   4.497   3.475   5.930
 9493SOL     OW29377   3.548   5.623   3.789
 9493SOL    HW129378   3.471   5.656   3.735
 9493SOL    HW229379   3.531   5.528   3.816
 9494SOL     OW29380   5.792   2.824   2.265
 9494SOL    HW129381   5.835   2.910   2.295
 9494SOL    HW229382   5.857   2.749   2.275
 9495SOL     OW29383   6.780   1.484   2.397
 9495SOL    HW129384   6.750   1.504   2.304
 9495SOL    HW229385   6.703   1.450   2.451
 9496SOL     OW29386   4.919   2.238   2.099
 9496SOL    HW129387   4.924   2.267   2.004
 9496SOL    HW229388   4.988   2.168   2.117
 9497SOL     OW29389   5.272   6.356   5.521
 9497SOL    HW129390   5.318   6.267   5.513
 9497SOL    HW229391   5.187   6.355   5.469
 9498SOL     OW29392   6.703   4.375   5.159
 9498SOL    HW129393   6.773   4.324   5.209
 9498SOL    HW229394   6.622   4.317   5.148
 9499SOL     OW29395   0.263   6.124   5.235
 9499SOL    HW129396   0.335   6.105   5.169
 9499SOL    HW229397   0.174   6.113   5.191
 9500SOL     OW29398   3.828   6.344   0.855
 9500SOL    HW129399   3.866   6.373   0.767
 9500SOL    HW229400   3.734   6.378   0.864
 9501SOL     OW29401   1.511   1.428   4.463
 9501SOL    HW129402   1.489   1.330   4.465
 9501SOL    HW229403   1.430   1.479   4.433
 9502SOL     OW29404   6.026   3.998   4.273
 9502SOL    HW129405   6.061   4.082   4.232
 9502SOL    HW229406   6.102   3.938   4.297
 9503SOL     OW29407   0.144   2.238   0.745
 9503SOL    HW129408   0.129   2.292   0.829
 9503SOL    HW229409   0.242   2.229   0.729
 9504SOL     OW29410   6.549   3.955   1.621
 9504SOL    HW129411   6.648   3.958   1.638
 9504SOL    HW229412   6.533   3.951   1.522
 9505SOL     OW29413   5.311   4.191   5.448
 9505SOL    HW129414   5.403   4.155   5.429
 9505SOL    HW229415   5.292   4.267   5.387
 9506SOL     OW29416   2.285   2.409   0.555
 9506SOL    HW129417   2.232   2.365   0.482
 9506SOL    HW229418   2.317   2.498   0.524
 9507SOL     OW29419   6.721   0.726   1.143
 9507SOL    HW129420   6.685   0.728   1.049
 9507SOL    HW229421   6.751   0.633   1.164
 9508SOL     OW29422   5.714   2.132   2.901
 9508SOL    HW129423   5.732   2.206   2.836
 9508SOL    HW229424   5.801   2.092   2.930
 9509SOL     OW29425   6.831   0.155   3.484
 9509SOL    HW129426   6.869   0.239   3.523
 9509SOL    HW229427   6.752   0.127   3.538
 9510SOL     OW29428   1.246   3.578   2.923
 9510SOL    HW129429   1.329   3.532   2.954
 9510SOL    HW229430   1.214   3.641   2.993
 9511SOL     OW29431   1.276   1.076   1.567
 9511SOL    HW129432   1.296   0.983   1.535
 9511SOL    HW229433   1.331   1.095   1.649
 9512SOL     OW29434   6.498   2.239   1.592
 9512SOL    HW129435   6.400   2.250   1.609
 9512SOL    HW229436   6.530   2.156   1.639
 9513SOL     OW29437   2.914   4.804   6.135
 9513SOL    HW129438   2.814   4.797   6.133
 9513SOL    HW229439   2.941   4.890   6.177
 9514SOL     OW29440   3.015   4.194   0.138
 9514SOL    HW129441   3.104   4.152   0.119
 9514SOL    HW229442   2.952   4.171   0.064
 9515SOL     OW29443   2.188   5.750   2.949
 9515SOL    HW129444   2.251   5.744   2.871
 9515SOL    HW229445   2.178   5.659   2.990
 9516SOL     OW29446   5.642   4.320   0.328
 9516SOL    HW129447   5.599   4.245   0.278
 9516SOL    HW229448   5.633   4.304   0.426
 9517SOL     OW29449   1.176   4.005   1.302
 9517SOL    HW129450   1.157   3.909   1.326
 9517SOL    HW229451   1.249   4.040   1.360
 9518SOL     OW29452   2.286   1.567   0.914
 9518SOL    HW129453   2.326   1.657   0.894
 9518SOL    HW229454   2.358   1.504   0.944
 9519SOL     OW29455   2.514   2.777   5.483
 9519SOL    HW129456   2.559   2.709   5.540
 9519SOL    HW229457   2.575   2.855   5.469
 9520SOL     OW29458   2.864   0.275   2.786
 9520SOL    HW129459   2.840   0.248   2.693
 9520SOL    HW229460   2.961   0.258   2.801
 9521SOL     OW29461   5.659   5.241   3.104
 9521SOL    HW129462   5.666   5.236   3.005
 9521SOL    HW229463   5.626   5.331   3.131
 9522SOL     OW29464   3.408   5.427   0.941
 9522SOL    HW129465   3.399   5.526   0.949
 9522SOL    HW229466   3.504   5.403   0.925
 9523SOL     OW29467   3.251   5.180   4.194
 9523SOL    HW129468   3.232   5.230   4.279
 9523SOL    HW229469   3.297   5.240   4.129
 9524SOL     OW29470   4.130   2.639   1.579
 9524SOL    HW129471   4.036   2.656   1.609
 9524SOL    HW229472   4.166   2.559   1.627
 9525SOL     OW29473   2.489   2.392   6.234
 9525SOL    HW129474   2.560   2.371   6.301
 9525SOL    HW229475   2.456   2.308   6.192
 9526SOL     OW29476   5.794   5.276   2.644
 9526SOL    HW129477   5.724   5.337   2.681
 9526SOL    HW229478   5.884   5.319   2.654
 9527SOL     OW29479   1.092   0.769   1.646
 9527SOL    HW129480   1.091   0.833   1.723
 9527SOL    HW229481   1.160   0.799   1.579
 9528SOL     OW29482   7.000   0.684   7.015
 9528SOL    HW129483   6.960   0.696   6.925
 9528SOL    HW229484   6.930   0.698   0.061
 9529SOL     OW29485   0.320   3.418   5.447
 9529SOL    HW129486   0.250   3.472   5.400
 9529SOL    HW229487   0.349   3.466   5.530
 9530SOL     OW29488   1.882   2.952   3.209
 9530SOL    HW129489   1.934   2.867   3.197
 9530SOL    HW229490   1.931   3.012   3.272
 9531SOL     OW29491   4.206   5.890   3.101
 9531SOL    HW129492   4.276   5.942   3.149
 9531SOL    HW229493   4.136   5.860   3.167
 9532SOL     OW29494   1.358   5.557   1.789
 9532SOL    HW129495   1.450   5.528   1.765
 9532SOL    HW229496   1.294   5.482   1.774
 9533SOL     OW29497   0.240   1.013   5.185
 9533SOL    HW129498   0.335   0.997   5.211
 9533SOL    HW229499   0.208   1.099   5.225
 9534SOL     OW29500   5.530   3.170   5.523
 9534SOL    HW129501   5.443   3.127   5.497
 9534SOL    HW229502   5.551   3.244   5.460
 9535SOL     OW29503   2.452   1.113   6.195
 9535SOL    HW129504   2.444   1.213   6.193
 9535SOL    HW229505   2.430   1.077   6.104
 9536SOL     OW29506   2.132   5.568   5.122
 9536SOL    HW129507   2.220   5.563   5.167
 9536SOL    HW229508   2.138   5.524   5.032
 9537SOL     OW29509   3.183   0.789   2.347
 9537SOL    HW129510   3.258   0.735   2.384
 9537SOL    HW229511   3.217   0.878   2.319
 9538SOL     OW29512   6.845   1.291   4.395
 9538SOL    HW129513   6.764   1.347   4.409
 9538SOL    HW229514   6.892   1.320   4.312
 9539SOL     OW29515   2.113   4.800   6.398
 9539SOL    HW129516   2.180   4.874   6.394
 9539SOL    HW229517   2.154   4.719   6.440
 9540SOL     OW29518   4.602   4.413   5.189
 9540SOL    HW129519   4.677   4.412   5.256
 9540SOL    HW229520   4.617   4.341   5.122
 9541SOL     OW29521   1.818   1.991   5.620
 9541SOL    HW129522   1.896   1.999   5.683
 9541SOL    HW229523   1.849   1.951   5.534
 9542SOL     OW29524   4.870   3.562   5.350
 9542SOL    HW129525   4.794   3.554   5.285
 9542SOL    HW229526   4.883   3.475   5.397
 9543SOL     OW29527   4.531   0.351   4.874
 9543SOL    HW129528   4.473   0.305   4.806
 9543SOL    HW229529   4.475   0.412   4.929
 9544SOL     OW29530   5.600   0.628   1.815
 9544SOL    HW129531   5.557   0.538   1.807
 9544SOL    HW229532   5.697   0.621   1.788
 9545SOL     OW29533   6.437   6.038   2.852
 9545SOL    HW129534   6.416   6.095   2.931
 9545SOL    HW229535   6.533   6.009   2.856
 9546SOL     OW29536   2.871   4.259   6.810
 9546SOL    HW129537   2.902   4.169   6.780
 9546SOL    HW229538   2.802   4.249   6.882
 9547SOL     OW29539   2.255   6.157   4.009
 9547SOL    HW129540   2.252   6.257   3.996
 9547SOL    HW229541   2.165   6.118   3.988
 9548SOL     OW29542   6.548   5.491   4.902
 9548SOL    HW129543   6.626   5.437   4.871
 9548SOL    HW229544   6.485   5.433   4.952
 9549SOL     OW29545   3.174   5.284   0.908
 9549SOL    HW129546   3.129   5.287   0.998
 9549SOL    HW229547   3.271   5.305   0.919
 9550SOL     OW29548   0.115   1.257   6.780
 9550SOL    HW129549   0.017   1.275   6.793
 9550SOL    HW229550   0.168   1.308   6.848
 9551SOL     OW29551   0.259   6.761   4.531
 9551SOL    HW129552   0.338   6.797   4.579
 9551SOL    HW229553   0.268   6.781   4.433
 9552SOL     OW29554   2.122   6.598   2.798
 9552SOL    HW129555   2.082   6.508   2.820
 9552SOL    HW229556   2.075   6.668   2.851
 9553SOL     OW29557   6.068   5.172   6.563
 9553SOL    HW129558   5.974   5.155   6.594
 9553SOL    HW229559   6.098   5.095   6.506
 9554SOL     OW29560   3.102   1.022   1.432
 9554SOL    HW129561   3.180   1.043   1.491
 9554SOL    HW229562   3.128   0.953   1.365
 9555SOL     OW29563   6.325   2.652   1.605
 9555SOL    HW129564   6.367   2.581   1.547
 9555SOL    HW229565   6.315   2.736   1.552
 9556SOL     OW29566   2.598   1.499   1.694
 9556SOL    HW129567   2.640   1.588   1.709
 9556SOL    HW229568   2.669   1.431   1.676
 9557SOL     OW29569   6.110   0.114   2.742
 9557SOL    HW129570   6.082   0.041   2.680
 9557SOL    HW229571   6.210   0.113   2.752
 9558SOL     OW29572   6.975   5.256   2.975
 9558SOL    HW129573   6.955   5.160   2.992
 9558SOL    HW229574   0.048   5.266   2.952
 9559SOL     OW29575   0.229   4.083   2.218
 9559SOL    HW129576   0.284   4.158   2.180
 9559SOL    HW229577   0.289   4.008   2.246
 9560SOL     OW29578   2.489   1.202   2.388
 9560SOL    HW129579   2.581   1.208   2.349
 9560SOL    HW229580   2.426   1.166   2.320
 9561SOL     OW29581   2.599   6.519   0.796
 9561SOL    HW129582   2.596   6.618   0.799
 9561SOL    HW229583   2.678   6.486   0.848
 9562SOL     OW29584   3.616   5.317   4.114
 9562SOL    HW129585   3.542   5.335   4.179
 9562SOL    HW229586   3.692   5.271   4.161
 9563SOL     OW29587   6.330   6.398   0.163
 9563SOL    HW129588   6.377   6.439   0.085
 9563SOL    HW229589   6.396   6.348   0.219
 9564SOL     OW29590   2.814   6.937   6.726
 9564SOL    HW129591   2.790   6.958   6.631
 9564SOL    HW229592   2.899   6.984   6.750
 9565SOL     OW29593   4.255   5.710   4.888
 9565SOL    HW129594   4.167   5.664   4.874
 9565SOL    HW229595   4.301   5.722   4.800
 9566SOL     OW29596   3.724   4.390   6.574
 9566SOL    HW129597   3.776   4.356   6.494
 9566SOL    HW229598   3.686   4.312   6.624
 9567SOL     OW29599   6.446   5.739   6.431
 9567SOL    HW129600   6.445   5.673   6.506
 9567SOL    HW229601   6.498   5.701   6.354
 9568SOL     OW29602   4.963   3.809   6.247
 9568SOL    HW129603   4.947   3.713   6.227
 9568SOL    HW229604   5.057   3.821   6.279
 9569SOL     OW29605   6.657   1.111   0.190
 9569SOL    HW129606   6.610   1.113   0.102
 9569SOL    HW229607   6.649   1.200   0.235
 9570SOL     OW29608   0.610   1.465   0.962
 9570SOL    HW129609   0.515   1.476   0.932
 9570SOL    HW229610   0.625   1.518   1.045
 9571SOL     OW29611   3.071   3.908   0.037
 9571SOL    HW129612   2.980   3.948   0.046
 9571SOL    HW229613   3.074   3.820   0.085
 9572SOL     OW29614   1.297   4.302   1.253
 9572SOL    HW129615   1.286   4.206   1.226
 9572SOL    HW229616   1.238   4.359   1.195
 9573SOL     OW29617   0.699   0.790   6.708
 9573SOL    HW129618   0.626   0.723   6.717
 9573SOL    HW229619   0.698   0.851   6.788
 9574SOL     OW29620   3.293   3.802   5.929
 9574SOL    HW129621   3.342   3.889   5.930
 9574SOL    HW229622   3.358   3.727   5.916
 9575SOL     OW29623   6.192   0.768   1.341
 9575SOL    HW129624   6.198   0.726   1.250
 9575SOL    HW229625   6.268   0.735   1.397
 9576SOL     OW29626   3.783   1.544   4.117
 9576SOL    HW129627   3.871   1.511   4.152
 9576SOL    HW229628   3.789   1.556   4.018
 9577SOL     OW29629   0.762   0.068   2.612
 9577SOL    HW129630   0.742   0.106   2.702
 9577SOL    HW229631   0.749   0.138   2.542
 9578SOL     OW29632   6.081   2.818   1.980
 9578SOL    HW129633   6.051   2.900   2.028
 9578SOL    HW229634   6.168   2.787   2.017
 9579SOL     OW29635   1.139   0.066   1.823
 9579SOL    HW129636   1.214   0.048   1.759
 9579SOL    HW229637   1.166   0.141   1.884
 9580SOL     OW29638   5.131   3.500   6.937
 9580SOL    HW129639   5.072   3.420   6.945
 9580SOL    HW229640   5.152   3.535   0.004
 9581SOL     OW29641   1.475   5.630   5.949
 9581SOL    HW129642   1.508   5.536   5.941
 9581SOL    HW229643   1.531   5.680   6.015
 9582SOL     OW29644   4.407   4.672   4.226
 9582SOL    HW129645   4.314   4.688   4.260
 9582SOL    HW229646   4.465   4.641   4.301
 9583SOL     OW29647   2.151   3.524   1.717
 9583SOL    HW129648   2.179   3.491   1.808
 9583SOL    HW229649   2.057   3.557   1.721
 9584SOL     OW29650   6.509   5.066   6.892
 9584SOL    HW129651   6.411   5.088   6.891
 9584SOL    HW229652   6.521   4.969   6.914
 9585SOL     OW29653   5.492   6.781   2.859
 9585SOL    HW129654   5.533   6.869   2.835
 9585SOL    HW229655   5.461   6.784   2.954
 9586SOL     OW29656   5.318   3.466   3.831
 9586SOL    HW129657   5.417   3.459   3.834
 9586SOL    HW229658   5.282   3.488   3.922
 9587SOL     OW29659   5.941   0.561   1.316
 9587SOL    HW129660   5.841   0.561   1.310
 9587SOL    HW229661   5.980   0.597   1.231
 9588SOL     OW29662   0.263   0.504   1.105
 9588SOL    HW129663   0.349   0.457   1.090
 9588SOL    HW229664   0.191   0.460   1.051
 9589SOL     OW29665   2.147   6.782   5.839
 9589SOL    HW129666   2.097   6.866   5.816
 9589SOL    HW229667   2.237   6.783   5.796
 9590SOL     OW29668   0.571   3.687   2.814
 9590SOL    HW129669   0.621   3.604   2.838
 9590SOL    HW229670   0.560   3.743   2.896
 9591SOL     OW29671   2.230   6.475   0.844
 9591SOL    HW129672   2.203   6.383   0.875
 9591SOL    HW229673   2.288   6.518   0.913
 9592SOL     OW29674   4.412   5.543   2.810
 9592SOL    HW129675   4.372   5.563   2.899
 9592SOL    HW229676   4.466   5.459   2.816
 9593SOL     OW29677   5.763   2.321   4.680
 9593SOL    HW129678   5.799   2.307   4.587
 9593SOL    HW229679   5.691   2.389   4.677
 9594SOL     OW29680   6.296   6.138   2.572
 9594SOL    HW129681   6.212   6.144   2.627
 9594SOL    HW229682   6.374   6.122   2.631
 9595SOL     OW29683   1.631   5.756   4.271
 9595SOL    HW129684   1.590   5.712   4.351
 9595SOL    HW229685   1.700   5.694   4.232
 9596SOL     OW29686   6.916   5.821   5.153
 9596SOL    HW129687   6.971   5.769   5.219
 9596SOL    HW229688   6.825   5.836   5.190
 9597SOL     OW29689   0.318   4.127   1.804
 9597SOL    HW129690   0.330   4.031   1.830
 9597SOL    HW229691   0.300   4.133   1.706
 9598SOL     OW29692   0.260   4.268   5.831
 9598SOL    HW129693   0.354   4.235   5.821
 9598SOL    HW229694   0.208   4.249   5.748
 9599SOL     OW29695   3.370   0.316   5.674
 9599SOL    HW129696   3.296   0.249   5.676
 9599SOL    HW229697   3.456   0.270   5.653
 9600SOL     OW29698   1.453   0.759   5.832
 9600SOL    HW129699   1.508   0.683   5.868
 9600SOL    HW229700   1.513   0.826   5.788
 9601SOL     OW29701   0.368   4.665   6.411
 9601SOL    HW129702   0.298   4.644   6.343
 9601SOL    HW229703   0.441   4.719   6.370
 9602SOL     OW29704   6.997   4.936   6.394
 9602SOL    HW129705   7.009   4.837   6.400
 9602SOL    HW229706   0.013   4.969   6.309
 9603SOL     OW29707   2.457   6.077   4.439
 9603SOL    HW129708   2.448   6.135   4.358
 9603SOL    HW229709   2.542   6.099   4.487
 9604SOL     OW29710   4.997   0.882   6.939
 9604SOL    HW129711   4.924   0.815   6.952
 9604SOL    HW229712   4.987   0.956   7.005
 9605SOL     OW29713   1.974   5.693   5.291
 9605SOL    HW129714   1.937   5.777   5.251
 9605SOL    HW229715   2.025   5.643   5.221
 9606SOL     OW29716   0.453   6.372   3.345
 9606SOL    HW129717   0.423   6.278   3.362
 9606SOL    HW229718   0.547   6.383   3.378
 9607SOL     OW29719   0.767   0.880   1.950
 9607SOL    HW129720   0.852   0.932   1.963
 9607SOL    HW229721   0.689   0.937   1.974
 9608SOL     OW29722   6.744   0.202   2.372
 9608SOL    HW129723   6.688   0.129   2.333
 9608SOL    HW229724   6.716   0.218   2.467
 9609SOL     OW29725   2.115   4.404   4.690
 9609SOL    HW129726   2.020   4.433   4.700
 9609SOL    HW229727   2.144   4.414   4.595
 9610SOL     OW29728   1.629   2.027   5.814
 9610SOL    HW129729   1.695   2.002   5.743
 9610SOL    HW229730   1.642   2.122   5.841
 9611SOL     OW29731   6.687   0.413   1.012
 9611SOL    HW129732   6.702   0.441   1.107
 9611SOL    HW229733   6.736   0.476   0.951
 9612SOL     OW29734   5.940   3.093   0.272
 9612SOL    HW129735   5.841   3.109   0.265
 9612SOL    HW229736   5.958   3.022   0.339
 9613SOL     OW29737   5.757   6.643   4.758
 9613SOL    HW129738   5.665   6.673   4.732
 9613SOL    HW229739   5.768   6.651   4.857
 9614SOL     OW29740   3.534   4.004   2.340
 9614SOL    HW129741   3.544   4.036   2.246
 9614SOL    HW229742   3.442   4.024   2.373
 9615SOL     OW29743   1.557   5.691   2.816
 9615SOL    HW129744   1.617   5.718   2.891
 9615SOL    HW229745   1.610   5.684   2.731
 9616SOL     OW29746   3.575   2.470   0.988
 9616SOL    HW129747   3.521   2.554   0.984
 9616SOL    HW229748   3.555   2.423   1.074
 9617SOL     OW29749   1.026   2.708   3.438
 9617SOL    HW129750   0.994   2.793   3.481
 9617SOL    HW229751   1.053   2.728   3.343
 9618SOL     OW29752   3.825   6.447   6.470
 9618SOL    HW129753   3.799   6.537   6.436
 9618SOL    HW229754   3.874   6.456   6.556
 9619SOL     OW29755   1.815   6.217   0.361
 9619SOL    HW129756   1.759   6.257   0.433
 9619SOL    HW229757   1.828   6.284   0.287
 9620SOL     OW29758   3.134   0.407   6.731
 9620SOL    HW129759   3.221   0.356   6.725
 9620SOL    HW229760   3.152   0.504   6.715
 9621SOL     OW29761   0.344   0.569   2.399
 9621SOL    HW129762   0.289   0.607   2.325
 9621SOL    HW229763   0.284   0.530   2.468
 9622SOL     OW29764   6.405   0.866   0.017
 9622SOL    HW129765   6.395   0.799   0.091
 9622SOL    HW229766   6.350   0.837   6.963
 9623SOL     OW29767   4.916   5.283   6.904
 9623SOL    HW129768   4.902   5.221   6.981
 9623SOL    HW229769   4.889   5.238   6.819
 9624SOL     OW29770   5.098   5.338   5.274
 9624SOL    HW129771   5.117   5.346   5.176
 9624SOL    HW229772   5.006   5.302   5.287
 9625SOL     OW29773   5.365   4.949   6.658
 9625SOL    HW129774   5.368   4.942   6.758
 9625SOL    HW229775   5.388   4.861   6.618
 9626SOL     OW29776   1.895   4.809   5.467
 9626SOL    HW129777   1.938   4.777   5.382
 9626SOL    HW229778   1.925   4.750   5.543
 9627SOL     OW29779   1.978   4.719   5.815
 9627SOL    HW129780   2.027   4.773   5.882
 9627SOL    HW229781   2.042   4.690   5.743
 9628SOL     OW29782   5.738   4.223   6.682
 9628SOL    HW129783   5.765   4.316   6.657
 9628SOL    HW229784   5.770   4.203   6.774
 9629SOL     OW29785   6.535   5.902   2.555
 9629SOL    HW129786   6.594   5.937   2.628
 9629SOL    HW229787   6.549   5.957   2.472
 9630SOL     OW29788   6.158   6.392   5.608
 9630SOL    HW129789   6.080   6.383   5.546
 9630SOL    HW229790   6.203   6.480   5.593
 9631SOL     OW29791   4.653   1.263   1.085
 9631SOL    HW129792   4.590   1.185   1.085
 9631SOL    HW229793   4.610   1.340   1.132
 9632SOL     OW29794   2.215   5.567   1.760
 9632SOL    HW129795   2.276   5.488   1.755
 9632SOL    HW229796   2.135   5.551   1.702
 9633SOL     OW29797   3.771   3.254   2.289
 9633SOL    HW129798   3.791   3.292   2.198
 9633SOL    HW229799   3.841   3.186   2.312
 9634SOL     OW29800   5.228   4.749   2.456
 9634SOL    HW129801   5.280   4.679   2.506
 9634SOL    HW229802   5.134   4.749   2.488
 9635SOL     OW29803   0.912   3.872   4.040
 9635SOL    HW129804   1.006   3.897   4.020
 9635SOL    HW229805   0.896   3.777   4.011
 9636SOL     OW29806   4.278   1.706   5.755
 9636SOL    HW129807   4.293   1.671   5.847
 9636SOL    HW229808   4.365   1.711   5.706
 9637SOL     OW29809   2.473   3.156   1.449
 9637SOL    HW129810   2.470   3.236   1.389
 9637SOL    HW229811   2.463   3.185   1.544
 9638SOL     OW29812   0.254   4.236   6.310
 9638SOL    HW129813   0.343   4.282   6.304
 9638SOL    HW229814   0.236   4.211   6.405
 9639SOL     OW29815   4.535   2.280   1.705
 9639SOL    HW129816   4.512   2.261   1.801
 9639SOL    HW229817   4.605   2.351   1.701
 9640SOL     OW29818   3.975   1.466   2.884
 9640SOL    HW129819   4.032   1.449   2.803
 9640SOL    HW229820   3.880   1.472   2.856
 9641SOL     OW29821   5.619   4.729   2.594
 9641SOL    HW129822   5.668   4.668   2.656
 9641SOL    HW229823   5.669   4.816   2.586
 9642SOL     OW29824   1.460   6.967   3.829
 9642SOL    HW129825   1.453   0.000   3.911
 9642SOL    HW229826   1.410   7.011   3.754
 9643SOL     OW29827   4.842   3.946   4.073
 9643SOL    HW129828   4.794   4.009   4.013
 9643SOL    HW229829   4.941   3.952   4.056
 9644SOL     OW29830   2.424   6.514   5.051
 9644SOL    HW129831   2.491   6.580   5.014
 9644SOL    HW229832   2.393   6.545   5.141
 9645SOL     OW29833   1.124   5.050   5.489
 9645SOL    HW129834   1.034   5.075   5.453
 9645SOL    HW229835   1.181   5.132   5.493
 9646SOL     OW29836   2.814   6.889   4.505
 9646SOL    HW129837   2.804   6.988   4.515
 9646SOL    HW229838   2.890   6.857   4.562
 9647SOL     OW29839   6.375   6.186   3.109
 9647SOL    HW129840   6.285   6.144   3.095
 9647SOL    HW229841   6.365   6.269   3.163
 9648SOL     OW29842   5.354   2.533   1.571
 9648SOL    HW129843   5.406   2.475   1.509
 9648SOL    HW229844   5.275   2.572   1.522
 9649SOL     OW29845   2.315   3.416   6.718
 9649SOL    HW129846   2.215   3.416   6.716
 9649SOL    HW229847   2.349   3.504   6.685
 9650SOL     OW29848   6.297   4.563   3.805
 9650SOL    HW129849   6.320   4.552   3.901
 9650SOL    HW229850   6.306   4.659   3.779
 9651SOL     OW29851   2.624   1.488   0.172
 9651SOL    HW129852   2.554   1.546   0.214
 9651SOL    HW229853   2.580   1.409   0.130
 9652SOL     OW29854   0.477   4.072   0.988
 9652SOL    HW129855   0.453   4.156   0.939
 9652SOL    HW229856   0.547   4.093   1.057
 9653SOL     OW29857   4.600   4.167   5.650
 9653SOL    HW129858   4.519   4.198   5.600
 9653SOL    HW229859   4.593   4.069   5.668
 9654SOL     OW29860   3.916   3.043   3.369
 9654SOL    HW129861   3.886   3.045   3.464
 9654SOL    HW229862   3.846   2.997   3.313
 9655SOL     OW29863   6.653   0.966   1.412
 9655SOL    HW129864   6.747   0.945   1.384
 9655SOL    HW229865   6.591   0.948   1.335
 9656SOL     OW29866   5.011   3.266   0.741
 9656SOL    HW129867   4.974   3.309   0.659
 9656SOL    HW229868   5.016   3.333   0.815
 9657SOL     OW29869   5.110   3.954   4.001
 9657SOL    HW129870   5.180   3.902   3.952
 9657SOL    HW229871   5.146   4.045   4.023
 9658SOL     OW29872   4.813   1.799   2.839
 9658SOL    HW129873   4.739   1.785   2.905
 9658SOL    HW229874   4.900   1.768   2.878
 9659SOL     OW29875   3.112   2.056   0.598
 9659SOL    HW129876   3.153   2.023   0.683
 9659SOL    HW229877   3.058   2.138   0.617
 9660SOL     OW29878   0.343   6.300   0.755
 9660SOL    HW129879   0.253   6.266   0.728
 9660SOL    HW229880   0.333   6.386   0.805
 9661SOL     OW29881   4.527   5.459   1.392
 9661SOL    HW129882   4.565   5.470   1.484
 9661SOL    HW229883   4.590   5.499   1.325
 9662SOL     OW29884   5.755   4.891   6.875
 9662SOL    HW129885   5.709   4.803   6.866
 9662SOL    HW229886   5.826   4.885   6.944
 9663SOL     OW29887   0.866   4.744   3.122
 9663SOL    HW129888   0.948   4.801   3.121
 9663SOL    HW229889   0.838   4.725   3.028
 9664SOL     OW29890   5.383   3.776   3.560
 9664SOL    HW129891   5.349   3.707   3.497
 9664SOL    HW229892   5.367   3.867   3.523
 9665SOL     OW29893   6.598   6.487   5.470
 9665SOL    HW129894   6.631   6.578   5.495
 9665SOL    HW229895   6.613   6.423   5.545
 9666SOL     OW29896   6.342   4.509   1.546
 9666SOL    HW129897   6.429   4.465   1.567
 9666SOL    HW229898   6.298   4.539   1.631
 9667SOL     OW29899   4.272   4.746   0.979
 9667SOL    HW129900   4.343   4.742   1.049
 9667SOL    HW229901   4.182   4.747   1.023
 9668SOL     OW29902   1.538   0.418   5.722
 9668SOL    HW129903   1.547   0.396   5.819
 9668SOL    HW229904   1.441   0.424   5.698
 9669SOL     OW29905   2.510   6.762   0.896
 9669SOL    HW129906   2.443   6.817   0.946
 9669SOL    HW229907   2.559   6.704   0.961
 9670SOL     OW29908   0.542   6.892   5.601
 9670SOL    HW129909   0.505   6.922   5.513
 9670SOL    HW229910   0.529   6.793   5.610
 9671SOL     OW29911   0.590   4.651   0.330
 9671SOL    HW129912   0.607   4.731   0.272
 9671SOL    HW229913   0.646   4.575   0.298
 9672SOL     OW29914   1.124   4.577   2.973
 9672SOL    HW129915   1.145   4.613   2.882
 9672SOL    HW229916   1.066   4.643   3.023
 9673SOL     OW29917   3.292   4.303   1.696
 9673SOL    HW129918   3.340   4.216   1.683
 9673SOL    HW229919   3.193   4.286   1.701
 9674SOL     OW29920   3.991   6.852   2.837
 9674SOL    HW129921   3.896   6.878   2.856
 9674SOL    HW229922   3.993   6.761   2.795
 9675SOL     OW29923   4.934   4.211   0.793
 9675SOL    HW129924   4.853   4.174   0.748
 9675SOL    HW229925   4.906   4.269   0.870
 9676SOL     OW29926   1.665   3.083   6.572
 9676SOL    HW129927   1.574   3.063   6.534
 9676SOL    HW229928   1.678   3.029   6.655
 9677SOL     OW29929   6.133   4.932   6.423
 9677SOL    HW129930   6.214   4.981   6.456
 9677SOL    HW229931   6.151   4.894   6.333
 9678SOL     OW29932   3.222   3.909   5.140
 9678SOL    HW129933   3.140   3.853   5.148
 9678SOL    HW229934   3.206   3.983   5.075
 9679SOL     OW29935   2.727   1.986   4.779
 9679SOL    HW129936   2.801   2.050   4.800
 9679SOL    HW229937   2.640   2.035   4.780
 9680SOL     OW29938   4.713   6.427   4.706
 9680SOL    HW129939   4.626   6.413   4.753
 9680SOL    HW229940   4.758   6.338   4.694
 9681SOL     OW29941   3.166   1.355   1.453
 9681SOL    HW129942   3.083   1.315   1.414
 9681SOL    HW229943   3.153   1.454   1.464
 9682SOL     OW29944   5.561   4.971   3.899
 9682SOL    HW129945   5.461   4.973   3.895
 9682SOL    HW229946   5.598   5.024   3.823
 9683SOL     OW29947   1.906   6.456   0.450
 9683SOL    HW129948   1.943   6.490   0.537
 9683SOL    HW229949   1.943   6.365   0.432
 9684SOL     OW29950   0.917   3.352   5.223
 9684SOL    HW129951   0.926   3.452   5.224
 9684SOL    HW229952   0.987   3.313   5.164
 9685SOL     OW29953   4.695   3.820   0.554
 9685SOL    HW129954   4.642   3.770   0.485
 9685SOL    HW229955   4.791   3.793   0.549
 9686SOL     OW29956   0.334   1.947   6.458
 9686SOL    HW129957   0.372   1.968   6.548
 9686SOL    HW229958   0.299   2.030   6.416
 9687SOL     OW29959   6.507   6.918   1.916
 9687SOL    HW129960   6.459   6.848   1.863
 9687SOL    HW229961   6.601   6.926   1.883
 9688SOL     OW29962   1.131   4.077   1.019
 9688SOL    HW129963   1.207   4.054   0.958
 9688SOL    HW229964   1.147   4.038   1.109
 9689SOL     OW29965   0.872   5.268   6.146
 9689SOL    HW129966   0.857   5.169   6.138
 9689SOL    HW229967   0.960   5.291   6.105
 9690SOL     OW29968   4.837   5.289   5.327
 9690SOL    HW129969   4.800   5.252   5.413
 9690SOL    HW229970   4.780   5.365   5.297
 9691SOL     OW29971   3.286   4.059   2.838
 9691SOL    HW129972   3.330   4.085   2.924
 9691SOL    HW229973   3.200   4.011   2.858
 9692SOL     OW29974   5.025   5.316   0.435
 9692SOL    HW129975   4.932   5.294   0.464
 9692SOL    HW229976   5.082   5.234   0.439
 9693SOL     OW29977   5.786   4.124   4.296
 9693SOL    HW129978   5.878   4.104   4.263
 9693SOL    HW229979   5.790   4.153   4.391
 9694SOL     OW29980   3.139   0.407   1.355
 9694SOL    HW129981   3.146   0.369   1.447
 9694SOL    HW229982   3.122   0.333   1.290
 9695SOL     OW29983   0.174   4.013   2.692
 9695SOL    HW129984   0.086   4.048   2.726
 9695SOL    HW229985   0.164   3.986   2.596
 9696SOL     OW29986   5.909   1.728   2.742
 9696SOL    HW129987   5.964   1.726   2.826
 9696SOL    HW229988   5.854   1.645   2.737
 9697SOL     OW29989   6.851   6.282   0.082
 9697SOL    HW129990   6.880   6.245   0.171
 9697SOL    HW229991   6.883   6.221   0.009
 9698SOL     OW29992   5.766   3.056   6.281
 9698SOL    HW129993   5.726   3.041   6.191
 9698SOL    HW229994   5.722   3.134   6.325
 9699SOL     OW29995   0.849   5.984   0.292
 9699SOL    HW129996   0.918   5.918   0.321
 9699SOL    HW229997   0.772   5.937   0.249
 9700SOL     OW29998   6.744   6.378   3.774
 9700SOL    HW129999   6.838   6.373   3.808
 9700SOL    HW230000   6.743   6.357   3.676
 9701SOL     OW30001   4.857   3.374   6.635
 9701SOL    HW130002   4.832   3.467   6.661
 9701SOL    HW230003   4.907   3.331   6.709
 9702SOL     OW30004   4.091   2.899   0.542
 9702SOL    HW130005   4.109   2.875   0.638
 9702SOL    HW230006   4.073   2.997   0.535
 9703SOL     OW30007   5.835   3.742   3.979
 9703SOL    HW130008   5.823   3.738   4.078
 9703SOL    HW230009   5.815   3.834   3.946
 9704SOL     OW30010   2.987   4.835   2.749
 9704SOL    HW130011   3.080   4.862   2.776
 9704SOL    HW230012   2.940   4.796   2.828
 9705SOL     OW30013   5.998   4.117   5.778
 9705SOL    HW130014   6.051   4.161   5.851
 9705SOL    HW230015   6.014   4.018   5.780
 9706SOL     OW30016   1.969   1.500   1.170
 9706SOL    HW130017   1.879   1.477   1.207
 9706SOL    HW230018   2.020   1.416   1.154
 9707SOL     OW30019   5.575   4.816   1.821
 9707SOL    HW130020   5.558   4.720   1.800
 9707SOL    HW230021   5.552   4.834   1.917
 9708SOL     OW30022   1.347   1.321   2.090
 9708SOL    HW130023   1.420   1.349   2.153
 9708SOL    HW230024   1.326   1.396   2.028
 9709SOL     OW30025   5.439   4.238   1.713
 9709SOL    HW130026   5.430   4.207   1.808
 9709SOL    HW230027   5.356   4.285   1.684
 9710SOL     OW30028   6.070   0.373   6.989
 9710SOL    HW130029   6.122   0.371   6.903
 9710SOL    HW230030   6.045   0.280   7.015
 9711SOL     OW30031   4.005   6.059   5.944
 9711SOL    HW130032   4.084   6.033   5.888
 9711SOL    HW230033   3.923   6.056   5.888
 9712SOL     OW30034   6.288   3.424   0.278
 9712SOL    HW130035   6.236   3.355   0.228
 9712SOL    HW230036   6.305   3.392   0.371
 9713SOL     OW30037   2.450   6.685   3.130
 9713SOL    HW130038   2.371   6.625   3.141
 9713SOL    HW230039   2.464   6.704   3.033
 9714SOL     OW30040   4.011   5.849   5.219
 9714SOL    HW130041   4.100   5.867   5.178
 9714SOL    HW230042   4.015   5.870   5.317
 9715SOL     OW30043   6.431   4.705   0.183
 9715SOL    HW130044   6.461   4.698   0.088
 9715SOL    HW230045   6.377   4.624   0.207
 9716SOL     OW30046   4.189   3.703   6.856
 9716SOL    HW130047   4.108   3.694   6.914
 9716SOL    HW230048   4.204   3.800   6.834
 9717SOL     OW30049   4.740   6.046   6.792
 9717SOL    HW130050   4.712   6.142   6.778
 9717SOL    HW230051   4.684   5.987   6.734
 9718SOL     OW30052   4.651   2.236   0.448
 9718SOL    HW130053   4.697   2.158   0.491
 9718SOL    HW230054   4.607   2.206   0.364
 9719SOL     OW30055   5.282   6.892   5.676
 9719SOL    HW130056   5.205   6.946   5.641
 9719SOL    HW230057   5.279   6.800   5.638
 9720SOL     OW30058   1.516   3.545   2.612
 9720SOL    HW130059   1.488   3.452   2.638
 9720SOL    HW230060   1.615   3.554   2.621
 9721SOL     OW30061   0.500   1.530   0.225
 9721SOL    HW130062   0.571   1.471   0.185
 9721SOL    HW230063   0.434   1.556   0.155
 9722SOL     OW30064   3.635   2.121   4.970
 9722SOL    HW130065   3.540   2.095   4.958
 9722SOL    HW230066   3.650   2.153   5.064
 9723SOL     OW30067   6.277   4.814   4.683
 9723SOL    HW130068   6.340   4.752   4.636
 9723SOL    HW230069   6.245   4.883   4.619
 9724SOL     OW30070   2.089   5.232   6.645
 9724SOL    HW130071   2.158   5.161   6.663
 9724SOL    HW230072   2.031   5.203   6.569
 9725SOL     OW30073   4.131   5.925   5.463
 9725SOL    HW130074   4.221   5.958   5.488
 9725SOL    HW230075   4.100   5.857   5.529
 9726SOL     OW30076   5.427   0.958   4.243
 9726SOL    HW130077   5.449   0.989   4.150
 9726SOL    HW230078   5.360   1.020   4.283
 9727SOL     OW30079   0.437   2.577   0.258
 9727SOL    HW130080   0.429   2.576   0.158
 9727SOL    HW230081   0.517   2.631   0.285
 9728SOL     OW30082   6.735   1.790   6.078
 9728SOL    HW130083   6.788   1.723   6.026
 9728SOL    HW230084   6.794   1.837   6.143
 9729SOL     OW30085   1.459   3.510   4.008
 9729SOL    HW130086   1.410   3.461   3.937
 9729SOL    HW230087   1.525   3.449   4.052
 9730SOL     OW30088   0.874   4.488   3.574
 9730SOL    HW130089   0.837   4.510   3.664
 9730SOL    HW230090   0.804   4.443   3.519
 9731SOL     OW30091   4.982   5.178   1.907
 9731SOL    HW130092   4.966   5.079   1.907
 9731SOL    HW230093   5.059   5.199   1.967
 9732SOL     OW30094   0.031   3.045   1.906
 9732SOL    HW130095   0.014   3.002   1.995
 9732SOL    HW230096   6.969   3.055   1.856
 9733SOL     OW30097   5.889   5.439   1.480
 9733SOL    HW130098   5.920   5.534   1.484
 9733SOL    HW230099   5.893   5.407   1.385
 9734SOL     OW30100   6.534   6.557   0.595
 9734SOL    HW130101   6.444   6.539   0.555
 9734SOL    HW230102   6.604   6.548   0.524
 9735SOL     OW30103   1.534   2.643   3.277
 9735SOL    HW130104   1.543   2.736   3.240
 9735SOL    HW230105   1.476   2.646   3.359
 9736SOL     OW30106   4.763   2.209   6.001
 9736SOL    HW130107   4.704   2.182   5.926
 9736SOL    HW230108   4.853   2.165   5.991
 9737SOL     OW30109   5.598   1.935   3.314
 9737SOL    HW130110   5.572   1.967   3.223
 9737SOL    HW230111   5.696   1.917   3.316
 9738SOL     OW30112   2.052   6.536   0.244
 9738SOL    HW130113   2.001   6.519   0.329
 9738SOL    HW230114   2.149   6.517   0.259
 9739SOL     OW30115   4.899   5.906   6.979
 9739SOL    HW130116   4.957   5.844   6.926
 9739SOL    HW230117   4.831   5.948   6.919
 9740SOL     OW30118   5.729   0.537   2.830
 9740SOL    HW130119   5.708   0.465   2.896
 9740SOL    HW230120   5.754   0.495   2.743
 9741SOL     OW30121   2.372   1.111   3.826
 9741SOL    HW130122   2.467   1.123   3.857
 9741SOL    HW230123   2.317   1.075   3.901
 9742SOL     OW30124   4.650   1.181   0.084
 9742SOL    HW130125   4.656   1.179   0.184
 9742SOL    HW230126   4.719   1.243   0.048
 9743SOL     OW30127   0.390   3.665   3.198
 9743SOL    HW130128   0.362   3.606   3.121
 9743SOL    HW230129   0.432   3.608   3.269
 9744SOL     OW30130   2.123   6.914   3.184
 9744SOL    HW130131   2.078   6.863   3.258
 9744SOL    HW230132   2.222   6.915   3.200
 9745SOL     OW30133   5.280   2.654   6.215
 9745SOL    HW130134   5.230   2.740   6.228
 9745SOL    HW230135   5.353   2.648   6.283
 9746SOL     OW30136   5.142   6.289   6.785
 9746SOL    HW130137   5.166   6.220   6.717
 9746SOL    HW230138   5.180   6.377   6.757
 9747SOL     OW30139   2.625   2.208   1.670
 9747SOL    HW130140   2.526   2.199   1.684
 9747SOL    HW230141   2.644   2.210   1.572
 9748SOL     OW30142   0.297   6.945   2.689
 9748SOL    HW130143   0.297   6.845   2.698
 9748SOL    HW230144   0.345   6.985   2.767
 9749SOL     OW30145   0.682   1.412   2.430
 9749SOL    HW130146   0.666   1.381   2.524
 9749SOL    HW230147   0.615   1.370   2.369
 9750SOL     OW30148   6.506   5.012   4.026
 9750SOL    HW130149   6.465   5.039   3.939
 9750SOL    HW230150   6.599   4.979   4.009
 9751SOL     OW30151   2.128   0.241   0.620
 9751SOL    HW130152   2.134   0.271   0.525
 9751SOL    HW230153   2.094   0.147   0.623
 9752SOL     OW30154   3.848   2.584   6.280
 9752SOL    HW130155   3.851   2.512   6.210
 9752SOL    HW230156   3.755   2.593   6.315
 9753SOL     OW30157   1.226   5.797   6.089
 9753SOL    HW130158   1.130   5.819   6.078
 9753SOL    HW230159   1.278   5.832   6.011
 9754SOL     OW30160   4.191   0.004   0.488
 9754SOL    HW130161   4.174   6.949   0.546
 9754SOL    HW230162   4.133   0.080   0.517
 9755SOL     OW30163   3.333   4.151   5.542
 9755SOL    HW130164   3.237   4.140   5.567
 9755SOL    HW230165   3.373   4.225   5.595
 9756SOL     OW30166   6.081   1.738   6.106
 9756SOL    HW130167   6.170   1.772   6.136
 9756SOL    HW230168   6.083   1.722   6.008
 9757SOL     OW30169   5.531   4.397   4.691
 9757SOL    HW130170   5.503   4.378   4.785
 9757SOL    HW230171   5.486   4.333   4.629
 9758SOL     OW30172   1.209   1.237   6.806
 9758SOL    HW130173   1.216   1.274   6.899
 9758SOL    HW230174   1.119   1.196   6.793
 9759SOL     OW30175   1.058   1.928   0.245
 9759SOL    HW130176   1.053   2.015   0.293
 9759SOL    HW230177   1.136   1.875   0.280
 9760SOL     OW30178   5.135   2.958   7.002
 9760SOL    HW130179   5.087   2.952   6.915
 9760SOL    HW230180   5.229   2.926   6.991
 9761SOL     OW30181   1.350   1.934   2.372
 9761SOL    HW130182   1.364   1.970   2.465
 9761SOL    HW230183   1.292   1.853   2.377
 9762SOL     OW30184   3.422   1.793   4.940
 9762SOL    HW130185   3.417   1.759   5.034
 9762SOL    HW230186   3.330   1.819   4.909
 9763SOL     OW30187   5.994   1.180   2.955
 9763SOL    HW130188   6.091   1.160   2.943
 9763SOL    HW230189   5.940   1.105   2.917
 9764SOL     OW30190   6.551   1.726   3.100
 9764SOL    HW130191   6.459   1.760   3.120
 9764SOL    HW230192   6.587   1.681   3.181
 9765SOL     OW30193   6.530   0.792   3.165
 9765SOL    HW130194   6.609   0.833   3.121
 9765SOL    HW230195   6.447   0.818   3.116
 9766SOL     OW30196   2.315   0.241   2.447
 9766SOL    HW130197   2.241   0.256   2.382
 9766SOL    HW230198   2.280   0.251   2.541
 9767SOL     OW30199   2.162   2.719   4.894
 9767SOL    HW130200   2.130   2.643   4.837
 9767SOL    HW230201   2.236   2.687   4.953
 9768SOL     OW30202   4.915   1.819   1.192
 9768SOL    HW130203   4.934   1.724   1.167
 9768SOL    HW230204   4.996   1.875   1.173
 9769SOL     OW30205   3.487   0.928   5.267
 9769SOL    HW130206   3.461   1.020   5.298
 9769SOL    HW230207   3.551   0.936   5.190
 9770SOL     OW30208   4.194   1.738   5.379
 9770SOL    HW130209   4.121   1.743   5.448
 9770SOL    HW230210   4.264   1.805   5.400
 9771SOL     OW30211   2.560   6.395   1.334
 9771SOL    HW130212   2.628   6.468   1.325
 9771SOL    HW230213   2.565   6.334   1.255
 9772SOL     OW30214   2.062   6.392   1.511
 9772SOL    HW130215   1.996   6.372   1.438
 9772SOL    HW230216   2.152   6.360   1.483
 9773SOL     OW30217   5.556   5.023   3.540
 9773SOL    HW130218   5.633   5.063   3.589
 9773SOL    HW230219   5.581   5.009   3.444
 9774SOL     OW30220   0.610   4.390   3.467
 9774SOL    HW130221   0.585   4.476   3.424
 9774SOL    HW230222   0.567   4.314   3.418
 9775SOL     OW30223   2.694   0.283   3.192
 9775SOL    HW130224   2.782   0.289   3.239
 9775SOL    HW230225   2.664   0.375   3.166
 9776SOL     OW30226   1.192   4.672   6.125
 9776SOL    HW130227   1.229   4.726   6.200
 9776SOL    HW230228   1.240   4.694   6.041
 9777SOL     OW30229   5.316   6.112   0.270
 9777SOL    HW130230   5.226   6.069   0.278
 9777SOL    HW230231   5.362   6.112   0.359
 9778SOL     OW30232   0.251   2.040   4.698
 9778SOL    HW130233   0.168   2.093   4.683
 9778SOL    HW230234   0.297   2.074   4.781
 9779SOL     OW30235   0.121   2.427   3.804
 9779SOL    HW130236   0.136   2.415   3.706
 9779SOL    HW230237   0.023   2.415   3.824
 9780SOL     OW30238   2.158   1.425   0.708
 9780SOL    HW130239   2.172   1.483   0.789
 9780SOL    HW230240   2.247   1.389   0.678
 9781SOL     OW30241   2.175   3.230   4.728
 9781SOL    HW130242   2.179   3.174   4.811
 9781SOL    HW230243   2.267   3.263   4.706
 9782SOL     OW30244   0.714   2.024   0.485
 9782SOL    HW130245   0.673   2.113   0.469
 9782SOL    HW230246   0.730   1.978   0.397
 9783SOL     OW30247   4.452   1.888   3.788
 9783SOL    HW130248   4.535   1.834   3.800
 9783SOL    HW230249   4.377   1.847   3.839
 9784SOL     OW30250   4.025   0.820   5.784
 9784SOL    HW130251   4.096   0.867   5.731
 9784SOL    HW230252   3.939   0.870   5.775
 9785SOL     OW30253   5.795   2.734   5.606
 9785SOL    HW130254   5.826   2.693   5.692
 9785SOL    HW230255   5.695   2.741   5.607
 9786SOL     OW30256   2.377   4.014   0.185
 9786SOL    HW130257   2.384   4.075   0.264
 9786SOL    HW230258   2.310   3.943   0.202
 9787SOL     OW30259   3.394   2.892   3.930
 9787SOL    HW130260   3.320   2.837   3.969
 9787SOL    HW230261   3.356   2.973   3.887
 9788SOL     OW30262   0.715   6.552   1.999
 9788SOL    HW130263   0.669   6.618   2.058
 9788SOL    HW230264   0.807   6.585   1.978
 9789SOL     OW30265   2.510   6.781   6.717
 9789SOL    HW130266   2.596   6.745   6.682
 9789SOL    HW230267   2.528   6.851   6.785
 9790SOL     OW30268   5.999   4.732   5.950
 9790SOL    HW130269   6.083   4.724   5.896
 9790SOL    HW230270   6.016   4.701   6.043
 9791SOL     OW30271   0.771   0.462   0.223
 9791SOL    HW130272   0.704   0.458   0.150
 9791SOL    HW230273   0.794   0.557   0.244
 9792SOL     OW30274   3.426   4.841   0.790
 9792SOL    HW130275   3.512   4.892   0.782
 9792SOL    HW230276   3.377   4.845   0.703
 9793SOL     OW30277   4.058   0.188   2.664
 9793SOL    HW130278   3.990   0.216   2.732
 9793SOL    HW230279   4.066   0.088   2.664
 9794SOL     OW30280   5.737   4.358   5.036
 9794SOL    HW130281   5.728   4.338   5.133
 9794SOL    HW230282   5.786   4.444   5.024
 9795SOL     OW30283   0.871   2.880   4.653
 9795SOL    HW130284   0.873   2.946   4.728
 9795SOL    HW230285   0.963   2.865   4.619
 9796SOL     OW30286   3.547   3.775   3.474
 9796SOL    HW130287   3.478   3.841   3.507
 9796SOL    HW230288   3.508   3.683   3.476
 9797SOL     OW30289   2.102   5.948   0.082
 9797SOL    HW130290   2.047   6.003   0.018
 9797SOL    HW230291   2.197   5.946   0.052
 9798SOL     OW30292   2.119   1.275   1.138
 9798SOL    HW130293   2.192   1.238   1.080
 9798SOL    HW230294   2.082   1.202   1.196
 9799SOL     OW30295   3.356   4.040   6.410
 9799SOL    HW130296   3.391   3.950   6.384
 9799SOL    HW230297   3.292   4.030   6.486
 9800SOL     OW30298   5.717   4.348   4.027
 9800SOL    HW130299   5.642   4.327   4.090
 9800SOL    HW230300   5.804   4.324   4.070
 9801SOL     OW30301   5.204   5.073   0.423
 9801SOL    HW130302   5.270   5.119   0.363
 9801SOL    HW230303   5.251   5.000   0.473
 9802SOL     OW30304   4.711   4.909   0.488
 9802SOL    HW130305   4.768   4.829   0.508
 9802SOL    HW230306   4.622   4.898   0.532
 9803SOL     OW30307   2.389   3.678   6.108
 9803SOL    HW130308   2.419   3.631   6.025
 9803SOL    HW230309   2.335   3.615   6.165
 9804SOL     OW30310   6.911   5.737   3.061
 9804SOL    HW130311   6.897   5.650   3.012
 9804SOL    HW230312   6.989   5.728   3.123
 9805SOL     OW30313   0.504   6.393   3.057
 9805SOL    HW130314   0.474   6.384   3.152
 9805SOL    HW230315   0.499   6.305   3.012
 9806SOL     OW30316   1.869   1.761   6.907
 9806SOL    HW130317   1.937   1.740   6.837
 9806SOL    HW230318   1.842   1.857   6.901
 9807SOL     OW30319   3.275   3.197   2.236
 9807SOL    HW130320   3.184   3.162   2.255
 9807SOL    HW230321   3.272   3.297   2.225
 9808SOL     OW30322   3.486   5.696   4.067
 9808SOL    HW130323   3.479   5.691   3.967
 9808SOL    HW230324   3.580   5.721   4.092
 9809SOL     OW30325   0.594   3.350   0.450
 9809SOL    HW130326   0.523   3.292   0.411
 9809SOL    HW230327   0.553   3.412   0.517
 9810SOL     OW30328   2.879   2.186   4.895
 9810SOL    HW130329   2.806   2.155   4.955
 9810SOL    HW230330   2.956   2.218   4.950
 9811SOL     OW30331   6.107   4.180   3.540
 9811SOL    HW130332   6.190   4.234   3.535
 9811SOL    HW230333   6.027   4.240   3.532
 9812SOL     OW30334   2.710   1.240   4.459
 9812SOL    HW130335   2.626   1.221   4.409
 9812SOL    HW230336   2.759   1.155   4.477
 9813SOL     OW30337   5.521   1.885   1.070
 9813SOL    HW130338   5.528   1.816   0.998
 9813SOL    HW230339   5.444   1.947   1.049
 9814SOL     OW30340   5.749   1.453   0.032
 9814SOL    HW130341   5.692   1.511   0.090
 9814SOL    HW230342   5.719   1.462   6.961
 9815SOL     OW30343   4.587   2.635   4.170
 9815SOL    HW130344   4.667   2.693   4.186
 9815SOL    HW230345   4.589   2.602   4.075
 9816SOL     OW30346   0.771   0.753   6.214
 9816SOL    HW130347   0.858   0.796   6.189
 9816SOL    HW230348   0.734   0.704   6.135
 9817SOL     OW30349   1.048   0.240   3.213
 9817SOL    HW130350   0.963   0.191   3.195
 9817SOL    HW230351   1.123   0.195   3.163
 9818SOL     OW30352   6.454   2.316   4.760
 9818SOL    HW130353   6.399   2.354   4.686
 9818SOL    HW230354   6.474   2.388   4.827
 9819SOL     OW30355   4.820   3.073   3.437
 9819SOL    HW130356   4.866   3.152   3.476
 9819SOL    HW230357   4.757   3.034   3.505
 9820SOL     OW30358   3.642   3.208   6.345
 9820SOL    HW130359   3.644   3.117   6.305
 9820SOL    HW230360   3.595   3.271   6.284
 9821SOL     OW30361   5.861   0.992   6.647
 9821SOL    HW130362   5.826   0.960   6.559
 9821SOL    HW230363   5.814   0.942   6.721
 9822SOL     OW30364   1.142   6.874   3.246
 9822SOL    HW130365   1.143   6.857   3.344
 9822SOL    HW230366   1.196   6.956   3.226
 9823SOL     OW30367   3.747   0.025   1.282
 9823SOL    HW130368   3.803   0.015   1.199
 9823SOL    HW230369   3.788   6.996   1.356
 9824SOL     OW30370   1.849   4.488   5.731
 9824SOL    HW130371   1.778   4.448   5.789
 9824SOL    HW230372   1.884   4.571   5.773
 9825SOL     OW30373   3.212   4.937   5.157
 9825SOL    HW130374   3.256   4.886   5.083
 9825SOL    HW230375   3.121   4.967   5.127
 9826SOL     OW30376   5.389   5.271   6.215
 9826SOL    HW130377   5.450   5.350   6.221
 9826SOL    HW230378   5.294   5.302   6.223
 9827SOL     OW30379   2.138   3.401   4.148
 9827SOL    HW130380   2.161   3.363   4.059
 9827SOL    HW230381   2.092   3.489   4.136
 9828SOL     OW30382   2.670   3.083   6.241
 9828SOL    HW130383   2.717   3.059   6.156
 9828SOL    HW230384   2.656   3.000   6.296
 9829SOL     OW30385   3.257   6.328   0.526
 9829SOL    HW130386   3.192   6.252   0.529
 9829SOL    HW230387   3.350   6.293   0.529
 9830SOL     OW30388   5.128   2.588   1.416
 9830SOL    HW130389   5.148   2.678   1.377
 9830SOL    HW230390   5.114   2.522   1.343
 9831SOL     OW30391   1.835   6.307   1.046
 9831SOL    HW130392   1.738   6.308   1.069
 9831SOL    HW230393   1.890   6.320   1.128
 9832SOL     OW30394   5.148   5.092   2.633
 9832SOL    HW130395   5.051   5.107   2.613
 9832SOL    HW230396   5.199   5.088   2.548
 9833SOL     OW30397   3.511   2.861   4.823
 9833SOL    HW130398   3.553   2.860   4.914
 9833SOL    HW230399   3.413   2.880   4.832
 9834SOL     OW30400   3.491   4.532   5.479
 9834SOL    HW130401   3.429   4.567   5.409
 9834SOL    HW230402   3.566   4.597   5.493
 9835SOL     OW30403   3.233   2.803   5.831
 9835SOL    HW130404   3.235   2.821   5.929
 9835SOL    HW230405   3.277   2.715   5.813
 9836SOL     OW30406   6.105   4.635   3.406
 9836SOL    HW130407   6.175   4.704   3.384
 9836SOL    HW230408   6.031   4.678   3.458
 9837SOL     OW30409   3.299   0.224   2.604
 9837SOL    HW130410   3.299   0.170   2.520
 9837SOL    HW230411   3.371   0.293   2.599
 9838SOL     OW30412   0.722   6.865   5.817
 9838SOL    HW130413   0.687   6.890   5.727
 9838SOL    HW230414   0.769   6.943   5.858
 9839SOL     OW30415   5.275   1.395   3.369
 9839SOL    HW130416   5.304   1.346   3.287
 9839SOL    HW230417   5.274   1.494   3.351
 9840SOL     OW30418   0.835   0.976   1.388
 9840SOL    HW130419   0.924   1.022   1.393
 9840SOL    HW230420   0.802   0.957   1.480
 9841SOL     OW30421   1.442   3.725   4.665
 9841SOL    HW130422   1.355   3.751   4.624
 9841SOL    HW230423   1.460   3.628   4.646
 9842SOL     OW30424   3.998   3.900   3.089
 9842SOL    HW130425   4.009   3.965   3.014
 9842SOL    HW230426   3.921   3.928   3.147
 9843SOL     OW30427   5.968   1.716   1.517
 9843SOL    HW130428   5.963   1.617   1.531
 9843SOL    HW230429   5.928   1.763   1.596
 9844SOL     OW30430   5.724   0.442   2.535
 9844SOL    HW130431   5.765   0.351   2.539
 9844SOL    HW230432   5.702   0.464   2.440
 9845SOL     OW30433   2.781   1.274   3.641
 9845SOL    HW130434   2.827   1.352   3.684
 9845SOL    HW230435   2.815   1.263   3.547
 9846SOL     OW30436   4.074   3.875   2.153
 9846SOL    HW130437   4.135   3.949   2.179
 9846SOL    HW230438   4.060   3.876   2.053
 9847SOL     OW30439   3.229   2.852   5.117
 9847SOL    HW130440   3.256   2.759   5.142
 9847SOL    HW230441   3.177   2.893   5.192
 9848SOL     OW30442   3.951   3.015   6.017
 9848SOL    HW130443   4.049   2.994   6.021
 9848SOL    HW230444   3.908   2.957   5.948
 9849SOL     OW30445   6.369   0.429   0.427
 9849SOL    HW130446   6.429   0.398   0.501
 9849SOL    HW230447   6.364   0.529   0.428
 9850SOL     OW30448   6.121   6.009   3.078
 9850SOL    HW130449   6.068   6.088   3.049
 9850SOL    HW230450   6.096   5.984   3.171
 9851SOL     OW30451   4.512   2.479   5.929
 9851SOL    HW130452   4.587   2.543   5.944
 9851SOL    HW230453   4.513   2.447   5.835
 9852SOL     OW30454   4.340   2.150   2.630
 9852SOL    HW130455   4.248   2.171   2.666
 9852SOL    HW230456   4.357   2.206   2.549
 9853SOL     OW30457   4.942   4.012   3.668
 9853SOL    HW130458   5.024   4.070   3.661
 9853SOL    HW230459   4.896   4.009   3.579
 9854SOL     OW30460   6.870   4.986   4.613
 9854SOL    HW130461   6.830   5.006   4.702
 9854SOL    HW230462   6.884   4.887   4.604
 9855SOL     OW30463   2.607   4.088   1.475
 9855SOL    HW130464   2.575   4.165   1.422
 9855SOL    HW230465   2.572   4.003   1.436
 9856SOL     OW30466   4.954   3.768   6.582
 9856SOL    HW130467   5.006   3.702   6.529
 9856SOL    HW230468   4.927   3.726   6.669
 9857SOL     OW30469   4.071   1.899   4.615
 9857SOL    HW130470   4.000   1.829   4.626
 9857SOL    HW230471   4.033   1.978   4.567
 9858SOL     OW30472   0.585   0.502   1.053
 9858SOL    HW130473   0.638   0.443   0.993
 9858SOL    HW230474   0.613   0.487   1.148
 9859SOL     OW30475   6.260   7.009   2.004
 9859SOL    HW130476   6.343   7.001   1.948
 9859SOL    HW230477   6.195   0.046   1.959
 9860SOL     OW30478   0.058   1.414   2.896
 9860SOL    HW130479   0.008   1.367   2.969
 9860SOL    HW230480   0.063   1.512   2.917
 9861SOL     OW30481   3.706   6.891   2.961
 9861SOL    HW130482   3.711   6.986   2.992
 9861SOL    HW230483   3.610   6.865   2.952
 9862SOL     OW30484   2.574   5.033   0.541
 9862SOL    HW130485   2.652   5.037   0.478
 9862SOL    HW230486   2.559   5.124   0.581
 9863SOL     OW30487   3.409   0.405   3.553
 9863SOL    HW130488   3.357   0.490   3.547
 9863SOL    HW230489   3.347   0.330   3.575
 9864SOL     OW30490   3.746   6.133   3.868
 9864SOL    HW130491   3.647   6.122   3.868
 9864SOL    HW230492   3.771   6.222   3.830
 9865SOL     OW30493   1.864   0.843   4.022
 9865SOL    HW130494   1.936   0.902   3.986
 9865SOL    HW230495   1.777   0.865   3.978
 9866SOL     OW30496   5.647   4.638   5.242
 9866SOL    HW130497   5.709   4.591   5.305
 9866SOL    HW230498   5.573   4.575   5.215
 9867SOL     OW30499   6.030   0.467   0.637
 9867SOL    HW130500   6.031   0.512   0.548
 9867SOL    HW230501   6.083   0.382   0.632
 9868SOL     OW30502   1.057   3.879   5.530
 9868SOL    HW130503   1.142   3.872   5.478
 9868SOL    HW230504   1.049   3.801   5.592
 9869SOL     OW30505   1.541   3.249   2.416
 9869SOL    HW130506   1.591   3.235   2.331
 9869SOL    HW230507   1.456   3.196   2.414
 9870SOL     OW30508   4.656   5.931   2.732
 9870SOL    HW130509   4.670   5.993   2.655
 9870SOL    HW230510   4.591   5.859   2.705
 9871SOL     OW30511   0.990   6.504   6.207
 9871SOL    HW130512   0.907   6.487   6.154
 9871SOL    HW230513   0.974   6.484   6.303
 9872SOL     OW30514   2.456   4.681   4.281
 9872SOL    HW130515   2.481   4.594   4.238
 9872SOL    HW230516   2.490   4.683   4.375
 9873SOL     OW30517   2.909   2.480   1.255
 9873SOL    HW130518   2.822   2.446   1.220
 9873SOL    HW230519   2.944   2.417   1.325
 9874SOL     OW30520   0.890   3.624   3.949
 9874SOL    HW130521   0.942   3.566   4.011
 9874SOL    HW230522   0.835   3.567   3.888
 9875SOL     OW30523   6.726   6.666   2.123
 9875SOL    HW130524   6.789   6.636   2.053
 9875SOL    HW230525   6.774   6.725   2.188
 9876SOL     OW30526   6.185   0.585   2.725
 9876SOL    HW130527   6.151   0.628   2.642
 9876SOL    HW230528   6.169   0.645   2.803
 9877SOL     OW30529   0.161   6.275   3.597
 9877SOL    HW130530   0.117   6.307   3.513
 9877SOL    HW230531   0.242   6.221   3.575
 9878SOL     OW30532   2.814   4.976   5.226
 9878SOL    HW130533   2.886   5.023   5.174
 9878SOL    HW230534   2.844   4.883   5.247
 9879SOL     OW30535   5.631   5.482   4.196
 9879SOL    HW130536   5.575   5.522   4.123
 9879SOL    HW230537   5.725   5.470   4.163
 9880SOL     OW30538   3.069   1.481   5.757
 9880SOL    HW130539   2.981   1.527   5.750
 9880SOL    HW230540   3.141   1.541   5.722
 9881SOL     OW30541   1.368   1.218   5.051
 9881SOL    HW130542   1.421   1.155   5.107
 9881SOL    HW230543   1.297   1.261   5.106
 9882SOL     OW30544   0.701   2.566   3.587
 9882SOL    HW130545   0.791   2.538   3.619
 9882SOL    HW230546   0.640   2.487   3.586
 9883SOL     OW30547   1.363   5.417   0.195
 9883SOL    HW130548   1.282   5.435   0.250
 9883SOL    HW230549   1.438   5.477   0.224
 9884SOL     OW30550   4.536   1.920   2.706
 9884SOL    HW130551   4.613   1.856   2.705
 9884SOL    HW230552   4.571   2.014   2.703
 9885SOL     OW30553   6.672   2.722   5.308
 9885SOL    HW130554   6.646   2.810   5.268
 9885SOL    HW230555   6.674   2.730   5.408
 9886SOL     OW30556   1.088   3.782   2.196
 9886SOL    HW130557   1.004   3.742   2.159
 9886SOL    HW230558   1.165   3.722   2.177
 9887SOL     OW30559   4.014   0.573   5.912
 9887SOL    HW130560   4.029   0.665   5.876
 9887SOL    HW230561   4.097   0.519   5.901
 9888SOL     OW30562   5.417   4.360   2.291
 9888SOL    HW130563   5.459   4.275   2.262
 9888SOL    HW230564   5.347   4.342   2.361
 9889SOL     OW30565   0.268   5.482   1.622
 9889SOL    HW130566   0.184   5.456   1.669
 9889SOL    HW230567   0.284   5.418   1.546
 9890SOL     OW30568   1.543   1.876   0.641
 9890SOL    HW130569   1.598   1.929   0.577
 9890SOL    HW230570   1.586   1.876   0.731
 9891SOL     OW30571   5.733   3.184   2.110
 9891SOL    HW130572   5.706   3.104   2.163
 9891SOL    HW230573   5.725   3.266   2.166
 9892SOL     OW30574   6.985   4.859   0.908
 9892SOL    HW130575   0.023   4.813   0.844
 9892SOL    HW230576   6.894   4.866   0.867
 9893SOL     OW30577   1.028   0.068   1.393
 9893SOL    HW130578   1.027   0.138   1.465
 9893SOL    HW230579   1.114   0.017   1.398
 9894SOL     OW30580   2.550   2.585   1.804
 9894SOL    HW130581   2.638   2.621   1.772
 9894SOL    HW230582   2.517   2.516   1.738
 9895SOL     OW30583   6.424   4.502   4.847
 9895SOL    HW130584   6.397   4.534   4.756
 9895SOL    HW230585   6.519   4.526   4.864
 9896SOL     OW30586   6.623   0.864   6.658
 9896SOL    HW130587   6.638   0.783   6.715
 9896SOL    HW230588   6.556   0.843   6.587
 9897SOL     OW30589   5.979   5.802   2.727
 9897SOL    HW130590   6.073   5.812   2.760
 9897SOL    HW230591   5.981   5.768   2.633
 9898SOL     OW30592   1.259   6.110   4.064
 9898SOL    HW130593   1.333   6.048   4.087
 9898SOL    HW230594   1.195   6.115   4.140
 9899SOL     OW30595   0.845   6.242   0.711
 9899SOL    HW130596   0.754   6.269   0.677
 9899SOL    HW230597   0.892   6.323   0.746
 9900SOL     OW30598   2.055   3.459   3.183
 9900SOL    HW130599   1.989   3.532   3.195
 9900SOL    HW230600   2.135   3.493   3.133
 9901SOL     OW30601   2.986   0.625   0.119
 9901SOL    HW130602   3.001   0.694   0.190
 9901SOL    HW230603   2.916   0.657   0.055
 9902SOL     OW30604   3.239   4.898   0.576
 9902SOL    HW130605   3.196   4.988   0.580
 9902SOL    HW230606   3.179   4.834   0.528
 9903SOL     OW30607   4.908   1.918   2.321
 9903SOL    HW130608   4.996   1.891   2.359
 9903SOL    HW230609   4.877   2.002   2.365
 9904SOL     OW30610   1.066   3.946   0.054
 9904SOL    HW130611   1.114   4.033   0.047
 9904SOL    HW230612   1.092   3.888   7.001
 9905SOL     OW30613   1.907   6.969   6.119
 9905SOL    HW130614   1.935   6.968   6.215
 9905SOL    HW230615   1.883   6.876   6.090
 9906SOL     OW30616   2.392   3.688   1.715
 9906SOL    HW130617   2.425   3.596   1.739
 9906SOL    HW230618   2.296   3.697   1.740
 9907SOL     OW30619   6.838   0.488   1.269
 9907SOL    HW130620   6.782   0.430   1.329
 9907SOL    HW230621   6.935   0.469   1.286
 9908SOL     OW30622   5.833   1.607   4.791
 9908SOL    HW130623   5.849   1.667   4.869
 9908SOL    HW230624   5.911   1.613   4.728
 9909SOL     OW30625   4.840   0.520   3.426
 9909SOL    HW130626   4.774   0.493   3.497
 9909SOL    HW230627   4.932   0.523   3.465
 9910SOL     OW30628   1.480   4.561   2.280
 9910SOL    HW130629   1.398   4.618   2.273
 9910SOL    HW230630   1.456   4.474   2.324
 9911SOL     OW30631   2.830   5.702   2.117
 9911SOL    HW130632   2.768   5.633   2.080
 9911SOL    HW230633   2.807   5.791   2.078
 9912SOL     OW30634   3.482   0.345   1.496
 9912SOL    HW130635   3.565   0.335   1.551
 9912SOL    HW230636   3.440   0.434   1.514
 9913SOL     OW30637   5.832   3.617   1.054
 9913SOL    HW130638   5.849   3.580   0.962
 9913SOL    HW230639   5.893   3.573   1.119
 9914SOL     OW30640   5.824   1.086   4.971
 9914SOL    HW130641   5.834   0.988   4.990
 9914SOL    HW230642   5.902   1.136   5.008
 9915SOL     OW30643   5.289   0.184   3.428
 9915SOL    HW130644   5.238   0.264   3.460
 9915SOL    HW230645   5.230   0.129   3.369
 9916SOL     OW30646   1.991   2.286   2.877
 9916SOL    HW130647   2.000   2.386   2.875
 9916SOL    HW230648   2.054   2.246   2.810
 9917SOL     OW30649   5.384   4.444   6.510
 9917SOL    HW130650   5.424   4.356   6.533
 9917SOL    HW230651   5.376   4.453   6.411
 9918SOL     OW30652   3.352   1.169   2.780
 9918SOL    HW130653   3.358   1.085   2.834
 9918SOL    HW230654   3.444   1.202   2.758
 9919SOL     OW30655   0.523   5.108   1.119
 9919SOL    HW130656   0.505   5.180   1.052
 9919SOL    HW230657   0.477   5.132   1.205
 9920SOL     OW30658   4.813   1.396   2.303
 9920SOL    HW130659   4.836   1.466   2.370
 9920SOL    HW230660   4.721   1.411   2.269
 9921SOL     OW30661   3.676   0.037   5.182
 9921SOL    HW130662   3.621   0.033   5.266
 9921SOL    HW230663   3.711   0.130   5.170
 9922SOL     OW30664   2.478   4.158   0.829
 9922SOL    HW130665   2.549   4.173   0.760
 9922SOL    HW230666   2.418   4.238   0.833
 9923SOL     OW30667   5.054   4.917   6.821
 9923SOL    HW130668   4.961   4.893   6.847
 9923SOL    HW230669   5.111   4.923   6.903
 9924SOL     OW30670   6.802   1.623   4.445
 9924SOL    HW130671   6.741   1.671   4.383
 9924SOL    HW230672   6.879   1.585   4.394
 9925SOL     OW30673   0.656   3.984   4.106
 9925SOL    HW130674   0.745   3.938   4.109
 9925SOL    HW230675   0.596   3.937   4.041
 9926SOL     OW30676   4.053   2.762   1.120
 9926SOL    HW130677   4.101   2.736   1.204
 9926SOL    HW230678   4.012   2.680   1.078
 9927SOL     OW30679   6.745   6.928   0.613
 9927SOL    HW130680   6.817   6.880   0.564
 9927SOL    HW230681   6.735   7.021   0.578
 9928SOL     OW30682   4.878   3.834   2.444
 9928SOL    HW130683   4.797   3.796   2.400
 9928SOL    HW230684   4.905   3.776   2.521
 9929SOL     OW30685   3.656   4.341   5.628
 9929SOL    HW130686   3.581   4.398   5.594
 9929SOL    HW230687   3.696   4.383   5.710
 9930SOL     OW30688   6.444   6.477   4.834
 9930SOL    HW130689   6.461   6.503   4.739
 9930SOL    HW230690   6.410   6.383   4.837
 9931SOL     OW30691   0.970   5.719   4.526
 9931SOL    HW130692   1.005   5.737   4.435
 9931SOL    HW230693   0.885   5.770   4.540
 9932SOL     OW30694   3.521   3.429   6.784
 9932SOL    HW130695   3.520   3.338   6.743
 9932SOL    HW230696   3.517   3.420   6.884
 9933SOL     OW30697   0.099   5.761   3.251
 9933SOL    HW130698   0.059   5.728   3.337
 9933SOL    HW230699   0.198   5.769   3.262
 9934SOL     OW30700   6.443   2.503   5.631
 9934SOL    HW130701   6.494   2.469   5.710
 9934SOL    HW230702   6.385   2.579   5.659
 9935SOL     OW30703   2.738   6.280   6.917
 9935SOL    HW130704   2.698   6.371   6.928
 9935SOL    HW230705   2.833   6.281   6.948
 9936SOL     OW30706   6.758   5.355   6.899
 9936SOL    HW130707   6.809   5.433   6.862
 9936SOL    HW230708   6.731   5.375   6.993
 9937SOL     OW30709   6.289   1.767   1.100
 9937SOL    HW130710   6.274   1.753   1.002
 9937SOL    HW230711   6.385   1.788   1.116
 9938SOL     OW30712   6.423   4.953   3.175
 9938SOL    HW130713   6.401   4.911   3.087
 9938SOL    HW230714   6.480   4.891   3.229
 9939SOL     OW30715   4.516   2.162   1.108
 9939SOL    HW130716   4.463   2.088   1.151
 9939SOL    HW230717   4.607   2.166   1.150
 9940SOL     OW30718   1.214   0.198   1.179
 9940SOL    HW130719   1.145   0.128   1.164
 9940SOL    HW230720   1.288   0.188   1.113
 9941SOL     OW30721   3.710   3.429   5.505
 9941SOL    HW130722   3.672   3.336   5.512
 9941SOL    HW230723   3.639   3.495   5.526
 9942SOL     OW30724   2.229   5.281   2.924
 9942SOL    HW130725   2.182   5.323   2.847
 9942SOL    HW230726   2.163   5.233   2.982
 9943SOL     OW30727   0.275   4.801   5.768
 9943SOL    HW130728   0.299   4.752   5.685
 9943SOL    HW230729   0.198   4.862   5.750
 9944SOL     OW30730   0.848   4.555   6.448
 9944SOL    HW130731   0.920   4.523   6.387
 9944SOL    HW230732   0.819   4.647   6.420
 9945SOL     OW30733   5.311   5.259   6.902
 9945SOL    HW130734   5.396   5.265   6.953
 9945SOL    HW230735   5.311   5.175   6.847
 9946SOL     OW30736   5.884   0.635   3.863
 9946SOL    HW130737   5.807   0.577   3.890
 9946SOL    HW230738   5.858   0.731   3.870
 9947SOL     OW30739   2.280   2.111   4.931
 9947SOL    HW130740   2.188   2.144   4.950
 9947SOL    HW230741   2.342   2.143   5.002
 9948SOL     OW30742   5.660   4.120   4.880
 9948SOL    HW130743   5.664   4.210   4.924
 9948SOL    HW230744   5.752   4.086   4.864
 9949SOL     OW30745   6.194   5.027   4.535
 9949SOL    HW130746   6.241   5.107   4.573
 9949SOL    HW230747   6.122   5.058   4.472
 9950SOL     OW30748   5.506   6.080   5.256
 9950SOL    HW130749   5.429   6.083   5.320
 9950SOL    HW230750   5.556   6.166   5.259
 9951SOL     OW30751   6.982   1.076   4.046
 9951SOL    HW130752   6.996   1.100   4.142
 9951SOL    HW230753   0.006   1.142   3.988
 9952SOL     OW30754   1.363   3.968   0.618
 9952SOL    HW130755   1.326   3.979   0.526
 9952SOL    HW230756   1.436   4.035   0.633
 9953SOL     OW30757   5.370   2.651   4.768
 9953SOL    HW130758   5.407   2.729   4.818
 9953SOL    HW230759   5.324   2.683   4.685
 9954SOL     OW30760   6.702   0.746   6.113
 9954SOL    HW130761   6.685   0.718   6.207
 9954SOL    HW230762   6.771   0.685   6.073
 9955SOL     OW30763   6.284   3.751   5.471
 9955SOL    HW130764   6.288   3.803   5.556
 9955SOL    HW230765   6.261   3.812   5.395
 9956SOL     OW30766   1.460   6.853   1.926
 9956SOL    HW130767   1.493   6.940   1.891
 9956SOL    HW230768   1.536   6.787   1.928
 9957SOL     OW30769   4.873   5.925   2.555
 9957SOL    HW130770   4.951   5.989   2.558
 9957SOL    HW230771   4.865   5.878   2.642
 9958SOL     OW30772   3.255   5.319   0.161
 9958SOL    HW130773   3.307   5.366   0.089
 9958SOL    HW230774   3.216   5.387   0.223
 9959SOL     OW30775   4.211   3.605   5.050
 9959SOL    HW130776   4.198   3.647   4.960
 9959SOL    HW230777   4.295   3.640   5.091
 9960SOL     OW30778   0.084   0.486   1.837
 9960SOL    HW130779   0.136   0.413   1.880
 9960SOL    HW230780   0.093   0.570   1.890
 9961SOL     OW30781   1.553   4.758   4.827
 9961SOL    HW130782   1.524   4.763   4.923
 9961SOL    HW230783   1.631   4.696   4.819
 9962SOL     OW30784   6.137   5.524   1.743
 9962SOL    HW130785   6.081   5.546   1.663
 9962SOL    HW230786   6.142   5.603   1.803
 9963SOL     OW30787   2.950   3.304   6.695
 9963SOL    HW130788   2.989   3.372   6.633
 9963SOL    HW230789   2.945   3.215   6.648
 9964SOL     OW30790   5.746   4.454   5.433
 9964SOL    HW130791   5.764   4.356   5.444
 9964SOL    HW230792   5.744   4.498   5.523
 9965SOL     OW30793   3.543   6.517   6.176
 9965SOL    HW130794   3.484   6.597   6.164
 9965SOL    HW230795   3.545   6.491   6.272
 9966SOL     OW30796   1.775   6.004   2.294
 9966SOL    HW130797   1.745   6.083   2.240
 9966SOL    HW230798   1.696   5.965   2.341
 9967SOL     OW30799   6.963   0.157   2.227
 9967SOL    HW130800   6.962   0.227   2.156
 9967SOL    HW230801   6.904   0.185   2.302
 9968SOL     OW30802   3.505   3.782   0.407
 9968SOL    HW130803   3.487   3.770   0.505
 9968SOL    HW230804   3.419   3.775   0.356
 9969SOL     OW30805   1.987   2.838   2.818
 9969SOL    HW130806   1.894   2.828   2.855
 9969SOL    HW230807   2.031   2.917   2.861
 9970SOL     OW30808   5.390   3.530   2.609
 9970SOL    HW130809   5.298   3.523   2.569
 9970SOL    HW230810   5.406   3.623   2.641
 9971SOL     OW30811   1.936   5.670   0.959
 9971SOL    HW130812   1.951   5.768   0.944
 9971SOL    HW230813   1.965   5.645   1.051
 9972SOL     OW30814   4.172   4.891   1.362
 9972SOL    HW130815   4.217   4.920   1.277
 9972SOL    HW230816   4.219   4.931   1.440
 9973SOL     OW30817   4.550   1.805   4.107
 9973SOL    HW130818   4.627   1.797   4.044
 9973SOL    HW230819   4.578   1.773   4.197
 9974SOL     OW30820   0.194   2.866   3.283
 9974SOL    HW130821   0.158   2.911   3.202
 9974SOL    HW230822   0.245   2.932   3.338
 9975SOL     OW30823   6.086   4.338   6.834
 9975SOL    HW130824   6.152   4.387   6.891
 9975SOL    HW230825   6.059   4.395   6.757
 9976SOL     OW30826   0.219   6.546   5.379
 9976SOL    HW130827   0.195   6.547   5.476
 9976SOL    HW230828   0.138   6.522   5.325
 9977SOL     OW30829   6.933   5.482   5.388
 9977SOL    HW130830   6.838   5.490   5.359
 9977SOL    HW230831   6.989   5.454   5.309
 9978SOL     OW30832   6.650   2.581   3.577
 9978SOL    HW130833   6.640   2.665   3.523
 9978SOL    HW230834   6.739   2.540   3.557
 9979SOL     OW30835   6.262   5.628   5.270
 9979SOL    HW130836   6.230   5.648   5.177
 9979SOL    HW230837   6.361   5.643   5.275
 9980SOL     OW30838   1.939   1.376   5.456
 9980SOL    HW130839   1.900   1.464   5.429
 9980SOL    HW230840   1.911   1.306   5.391
 9981SOL     OW30841   2.192   1.879   1.854
 9981SOL    HW130842   2.093   1.895   1.847
 9981SOL    HW230843   2.221   1.897   1.948
 9982SOL     OW30844   6.850   0.010   3.838
 9982SOL    HW130845   6.916   0.023   3.913
 9982SOL    HW230846   6.877   6.955   3.784
 9983SOL     OW30847   0.061   2.489   2.926
 9983SOL    HW130848   0.074   2.438   3.011
 9983SOL    HW230849   6.995   2.468   2.888
 9984SOL     OW30850   2.053   0.737   0.098
 9984SOL    HW130851   2.082   0.758   0.004
 9984SOL    HW230852   2.081   0.811   0.159
 9985SOL     OW30853   1.419   1.176   1.018
 9985SOL    HW130854   1.519   1.185   1.012
 9985SOL    HW230855   1.378   1.267   1.018
 9986SOL     OW30856   5.947   4.375   5.670
 9986SOL    HW130857   5.914   4.418   5.754
 9986SOL    HW230858   5.956   4.276   5.685
 9987SOL     OW30859   6.875   3.110   3.848
 9987SOL    HW130860   6.827   3.116   3.760
 9987SOL    HW230861   6.815   3.068   3.916
 9988SOL     OW30862   6.776   5.744   4.511
 9988SOL    HW130863   6.861   5.706   4.475
 9988SOL    HW230864   6.795   5.832   4.555
 9989SOL     OW30865   6.330   3.783   3.713
 9989SOL    HW130866   6.247   3.835   3.732
 9989SOL    HW230867   6.402   3.846   3.681
 9990SOL     OW30868   2.590   5.637   1.785
 9990SOL    HW130869   2.544   5.563   1.737
 9990SOL    HW230870   2.525   5.684   1.845
 9991SOL     OW30871   2.086   2.861   3.491
 9991SOL    HW130872   2.110   2.909   3.575
 9991SOL    HW230873   2.043   2.774   3.514
 9992SOL     OW30874   5.807   4.930   0.268
 9992SOL    HW130875   5.852   5.018   0.258
 9992SOL    HW230876   5.874   4.860   0.289
 9993SOL     OW30877   3.139   0.032   0.607
 9993SOL    HW130878   3.179   0.094   0.674
 9993SOL    HW230879   3.059   7.011   0.647
 9994SOL     OW30880   6.873   4.357   3.552
 9994SOL    HW130881   6.943   4.286   3.552
 9994SOL    HW230882   6.916   4.447   3.559
 9995SOL     OW30883   4.538   1.058   3.098
 9995SOL    HW130884   4.537   0.968   3.141
 9995SOL    HW230885   4.474   1.059   3.021
 9996SOL     OW30886   2.956   3.188   1.455
 9996SOL    HW130887   3.031   3.144   1.505
 9996SOL    HW230888   2.880   3.124   1.446
 9997SOL     OW30889   3.428   1.510   0.427
 9997SOL    HW130890   3.514   1.508   0.376
 9997SOL    HW230891   3.367   1.579   0.386
 9998SOL     OW30892   5.276   4.472   6.233
 9998SOL    HW130893   5.201   4.406   6.239
 9998SOL    HW230894   5.253   4.553   6.287
 9999SOL     OW30895   6.874   3.222   5.190
 9999SOL    HW130896   6.946   3.193   5.127
 9999SOL    HW230897   6.809   3.281   5.142
10000SOL     OW30898   0.160   4.366   6.721
10000SOL    HW130899   0.258   4.361   6.737
10000SOL    HW230900   0.128   4.459   6.737
10001SOL     OW30901   4.780   6.947   2.139
10001SOL    HW130902   4.848   6.975   2.071
10001SOL    HW230903   4.769   7.019   2.207
10002SOL     OW30904   1.957   0.165   2.765
10002SOL    HW130905   2.010   0.153   2.849
10002SOL    HW230906   1.871   0.210   2.787
10003SOL     OW30907   3.702   1.267   3.255
10003SOL    HW130908   3.626   1.258   3.319
10003SOL    HW230909   3.683   1.216   3.171
10004SOL     OW30910   6.285   2.607   4.698
10004SOL    HW130911   6.253   2.535   4.637
10004SOL    HW230912   6.356   2.661   4.653
10005SOL     OW30913   4.445   0.216   4.661
10005SOL    HW130914   4.501   0.158   4.602
10005SOL    HW230915   4.366   0.249   4.611
10006SOL     OW30916   5.272   6.071   3.941
10006SOL    HW130917   5.358   6.029   3.914
10006SOL    HW230918   5.218   6.093   3.860
10007SOL     OW30919   6.765   5.226   5.863
10007SOL    HW130920   6.845   5.268   5.821
10007SOL    HW230921   6.772   5.127   5.856
10008SOL     OW30922   4.268   1.389   4.625
10008SOL    HW130923   4.254   1.462   4.691
10008SOL    HW230924   4.341   1.415   4.561
10009SOL     OW30925   1.854   3.655   1.734
10009SOL    HW130926   1.875   3.736   1.679
10009SOL    HW230927   1.806   3.588   1.678
10010SOL     OW30928   2.573   0.759   5.920
10010SOL    HW130929   2.547   0.787   5.828
10010SOL    HW230930   2.520   0.679   5.947
10011SOL     OW30931   5.453   1.066   5.653
10011SOL    HW130932   5.537   1.054   5.705
10011SOL    HW230933   5.376   1.030   5.705
10012SOL     OW30934   6.057   1.427   3.654
10012SOL    HW130935   5.996   1.375   3.713
10012SOL    HW230936   6.115   1.365   3.602
10013SOL     OW30937   0.267   1.256   2.983
10013SOL    HW130938   0.203   1.325   2.949
10013SOL    HW230939   0.263   1.253   3.083
10014SOL     OW30940   6.779   4.013   0.864
10014SOL    HW130941   6.838   3.946   0.909
10014SOL    HW230942   6.814   4.032   0.772
10015SOL     OW30943   1.980   4.755   0.647
10015SOL    HW130944   2.068   4.802   0.642
10015SOL    HW230945   1.979   4.680   0.581
10016SOL     OW30946   1.095   0.730   6.502
10016SOL    HW130947   0.997   0.708   6.509
10016SOL    HW230948   1.127   0.766   6.590
10017SOL     OW30949   2.430   1.511   2.956
10017SOL    HW130950   2.443   1.522   2.857
10017SOL    HW230951   2.398   1.419   2.975
10018SOL     OW30952   4.529   0.294   6.235
10018SOL    HW130953   4.521   0.331   6.328
10018SOL    HW230954   4.495   0.361   6.170
10019SOL     OW30955   0.571   1.242   2.911
10019SOL    HW130956   0.595   1.241   3.008
10019SOL    HW230957   0.471   1.245   2.901
10020SOL     OW30958   1.714   2.385   0.771
10020SOL    HW130959   1.785   2.446   0.737
10020SOL    HW230960   1.728   2.368   0.869
10021SOL     OW30961   0.341   2.371   1.208
10021SOL    HW130962   0.380   2.285   1.176
10021SOL    HW230963   0.405   2.414   1.273
10022SOL     OW30964   2.755   1.140   6.058
10022SOL    HW130965   2.695   1.102   6.128
10022SOL    HW230966   2.736   1.096   5.970
10023SOL     OW30967   0.699   4.957   0.958
10023SOL    HW130968   0.674   5.022   1.031
10023SOL    HW230969   0.798   4.946   0.957
10024SOL     OW30970   2.400   5.752   2.409
10024SOL    HW130971   2.469   5.824   2.417
10024SOL    HW230972   2.308   5.794   2.409
10025SOL     OW30973   1.276   1.602   0.468
10025SOL    HW130974   1.313   1.695   0.466
10025SOL    HW230975   1.317   1.552   0.545
10026SOL     OW30976   5.293   6.281   3.537
10026SOL    HW130977   5.369   6.315   3.592
10026SOL    HW230978   5.289   6.181   3.544
10027SOL     OW30979   6.749   4.060   4.628
10027SOL    HW130980   6.664   4.034   4.582
10027SOL    HW230981   6.800   4.125   4.571
10028SOL     OW30982   1.214   0.887   2.333
10028SOL    HW130983   1.223   0.943   2.250
10028SOL    HW230984   1.172   0.941   2.406
10029SOL     OW30985   4.833   1.421   4.628
10029SOL    HW130986   4.891   1.501   4.640
10029SOL    HW230987   4.739   1.444   4.653
10030SOL     OW30988   2.005   0.603   3.646
10030SOL    HW130989   2.064   0.654   3.708
10030SOL    HW230990   1.910   0.625   3.664
10031SOL     OW30991   5.351   4.726   4.855
10031SOL    HW130992   5.339   4.651   4.790
10031SOL    HW230993   5.444   4.763   4.846
10032SOL     OW30994   2.902   1.274   5.023
10032SOL    HW130995   2.954   1.239   5.101
10032SOL    HW230996   2.811   1.234   5.022
10033SOL     OW30997   6.527   3.182   4.542
10033SOL    HW130998   6.559   3.193   4.636
10033SOL    HW230999   6.517   3.271   4.499
10034SOL     OW31000   3.527   0.522   4.358
10034SOL    HW131001   3.595   0.586   4.394
10034SOL    HW231002   3.513   0.541   4.261
10035SOL     OW31003   6.967   5.167   1.548
10035SOL    HW131004   6.917   5.212   1.475
10035SOL    HW231005   6.973   5.069   1.529
10036SOL     OW31006   6.283   2.179   0.771
10036SOL    HW131007   6.243   2.142   0.855
10036SOL    HW231008   6.383   2.168   0.775
10037SOL     OW31009   0.316   1.438   0.380
10037SOL    HW131010   0.378   1.491   0.321
10037SOL    HW231011   0.229   1.486   0.388
10038SOL     OW31012   5.811   0.433   6.973
10038SOL    HW131013   5.771   0.342   6.985
10038SOL    HW231014   5.910   0.427   6.985
10039SOL     OW31015   3.553   0.536   4.087
10039SOL    HW131016   3.651   0.529   4.067
10039SOL    HW231017   3.517   0.620   4.047
10040SOL     OW31018   5.704   5.564   6.363
10040SOL    HW131019   5.797   5.527   6.364
10040SOL    HW231020   5.651   5.524   6.437
10041SOL     OW31021   3.920   5.829   6.853
10041SOL    HW131022   3.871   5.745   6.877
10041SOL    HW231023   3.969   5.862   6.934
10042SOL     OW31024   0.816   1.711   3.476
10042SOL    HW131025   0.760   1.741   3.553
10042SOL    HW231026   0.873   1.634   3.504
10043SOL     OW31027   5.899   1.724   5.017
10043SOL    HW131028   5.980   1.670   5.040
10043SOL    HW231029   5.878   1.786   5.092
10044SOL     OW31030   2.475   2.583   5.288
10044SOL    HW131031   2.416   2.508   5.318
10044SOL    HW231032   2.500   2.639   5.366
10045SOL     OW31033   3.935   0.727   1.869
10045SOL    HW131034   3.880   0.804   1.902
10045SOL    HW231035   3.986   0.755   1.787
10046SOL     OW31036   1.975   3.408   1.135
10046SOL    HW131037   1.949   3.345   1.208
10046SOL    HW231038   1.903   3.475   1.120
10047SOL     OW31039   0.533   3.010   5.616
10047SOL    HW131040   0.624   2.976   5.593
10047SOL    HW231041   0.519   3.003   5.715
10048SOL     OW31042   6.725   6.593   2.690
10048SOL    HW131043   6.688   6.588   2.783
10048SOL    HW231044   6.823   6.573   2.692
10049SOL     OW31045   1.412   1.452   5.862
10049SOL    HW131046   1.391   1.548   5.843
10049SOL    HW231047   1.386   1.430   5.956
10050SOL     OW31048   5.796   3.211   4.543
10050SOL    HW131049   5.700   3.235   4.552
10050SOL    HW231050   5.838   3.204   4.634
10051SOL     OW31051   1.286   4.102   4.992
10051SOL    HW131052   1.194   4.122   5.026
10051SOL    HW231053   1.317   4.176   4.933
10052SOL     OW31054   1.857   1.108   3.322
10052SOL    HW131055   1.770   1.066   3.299
10052SOL    HW231056   1.922   1.096   3.247
10053SOL     OW31057   4.480   5.477   4.162
10053SOL    HW131058   4.458   5.394   4.110
10053SOL    HW231059   4.553   5.527   4.115
10054SOL     OW31060   5.438   4.125   5.167
10054SOL    HW131061   5.490   4.053   5.213
10054SOL    HW231062   5.474   4.214   5.194
10055SOL     OW31063   6.737   2.889   6.444
10055SOL    HW131064   6.647   2.899   6.403
10055SOL    HW231065   6.801   2.851   6.377
10056SOL     OW31066   5.262   4.024   2.982
10056SOL    HW131067   5.246   3.955   3.052
10056SOL    HW231068   5.259   3.982   2.892
10057SOL     OW31069   5.785   3.915   5.617
10057SOL    HW131070   5.870   3.898   5.666
10057SOL    HW231071   5.780   3.853   5.538
10058SOL     OW31072   6.820   3.603   4.090
10058SOL    HW131073   6.765   3.528   4.051
10058SOL    HW231074   6.783   3.690   4.058
10059SOL     OW31075   6.389   1.729   0.845
10059SOL    HW131076   6.425   1.668   0.774
10059SOL    HW231077   6.459   1.796   0.870
10060SOL     OW31078   2.508   1.780   2.352
10060SOL    HW131079   2.468   1.732   2.274
10060SOL    HW231080   2.543   1.869   2.321
10061SOL     OW31081   4.171   1.173   3.586
10061SOL    HW131082   4.102   1.217   3.529
10061SOL    HW231083   4.189   1.081   3.551
10062SOL     OW31084   6.781   6.472   4.232
10062SOL    HW131085   6.861   6.411   4.223
10062SOL    HW231086   6.751   6.501   4.141
10063SOL     OW31087   2.120   1.974   4.512
10063SOL    HW131088   2.209   1.940   4.542
10063SOL    HW231089   2.128   2.007   4.418
10064SOL     OW31090   4.078   5.897   6.612
10064SOL    HW131091   4.037   5.858   6.694
10064SOL    HW231092   4.135   5.827   6.567
10065SOL     OW31093   1.524   1.120   1.741
10065SOL    HW131094   1.558   1.142   1.832
10065SOL    HW231095   1.584   1.053   1.698
10066SOL     OW31096   0.335   3.502   5.077
10066SOL    HW131097   0.414   3.538   5.028
10066SOL    HW231098   0.356   3.410   5.112
10067SOL     OW31099   0.816   3.287   6.538
10067SOL    HW131100   0.893   3.226   6.557
10067SOL    HW231101   0.773   3.261   6.451
10068SOL     OW31102   1.870   3.386   2.890
10068SOL    HW131103   1.815   3.306   2.917
10068SOL    HW231104   1.816   3.469   2.900
10069SOL     OW31105   3.544   5.080   1.886
10069SOL    HW131106   3.549   5.102   1.983
10069SOL    HW231107   3.572   5.159   1.832
10070SOL     OW31108   1.896   5.875   4.698
10070SOL    HW131109   1.887   5.922   4.610
10070SOL    HW231110   1.805   5.855   4.734
10071SOL     OW31111   0.729   6.910   3.998
10071SOL    HW131112   0.686   6.999   3.987
10071SOL    HW231113   0.818   6.921   4.042
10072SOL     OW31114   0.244   1.513   2.232
10072SOL    HW131115   0.175   1.468   2.288
10072SOL    HW231116   0.325   1.535   2.287
10073SOL     OW31117   6.280   2.789   3.846
10073SOL    HW131118   6.283   2.763   3.943
10073SOL    HW231119   6.200   2.847   3.830
10074SOL     OW31120   1.335   5.182   0.428
10074SOL    HW131121   1.320   5.280   0.411
10074SOL    HW231122   1.324   5.131   0.342
10075SOL     OW31123   2.674   0.933   2.250
10075SOL    HW131124   2.705   1.025   2.274
10075SOL    HW231125   2.750   0.869   2.259
10076SOL     OW31126   5.189   5.470   3.232
10076SOL    HW131127   5.201   5.545   3.166
10076SOL    HW231128   5.121   5.496   3.300
10077SOL     OW31129   5.762   3.478   0.171
10077SOL    HW131130   5.859   3.472   0.195
10077SOL    HW231131   5.707   3.482   0.254
10078SOL     OW31132   6.722   6.407   4.821
10078SOL    HW131133   6.797   6.424   4.885
10078SOL    HW231134   6.634   6.423   4.867
10079SOL     OW31135   5.920   2.634   3.891
10079SOL    HW131136   5.837   2.591   3.927
10079SOL    HW231137   5.947   2.710   3.950
10080SOL     OW31138   5.683   1.094   5.816
10080SOL    HW131139   5.781   1.079   5.827
10080SOL    HW231140   5.652   1.166   5.878
10081SOL     OW31141   1.227   1.635   6.477
10081SOL    HW131142   1.288   1.631   6.556
10081SOL    HW231143   1.194   1.729   6.465
10082SOL     OW31144   1.362   5.362   2.948
10082SOL    HW131145   1.300   5.352   2.870
10082SOL    HW231146   1.369   5.459   2.973
10083SOL     OW31147   3.500   5.679   3.432
10083SOL    HW131148   3.452   5.646   3.513
10083SOL    HW231149   3.434   5.719   3.368
10084SOL     OW31150   0.762   0.024   5.585
10084SOL    HW131151   0.685   6.987   5.564
10084SOL    HW231152   0.738   0.081   5.664
10085SOL     OW31153   3.835   6.440   0.138
10085SOL    HW131154   3.787   6.527   0.155
10085SOL    HW231155   3.811   6.375   0.210
10086SOL     OW31156   5.927   6.188   2.066
10086SOL    HW131157   5.995   6.259   2.049
10086SOL    HW231158   5.915   6.133   1.983
10087SOL     OW31159   0.515   6.523   4.500
10087SOL    HW131160   0.457   6.553   4.425
10087SOL    HW231161   0.461   6.520   4.584
10088SOL     OW31162   6.837   2.239   0.082
10088SOL    HW131163   6.857   2.336   0.092
10088SOL    HW231164   6.919   2.185   0.103
10089SOL     OW31165   3.988   1.694   2.524
10089SOL    HW131166   4.027   1.786   2.520
10089SOL    HW231167   3.960   1.674   2.618
10090SOL     OW31168   1.189   5.295   1.747
10090SOL    HW131169   1.125   5.219   1.738
10090SOL    HW231170   1.248   5.298   1.666
10091SOL     OW31171   6.771   5.624   6.405
10091SOL    HW131172   6.736   5.601   6.496
10091SOL    HW231173   6.697   5.617   6.339
10092SOL     OW31174   0.909   3.290   5.489
10092SOL    HW131175   0.889   3.300   5.392
10092SOL    HW231176   1.005   3.312   5.506
10093SOL     OW31177   5.164   3.837   5.638
10093SOL    HW131178   5.120   3.784   5.565
10093SOL    HW231179   5.259   3.857   5.612
10094SOL     OW31180   3.328   6.499   0.719
10094SOL    HW131181   3.255   6.491   0.787
10094SOL    HW231182   3.314   6.431   0.647
10095SOL     OW31183   5.132   2.528   5.044
10095SOL    HW131184   5.231   2.542   5.034
10095SOL    HW231185   5.115   2.458   5.113
10096SOL     OW31186   4.849   0.779   2.530
10096SOL    HW131187   4.870   0.726   2.612
10096SOL    HW231188   4.926   0.776   2.467
10097SOL     OW31189   2.170   2.161   6.282
10097SOL    HW131190   2.118   2.085   6.321
10097SOL    HW231191   2.162   2.241   6.341
10098SOL     OW31192   3.162   5.543   4.372
10098SOL    HW131193   3.134   5.618   4.431
10098SOL    HW231194   3.080   5.495   4.339
10099SOL     OW31195   6.338   4.070   1.781
10099SOL    HW131196   6.254   4.061   1.729
10099SOL    HW231197   6.416   4.044   1.724
10100SOL     OW31198   5.149   5.692   5.422
10100SOL    HW131199   5.113   5.718   5.512
10100SOL    HW231200   5.186   5.599   5.426
10101SOL     OW31201   6.344   2.762   2.031
10101SOL    HW131202   6.363   2.822   1.953
10101SOL    HW231203   6.331   2.668   1.999
10102SOL     OW31204   5.848   0.086   0.648
10102SOL    HW131205   5.754   0.056   0.636
10102SOL    HW231206   5.888   0.108   0.559
10103SOL     OW31207   0.784   0.134   5.841
10103SOL    HW131208   0.786   0.213   5.780
10103SOL    HW231209   0.811   0.162   5.934
10104SOL     OW31210   2.017   0.490   6.078
10104SOL    HW131211   1.930   0.441   6.068
10104SOL    HW231212   2.001   0.588   6.075
10105SOL     OW31213   3.063   1.547   6.068
10105SOL    HW131214   3.030   1.623   6.011
10105SOL    HW231215   3.017   1.463   6.041
10106SOL     OW31216   5.141   6.607   1.939
10106SOL    HW131217   5.166   6.510   1.948
10106SOL    HW231218   5.122   6.627   1.843
10107SOL     OW31219   5.047   4.757   6.577
10107SOL    HW131220   5.091   4.676   6.615
10107SOL    HW231221   5.052   4.832   6.643
10108SOL     OW31222   1.798   3.154   0.523
10108SOL    HW131223   1.850   3.127   0.604
10108SOL    HW231224   1.861   3.174   0.448
10109SOL     OW31225   0.360   0.923   6.981
10109SOL    HW131226   0.293   0.928   0.030
10109SOL    HW231227   0.352   1.004   6.923
10110SOL     OW31228   4.852   5.129   2.577
10110SOL    HW131229   4.834   5.056   2.512
10110SOL    HW231230   4.766   5.173   2.603
10111SOL     OW31231   1.027   2.283   1.911
10111SOL    HW131232   0.991   2.360   1.965
10111SOL    HW231233   1.127   2.286   1.913
10112SOL     OW31234   6.470   3.028   3.518
10112SOL    HW131235   6.484   3.086   3.438
10112SOL    HW231236   6.495   2.934   3.496
10113SOL     OW31237   5.095   1.201   6.674
10113SOL    HW131238   5.017   1.198   6.737
10113SOL    HW231239   5.082   1.277   6.609
10114SOL     OW31240   4.027   2.171   3.270
10114SOL    HW131241   3.931   2.195   3.281
10114SOL    HW231242   4.044   2.081   3.311
10115SOL     OW31243   3.234   1.066   4.741
10115SOL    HW131244   3.292   1.068   4.659
10115SOL    HW231245   3.168   0.991   4.734
10116SOL     OW31246   6.079   0.631   5.375
10116SOL    HW131247   6.086   0.543   5.422
10116SOL    HW231248   6.133   0.700   5.424
10117SOL     OW31249   6.601   5.327   5.147
10117SOL    HW131250   6.660   5.303   5.070
10117SOL    HW231251   6.545   5.248   5.172
10118SOL     OW31252   2.728   5.170   4.729
10118SOL    HW131253   2.667   5.097   4.762
10118SOL    HW231254   2.681   5.258   4.737
10119SOL     OW31255   0.532   5.121   4.197
10119SOL    HW131256   0.569   5.213   4.183
10119SOL    HW231257   0.519   5.076   4.108
10120SOL     OW31258   1.221   2.821   2.614
10120SOL    HW131259   1.262   2.732   2.633
10120SOL    HW231260   1.258   2.889   2.677
10121SOL     OW31261   6.481   4.420   0.737
10121SOL    HW131262   6.540   4.346   0.769
10121SOL    HW231263   6.400   4.426   0.794
10122SOL     OW31264   0.145   1.727   3.833
10122SOL    HW131265   0.068   1.786   3.857
10122SOL    HW231266   0.179   1.681   3.915
10123SOL     OW31267   6.129   6.341   1.341
10123SOL    HW131268   6.068   6.317   1.417
10123SOL    HW231269   6.206   6.394   1.375
10124SOL     OW31270   1.251   4.850   2.588
10124SOL    HW131271   1.218   4.775   2.646
10124SOL    HW231272   1.183   4.924   2.588
10125SOL     OW31273   1.555   1.429   0.337
10125SOL    HW131274   1.555   1.524   0.369
10125SOL    HW231275   1.460   1.397   0.329
10126SOL     OW31276   6.122   0.877   6.647
10126SOL    HW131277   6.036   0.929   6.657
10126SOL    HW231278   6.167   0.905   6.562
10127SOL     OW31279   1.731   4.822   5.858
10127SOL    HW131280   1.829   4.805   5.845
10127SOL    HW231281   1.687   4.833   5.769
10128SOL     OW31282   3.376   0.877   0.392
10128SOL    HW131283   3.294   0.885   0.449
10128SOL    HW231284   3.454   0.854   0.450
10129SOL     OW31285   5.965   1.682   3.571
10129SOL    HW131286   5.992   1.587   3.558
10129SOL    HW231287   5.884   1.686   3.629
10130SOL     OW31288   1.349   2.193   2.355
10130SOL    HW131289   1.416   2.212   2.426
10130SOL    HW231290   1.355   2.097   2.329
10131SOL     OW31291   1.882   0.733   4.488
10131SOL    HW131292   1.951   0.731   4.561
10131SOL    HW231293   1.885   0.647   4.437
10132SOL     OW31294   6.489   0.574   2.167
10132SOL    HW131295   6.472   0.519   2.249
10132SOL    HW231296   6.418   0.645   2.160
10133SOL     OW31297   4.690   5.775   1.021
10133SOL    HW131298   4.723   5.748   0.931
10133SOL    HW231299   4.656   5.869   1.017
10134SOL     OW31300   5.595   0.738   2.084
10134SOL    HW131301   5.604   0.673   2.008
10134SOL    HW231302   5.627   0.828   2.055
10135SOL     OW31303   5.723   0.231   3.860
10135SOL    HW131304   5.814   0.221   3.901
10135SOL    HW231305   5.726   0.300   3.788
10136SOL     OW31306   4.912   2.057   2.723
10136SOL    HW131307   4.848   1.979   2.719
10136SOL    HW231308   4.873   2.133   2.671
10137SOL     OW31309   0.034   5.698   5.865
10137SOL    HW131310   7.004   5.771   5.906
10137SOL    HW231311   0.001   5.681   5.772
10138SOL     OW31312   5.573   1.381   6.843
10138SOL    HW131313   5.655   1.342   6.803
10138SOL    HW231314   5.504   1.310   6.856
10139SOL     OW31315   3.462   3.583   5.903
10139SOL    HW131316   3.373   3.539   5.916
10139SOL    HW231317   3.529   3.542   5.965
10140SOL     OW31318   6.923   5.747   6.203
10140SOL    HW131319   7.021   5.751   6.183
10140SOL    HW231320   6.910   5.723   6.299
10141SOL     OW31321   3.255   1.532   3.824
10141SOL    HW131322   3.187   1.606   3.826
10141SOL    HW231323   3.290   1.517   3.917
10142SOL     OW31324   5.992   6.415   4.413
10142SOL    HW131325   6.026   6.383   4.502
10142SOL    HW231326   6.058   6.392   4.342
10143SOL     OW31327   5.659   3.469   0.646
10143SOL    HW131328   5.682   3.563   0.669
10143SOL    HW231329   5.700   3.407   0.713
10144SOL     OW31330   3.532   6.134   5.417
10144SOL    HW131331   3.629   6.148   5.438
10144SOL    HW231332   3.476   6.165   5.493
10145SOL     OW31333   5.354   6.315   1.476
10145SOL    HW131334   5.446   6.277   1.469
10145SOL    HW231335   5.355   6.411   1.446
10146SOL     OW31336   0.558   3.628   4.091
10146SOL    HW131337   0.496   3.684   4.037
10146SOL    HW231338   0.507   3.576   4.158
10147SOL     OW31339   4.568   5.557   6.446
10147SOL    HW131340   4.530   5.502   6.521
10147SOL    HW231341   4.579   5.652   6.478
10148SOL     OW31342   1.165   4.886   6.992
10148SOL    HW131343   1.124   4.812   0.021
10148SOL    HW231344   1.093   4.946   6.957
10149SOL     OW31345   4.718   4.560   1.251
10149SOL    HW131346   4.618   4.555   1.250
10149SOL    HW231347   4.751   4.571   1.157
10150SOL     OW31348   4.722   4.048   0.716
10150SOL    HW131349   4.691   4.018   0.806
10150SOL    HW231350   4.698   3.979   0.647
10151SOL     OW31351   6.487   0.376   5.546
10151SOL    HW131352   6.559   0.377   5.616
10151SOL    HW231353   6.399   0.359   5.590
10152SOL     OW31354   5.624   6.047   2.577
10152SOL    HW131355   5.615   6.144   2.599
10152SOL    HW231356   5.713   6.014   2.608
10153SOL     OW31357   5.181   4.829   4.078
10153SOL    HW131358   5.105   4.891   4.098
10153SOL    HW231359   5.239   4.869   4.007
10154SOL     OW31360   3.964   4.967   5.517
10154SOL    HW131361   3.962   5.043   5.582
10154SOL    HW231362   3.936   4.999   5.427
10155SOL     OW31363   4.310   2.079   5.623
10155SOL    HW131364   4.392   2.136   5.626
10155SOL    HW231365   4.316   2.009   5.693
10156SOL     OW31366   4.960   0.394   0.989
10156SOL    HW131367   4.932   0.362   1.079
10156SOL    HW231368   4.889   0.452   0.950
10157SOL     OW31369   0.045   2.753   1.463
10157SOL    HW131370   0.110   2.766   1.387
10157SOL    HW231371   0.070   2.671   1.514
10158SOL     OW31372   5.759   6.548   1.977
10158SOL    HW131373   5.708   6.626   1.942
10158SOL    HW231374   5.827   6.579   2.044
10159SOL     OW31375   3.808   3.366   3.481
10159SOL    HW131376   3.839   3.301   3.411
10159SOL    HW231377   3.884   3.390   3.540
10160SOL     OW31378   1.911   4.022   3.046
10160SOL    HW131379   1.858   4.040   2.963
10160SOL    HW231380   2.009   4.019   3.022
10161SOL     OW31381   3.396   4.932   6.612
10161SOL    HW131382   3.482   4.983   6.613
10161SOL    HW231383   3.348   4.947   6.526
10162SOL     OW31384   2.005   4.412   2.120
10162SOL    HW131385   1.993   4.500   2.073
10162SOL    HW231386   2.091   4.371   2.089
10163SOL     OW31387   1.309   6.580   4.966
10163SOL    HW131388   1.302   6.635   5.049
10163SOL    HW231389   1.329   6.639   4.888
10164SOL     OW31390   6.940   3.068   3.430
10164SOL    HW131391   6.899   2.981   3.456
10164SOL    HW231392   0.012   3.069   3.457
10165SOL     OW31393   6.288   2.950   4.241
10165SOL    HW131394   6.257   2.991   4.327
10165SOL    HW231395   6.244   2.997   4.164
10166SOL     OW31396   0.758   2.378   0.960
10166SOL    HW131397   0.799   2.328   0.884
10166SOL    HW231398   0.815   2.457   0.982
10167SOL     OW31399   0.477   6.220   6.014
10167SOL    HW131400   0.524   6.204   6.101
10167SOL    HW231401   0.544   6.216   5.939
10168SOL     OW31402   5.989   1.355   6.863
10168SOL    HW131403   6.067   1.360   6.801
10168SOL    HW231404   5.911   1.312   6.817
10169SOL     OW31405   6.784   3.467   3.277
10169SOL    HW131406   6.875   3.499   3.251
10169SOL    HW231407   6.774   3.370   3.251
10170SOL     OW31408   6.466   5.562   0.347
10170SOL    HW131409   6.442   5.512   0.264
10170SOL    HW231410   6.451   5.660   0.332
10171SOL     OW31411   1.943   2.949   5.059
10171SOL    HW131412   1.994   2.964   4.975
10171SOL    HW231413   2.002   2.971   5.138
10172SOL     OW31414   6.537   0.460   3.308
10172SOL    HW131415   6.515   0.392   3.378
10172SOL    HW231416   6.514   0.424   3.218
10173SOL     OW31417   3.657   5.161   0.232
10173SOL    HW131418   3.569   5.142   0.277
10173SOL    HW231419   3.665   5.105   0.149
10174SOL     OW31420   4.872   6.734   2.777
10174SOL    HW131421   4.856   6.724   2.679
10174SOL    HW231422   4.831   6.819   2.810
10175SOL     OW31423   6.894   2.341   3.822
10175SOL    HW131424   6.894   2.269   3.752
10175SOL    HW231425   6.869   2.301   3.910
10176SOL     OW31426   6.164   3.099   5.654
10176SOL    HW131427   6.107   3.049   5.719
10176SOL    HW231428   6.236   3.147   5.703
10177SOL     OW31429   2.260   0.355   1.650
10177SOL    HW131430   2.297   0.431   1.703
10177SOL    HW231431   2.334   0.312   1.599
10178SOL     OW31432   1.859   1.655   0.217
10178SOL    HW131433   1.839   1.746   0.180
10178SOL    HW231434   1.789   1.591   0.186
10179SOL     OW31435   6.962   4.265   0.898
10179SOL    HW131436   6.979   4.185   0.956
10179SOL    HW231437   0.025   4.305   0.870
10180SOL     OW31438   4.313   6.944   6.206
10180SOL    HW131439   4.392   6.889   6.231
10180SOL    HW231440   4.274   6.910   6.120
10181SOL     OW31441   6.592   3.958   1.362
10181SOL    HW131442   6.679   4.006   1.376
10181SOL    HW231443   6.566   3.963   1.265
10182SOL     OW31444   5.244   1.502   6.842
10182SOL    HW131445   5.166   1.523   6.900
10182SOL    HW231446   5.265   1.405   6.846
10183SOL     OW31447   6.584   2.175   6.118
10183SOL    HW131448   6.678   2.196   6.091
10183SOL    HW231449   6.571   2.197   6.215
10184SOL     OW31450   6.082   3.631   6.142
10184SOL    HW131451   6.132   3.693   6.202
10184SOL    HW231452   6.035   3.562   6.197
10185SOL     OW31453   3.945   5.926   2.434
10185SOL    HW131454   4.017   5.868   2.397
10185SOL    HW231455   3.987   6.003   2.483
10186SOL     OW31456   5.038   4.025   5.358
10186SOL    HW131457   4.978   4.078   5.418
10186SOL    HW231458   5.082   3.952   5.411
10187SOL     OW31459   2.501   4.312   6.005
10187SOL    HW131460   2.478   4.229   6.057
10187SOL    HW231461   2.487   4.294   5.908
10188SOL     OW31462   2.746   6.733   0.146
10188SOL    HW131463   2.650   6.739   0.118
10188SOL    HW231464   2.803   6.786   0.083
10189SOL     OW31465   1.159   1.538   6.169
10189SOL    HW131466   1.171   1.445   6.134
10189SOL    HW231467   1.198   1.543   6.261
10190SOL     OW31468   3.101   4.534   1.266
10190SOL    HW131469   3.200   4.529   1.276
10190SOL    HW231470   3.064   4.591   1.339
10191SOL     OW31471   6.010   5.601   0.044
10191SOL    HW131472   6.073   5.543   7.018
10191SOL    HW231473   6.061   5.666   0.100
10192SOL     OW31474   2.135   2.019   5.344
10192SOL    HW131475   2.051   1.966   5.354
10192SOL    HW231476   2.203   1.986   5.409
10193SOL     OW31477   4.143   3.511   2.636
10193SOL    HW131478   4.114   3.472   2.723
10193SOL    HW231479   4.140   3.611   2.642
10194SOL     OW31480   3.597   0.261   4.342
10194SOL    HW131481   3.559   0.354   4.348
10194SOL    HW231482   3.676   0.254   4.403
10195SOL     OW31483   5.558   6.976   2.200
10195SOL    HW131484   5.640   6.995   2.146
10195SOL    HW231485   5.549   0.020   2.272
10196SOL     OW31486   5.693   1.684   3.006
10196SOL    HW131487   5.657   1.769   3.042
10196SOL    HW231488   5.749   1.702   2.925
10197SOL     OW31489   6.007   7.017   3.022
10197SOL    HW131490   6.012   0.066   2.954
10197SOL    HW231491   5.988   6.930   2.976
10198SOL     OW31492   3.178   6.320   1.870
10198SOL    HW131493   3.272   6.324   1.837
10198SOL    HW231494   3.118   6.288   1.797
10199SOL     OW31495   1.178   2.006   6.966
10199SOL    HW131496   1.144   1.916   6.937
10199SOL    HW231497   1.123   2.039   0.019
10200SOL     OW31498   5.750   4.165   5.496
10200SOL    HW131499   5.674   4.197   5.552
10200SOL    HW231500   5.767   4.068   5.514
10201SOL     OW31501   1.119   5.102   2.320
10201SOL    HW131502   1.214   5.071   2.328
10201SOL    HW231503   1.074   5.051   2.247
10202SOL     OW31504   0.322   3.735   1.646
10202SOL    HW131505   0.224   3.753   1.631
10202SOL    HW231506   0.355   3.797   1.717
10203SOL     OW31507   2.165   2.967   2.221
10203SOL    HW131508   2.215   3.028   2.281
10203SOL    HW231509   2.199   2.873   2.232
10204SOL     OW31510   3.000   4.699   5.621
10204SOL    HW131511   3.025   4.702   5.525
10204SOL    HW231512   2.923   4.761   5.637
10205SOL     OW31513   5.552   1.527   4.006
10205SOL    HW131514   5.519   1.436   3.977
10205SOL    HW231515   5.637   1.548   3.957
10206SOL     OW31516   5.808   6.762   5.963
10206SOL    HW131517   5.840   6.694   6.029
10206SOL    HW231518   5.709   6.772   5.971
10207SOL     OW31519   2.396   0.868   2.431
10207SOL    HW131520   2.450   0.882   2.514
10207SOL    HW231521   2.406   0.774   2.399
10208SOL     OW31522   5.545   5.550   5.157
10208SOL    HW131523   5.505   5.458   5.164
10208SOL    HW231524   5.478   5.618   5.189
10209SOL     OW31525   0.056   1.196   6.025
10209SOL    HW131526   0.097   1.213   6.115
10209SOL    HW231527   6.983   1.174   6.036
10210SOL     OW31528   5.772   0.028   2.071
10210SOL    HW131529   5.776   0.128   2.068
10210SOL    HW231530   5.861   7.017   2.100
10211SOL     OW31531   4.000   6.630   5.600
10211SOL    HW131532   3.941   6.686   5.658
10211SOL    HW231533   4.095   6.661   5.608
10212SOL     OW31534   0.818   1.303   3.919
10212SOL    HW131535   0.903   1.252   3.929
10212SOL    HW231536   0.780   1.323   4.009
10213SOL     OW31537   6.066   1.724   2.984
10213SOL    HW131538   6.044   1.760   3.075
10213SOL    HW231539   6.060   1.624   2.986
10214SOL     OW31540   6.244   0.734   2.261
10214SOL    HW131541   6.173   0.727   2.330
10214SOL    HW231542   6.307   0.808   2.285
10215SOL     OW31543   3.629   3.448   6.091
10215SOL    HW131544   3.632   3.518   6.162
10215SOL    HW231545   3.721   3.411   6.077
10216SOL     OW31546   6.613   6.882   1.001
10216SOL    HW131547   6.626   6.943   0.923
10216SOL    HW231548   6.661   6.919   1.081
10217SOL     OW31549   2.644   1.889   4.221
10217SOL    HW131550   2.611   1.799   4.194
10217SOL    HW231551   2.630   1.902   4.319
10218SOL     OW31552   1.265   1.419   1.124
10218SOL    HW131553   1.231   1.414   1.217
10218SOL    HW231554   1.194   1.456   1.064
10219SOL     OW31555   0.788   1.949   2.289
10219SOL    HW131556   0.730   1.936   2.208
10219SOL    HW231557   0.867   1.889   2.283
10220SOL     OW31558   4.342   2.002   1.264
10220SOL    HW131559   4.243   1.990   1.254
10220SOL    HW231560   4.364   2.019   1.359
10221SOL     OW31561   2.791   0.763   5.131
10221SOL    HW131562   2.863   0.714   5.181
10221SOL    HW231563   2.754   0.836   5.188
10222SOL     OW31564   0.959   4.135   5.392
10222SOL    HW131565   1.024   4.070   5.433
10222SOL    HW231566   0.980   4.147   5.295
10223SOL     OW31567   1.443   4.969   6.886
10223SOL    HW131568   1.376   4.929   6.948
10223SOL    HW231569   1.420   5.065   6.870
10224SOL     OW31570   1.337   0.741   4.478
10224SOL    HW131571   1.417   0.800   4.483
10224SOL    HW231572   1.299   0.727   4.569
10225SOL     OW31573   0.788   6.090   4.361
10225SOL    HW131574   0.722   6.017   4.379
10225SOL    HW231575   0.769   6.131   4.272
10226SOL     OW31576   2.972   0.913   6.744
10226SOL    HW131577   3.052   0.876   6.791
10226SOL    HW231578   2.985   1.011   6.727
10227SOL     OW31579   4.582   4.521   0.415
10227SOL    HW131580   4.593   4.570   0.329
10227SOL    HW231581   4.669   4.479   0.440
10228SOL     OW31582   0.458   5.497   2.590
10228SOL    HW131583   0.441   5.554   2.670
10228SOL    HW231584   0.401   5.414   2.596
10229SOL     OW31585   0.437   0.747   3.390
10229SOL    HW131586   0.368   0.732   3.319
10229SOL    HW231587   0.502   0.816   3.359
10230SOL     OW31588   6.597   0.077   3.615
10230SOL    HW131589   6.616   7.010   3.579
10230SOL    HW231590   6.565   0.069   3.710
10231SOL     OW31591   6.467   6.782   4.915
10231SOL    HW131592   6.478   6.786   4.816
10231SOL    HW231593   6.468   6.687   4.945
10232SOL     OW31594   3.530   1.124   4.105
10232SOL    HW131595   3.458   1.055   4.105
10232SOL    HW231596   3.611   1.087   4.149
10233SOL     OW31597   4.384   3.136   6.150
10233SOL    HW131598   4.324   3.063   6.116
10233SOL    HW231599   4.333   3.222   6.155
10234SOL     OW31600   4.818   0.561   0.804
10234SOL    HW131601   4.814   0.476   0.752
10234SOL    HW231602   4.747   0.623   0.771
10235SOL     OW31603   4.330   1.002   0.274
10235SOL    HW131604   4.380   0.970   0.193
10235SOL    HW231605   4.373   0.965   0.357
10236SOL     OW31606   1.995   6.306   1.768
10236SOL    HW131607   2.089   6.283   1.795
10236SOL    HW231608   1.997   6.351   1.679
10237SOL     OW31609   6.506   4.386   1.877
10237SOL    HW131610   6.498   4.415   1.782
10237SOL    HW231611   6.454   4.302   1.891
10238SOL     OW31612   3.801   4.473   5.343
10238SOL    HW131613   3.754   4.401   5.291
10238SOL    HW231614   3.895   4.445   5.360
10239SOL     OW31615   0.680   4.208   5.367
10239SOL    HW131616   0.759   4.168   5.414
10239SOL    HW231617   0.696   4.306   5.354
10240SOL     OW31618   1.090   4.178   2.569
10240SOL    HW131619   1.101   4.224   2.658
10240SOL    HW231620   1.173   4.127   2.548
10241SOL     OW31621   0.070   1.433   1.865
10241SOL    HW131622   0.040   1.455   1.772
10241SOL    HW231623   0.118   1.345   1.864
10242SOL     OW31624   0.497   1.356   5.732
10242SOL    HW131625   0.583   1.393   5.696
10242SOL    HW231626   0.517   1.288   5.802
10243SOL     OW31627   0.111   5.396   1.254
10243SOL    HW131628   0.190   5.370   1.310
10243SOL    HW231629   0.126   5.486   1.214
10244SOL     OW31630   2.164   5.326   0.183
10244SOL    HW131631   2.208   5.289   0.265
10244SOL    HW231632   2.104   5.402   0.209
10245SOL     OW31633   2.213   3.288   0.017
10245SOL    HW131634   2.229   3.193   7.018
10245SOL    HW231635   2.128   3.319   6.999
10246SOL     OW31636   3.100   4.027   4.779
10246SOL    HW131637   3.136   4.091   4.847
10246SOL    HW231638   3.124   4.058   4.687
10247SOL     OW31639   0.352   5.335   5.383
10247SOL    HW131640   0.273   5.304   5.436
10247SOL    HW231641   0.320   5.376   5.297
10248SOL     OW31642   3.458   0.616   2.340
10248SOL    HW131643   3.527   0.672   2.295
10248SOL    HW231644   3.442   0.533   2.287
10249SOL     OW31645   3.861   0.505   5.313
10249SOL    HW131646   3.873   0.571   5.387
10249SOL    HW231647   3.803   0.430   5.346
10250SOL     OW31648   6.667   1.234   1.500
10250SOL    HW131649   6.676   1.141   1.464
10250SOL    HW231650   6.571   1.263   1.493
10251SOL     OW31651   2.516   2.800   5.857
10251SOL    HW131652   2.535   2.722   5.916
10251SOL    HW231653   2.417   2.811   5.847
10252SOL     OW31654   5.967   6.827   0.958
10252SOL    HW131655   6.046   6.770   0.937
10252SOL    HW231656   5.973   6.858   1.053
10253SOL     OW31657   4.751   5.308   0.281
10253SOL    HW131658   4.714   5.398   0.255
10253SOL    HW231659   4.729   5.291   0.377
10254SOL     OW31660   3.085   2.011   4.637
10254SOL    HW131661   3.010   1.983   4.577
10254SOL    HW231662   3.150   1.936   4.644
10255SOL     OW31663   2.126   6.438   2.117
10255SOL    HW131664   2.027   6.436   2.099
10255SOL    HW231665   2.162   6.346   2.115
10256SOL     OW31666   5.001   0.181   0.802
10256SOL    HW131667   5.088   0.131   0.805
10256SOL    HW231668   4.998   0.247   0.877
10257SOL     OW31669   1.277   4.549   5.527
10257SOL    HW131670   1.335   4.630   5.530
10257SOL    HW231671   1.334   4.467   5.521
10258SOL     OW31672   5.036   6.149   3.441
10258SOL    HW131673   5.104   6.125   3.371
10258SOL    HW231674   4.966   6.208   3.400
10259SOL     OW31675   0.596   5.517   3.772
10259SOL    HW131676   0.590   5.431   3.722
10259SOL    HW231677   0.547   5.509   3.859
10260SOL     OW31678   0.134   6.364   2.988
10260SOL    HW131679   0.195   6.431   2.946
10260SOL    HW231680   0.103   6.299   2.919
10261SOL     OW31681   6.728   6.193   2.150
10261SOL    HW131682   6.695   6.199   2.245
10261SOL    HW231683   6.673   6.254   2.092
10262SOL     OW31684   3.294   4.977   4.479
10262SOL    HW131685   3.268   4.962   4.383
10262SOL    HW231686   3.393   4.969   4.488
10263SOL     OW31687   4.928   1.979   6.753
10263SOL    HW131688   5.000   1.960   6.686
10263SOL    HW231689   4.969   1.998   6.842
10264SOL     OW31690   6.214   1.872   6.516
10264SOL    HW131691   6.236   1.966   6.541
10264SOL    HW231692   6.115   1.863   6.507
10265SOL     OW31693   3.040   1.600   2.901
10265SOL    HW131694   3.098   1.554   2.968
10265SOL    HW231695   3.070   1.694   2.889
10266SOL     OW31696   3.848   4.376   6.117
10266SOL    HW131697   3.940   4.408   6.095
10266SOL    HW231698   3.854   4.290   6.167
10267SOL     OW31699   6.550   2.152   0.196
10267SOL    HW131700   6.636   2.135   0.148
10267SOL    HW231701   6.477   2.169   0.129
10268SOL     OW31702   5.809   6.415   1.310
10268SOL    HW131703   5.832   6.401   1.406
10268SOL    HW231704   5.884   6.463   1.264
10269SOL     OW31705   2.302   1.947   5.559
10269SOL    HW131706   2.356   1.929   5.477
10269SOL    HW231707   2.310   1.869   5.622
10270SOL     OW31708   1.983   5.748   1.262
10270SOL    HW131709   2.038   5.712   1.337
10270SOL    HW231710   2.037   5.816   1.211
10271SOL     OW31711   3.154   3.637   0.402
10271SOL    HW131712   3.072   3.616   0.455
10271SOL    HW231713   3.145   3.728   0.361
10272SOL     OW31714   1.244   0.932   4.236
10272SOL    HW131715   1.290   0.873   4.302
10272SOL    HW231716   1.295   1.017   4.226
10273SOL     OW31717   3.848   5.486   4.068
10273SOL    HW131718   3.777   5.426   4.104
10273SOL    HW231719   3.830   5.504   3.972
10274SOL     OW31720   1.306   4.812   5.555
10274SOL    HW131721   1.235   4.881   5.544
10274SOL    HW231722   1.333   4.807   5.651
10275SOL     OW31723   0.699   6.875   2.800
10275SOL    HW131724   0.667   6.936   2.727
10275SOL    HW231725   0.773   6.920   2.850
10276SOL     OW31726   6.769   5.515   6.052
10276SOL    HW131727   6.860   5.475   6.060
10276SOL    HW231728   6.756   5.584   6.123
10277SOL     OW31729   2.930   6.344   3.999
10277SOL    HW131730   2.937   6.322   3.902
10277SOL    HW231731   3.020   6.336   4.042
10278SOL     OW31732   6.924   1.445   6.076
10278SOL    HW131733   6.855   1.513   6.100
10278SOL    HW231734   6.913   1.417   5.981
10279SOL     OW31735   3.183   0.270   4.325
10279SOL    HW131736   3.178   0.219   4.411
10279SOL    HW231737   3.269   0.248   4.279
10280SOL     OW31738   2.435   4.831   1.281
10280SOL    HW131739   2.479   4.832   1.371
10280SOL    HW231740   2.348   4.880   1.287
10281SOL     OW31741   5.081   1.726   2.880
10281SOL    HW131742   5.064   1.628   2.886
10281SOL    HW231743   5.150   1.744   2.810
10282SOL     OW31744   0.254   3.097   3.462
10282SOL    HW131745   0.248   3.155   3.543
10282SOL    HW231746   0.229   3.150   3.381
10283SOL     OW31747   1.211   3.297   1.036
10283SOL    HW131748   1.223   3.387   0.994
10283SOL    HW231749   1.232   3.303   1.134
10284SOL     OW31750   5.439   3.972   4.878
10284SOL    HW131751   5.433   3.974   4.977
10284SOL    HW231752   5.519   4.025   4.848
10285SOL     OW31753   4.828   0.478   1.228
10285SOL    HW131754   4.864   0.390   1.259
10285SOL    HW231755   4.729   0.481   1.244
10286SOL     OW31756   3.776   1.698   2.713
10286SOL    HW131757   3.755   1.617   2.768
10286SOL    HW231758   3.708   1.708   2.641
10287SOL     OW31759   2.056   6.732   1.880
10287SOL    HW131760   2.095   6.696   1.795
10287SOL    HW231761   1.969   6.687   1.899
10288SOL     OW31762   5.128   5.973   2.768
10288SOL    HW131763   5.061   6.040   2.737
10288SOL    HW231764   5.160   5.920   2.689
10289SOL     OW31765   3.427   1.311   1.417
10289SOL    HW131766   3.449   1.328   1.513
10289SOL    HW231767   3.328   1.294   1.408
10290SOL     OW31768   3.644   3.988   2.845
10290SOL    HW131769   3.593   4.052   2.786
10290SOL    HW231770   3.601   3.898   2.842
10291SOL     OW31771   4.118   0.688   3.927
10291SOL    HW131772   4.037   0.631   3.934
10291SOL    HW231773   4.091   0.784   3.914
10292SOL     OW31774   0.368   2.395   4.679
10292SOL    HW131775   0.404   2.316   4.728
10292SOL    HW231776   0.302   2.364   4.610
10293SOL     OW31777   1.542   6.317   2.760
10293SOL    HW131778   1.575   6.347   2.850
10293SOL    HW231779   1.446   6.343   2.749
10294SOL     OW31780   4.842   2.797   2.808
10294SOL    HW131781   4.805   2.785   2.900
10294SOL    HW231782   4.851   2.895   2.789
10295SOL     OW31783   6.104   4.506   5.418
10295SOL    HW131784   6.157   4.477   5.498
10295SOL    HW231785   6.011   4.472   5.426
10296SOL     OW31786   5.674   4.196   6.033
10296SOL    HW131787   5.747   4.168   6.096
10296SOL    HW231788   5.630   4.115   5.995
10297SOL     OW31789   2.701   6.987   4.227
10297SOL    HW131790   2.799   6.982   4.247
10297SOL    HW231791   2.665   0.050   4.258
10298SOL     OW31792   4.756   4.202   3.269
10298SOL    HW131793   4.720   4.258   3.195
10298SOL    HW231794   4.735   4.246   3.357
10299SOL     OW31795   4.460   4.603   3.455
10299SOL    HW131796   4.529   4.626   3.524
10299SOL    HW231797   4.421   4.514   3.476
10300SOL     OW31798   1.603   3.605   1.949
10300SOL    HW131799   1.584   3.678   1.883
10300SOL    HW231800   1.623   3.644   2.038
10301SOL     OW31801   5.800   1.562   3.892
10301SOL    HW131802   5.746   1.581   3.810
10301SOL    HW231803   5.884   1.616   3.890
10302SOL     OW31804   0.937   6.277   2.574
10302SOL    HW131805   0.841   6.305   2.582
10302SOL    HW231806   0.958   6.209   2.644
10303SOL     OW31807   3.973   3.350   1.627
10303SOL    HW131808   3.886   3.368   1.673
10303SOL    HW231809   4.029   3.433   1.629
10304SOL     OW31810   6.010   6.851   4.089
10304SOL    HW131811   6.055   6.941   4.090
10304SOL    HW231812   6.025   6.806   4.177
10305SOL     OW31813   1.519   5.752   0.284
10305SOL    HW131814   1.585   5.825   0.302
10305SOL    HW231815   1.555   5.665   0.317
10306SOL     OW31816   4.104   5.573   6.876
10306SOL    HW131817   4.023   5.574   6.817
10306SOL    HW231818   4.120   5.665   6.912
10307SOL     OW31819   1.870   0.788   5.361
10307SOL    HW131820   1.800   0.732   5.405
10307SOL    HW231821   1.873   0.878   5.405
10308SOL     OW31822   3.325   5.022   3.842
10308SOL    HW131823   3.267   4.960   3.791
10308SOL    HW231824   3.414   4.979   3.860
10309SOL     OW31825   5.860   6.349   3.284
10309SOL    HW131826   5.959   6.354   3.291
10309SOL    HW231827   5.834   6.263   3.241
10310SOL     OW31828   2.966   3.700   2.179
10310SOL    HW131829   2.928   3.608   2.183
10310SOL    HW231830   2.923   3.756   2.250
10311SOL     OW31831   0.476   6.069   0.771
10311SOL    HW131832   0.397   6.010   0.786
10311SOL    HW231833   0.448   6.165   0.774
10312SOL     OW31834   3.513   4.681   0.438
10312SOL    HW131835   3.490   4.779   0.439
10312SOL    HW231836   3.609   4.669   0.463
10313SOL     OW31837   4.210   0.099   2.398
10313SOL    HW131838   4.188   0.050   2.482
10313SOL    HW231839   4.126   0.122   2.349
10314SOL     OW31840   6.466   6.958   0.447
10314SOL    HW131841   6.516   0.004   0.396
10314SOL    HW231842   6.370   6.960   0.421
10315SOL     OW31843   5.959   5.992   5.426
10315SOL    HW131844   5.863   5.973   5.405
10315SOL    HW231845   6.015   5.917   5.391
10316SOL     OW31846   0.353   3.649   4.657
10316SOL    HW131847   0.364   3.733   4.710
10316SOL    HW231848   0.385   3.665   4.563
10317SOL     OW31849   3.767   5.200   6.464
10317SOL    HW131850   3.840   5.167   6.524
10317SOL    HW231851   3.802   5.212   6.371
10318SOL     OW31852   6.361   5.116   1.265
10318SOL    HW131853   6.275   5.150   1.304
10318SOL    HW231854   6.346   5.089   1.170
10319SOL     OW31855   0.195   4.672   3.967
10319SOL    HW131856   0.163   4.588   3.924
10319SOL    HW231857   0.133   4.747   3.944
10320SOL     OW31858   0.777   0.106   1.316
10320SOL    HW131859   0.718   0.062   1.383
10320SOL    HW231860   0.873   0.095   1.344
10321SOL     OW31861   4.057   6.186   4.737
10321SOL    HW131862   3.997   6.174   4.658
10321SOL    HW231863   4.147   6.148   4.716
10322SOL     OW31864   6.329   5.643   0.710
10322SOL    HW131865   6.410   5.703   0.709
10322SOL    HW231866   6.313   5.612   0.804
10323SOL     OW31867   6.370   3.235   6.579
10323SOL    HW131868   6.379   3.138   6.600
10323SOL    HW231869   6.338   3.284   6.660
10324SOL     OW31870   3.336   2.921   3.307
10324SOL    HW131871   3.255   2.978   3.314
10324SOL    HW231872   3.371   2.924   3.213
10325SOL     OW31873   6.789   3.741   3.646
10325SOL    HW131874   6.779   3.774   3.552
10325SOL    HW231875   6.790   3.641   3.647
10326SOL     OW31876   5.370   2.534   0.318
10326SOL    HW131877   5.397   2.451   0.269
10326SOL    HW231878   5.380   2.613   0.257
10327SOL     OW31879   1.654   0.966   3.247
10327SOL    HW131880   1.660   0.880   3.297
10327SOL    HW231881   1.652   0.948   3.149
10328SOL     OW31882   5.894   3.729   2.469
10328SOL    HW131883   5.924   3.634   2.463
10328SOL    HW231884   5.943   3.774   2.545
10329SOL     OW31885   3.119   0.285   2.798
10329SOL    HW131886   3.185   0.252   2.730
10329SOL    HW231887   3.164   0.295   2.886
10330SOL     OW31888   3.522   5.357   2.793
10330SOL    HW131889   3.507   5.342   2.891
10330SOL    HW231890   3.589   5.291   2.759
10331SOL     OW31891   5.405   0.847   3.660
10331SOL    HW131892   5.426   0.837   3.757
10331SOL    HW231893   5.452   0.775   3.608
10332SOL     OW31894   7.008   1.873   0.778
10332SOL    HW131895   6.941   1.800   0.772
10332SOL    HW231896   6.966   1.960   0.752
10333SOL     OW31897   5.938   5.124   4.072
10333SOL    HW131898   5.857   5.183   4.078
10333SOL    HW231899   6.014   5.177   4.033
10334SOL     OW31900   2.075   4.976   4.356
10334SOL    HW131901   2.048   4.951   4.449
10334SOL    HW231902   2.134   4.905   4.318
10335SOL     OW31903   2.248   5.702   6.856
10335SOL    HW131904   2.310   5.672   6.928
10335SOL    HW231905   2.214   5.622   6.806
10336SOL     OW31906   4.298   0.135   2.088
10336SOL    HW131907   4.305   0.142   2.187
10336SOL    HW231908   4.362   0.066   2.054
10337SOL     OW31909   0.289   5.275   4.638
10337SOL    HW131910   0.310   5.237   4.548
10337SOL    HW231911   0.293   5.203   4.707
10338SOL     OW31912   3.373   6.850   1.617
10338SOL    HW131913   3.366   6.858   1.716
10338SOL    HW231914   3.370   6.941   1.576
10339SOL     OW31915   3.344   5.734   1.020
10339SOL    HW131916   3.267   5.743   1.084
10339SOL    HW231917   3.429   5.757   1.067
10340SOL     OW31918   2.413   5.914   6.735
10340SOL    HW131919   2.381   5.824   6.763
10340SOL    HW231920   2.509   5.909   6.709
10341SOL     OW31921   2.528   2.126   2.486
10341SOL    HW131922   2.509   2.220   2.514
10341SOL    HW231923   2.616   2.122   2.440
10342SOL     OW31924   2.646   0.020   5.615
10342SOL    HW131925   2.571   0.080   5.587
10342SOL    HW231926   2.681   6.994   5.536
10343SOL     OW31927   2.638   4.016   6.075
10343SOL    HW131928   2.660   4.000   5.979
10343SOL    HW231929   2.551   4.065   6.082
10344SOL     OW31930   3.988   3.319   4.623
10344SOL    HW131931   4.020   3.305   4.717
10344SOL    HW231932   3.959   3.232   4.584
10345SOL     OW31933   2.725   1.154   0.225
10345SOL    HW131934   2.640   1.157   0.173
10345SOL    HW231935   2.794   1.104   0.172
10346SOL     OW31936   5.246   6.732   6.782
10346SOL    HW131937   5.186   6.725   6.701
10346SOL    HW231938   5.234   6.651   6.839
10347SOL     OW31939   5.637   1.821   1.300
10347SOL    HW131940   5.602   1.866   1.218
10347SOL    HW231941   5.665   1.728   1.278
10348SOL     OW31942   6.299   1.299   6.190
10348SOL    HW131943   6.394   1.269   6.187
10348SOL    HW231944   6.288   1.373   6.255
10349SOL     OW31945   6.370   1.139   1.215
10349SOL    HW131946   6.297   1.130   1.283
10349SOL    HW231947   6.417   1.051   1.205
10350SOL     OW31948   3.660   5.893   4.339
10350SOL    HW131949   3.672   5.831   4.261
10350SOL    HW231950   3.591   5.855   4.401
10351SOL     OW31951   6.168   5.658   4.998
10351SOL    HW131952   6.232   5.685   4.926
10351SOL    HW231953   6.075   5.663   4.963
10352SOL     OW31954   5.396   1.486   6.572
10352SOL    HW131955   5.445   1.399   6.572
10352SOL    HW231956   5.330   1.487   6.648
10353SOL     OW31957   0.532   3.023   3.548
10353SOL    HW131958   0.442   3.053   3.519
10353SOL    HW231959   0.555   3.065   3.636
10354SOL     OW31960   0.189   3.796   0.412
10354SOL    HW131961   0.108   3.796   0.472
10354SOL    HW231962   0.186   3.717   0.351
10355SOL     OW31963   1.019   1.296   0.635
10355SOL    HW131964   0.930   1.336   0.657
10355SOL    HW231965   1.091   1.343   0.687
10356SOL     OW31966   0.204   3.169   6.683
10356SOL    HW131967   0.235   3.192   6.590
10356SOL    HW231968   0.275   3.193   6.748
10357SOL     OW31969   1.543   2.432   6.648
10357SOL    HW131970   1.480   2.507   6.625
10357SOL    HW231971   1.585   2.398   6.564
10358SOL     OW31972   1.575   2.658   2.602
10358SOL    HW131973   1.539   2.636   2.511
10358SOL    HW231974   1.520   2.612   2.671
10359SOL     OW31975   5.369   2.264   3.129
10359SOL    HW131976   5.383   2.213   3.214
10359SOL    HW231977   5.456   2.272   3.080
10360SOL     OW31978   5.236   4.999   3.185
10360SOL    HW131979   5.292   4.933   3.234
10360SOL    HW231980   5.258   5.091   3.216
10361SOL     OW31981   1.749   1.382   1.255
10361SOL    HW131982   1.733   1.327   1.172
10361SOL    HW231983   1.747   1.322   1.335
10362SOL     OW31984   0.573   5.232   1.844
10362SOL    HW131985   0.656   5.282   1.818
10362SOL    HW231986   0.531   5.274   1.924
10363SOL     OW31987   4.516   3.517   0.749
10363SOL    HW131988   4.499   3.462   0.668
10363SOL    HW231989   4.592   3.478   0.801
10364SOL     OW31990   4.800   5.142   1.147
10364SOL    HW131991   4.863   5.138   1.224
10364SOL    HW231992   4.799   5.235   1.110
10365SOL     OW31993   6.019   4.728   0.284
10365SOL    HW131994   6.063   4.727   0.374
10365SOL    HW231995   5.945   4.660   0.282
10366SOL     OW31996   4.273   6.543   2.741
10366SOL    HW131997   4.280   6.527   2.839
10366SOL    HW231998   4.301   6.461   2.691
10367SOL     OW31999   6.537   1.723   1.684
10367SOL    HW132000   6.556   1.629   1.712
10367SOL    HW232001   6.615   1.758   1.632
10368SOL     OW32002   2.585   0.136   2.253
10368SOL    HW132003   2.487   0.128   2.271
10368SOL    HW232004   2.635   0.074   2.313
10369SOL     OW32005   3.073   6.321   5.104
10369SOL    HW132006   3.023   6.238   5.079
10369SOL    HW232007   3.049   6.394   5.039
10370SOL     OW32008   6.772   1.607   4.706
10370SOL    HW132009   6.814   1.520   4.729
10370SOL    HW232010   6.778   1.622   4.607
10371SOL     OW32011   3.654   6.663   3.515
10371SOL    HW132012   3.609   6.600   3.578
10371SOL    HW232013   3.698   6.611   3.442
10372SOL     OW32014   3.033   0.627   1.475
10372SOL    HW132015   3.052   0.625   1.573
10372SOL    HW232016   3.058   0.540   1.433
10373SOL     OW32017   0.162   0.717   5.309
10373SOL    HW132018   0.124   0.626   5.323
10373SOL    HW232019   0.100   0.786   5.346
10374SOL     OW32020   3.408   6.891   4.452
10374SOL    HW132021   3.448   6.899   4.361
10374SOL    HW232022   3.390   6.982   4.490
10375SOL     OW32023   3.233   2.689   6.367
10375SOL    HW132024   3.294   2.738   6.429
10375SOL    HW232025   3.287   2.642   6.297
10376SOL     OW32026   1.242   6.313   3.640
10376SOL    HW132027   1.288   6.386   3.590
10376SOL    HW232028   1.147   6.307   3.610
10377SOL     OW32029   0.333   1.641   1.772
10377SOL    HW132030   0.256   1.632   1.836
10377SOL    HW232031   0.380   1.727   1.789
10378SOL     OW32032   0.258   5.587   4.974
10378SOL    HW132033   0.195   5.661   4.999
10378SOL    HW232034   0.350   5.624   4.962
10379SOL     OW32035   2.632   6.614   4.023
10379SOL    HW132036   2.610   6.695   3.968
10379SOL    HW232037   2.646   6.536   3.963
10380SOL     OW32038   1.378   2.467   4.569
10380SOL    HW132039   1.294   2.492   4.618
10380SOL    HW232040   1.443   2.425   4.633
10381SOL     OW32041   3.930   4.307   1.631
10381SOL    HW132042   4.022   4.335   1.605
10381SOL    HW232043   3.869   4.387   1.628
10382SOL     OW32044   2.535   5.134   2.324
10382SOL    HW132045   2.485   5.052   2.353
10382SOL    HW232046   2.580   5.116   2.237
10383SOL     OW32047   1.823   4.794   0.187
10383SOL    HW132048   1.903   4.817   0.243
10383SOL    HW232049   1.791   4.876   0.139
10384SOL     OW32050   6.472   6.141   1.487
10384SOL    HW132051   6.569   6.163   1.477
10384SOL    HW232052   6.418   6.225   1.476
10385SOL     OW32053   3.249   5.251   6.179
10385SOL    HW132054   3.186   5.296   6.116
10385SOL    HW232055   3.286   5.168   6.137
10386SOL     OW32056   0.066   1.377   6.283
10386SOL    HW132057   0.037   1.303   6.344
10386SOL    HW232058   7.013   1.406   6.227
10387SOL     OW32059   5.530   2.559   3.503
10387SOL    HW132060   5.592   2.620   3.453
10387SOL    HW232061   5.447   2.545   3.450
10388SOL     OW32062   2.882   0.279   6.438
10388SOL    HW132063   2.838   0.343   6.375
10388SOL    HW232064   2.962   0.237   6.393
10389SOL     OW32065   6.341   4.170   7.011
10389SOL    HW132066   6.326   4.269   7.013
10389SOL    HW232067   6.439   4.151   7.007
10390SOL     OW32068   2.063   2.294   0.704
10390SOL    HW132069   2.121   2.306   0.623
10390SOL    HW232070   2.023   2.382   0.729
10391SOL     OW32071   1.081   6.048   3.387
10391SOL    HW132072   1.049   5.955   3.372
10391SOL    HW232073   1.159   6.047   3.449
10392SOL     OW32074   6.368   5.171   5.206
10392SOL    HW132075   6.335   5.082   5.176
10392SOL    HW232076   6.350   5.182   5.304
10393SOL     OW32077   2.172   3.320   3.869
10393SOL    HW132078   2.269   3.295   3.873
10393SOL    HW232079   2.137   3.300   3.778
10394SOL     OW32080   2.522   5.769   3.862
10394SOL    HW132081   2.482   5.689   3.907
10394SOL    HW232082   2.511   5.849   3.921
10395SOL     OW32083   0.490   6.419   1.358
10395SOL    HW132084   0.557   6.458   1.295
10395SOL    HW232085   0.525   6.424   1.451
10396SOL     OW32086   4.147   1.765   4.257
10396SOL    HW132087   4.163   1.673   4.294
10396SOL    HW232088   4.201   1.778   4.175
10397SOL     OW32089   3.488   1.726   2.657
10397SOL    HW132090   3.505   1.723   2.756
10397SOL    HW232091   3.401   1.680   2.637
10398SOL     OW32092   6.011   2.700   1.324
10398SOL    HW132093   5.913   2.681   1.326
10398SOL    HW232094   6.026   2.799   1.328
10399SOL     OW32095   5.015   2.260   3.474
10399SOL    HW132096   5.045   2.203   3.398
10399SOL    HW232097   4.935   2.218   3.518
10400SOL     OW32098   4.507   6.712   0.485
10400SOL    HW132099   4.439   6.670   0.546
10400SOL    HW232100   4.462   6.739   0.400
10401SOL     OW32101   6.529   0.672   3.680
10401SOL    HW132102   6.561   0.690   3.587
10401SOL    HW232103   6.572   0.588   3.715
10402SOL     OW32104   6.616   3.369   5.490
10402SOL    HW132105   6.530   3.319   5.499
10402SOL    HW232106   6.601   3.450   5.433
10403SOL     OW32107   4.600   0.956   3.738
10403SOL    HW132108   4.655   0.940   3.820
10403SOL    HW232109   4.560   1.047   3.741
10404SOL     OW32110   6.229   6.771   5.314
10404SOL    HW132111   6.276   6.683   5.323
10404SOL    HW232112   6.176   6.789   5.397
10405SOL     OW32113   0.455   1.733   5.457
10405SOL    HW132114   0.411   1.823   5.462
10405SOL    HW232115   0.551   1.741   5.483
10406SOL     OW32116   2.610   5.043   3.165
10406SOL    HW132117   2.590   5.008   3.073
10406SOL    HW232118   2.588   4.974   3.233
10407SOL     OW32119   3.364   6.802   6.459
10407SOL    HW132120   3.300   6.848   6.521
10407SOL    HW232121   3.426   6.744   6.513
10408SOL     OW32122   4.705   0.066   1.272
10408SOL    HW132123   4.698   0.070   1.372
10408SOL    HW232124   4.631   0.120   1.231
10409SOL     OW32125   0.167   4.599   0.993
10409SOL    HW132126   0.161   4.528   0.922
10409SOL    HW232127   0.263   4.616   1.015
10410SOL     OW32128   5.747   1.897   0.646
10410SOL    HW132129   5.656   1.935   0.659
10410SOL    HW232130   5.747   1.836   0.567
10411SOL     OW32131   3.814   6.529   3.346
10411SOL    HW132132   3.895   6.580   3.318
10411SOL    HW232133   3.840   6.458   3.411
10412SOL     OW32134   7.016   1.052   0.055
10412SOL    HW132135   0.062   0.983   0.073
10412SOL    HW232136   7.024   1.126   0.122
10413SOL     OW32137   6.449   2.884   0.592
10413SOL    HW132138   6.495   2.936   0.664
10413SOL    HW232139   6.503   2.888   0.507
10414SOL     OW32140   3.877   4.204   5.551
10414SOL    HW132141   3.800   4.259   5.583
10414SOL    HW232142   3.875   4.199   5.451
10415SOL     OW32143   1.198   3.794   4.532
10415SOL    HW132144   1.211   3.856   4.455
10415SOL    HW232145   1.114   3.741   4.519
10416SOL     OW32146   6.213   0.121   4.729
10416SOL    HW132147   6.160   0.070   4.796
10416SOL    HW232148   6.168   0.116   4.639
10417SOL     OW32149   3.108   5.245   4.427
10417SOL    HW132150   3.146   5.334   4.452
10417SOL    HW232151   3.076   5.198   4.509
10418SOL     OW32152   0.028   4.901   6.712
10418SOL    HW132153   0.096   4.927   6.645
10418SOL    HW232154   6.991   4.978   6.730
10419SOL     OW32155   1.672   0.016   6.360
10419SOL    HW132156   1.638   0.018   6.454
10419SOL    HW232157   1.732   0.094   6.345
10420SOL     OW32158   6.926   4.142   2.715
10420SOL    HW132159   6.850   4.077   2.709
10420SOL    HW232160   6.949   4.174   2.623
10421SOL     OW32161   0.388   1.501   3.456
10421SOL    HW132162   0.433   1.590   3.461
10421SOL    HW232163   0.444   1.433   3.502
10422SOL     OW32164   6.350   3.365   5.472
10422SOL    HW132165   6.286   3.399   5.404
10422SOL    HW232166   6.310   3.373   5.563
10423SOL     OW32167   5.755   5.377   4.899
10423SOL    HW132168   5.726   5.283   4.916
10423SOL    HW232169   5.677   5.431   4.870
10424SOL     OW32170   5.814   2.613   0.599
10424SOL    HW132171   5.813   2.713   0.597
10424SOL    HW232172   5.879   2.581   0.668
10425SOL     OW32173   0.950   6.641   1.931
10425SOL    HW132174   1.003   6.569   1.976
10425SOL    HW232175   0.963   6.727   1.981
10426SOL     OW32176   0.090   5.010   0.417
10426SOL    HW132177   0.163   5.040   0.478
10426SOL    HW232178   0.011   4.983   0.471
10427SOL     OW32179   3.671   0.778   6.889
10427SOL    HW132180   3.584   0.732   6.869
10427SOL    HW232181   3.704   0.747   6.979
10428SOL     OW32182   3.017   1.193   4.249
10428SOL    HW132183   2.995   1.209   4.153
10428SOL    HW232184   2.983   1.270   4.304
10429SOL     OW32185   7.014   5.146   0.844
10429SOL    HW132186   7.013   5.048   0.823
10429SOL    HW232187   6.954   5.164   0.922
10430SOL     OW32188   4.856   6.224   3.795
10430SOL    HW132189   4.807   6.199   3.711
10430SOL    HW232190   4.882   6.320   3.790
10431SOL     OW32191   3.438   6.058   3.959
10431SOL    HW132192   3.453   6.151   3.993
10431SOL    HW232193   3.365   6.015   4.012
10432SOL     OW32194   6.079   6.753   4.319
10432SOL    HW132195   6.026   6.698   4.383
10432SOL    HW232196   6.106   6.839   4.364
10433SOL     OW32197   1.582   6.837   1.448
10433SOL    HW132198   1.569   6.751   1.399
10433SOL    HW232199   1.676   6.843   1.481
10434SOL     OW32200   4.188   0.112   3.475
10434SOL    HW132201   4.193   0.176   3.398
10434SOL    HW232202   4.215   0.158   3.559
10435SOL     OW32203   0.346   0.404   4.694
10435SOL    HW132204   0.278   0.392   4.621
10435SOL    HW232205   0.303   0.445   4.774
10436SOL     OW32206   0.793   5.506   6.203
10436SOL    HW132207   0.857   5.564   6.153
10436SOL    HW232208   0.817   5.410   6.190
10437SOL     OW32209   6.446   4.903   6.050
10437SOL    HW132210   6.523   4.851   6.086
10437SOL    HW232211   6.368   4.894   6.111
10438SOL     OW32212   5.772   6.429   0.695
10438SOL    HW132213   5.721   6.427   0.609
10438SOL    HW232214   5.863   6.391   0.681
10439SOL     OW32215   4.062   1.291   6.145
10439SOL    HW132216   4.047   1.225   6.219
10439SOL    HW232217   3.994   1.275   6.073
10440SOL     OW32218   1.359   6.246   0.397
10440SOL    HW132219   1.393   6.237   0.304
10440SOL    HW232220   1.331   6.156   0.431
10441SOL     OW32221   4.065   0.962   0.284
10441SOL    HW132222   4.162   0.975   0.264
10441SOL    HW232223   4.012   0.963   0.199
10442SOL     OW32224   3.852   6.364   5.775
10442SOL    HW132225   3.948   6.354   5.801
10442SOL    HW232226   3.846   6.398   5.681
10443SOL     OW32227   4.894   3.956   4.835
10443SOL    HW132228   4.839   3.982   4.914
10443SOL    HW232229   4.855   3.996   4.752
10444SOL     OW32230   3.581   6.688   4.411
10444SOL    HW132231   3.586   6.610   4.474
10444SOL    HW232232   3.554   6.770   4.462
10445SOL     OW32233   1.391   5.898   4.203
10445SOL    HW132234   1.363   5.947   4.285
10445SOL    HW232235   1.473   5.844   4.222
10446SOL     OW32236   0.764   2.843   5.914
10446SOL    HW132237   0.778   2.761   5.969
10446SOL    HW232238   0.674   2.882   5.935
10447SOL     OW32239   0.381   0.937   2.198
10447SOL    HW132240   0.353   1.028   2.226
10447SOL    HW232241   0.316   0.869   2.232
10448SOL     OW32242   3.817   2.161   1.590
10448SOL    HW132243   3.854   2.253   1.601
10448SOL    HW232244   3.779   2.129   1.677
10449SOL     OW32245   2.606   5.465   4.544
10449SOL    HW132246   2.512   5.496   4.531
10449SOL    HW232247   2.631   5.474   4.640
10450SOL     OW32248   1.031   2.751   0.633
10450SOL    HW132249   0.951   2.690   0.635
10450SOL    HW232250   1.093   2.726   0.708
10451SOL     OW32251   2.093   5.218   3.464
10451SOL    HW132252   2.057   5.240   3.555
10451SOL    HW232253   2.185   5.255   3.454
10452SOL     OW32254   6.009   3.468   3.363
10452SOL    HW132255   5.964   3.533   3.302
10452SOL    HW232256   6.061   3.517   3.433
10453SOL     OW32257   5.081   6.139   1.728
10453SOL    HW132258   5.176   6.109   1.735
10453SOL    HW232259   5.030   6.109   1.809
10454SOL     OW32260   4.134   3.033   1.045
10454SOL    HW132261   4.221   2.990   1.020
10454SOL    HW232262   4.071   2.964   1.079
10455SOL     OW32263   6.771   5.663   2.298
10455SOL    HW132264   6.797   5.650   2.202
10455SOL    HW232265   6.769   5.761   2.319
10456SOL     OW32266   3.099   6.266   1.613
10456SOL    HW132267   3.079   6.318   1.530
10456SOL    HW232268   3.027   6.198   1.627
10457SOL     OW32269   3.661   2.901   2.944
10457SOL    HW132270   3.619   2.861   2.863
10457SOL    HW232271   3.755   2.927   2.923
10458SOL     OW32272   0.119   0.718   6.604
10458SOL    HW132273   0.111   0.743   6.508
10458SOL    HW232274   0.089   0.793   6.662
10459SOL     OW32275   5.447   5.017   2.522
10459SOL    HW132276   5.385   4.939   2.533
10459SOL    HW232277   5.469   5.054   2.612
10460SOL     OW32278   1.720   5.796   1.305
10460SOL    HW132279   1.650   5.772   1.238
10460SOL    HW232280   1.810   5.786   1.263
10461SOL     OW32281   1.370   6.051   4.986
10461SOL    HW132282   1.319   6.026   5.069
10461SOL    HW232283   1.376   6.150   4.980
10462SOL     OW32284   5.446   2.104   2.636
10462SOL    HW132285   5.417   2.139   2.725
10462SOL    HW232286   5.484   2.012   2.647
10463SOL     OW32287   3.932   2.687   5.637
10463SOL    HW132288   3.955   2.729   5.725
10463SOL    HW232289   3.832   2.687   5.626
10464SOL     OW32290   5.269   0.175   0.901
10464SOL    HW132291   5.240   0.238   0.973
10464SOL    HW232292   5.312   0.095   0.943
10465SOL     OW32293   6.378   6.817   1.142
10465SOL    HW132294   6.442   6.863   1.080
10465SOL    HW232295   6.335   6.885   1.202
10466SOL     OW32296   4.362   5.111   4.938
10466SOL    HW132297   4.431   5.040   4.949
10466SOL    HW232298   4.358   5.139   4.842
10467SOL     OW32299   0.918   2.010   5.210
10467SOL    HW132300   0.837   2.032   5.265
10467SOL    HW232301   0.952   1.919   5.236
10468SOL     OW32302   3.264   5.137   3.058
10468SOL    HW132303   3.243   5.172   2.967
10468SOL    HW232304   3.207   5.184   3.126
10469SOL     OW32305   3.422   3.024   6.998
10469SOL    HW132306   3.508   3.043   0.020
10469SOL    HW232307   3.351   3.004   0.042
10470SOL     OW32308   2.224   1.581   3.133
10470SOL    HW132309   2.168   1.499   3.144
10470SOL    HW232310   2.293   1.565   3.062
10471SOL     OW32311   2.175   3.672   1.356
10471SOL    HW132312   2.208   3.590   1.308
10471SOL    HW232313   2.213   3.674   1.448
10472SOL     OW32314   3.358   6.401   1.062
10472SOL    HW132315   3.439   6.379   1.006
10472SOL    HW232316   3.377   6.482   1.117
10473SOL     OW32317   5.657   0.047   1.098
10473SOL    HW132318   5.573   0.022   1.050
10473SOL    HW232319   5.670   0.146   1.093
10474SOL     OW32320   4.669   0.583   5.033
10474SOL    HW132321   4.765   0.590   5.061
10474SOL    HW232322   4.664   0.542   4.942
10475SOL     OW32323   4.516   6.307   1.816
10475SOL    HW132324   4.490   6.211   1.820
10475SOL    HW232325   4.526   6.336   1.721
10476SOL     OW32326   0.479   5.515   6.412
10476SOL    HW132327   0.561   5.459   6.415
10476SOL    HW232328   0.406   5.470   6.463
10477SOL     OW32329   5.809   2.735   4.974
10477SOL    HW132330   5.907   2.727   4.955
10477SOL    HW232331   5.794   2.809   5.040
10478SOL     OW32332   0.455   0.506   0.286
10478SOL    HW132333   0.415   0.417   0.309
10478SOL    HW232334   0.439   0.526   0.190
10479SOL     OW32335   0.611   2.842   1.609
10479SOL    HW132336   0.620   2.744   1.592
10479SOL    HW232337   0.637   2.892   1.527
10480SOL     OW32338   6.081   0.626   1.082
10480SOL    HW132339   6.027   0.600   1.002
10480SOL    HW232340   6.178   0.618   1.061
10481SOL     OW32341   2.822   1.394   5.361
10481SOL    HW132342   2.731   1.372   5.397
10481SOL    HW232343   2.873   1.447   5.428
10482SOL     OW32344   0.666   5.996   4.877
10482SOL    HW132345   0.747   5.946   4.909
10482SOL    HW232346   0.602   5.931   4.835
10483SOL     OW32347   6.909   5.207   0.274
10483SOL    HW132348   6.863   5.293   0.295
10483SOL    HW232349   6.996   5.225   0.230
10484SOL     OW32350   6.713   0.322   0.397
10484SOL    HW132351   6.714   0.382   0.478
10484SOL    HW232352   6.767   0.364   0.324
10485SOL     OW32353   3.868   3.370   3.156
10485SOL    HW132354   3.935   3.305   3.120
10485SOL    HW232355   3.914   3.455   3.182
10486SOL     OW32356   6.344   0.882   5.778
10486SOL    HW132357   6.431   0.928   5.761
10486SOL    HW232358   6.308   0.910   5.867
10487SOL     OW32359   4.668   2.112   1.377
10487SOL    HW132360   4.681   2.021   1.418
10487SOL    HW232361   4.585   2.153   1.415
10488SOL     OW32362   1.613   2.311   5.811
10488SOL    HW132363   1.564   2.362   5.883
10488SOL    HW232364   1.579   2.340   5.722
10489SOL     OW32365   5.762   5.760   3.848
10489SOL    HW132366   5.845   5.766   3.792
10489SOL    HW232367   5.705   5.684   3.815
10490SOL     OW32368   5.664   0.740   0.237
10490SOL    HW132369   5.656   0.839   0.252
10490SOL    HW232370   5.750   0.721   0.190
10491SOL     OW32371   2.416   2.873   6.225
10491SOL    HW132372   2.434   2.778   6.197
10491SOL    HW232373   2.398   2.876   6.323
10492SOL     OW32374   3.892   5.928   0.755
10492SOL    HW132375   3.870   5.979   0.672
10492SOL    HW232376   3.809   5.913   0.809
10493SOL     OW32377   2.977   5.472   1.341
10493SOL    HW132378   2.930   5.425   1.266
10493SOL    HW232379   2.974   5.571   1.325
10494SOL     OW32380   0.260   4.512   5.960
10494SOL    HW132381   0.245   4.594   5.905
10494SOL    HW232382   0.248   4.430   5.903
10495SOL     OW32383   6.421   5.823   0.290
10495SOL    HW132384   6.478   5.863   0.218
10495SOL    HW232385   6.325   5.846   0.272
10496SOL     OW32386   6.423   4.339   5.188
10496SOL    HW132387   6.439   4.374   5.280
10496SOL    HW232388   6.373   4.407   5.135
10497SOL     OW32389   1.045   0.227   1.637
10497SOL    HW132390   0.956   0.270   1.653
10497SOL    HW232391   1.068   0.168   1.714
10498SOL     OW32392   5.292   5.881   1.345
10498SOL    HW132393   5.268   5.951   1.412
10498SOL    HW232394   5.225   5.881   1.271
10499SOL     OW32395   5.238   6.195   1.158
10499SOL    HW132396   5.273   6.225   1.247
10499SOL    HW232397   5.177   6.265   1.121
10500SOL     OW32398   5.100   3.128   5.243
10500SOL    HW132399   5.028   3.126   5.174
10500SOL    HW232400   5.158   3.209   5.229
10501SOL     OW32401   2.335   5.561   2.745
10501SOL    HW132402   2.369   5.509   2.666
10501SOL    HW232403   2.409   5.616   2.784
10502SOL     OW32404   3.233   3.297   1.331
10502SOL    HW132405   3.273   3.211   1.362
10502SOL    HW232406   3.161   3.325   1.395
10503SOL     OW32407   6.513   4.076   6.437
10503SOL    HW132408   6.417   4.047   6.441
10503SOL    HW232409   6.555   4.041   6.354
10504SOL     OW32410   0.664   2.563   5.954
10504SOL    HW132411   0.639   2.546   5.858
10504SOL    HW232412   0.584   2.593   6.005
10505SOL     OW32413   5.786   5.750   1.760
10505SOL    HW132414   5.764   5.782   1.852
10505SOL    HW232415   5.702   5.719   1.715
10506SOL     OW32416   0.559   3.427   0.090
10506SOL    HW132417   0.583   3.336   0.056
10506SOL    HW232418   0.628   3.457   0.156
10507SOL     OW32419   1.931   5.151   0.149
10507SOL    HW132420   1.962   5.075   0.206
10507SOL    HW232421   2.003   5.175   0.084
10508SOL     OW32422   1.201   5.634   3.666
10508SOL    HW132423   1.191   5.593   3.575
10508SOL    HW232424   1.209   5.561   3.734
10509SOL     OW32425   5.444   3.806   4.325
10509SOL    HW132426   5.459   3.882   4.262
10509SOL    HW232427   5.476   3.832   4.416
10510SOL     OW32428   4.596   6.680   6.469
10510SOL    HW132429   4.497   6.689   6.470
10510SOL    HW232430   4.621   6.589   6.437
10511SOL     OW32431   2.817   1.460   2.226
10511SOL    HW132432   2.807   1.521   2.148
10511SOL    HW232433   2.911   1.464   2.259
10512SOL     OW32434   4.072   6.923   5.613
10512SOL    HW132435   4.076   7.010   5.563
10512SOL    HW232436   4.155   6.912   5.668
10513SOL     OW32437   6.555   2.648   2.725
10513SOL    HW132438   6.481   2.674   2.663
10513SOL    HW232439   6.547   2.550   2.747
10514SOL     OW32440   1.553   1.828   1.127
10514SOL    HW132441   1.615   1.780   1.188
10514SOL    HW232442   1.497   1.762   1.077
10515SOL     OW32443   2.146   2.218   3.804
10515SOL    HW132444   2.105   2.148   3.746
10515SOL    HW232445   2.181   2.177   3.888
10516SOL     OW32446   2.721   1.929   0.299
10516SOL    HW132447   2.690   1.899   0.389
10516SOL    HW232448   2.820   1.938   0.298
10517SOL     OW32449   1.663   4.531   1.875
10517SOL    HW132450   1.754   4.529   1.835
10517SOL    HW232451   1.611   4.452   1.843
10518SOL     OW32452   0.196   5.218   1.962
10518SOL    HW132453   0.276   5.226   2.022
10518SOL    HW232454   0.210   5.143   1.897
10519SOL     OW32455   2.964   4.891   0.942
10519SOL    HW132456   3.035   4.821   0.934
10519SOL    HW232457   2.875   4.849   0.926
10520SOL     OW32458   6.839   1.894   6.300
10520SOL    HW132459   6.934   1.865   6.311
10520SOL    HW232460   6.835   1.993   6.287
10521SOL     OW32461   6.368   4.616   1.856
10521SOL    HW132462   6.437   4.686   1.839
10521SOL    HW232463   6.412   4.534   1.892
10522SOL     OW32464   0.329   2.276   3.141
10522SOL    HW132465   0.391   2.346   3.105
10522SOL    HW232466   0.238   2.315   3.152
10523SOL     OW32467   0.439   4.200   3.368
10523SOL    HW132468   0.420   4.119   3.423
10523SOL    HW232469   0.370   4.209   3.296
10524SOL     OW32470   0.054   5.915   3.598
10524SOL    HW132471   0.023   5.836   3.546
10524SOL    HW232472   6.999   5.959   3.641
10525SOL     OW32473   4.001   0.167   5.022
10525SOL    HW132474   4.069   0.152   4.951
10525SOL    HW232475   3.973   0.263   5.021
10526SOL     OW32476   0.329   6.352   1.136
10526SOL    HW132477   0.408   6.322   1.190
10526SOL    HW232478   0.357   6.426   1.074
10527SOL     OW32479   0.507   0.187   5.928
10527SOL    HW132480   0.436   0.174   5.859
10527SOL    HW232481   0.595   0.156   5.891
10528SOL     OW32482   0.893   3.862   6.715
10528SOL    HW132483   0.867   3.865   6.811
10528SOL    HW232484   0.822   3.816   6.662
10529SOL     OW32485   1.650   6.085   4.878
10529SOL    HW132486   1.661   6.073   4.779
10529SOL    HW232487   1.563   6.045   4.907
10530SOL     OW32488   1.188   6.357   5.927
10530SOL    HW132489   1.277   6.335   5.887
10530SOL    HW232490   1.148   6.273   5.964
10531SOL     OW32491   2.577   2.323   4.257
10531SOL    HW132492   2.564   2.235   4.211
10531SOL    HW232493   2.607   2.307   4.351
10532SOL     OW32494   5.823   6.711   6.917
10532SOL    HW132495   5.738   6.680   6.875
10532SOL    HW232496   5.868   6.634   6.962
10533SOL     OW32497   3.341   5.799   4.260
10533SOL    HW132498   3.379   5.752   4.340
10533SOL    HW232499   3.387   5.766   4.177
10534SOL     OW32500   0.149   5.808   2.139
10534SOL    HW132501   0.077   5.870   2.109
10534SOL    HW232502   0.158   5.811   2.238
10535SOL     OW32503   2.307   1.484   1.596
10535SOL    HW132504   2.350   1.557   1.650
10535SOL    HW232505   2.251   1.525   1.524
10536SOL     OW32506   4.382   6.991   4.079
10536SOL    HW132507   4.474   0.006   4.090
10536SOL    HW232508   4.368   6.967   3.983
10537SOL     OW32509   5.056   6.444   3.554
10537SOL    HW132510   5.107   6.360   3.568
10537SOL    HW232511   5.079   6.482   3.464
10538SOL     OW32512   5.703   3.901   2.519
10538SOL    HW132513   5.733   3.925   2.611
10538SOL    HW232514   5.756   3.824   2.485
10539SOL     OW32515   6.341   5.341   1.667
10539SOL    HW132516   6.272   5.406   1.697
10539SOL    HW232517   6.372   5.286   1.746
10540SOL     OW32518   2.394   4.105   6.142
10540SOL    HW132519   2.342   4.032   6.098
10540SOL    HW232520   2.384   4.098   6.241
10541SOL     OW32521   3.606   2.898   4.089
10541SOL    HW132522   3.692   2.878   4.041
10541SOL    HW232523   3.530   2.896   4.024
10542SOL     OW32524   6.866   0.145   4.290
10542SOL    HW132525   6.872   0.057   4.243
10542SOL    HW232526   6.781   0.148   4.344
10543SOL     OW32527   0.186   2.452   5.442
10543SOL    HW132528   0.152   2.539   5.477
10543SOL    HW232529   0.109   2.391   5.423
10544SOL     OW32530   1.931   6.813   3.693
10544SOL    HW132531   2.018   6.851   3.724
10544SOL    HW232532   1.855   6.857   3.741
10545SOL     OW32533   0.985   3.026   2.222
10545SOL    HW132534   1.072   3.071   2.201
10545SOL    HW232535   0.980   3.007   2.320
10546SOL     OW32536   3.360   6.266   1.373
10546SOL    HW132537   3.414   6.340   1.334
10546SOL    HW232538   3.373   6.264   1.472
10547SOL     OW32539   4.842   0.933   4.390
10547SOL    HW132540   4.927   0.970   4.427
10547SOL    HW232541   4.860   0.887   4.303
10548SOL     OW32542   0.704   4.452   4.709
10548SOL    HW132543   0.798   4.439   4.678
10548SOL    HW232544   0.648   4.375   4.677
10549SOL     OW32545   0.175   1.536   0.707
10549SOL    HW132546   0.200   1.604   0.638
10549SOL    HW232547   0.076   1.541   0.724
10550SOL     OW32548   3.781   6.631   2.893
10550SOL    HW132549   3.758   6.597   2.984
10550SOL    HW232550   3.756   6.728   2.887
10551SOL     OW32551   2.643   1.608   6.356
10551SOL    HW132552   2.613   1.516   6.330
10551SOL    HW232553   2.697   1.647   6.282
10552SOL     OW32554   2.400   0.720   5.074
10552SOL    HW132555   2.424   0.724   4.977
10552SOL    HW232556   2.315   0.668   5.085
10553SOL     OW32557   6.752   4.424   1.008
10553SOL    HW132558   6.847   4.393   1.004
10553SOL    HW232559   6.748   4.514   1.052
10554SOL     OW32560   5.751   4.911   2.099
10554SOL    HW132561   5.758   4.811   2.098
10554SOL    HW232562   5.655   4.938   2.097
10555SOL     OW32563   3.036   2.481   0.535
10555SOL    HW132564   2.952   2.520   0.573
10555SOL    HW232565   3.054   2.522   0.446
10556SOL     OW32566   2.426   1.525   3.515
10556SOL    HW132567   2.505   1.561   3.565
10556SOL    HW232568   2.458   1.466   3.441
10557SOL     OW32569   1.741   3.177   4.534
10557SOL    HW132570   1.645   3.164   4.558
10557SOL    HW232571   1.799   3.131   4.601
10558SOL     OW32572   3.155   4.792   5.854
10558SOL    HW132573   3.106   4.872   5.890
10558SOL    HW232574   3.090   4.731   5.808
10559SOL     OW32575   3.438   1.104   0.635
10559SOL    HW132576   3.520   1.149   0.670
10559SOL    HW232577   3.405   1.037   0.701
10560SOL     OW32578   4.298   6.443   1.996
10560SOL    HW132579   4.295   6.437   2.096
10560SOL    HW232580   4.375   6.389   1.961
10561SOL     OW32581   4.015   4.907   1.741
10561SOL    HW132582   3.921   4.872   1.740
10561SOL    HW232583   4.014   5.005   1.722
10562SOL     OW32584   3.252   6.166   0.779
10562SOL    HW132585   3.216   6.095   0.719
10562SOL    HW232586   3.178   6.226   0.809
10563SOL     OW32587   0.985   0.600   1.191
10563SOL    HW132588   1.024   0.669   1.251
10563SOL    HW232589   1.052   0.574   1.121
10564SOL     OW32590   6.341   5.655   3.890
10564SOL    HW132591   6.417   5.709   3.925
10564SOL    HW232592   6.275   5.715   3.846
10565SOL     OW32593   6.584   6.757   5.569
10565SOL    HW132594   6.656   6.789   5.631
10565SOL    HW232595   6.580   6.817   5.489
10566SOL     OW32596   3.132   2.866   0.381
10566SOL    HW132597   3.127   2.776   0.339
10566SOL    HW232598   3.052   2.920   0.354
10567SOL     OW32599   1.749   2.525   5.612
10567SOL    HW132600   1.722   2.617   5.583
10567SOL    HW232601   1.680   2.460   5.583
10568SOL     OW32602   6.050   2.588   6.705
10568SOL    HW132603   5.987   2.512   6.688
10568SOL    HW232604   6.005   2.675   6.681
10569SOL     OW32605   5.209   1.159   1.879
10569SOL    HW132606   5.212   1.227   1.952
10569SOL    HW232607   5.153   1.193   1.804
10570SOL     OW32608   1.874   4.915   4.079
10570SOL    HW132609   1.922   4.882   4.161
10570SOL    HW232610   1.850   5.011   4.091
10571SOL     OW32611   0.476   4.362   6.237
10571SOL    HW132612   0.524   4.301   6.173
10571SOL    HW232613   0.480   4.456   6.203
10572SOL     OW32614   6.963   4.703   1.876
10572SOL    HW132615   0.007   4.663   1.937
10572SOL    HW232616   6.877   4.715   1.925
10573SOL     OW32617   4.852   0.419   5.206
10573SOL    HW132618   4.868   0.342   5.267
10573SOL    HW232619   4.856   0.388   5.111
10574SOL     OW32620   6.762   0.868   4.048
10574SOL    HW132621   6.723   0.855   4.140
10574SOL    HW232622   6.837   0.934   4.052
10575SOL     OW32623   5.615   0.509   3.851
10575SOL    HW132624   5.524   0.478   3.822
10575SOL    HW232625   5.667   0.538   3.771
10576SOL     OW32626   1.193   5.260   2.726
10576SOL    HW132627   1.274   5.246   2.670
10576SOL    HW232628   1.133   5.180   2.718
10577SOL     OW32629   2.492   5.735   0.491
10577SOL    HW132630   2.453   5.791   0.418
10577SOL    HW232631   2.497   5.640   0.461
10578SOL     OW32632   5.523   1.498   3.585
10578SOL    HW132633   5.526   1.407   3.545
10578SOL    HW232634   5.480   1.562   3.521
10579SOL     OW32635   2.953   3.675   1.384
10579SOL    HW132636   2.994   3.625   1.460
10579SOL    HW232637   2.896   3.750   1.420
10580SOL     OW32638   6.264   6.488   6.047
10580SOL    HW132639   6.249   6.582   6.076
10580SOL    HW232640   6.326   6.442   6.110
10581SOL     OW32641   4.786   0.021   2.602
10581SOL    HW132642   4.839   0.072   2.670
10581SOL    HW232643   4.716   6.991   2.648
10582SOL     OW32644   5.435   4.946   6.927
10582SOL    HW132645   5.468   4.966   7.019
10582SOL    HW232646   5.500   4.886   6.880
10583SOL     OW32647   3.752   0.146   4.088
10583SOL    HW132648   3.703   0.097   4.160
10583SOL    HW232649   3.795   0.227   4.126
10584SOL     OW32650   6.195   0.350   6.757
10584SOL    HW132651   6.206   0.254   6.730
10584SOL    HW232652   6.118   0.390   6.707
10585SOL     OW32653   1.698   1.865   6.006
10585SOL    HW132654   1.666   1.921   5.929
10585SOL    HW232655   1.669   1.770   5.992
10586SOL     OW32656   4.711   4.804   5.674
10586SOL    HW132657   4.810   4.816   5.681
10586SOL    HW232658   4.686   4.715   5.713
10587SOL     OW32659   0.406   5.826   6.077
10587SOL    HW132660   0.413   5.902   6.141
10587SOL    HW232661   0.469   5.754   6.104
10588SOL     OW32662   2.052   2.241   5.159
10588SOL    HW132663   2.088   2.163   5.210
10588SOL    HW232664   1.959   2.261   5.190
10589SOL     OW32665   5.244   6.217   4.174
10589SOL    HW132666   5.258   6.162   4.091
10589SOL    HW232667   5.161   6.270   4.166
10590SOL     OW32668   0.430   5.548   1.851
10590SOL    HW132669   0.382   5.516   1.770
10590SOL    HW232670   0.516   5.591   1.824
10591SOL     OW32671   2.111   1.547   1.419
10591SOL    HW132672   2.026   1.512   1.457
10591SOL    HW232673   2.122   1.514   1.325
10592SOL     OW32674   5.706   2.561   4.316
10592SOL    HW132675   5.745   2.470   4.326
10592SOL    HW232676   5.754   2.625   4.377
10593SOL     OW32677   1.369   6.321   0.834
10593SOL    HW132678   1.350   6.237   0.784
10593SOL    HW232679   1.411   6.388   0.772
10594SOL     OW32680   3.929   1.259   3.419
10594SOL    HW132681   3.873   1.275   3.338
10594SOL    HW232682   3.872   1.267   3.501
10595SOL     OW32683   6.144   0.721   0.337
10595SOL    HW132684   6.234   0.691   0.304
10595SOL    HW232685   6.077   0.715   0.263
10596SOL     OW32686   4.951   1.575   6.863
10596SOL    HW132687   5.012   1.626   6.802
10596SOL    HW232688   4.884   1.638   6.903
10597SOL     OW32689   2.738   0.867   6.118
10597SOL    HW132690   2.774   0.953   6.082
10597SOL    HW232691   2.680   0.825   6.048
10598SOL     OW32692   2.732   2.136   6.781
10598SOL    HW132693   2.779   2.222   6.761
10598SOL    HW232694   2.672   2.148   6.860
10599SOL     OW32695   6.615   4.478   6.203
10599SOL    HW132696   6.524   4.519   6.196
10599SOL    HW232697   6.624   4.431   6.290
10600SOL     OW32698   3.963   0.973   1.423
10600SOL    HW132699   3.940   0.912   1.347
10600SOL    HW232700   3.983   1.064   1.386
10601SOL     OW32701   0.477   5.761   5.231
10601SOL    HW132702   0.445   5.717   5.315
10601SOL    HW232703   0.549   5.706   5.190
10602SOL     OW32704   0.964   0.825   0.911
10602SOL    HW132705   0.873   0.845   0.947
10602SOL    HW232706   0.996   0.903   0.857
10603SOL     OW32707   4.569   6.796   2.574
10603SOL    HW132708   4.637   6.734   2.536
10603SOL    HW232709   4.564   6.879   2.517
10604SOL     OW32710   0.378   6.376   5.069
10604SOL    HW132711   0.321   6.294   5.068
10604SOL    HW232712   0.321   6.456   5.085
10605SOL     OW32713   1.619   0.136   6.940
10605SOL    HW132714   1.678   0.199   6.889
10605SOL    HW232715   1.651   0.043   6.926
10606SOL     OW32716   0.057   0.517   1.583
10606SOL    HW132717   0.055   0.521   1.683
10606SOL    HW232718   0.006   0.594   1.545
10607SOL     OW32719   4.183   4.292   0.272
10607SOL    HW132720   4.246   4.221   0.241
10607SOL    HW232721   4.163   4.279   0.369
10608SOL     OW32722   6.412   3.490   3.369
10608SOL    HW132723   6.447   3.539   3.289
10608SOL    HW232724   6.434   3.393   3.361
10609SOL     OW32725   2.811   6.430   0.499
10609SOL    HW132726   2.805   6.463   0.404
10609SOL    HW232727   2.894   6.467   0.542
10610SOL     OW32728   6.701   2.649   4.622
10610SOL    HW132729   6.707   2.581   4.549
10610SOL    HW232730   6.772   2.718   4.609
10611SOL     OW32731   2.760   5.436   5.396
10611SOL    HW132732   2.675   5.451   5.446
10611SOL    HW232733   2.785   5.520   5.348
10612SOL     OW32734   5.230   1.194   4.321
10612SOL    HW132735   5.320   1.227   4.291
10612SOL    HW232736   5.160   1.262   4.297
10613SOL     OW32737   5.562   6.049   4.457
10613SOL    HW132738   5.536   6.110   4.382
10613SOL    HW232739   5.533   6.087   4.544
10614SOL     OW32740   5.505   1.047   4.935
10614SOL    HW132741   5.593   1.091   4.953
10614SOL    HW232742   5.432   1.098   4.982
10615SOL     OW32743   3.893   1.277   5.673
10615SOL    HW132744   3.843   1.228   5.601
10615SOL    HW232745   3.991   1.260   5.663
10616SOL     OW32746   2.538   6.171   6.426
10616SOL    HW132747   2.446   6.202   6.403
10616SOL    HW232748   2.595   6.249   6.452
10617SOL     OW32749   2.128   4.637   1.743
10617SOL    HW132750   2.187   4.575   1.692
10617SOL    HW232751   2.164   4.730   1.737
10618SOL     OW32752   0.715   5.235   4.993
10618SOL    HW132753   0.751   5.316   5.038
10618SOL    HW232754   0.790   5.175   4.966
10619SOL     OW32755   0.606   2.380   3.150
10619SOL    HW132756   0.591   2.290   3.189
10619SOL    HW232757   0.619   2.447   3.224
10620SOL     OW32758   1.493   0.173   5.426
10620SOL    HW132759   1.395   0.180   5.407
10620SOL    HW232760   1.536   0.262   5.413
10621SOL     OW32761   0.679   4.396   2.123
10621SOL    HW132762   0.770   4.433   2.145
10621SOL    HW232763   0.689   4.304   2.085
10622SOL     OW32764   4.326   2.361   1.266
10622SOL    HW132765   4.369   2.449   1.287
10622SOL    HW232766   4.394   2.299   1.228
10623SOL     OW32767   5.986   6.091   5.175
10623SOL    HW132768   5.998   6.045   5.263
10623SOL    HW232769   6.054   6.164   5.167
10624SOL     OW32770   0.316   3.263   4.766
10624SOL    HW132771   0.264   3.334   4.814
10624SOL    HW232772   0.254   3.192   4.734
10625SOL     OW32773   0.420   3.825   1.369
10625SOL    HW132774   0.409   3.785   1.460
10625SOL    HW232775   0.517   3.837   1.349
10626SOL     OW32776   3.481   2.977   1.697
10626SOL    HW132777   3.417   2.900   1.687
10626SOL    HW232778   3.554   2.952   1.760
10627SOL     OW32779   6.213   0.989   6.399
10627SOL    HW132780   6.309   1.009   6.421
10627SOL    HW232781   6.160   1.074   6.403
10628SOL     OW32782   4.360   0.122   0.653
10628SOL    HW132783   4.426   0.068   0.706
10628SOL    HW232784   4.307   0.060   0.595
10629SOL     OW32785   3.341   4.956   4.914
10629SOL    HW132786   3.334   5.051   4.944
10629SOL    HW232787   3.266   4.936   4.851
10630SOL     OW32788   5.468   0.949   2.407
10630SOL    HW132789   5.436   0.901   2.489
10630SOL    HW232790   5.389   0.972   2.350
10631SOL     OW32791   4.288   4.399   5.737
10631SOL    HW132792   4.331   4.480   5.775
10631SOL    HW232793   4.348   4.358   5.668
10632SOL     OW32794   5.299   5.707   3.148
10632SOL    HW132795   5.303   5.707   3.248
10632SOL    HW232796   5.354   5.782   3.112
10633SOL     OW32797   2.583   2.415   2.028
10633SOL    HW132798   2.678   2.387   2.046
10633SOL    HW232799   2.583   2.485   1.956
10634SOL     OW32800   1.427   5.555   0.640
10634SOL    HW132801   1.493   5.496   0.593
10634SOL    HW232802   1.445   5.554   0.738
10635SOL     OW32803   2.316   3.262   0.292
10635SOL    HW132804   2.362   3.247   0.205
10635SOL    HW232805   2.217   3.260   0.278
10636SOL     OW32806   6.912   1.764   1.273
10636SOL    HW132807   6.899   1.861   1.249
10636SOL    HW232808   6.871   1.707   1.201
10637SOL     OW32809   1.663   5.710   6.133
10637SOL    HW132810   1.612   5.690   6.216
10637SOL    HW232811   1.740   5.645   6.124
10638SOL     OW32812   5.687   6.209   2.211
10638SOL    HW132813   5.760   6.206   2.142
10638SOL    HW232814   5.680   6.120   2.255
10639SOL     OW32815   1.812   3.491   2.104
10639SOL    HW132816   1.793   3.479   2.006
10639SOL    HW232817   1.904   3.457   2.124
10640SOL     OW32818   4.979   0.411   3.172
10640SOL    HW132819   4.937   0.498   3.200
10640SOL    HW232820   5.072   0.406   3.208
10641SOL     OW32821   1.969   1.430   3.998
10641SOL    HW132822   1.986   1.442   4.095
10641SOL    HW232823   2.043   1.473   3.946
10642SOL     OW32824   6.126   1.998   0.332
10642SOL    HW132825   6.071   1.939   0.274
10642SOL    HW232826   6.207   1.947   0.364
10643SOL     OW32827   2.141   6.363   4.480
10643SOL    HW132828   2.209   6.331   4.414
10643SOL    HW232829   2.166   6.455   4.511
10644SOL     OW32830   5.666   3.384   1.053
10644SOL    HW132831   5.734   3.316   1.027
10644SOL    HW232832   5.710   3.472   1.070
10645SOL     OW32833   2.449   2.593   3.673
10645SOL    HW132834   2.428   2.681   3.715
10645SOL    HW232835   2.365   2.551   3.640
10646SOL     OW32836   5.970   0.797   5.722
10646SOL    HW132837   5.879   0.795   5.680
10646SOL    HW232838   5.994   0.891   5.744
10647SOL     OW32839   3.152   5.234   4.913
10647SOL    HW132840   3.102   5.234   4.827
10647SOL    HW232841   3.242   5.276   4.899
10648SOL     OW32842   6.079   5.624   6.684
10648SOL    HW132843   6.155   5.613   6.749
10648SOL    HW232844   6.002   5.569   6.714
10649SOL     OW32845   1.003   3.524   3.444
10649SOL    HW132846   1.100   3.529   3.466
10649SOL    HW232847   0.991   3.478   3.355
10650SOL     OW32848   0.581   0.097   4.323
10650SOL    HW132849   0.578   0.079   4.225
10650SOL    HW232850   0.655   0.044   4.364
10651SOL     OW32851   6.068   6.082   6.568
10651SOL    HW132852   6.041   5.991   6.535
10651SOL    HW232853   5.995   6.147   6.548
10652SOL     OW32854   1.975   6.962   5.611
10652SOL    HW132855   2.052   6.930   5.556
10652SOL    HW232856   1.895   6.905   5.592
10653SOL     OW32857   3.787   5.905   5.065
10653SOL    HW132858   3.703   5.894   5.118
10653SOL    HW232859   3.866   5.898   5.126
10654SOL     OW32860   5.137   0.844   5.511
10654SOL    HW132861   5.155   0.802   5.422
10654SOL    HW232862   5.046   0.885   5.510
10655SOL     OW32863   1.394   4.363   0.627
10655SOL    HW132864   1.365   4.299   0.555
10655SOL    HW232865   1.493   4.363   0.633
10656SOL     OW32866   6.511   1.339   2.484
10656SOL    HW132867   6.527   1.263   2.421
10656SOL    HW232868   6.450   1.310   2.557
10657SOL     OW32869   6.306   0.636   4.722
10657SOL    HW132870   6.218   0.675   4.696
10657SOL    HW232871   6.375   0.663   4.655
10658SOL     OW32872   6.284   4.282   4.909
10658SOL    HW132873   6.336   4.366   4.924
10658SOL    HW232874   6.342   4.215   4.864
10659SOL     OW32875   0.887   4.486   0.770
10659SOL    HW132876   0.978   4.508   0.733
10659SOL    HW232877   0.845   4.415   0.714
10660SOL     OW32878   5.983   4.119   5.340
10660SOL    HW132879   5.974   4.028   5.298
10660SOL    HW232880   5.907   4.132   5.405
10661SOL     OW32881   1.668   5.861   0.610
10661SOL    HW132882   1.665   5.928   0.684
10661SOL    HW232883   1.715   5.779   0.641
10662SOL     OW32884   4.258   0.889   2.432
10662SOL    HW132885   4.344   0.940   2.433
10662SOL    HW232886   4.182   0.953   2.425
10663SOL     OW32887   0.754   1.244   2.676
10663SOL    HW132888   0.683   1.245   2.747
10663SOL    HW232889   0.830   1.303   2.703
10664SOL     OW32890   6.658   4.598   5.402
10664SOL    HW132891   6.696   4.540   5.330
10664SOL    HW232892   6.595   4.665   5.362
10665SOL     OW32893   2.095   2.321   6.951
10665SOL    HW132894   2.004   2.351   6.979
10665SOL    HW232895   2.100   2.221   6.956
10666SOL     OW32896   3.126   4.074   2.591
10666SOL    HW132897   3.199   4.096   2.655
10666SOL    HW232898   3.043   4.052   2.641
10667SOL     OW32899   4.785   1.675   4.067
10667SOL    HW132900   4.791   1.742   4.142
10667SOL    HW232901   4.748   1.590   4.102
10668SOL     OW32902   3.243   1.285   4.910
10668SOL    HW132903   3.252   1.223   4.832
10668SOL    HW232904   3.198   1.236   4.985
10669SOL     OW32905   6.335   0.546   1.024
10669SOL    HW132906   6.408   0.558   1.091
10669SOL    HW232907   6.328   0.450   0.999
10670SOL     OW32908   5.909   4.934   4.755
10670SOL    HW132909   5.936   4.936   4.852
10670SOL    HW232910   5.916   4.841   4.720
10671SOL     OW32911   1.714   1.779   4.349
10671SOL    HW132912   1.656   1.746   4.275
10671SOL    HW232913   1.671   1.857   4.393
10672SOL     OW32914   6.560   4.179   2.132
10672SOL    HW132915   6.577   4.248   2.062
10672SOL    HW232916   6.502   4.218   2.204
10673SOL     OW32917   0.924   0.231   0.671
10673SOL    HW132918   1.012   0.272   0.646
10673SOL    HW232919   0.938   0.136   0.697
10674SOL     OW32920   3.924   3.659   4.329
10674SOL    HW132921   3.992   3.596   4.366
10674SOL    HW232922   3.917   3.647   4.230
10675SOL     OW32923   2.557   0.269   6.517
10675SOL    HW132924   2.607   0.349   6.485
10675SOL    HW232925   2.473   0.259   6.463
10676SOL     OW32926   0.378   6.559   4.723
10676SOL    HW132927   0.306   6.627   4.719
10676SOL    HW232928   0.437   6.576   4.802
10677SOL     OW32929   1.954   0.693   1.386
10677SOL    HW132930   1.916   0.692   1.294
10677SOL    HW232931   2.053   0.676   1.381
10678SOL     OW32932   4.246   4.967   3.888
10678SOL    HW132933   4.294   4.921   3.964
10678SOL    HW232934   4.159   4.920   3.872
10679SOL     OW32935   3.346   5.599   6.306
10679SOL    HW132936   3.275   5.531   6.323
10679SOL    HW232937   3.401   5.611   6.390
10680SOL     OW32938   3.801   1.993   3.689
10680SOL    HW132939   3.882   2.036   3.728
10680SOL    HW232940   3.746   1.953   3.762
10681SOL     OW32941   6.608   3.869   0.416
10681SOL    HW132942   6.594   3.777   0.452
10681SOL    HW232943   6.569   3.875   0.324
10682SOL     OW32944   6.892   2.580   5.273
10682SOL    HW132945   6.954   2.627   5.337
10682SOL    HW232946   6.801   2.621   5.280
10683SOL     OW32947   4.745   0.668   3.817
10683SOL    HW132948   4.744   0.748   3.876
10683SOL    HW232949   4.666   0.610   3.837
10684SOL     OW32950   4.135   5.054   2.526
10684SOL    HW132951   4.152   4.967   2.481
10684SOL    HW232952   4.130   5.040   2.625
10685SOL     OW32953   0.219   5.683   1.186
10685SOL    HW132954   0.241   5.775   1.154
10685SOL    HW232955   0.235   5.678   1.285
10686SOL     OW32956   1.432   4.110   5.975
10686SOL    HW132957   1.410   4.200   5.940
10686SOL    HW232958   1.348   4.055   5.982
10687SOL     OW32959   6.328   5.128   4.204
10687SOL    HW132960   6.281   5.066   4.267
10687SOL    HW232961   6.385   5.075   4.141
10688SOL     OW32962   5.916   3.287   3.004
10688SOL    HW132963   5.942   3.224   2.931
10688SOL    HW232964   5.998   3.313   3.056
10689SOL     OW32965   6.194   0.357   2.350
10689SOL    HW132966   6.156   0.448   2.365
10689SOL    HW232967   6.292   0.357   2.373
10690SOL     OW32968   0.336   5.313   3.524
10690SOL    HW132969   0.398   5.254   3.473
10690SOL    HW232970   0.302   5.386   3.465
10691SOL     OW32971   1.850   1.827   2.078
10691SOL    HW132972   1.881   1.893   2.147
10691SOL    HW232973   1.836   1.874   1.991
10692SOL     OW32974   2.385   0.525   3.457
10692SOL    HW132975   2.410   0.439   3.412
10692SOL    HW232976   2.392   0.513   3.556
10693SOL     OW32977   1.623   6.081   1.302
10693SOL    HW132978   1.679   6.153   1.344
10693SOL    HW232979   1.678   5.999   1.290
10694SOL     OW32980   5.352   5.931   6.868
10694SOL    HW132981   5.371   6.001   6.937
10694SOL    HW232982   5.437   5.882   6.847
10695SOL     OW32983   1.515   2.337   2.674
10695SOL    HW132984   1.532   2.348   2.576
10695SOL    HW232985   1.444   2.401   2.702
10696SOL     OW32986   6.356   4.118   3.792
10696SOL    HW132987   6.429   4.068   3.745
10696SOL    HW232988   6.317   4.060   3.864
10697SOL     OW32989   0.283   0.290   5.622
10697SOL    HW132990   0.338   0.211   5.649
10697SOL    HW232991   0.236   0.326   5.703
10698SOL     OW32992   4.857   4.728   0.104
10698SOL    HW132993   4.904   4.787   0.169
10698SOL    HW232994   4.898   4.637   0.104
10699SOL     OW32995   3.736   4.833   1.686
10699SOL    HW132996   3.729   4.734   1.676
10699SOL    HW232997   3.781   4.871   1.604
10700SOL     OW32998   5.472   6.165   0.507
10700SOL    HW132999   5.483   6.066   0.516
10700SOL    HW233000   5.407   6.197   0.576
10701SOL     OW33001   2.197   6.471   5.473
10701SOL    HW133002   2.213   6.450   5.569
10701SOL    HW233003   2.186   6.385   5.422
10702SOL     OW33004   5.889   3.060   2.362
10702SOL    HW133005   5.810   3.099   2.409
10702SOL    HW233006   5.966   3.055   2.426
10703SOL     OW33007   2.719   2.955   5.388
10703SOL    HW133008   2.655   3.002   5.328
10703SOL    HW233009   2.798   2.925   5.335
10704SOL     OW33010   6.337   4.871   2.022
10704SOL    HW133011   6.288   4.803   1.968
10704SOL    HW233012   6.426   4.889   1.980
10705SOL     OW33013   6.532   4.993   1.479
10705SOL    HW133014   6.605   5.056   1.507
10705SOL    HW233015   6.471   5.039   1.415
10706SOL     OW33016   4.741   0.374   2.956
10706SOL    HW133017   4.660   0.318   2.943
10706SOL    HW233018   4.800   0.332   3.026
10707SOL     OW33019   0.382   6.576   4.247
10707SOL    HW133020   0.451   6.628   4.195
10707SOL    HW233021   0.365   6.489   4.201
10708SOL     OW33022   3.798   1.398   1.173
10708SOL    HW133023   3.798   1.482   1.227
10708SOL    HW233024   3.857   1.409   1.093
10709SOL     OW33025   5.593   5.981   5.564
10709SOL    HW133026   5.662   6.043   5.527
10709SOL    HW233027   5.636   5.917   5.627
10710SOL     OW33028   6.398   0.951   4.313
10710SOL    HW133029   6.428   1.002   4.233
10710SOL    HW233030   6.299   0.938   4.310
10711SOL     OW33031   1.964   6.396   3.822
10711SOL    HW133032   1.892   6.447   3.867
10711SOL    HW233033   2.052   6.418   3.864
10712SOL     OW33034   2.699   0.804   1.864
10712SOL    HW133035   2.690   0.805   1.764
10712SOL    HW233036   2.609   0.816   1.905
10713SOL     OW33037   0.819   3.611   0.911
10713SOL    HW133038   0.812   3.515   0.938
10713SOL    HW233039   0.751   3.664   0.960
10714SOL     OW33040   5.394   3.815   5.291
10714SOL    HW133041   5.326   3.744   5.307
10714SOL    HW233042   5.421   3.857   5.378
10715SOL     OW33043   4.552   0.542   2.332
10715SOL    HW133044   4.557   0.603   2.411
10715SOL    HW233045   4.489   0.467   2.352
10716SOL     OW33046   5.765   1.913   3.960
10716SOL    HW133047   5.667   1.907   3.944
10716SOL    HW233048   5.794   2.008   3.950
10717SOL     OW33049   1.032   2.389   1.472
10717SOL    HW133050   0.950   2.445   1.481
10717SOL    HW233051   1.052   2.374   1.375
10718SOL     OW33052   0.794   3.700   6.987
10718SOL    HW133053   0.796   3.634   0.039
10718SOL    HW233054   0.849   3.780   7.011
10719SOL     OW33055   6.989   5.710   2.595
10719SOL    HW133056   6.976   5.611   2.590
10719SOL    HW233057   6.901   5.754   2.608
10720SOL     OW33058   0.471   4.609   5.439
10720SOL    HW133059   0.459   4.527   5.383
10720SOL    HW233060   0.382   4.639   5.473
10721SOL     OW33061   5.231   3.846   4.786
10721SOL    HW133062   5.308   3.907   4.805
10721SOL    HW233063   5.261   3.751   4.794
10722SOL     OW33064   1.148   5.367   6.667
10722SOL    HW133065   1.227   5.361   6.606
10722SOL    HW233066   1.147   5.457   6.710
10723SOL     OW33067   0.690   3.240   6.304
10723SOL    HW133068   0.709   3.323   6.252
10723SOL    HW233069   0.758   3.170   6.281
10724SOL     OW33070   6.594   1.620   0.109
10724SOL    HW133071   6.669   1.589   0.051
10724SOL    HW233072   6.621   1.703   0.157
10725SOL     OW33073   1.463   5.641   4.452
10725SOL    HW133074   1.481   5.668   4.547
10725SOL    HW233075   1.426   5.548   4.450
10726SOL     OW33076   5.332   0.322   4.776
10726SOL    HW133077   5.361   0.372   4.858
10726SOL    HW233078   5.413   0.289   4.727
10727SOL     OW33079   0.448   5.035   5.318
10727SOL    HW133080   0.384   5.111   5.333
10727SOL    HW233081   0.530   5.049   5.374
10728SOL     OW33082   0.475   6.107   6.513
10728SOL    HW133083   0.437   6.168   6.583
10728SOL    HW233084   0.555   6.150   6.472
10729SOL     OW33085   5.241   1.675   2.197
10729SOL    HW133086   5.156   1.660   2.147
10729SOL    HW233087   5.223   1.729   2.279
10730SOL     OW33088   1.906   1.058   1.013
10730SOL    HW133089   1.839   1.021   1.077
10730SOL    HW233090   1.997   1.052   1.053
10731SOL     OW33091   3.288   6.774   0.969
10731SOL    HW133092   3.204   6.737   0.929
10731SOL    HW233093   3.358   6.781   0.898
10732SOL     OW33094   6.449   4.651   4.553
10732SOL    HW133095   6.516   4.711   4.508
10732SOL    HW233096   6.484   4.558   4.554
10733SOL     OW33097   6.145   2.036   1.056
10733SOL    HW133098   6.072   2.024   0.988
10733SOL    HW233099   6.189   1.948   1.072
10734SOL     OW33100   0.430   0.550   0.033
10734SOL    HW133101   0.518   0.510   0.004
10734SOL    HW233102   0.393   0.606   6.984
10735SOL     OW33103   0.670   2.611   3.293
10735SOL    HW133104   0.667   2.606   3.393
10735SOL    HW233105   0.610   2.685   3.262
10736SOL     OW33106   0.608   0.501   3.363
10736SOL    HW133107   0.572   0.448   3.286
10736SOL    HW233108   0.551   0.582   3.376
10737SOL     OW33109   1.686   1.858   0.870
10737SOL    HW133110   1.779   1.889   0.890
10737SOL    HW233111   1.639   1.837   0.955
10738SOL     OW33112   2.602   0.521   3.143
10738SOL    HW133113   2.558   0.551   3.059
10738SOL    HW233114   2.573   0.580   3.218
10739SOL     OW33115   1.362   1.855   0.902
10739SOL    HW133116   1.357   1.763   0.941
10739SOL    HW233117   1.415   1.852   0.817
10740SOL     OW33118   0.073   4.695   4.909
10740SOL    HW133119   7.017   4.727   4.961
10740SOL    HW233120   0.053   4.700   4.811
10741SOL     OW33121   5.671   0.605   1.353
10741SOL    HW133122   5.684   0.701   1.329
10741SOL    HW233123   5.587   0.595   1.407
10742SOL     OW33124   5.651   0.473   0.744
10742SOL    HW133125   5.616   0.534   0.815
10742SOL    HW233126   5.591   0.394   0.734
10743SOL     OW33127   2.721   1.478   5.884
10743SOL    HW133128   2.658   1.416   5.838
10743SOL    HW233129   2.793   1.426   5.931
10744SOL     OW33130   3.654   1.618   1.297
10744SOL    HW133131   3.734   1.622   1.358
10744SOL    HW233132   3.636   1.709   1.260
10745SOL     OW33133   0.190   6.129   6.565
10745SOL    HW133134   0.108   6.159   6.515
10745SOL    HW233135   0.247   6.073   6.505
10746SOL     OW33136   2.469   4.983   1.006
10746SOL    HW133137   2.459   4.930   1.089
10746SOL    HW233138   2.447   4.926   0.927
10747SOL     OW33139   3.777   1.297   4.471
10747SOL    HW133140   3.747   1.202   4.475
10747SOL    HW233141   3.850   1.306   4.404
10748SOL     OW33142   5.190   0.738   1.021
10748SOL    HW133143   5.109   0.710   1.073
10748SOL    HW233144   5.161   0.785   0.937
10749SOL     OW33145   0.961   5.193   3.032
10749SOL    HW133146   0.881   5.137   3.054
10749SOL    HW233147   0.938   5.255   2.956
10750SOL     OW33148   4.280   6.108   4.591
10750SOL    HW133149   4.273   6.114   4.491
10750SOL    HW233150   4.284   6.012   4.618
10751SOL     OW33151   1.735   4.023   4.844
10751SOL    HW133152   1.805   4.094   4.846
10751SOL    HW233153   1.675   4.033   4.923
10752SOL     OW33154   6.375   3.932   6.117
10752SOL    HW133155   6.316   3.881   6.179
10752SOL    HW233156   6.469   3.927   6.148
10753SOL     OW33157   4.752   5.609   4.319
10753SOL    HW133158   4.743   5.644   4.226
10753SOL    HW233159   4.757   5.509   4.316
10754SOL     OW33160   0.910   0.836   2.964
10754SOL    HW133161   0.971   0.862   2.889
10754SOL    HW233162   0.945   0.754   3.008
10755SOL     OW33163   6.529   1.030   6.877
10755SOL    HW133164   6.558   0.969   6.803
10755SOL    HW233165   6.497   0.975   6.955
10756SOL     OW33166   6.881   4.969   0.149
10756SOL    HW133167   6.892   5.065   0.176
10756SOL    HW233168   6.794   4.934   0.185
10757SOL     OW33169   2.471   2.625   0.619
10757SOL    HW133170   2.422   2.709   0.642
10757SOL    HW233171   2.500   2.579   0.703
10758SOL     OW33172   0.553   6.702   4.060
10758SOL    HW133173   0.594   6.612   4.046
10758SOL    HW233174   0.617   6.773   4.031
10759SOL     OW33175   1.986   3.001   1.414
10759SOL    HW133176   1.925   3.074   1.445
10759SOL    HW233177   1.964   2.976   1.320
10760SOL     OW33178   5.520   1.524   2.551
10760SOL    HW133179   5.535   1.622   2.545
10760SOL    HW233180   5.457   1.495   2.479
10761SOL     OW33181   1.172   6.649   6.062
10761SOL    HW133182   1.128   6.573   6.109
10761SOL    HW233183   1.110   6.728   6.061
10762SOL     OW33184   3.767   2.165   4.308
10762SOL    HW133185   3.796   2.165   4.212
10762SOL    HW233186   3.688   2.224   4.320
10763SOL     OW33187   5.290   6.559   2.491
10763SOL    HW133188   5.292   6.609   2.404
10763SOL    HW233189   5.217   6.490   2.488
10764SOL     OW33190   4.889   2.458   6.008
10764SOL    HW133191   4.960   2.448   6.077
10764SOL    HW233192   4.836   2.373   6.002
10765SOL     OW33193   5.349   2.165   0.195
10765SOL    HW133194   5.380   2.233   0.129
10765SOL    HW233195   5.398   2.179   0.282
10766SOL     OW33196   5.043   3.993   0.222
10766SOL    HW133197   5.082   3.925   0.284
10766SOL    HW233198   5.114   4.056   0.191
10767SOL     OW33199   1.283   0.970   0.058
10767SOL    HW133200   1.363   0.913   0.039
10767SOL    HW233201   1.200   0.924   0.023
10768SOL     OW33202   4.638   4.796   1.910
10768SOL    HW133203   4.635   4.696   1.921
10768SOL    HW233204   4.733   4.826   1.911
10769SOL     OW33205   2.494   4.195   5.358
10769SOL    HW133206   2.459   4.139   5.283
10769SOL    HW233207   2.563   4.259   5.322
10770SOL     OW33208   5.448   0.228   4.541
10770SOL    HW133209   5.456   0.271   4.451
10770SOL    HW233210   5.496   0.140   4.540
10771SOL     OW33211   5.920   6.980   3.833
10771SOL    HW133212   5.956   6.924   3.907
10771SOL    HW233213   5.943   0.052   3.851
10772SOL     OW33214   5.691   6.840   4.407
10772SOL    HW133215   5.713   6.867   4.313
10772SOL    HW233216   5.765   6.782   4.443
10773SOL     OW33217   6.565   5.969   0.101
10773SOL    HW133218   6.561   6.068   0.091
10773SOL    HW233219   6.560   5.925   0.011
10774SOL     OW33220   3.167   1.423   6.794
10774SOL    HW133221   3.160   1.454   6.699
10774SOL    HW233222   3.117   1.486   6.853
10775SOL     OW33223   0.420   4.567   1.642
10775SOL    HW133224   0.478   4.642   1.673
10775SOL    HW233225   0.468   4.480   1.657
10776SOL     OW33226   0.076   0.920   6.760
10776SOL    HW133227   7.013   0.955   6.794
10776SOL    HW233228   0.145   0.992   6.766
10777SOL     OW33229   4.018   5.486   3.112
10777SOL    HW133230   4.049   5.531   3.028
10777SOL    HW233231   3.922   5.462   3.103
10778SOL     OW33232   5.455   0.014   4.293
10778SOL    HW133233   5.465   0.113   4.291
10778SOL    HW233234   5.545   6.995   4.297
10779SOL     OW33235   6.241   3.381   3.780
10779SOL    HW133236   6.226   3.452   3.712
10779SOL    HW233237   6.222   3.418   3.872
10780SOL     OW33238   2.228   1.147   3.609
10780SOL    HW133239   2.208   1.245   3.609
10780SOL    HW233240   2.282   1.124   3.690
10781SOL     OW33241   4.591   1.104   4.422
10781SOL    HW133242   4.673   1.065   4.465
10781SOL    HW233243   4.537   1.153   4.491
10782SOL     OW33244   6.326   2.023   1.751
10782SOL    HW133245   6.414   1.978   1.765
10782SOL    HW233246   6.319   2.101   1.812
10783SOL     OW33247   0.335   2.706   2.935
10783SOL    HW133248   0.365   2.764   2.860
10783SOL    HW233249   0.243   2.671   2.915
10784SOL     OW33250   3.680   6.749   4.051
10784SOL    HW133251   3.596   6.709   4.015
10784SOL    HW233252   3.661   6.840   4.087
10785SOL     OW33253   0.063   4.770   0.662
10785SOL    HW133254   0.141   4.819   0.622
10785SOL    HW233255   7.003   4.801   0.618
10786SOL     OW33256   5.718   4.787   3.333
10786SOL    HW133257   5.649   4.855   3.307
10786SOL    HW233258   5.777   4.769   3.255
10787SOL     OW33259   2.391   1.681   5.751
10787SOL    HW133260   2.312   1.682   5.812
10787SOL    HW233261   2.473   1.654   5.801
10788SOL     OW33262   1.704   4.685   6.203
10788SOL    HW133263   1.664   4.596   6.180
10788SOL    HW233264   1.801   4.685   6.176
10789SOL     OW33265   6.847   2.742   6.681
10789SOL    HW133266   6.768   2.692   6.718
10789SOL    HW233267   6.821   2.783   6.593
10790SOL     OW33268   1.289   0.364   1.563
10790SOL    HW133269   1.309   0.450   1.611
10790SOL    HW233270   1.207   0.323   1.603
10791SOL     OW33271   6.708   6.698   1.769
10791SOL    HW133272   6.760   6.737   1.693
10791SOL    HW233273   6.712   6.760   1.848
10792SOL     OW33274   3.064   3.742   4.763
10792SOL    HW133275   3.050   3.835   4.798
10792SOL    HW233276   3.067   3.678   4.840
10793SOL     OW33277   5.555   3.208   4.866
10793SOL    HW133278   5.482   3.274   4.846
10793SOL    HW233279   5.551   3.133   4.800
10794SOL     OW33280   3.408   3.263   4.353
10794SOL    HW133281   3.435   3.167   4.361
10794SOL    HW233282   3.308   3.270   4.356
10795SOL     OW33283   6.995   5.067   2.004
10795SOL    HW133284   7.015   4.970   1.992
10795SOL    HW233285   0.056   5.119   2.005
10796SOL     OW33286   5.817   0.483   6.166
10796SOL    HW133287   5.905   0.525   6.186
10796SOL    HW233288   5.764   0.543   6.107
10797SOL     OW33289   2.970   2.268   1.410
10797SOL    HW133290   3.057   2.222   1.392
10797SOL    HW233291   2.964   2.290   1.507
10798SOL     OW33292   2.715   0.197   0.287
10798SOL    HW133293   2.787   0.129   0.271
10798SOL    HW233294   2.756   0.281   0.322
10799SOL     OW33295   4.090   1.347   1.962
10799SOL    HW133296   4.014   1.380   1.907
10799SOL    HW233297   4.055   1.298   2.042
10800SOL     OW33298   6.798   6.577   6.206
10800SOL    HW133299   6.709   6.622   6.202
10800SOL    HW233300   6.791   6.493   6.259
10801SOL     OW33301   1.318   6.354   6.298
10801SOL    HW133302   1.258   6.326   6.223
10801SOL    HW233303   1.267   6.414   6.360
10802SOL     OW33304   0.941   0.323   2.862
10802SOL    HW133305   0.884   0.251   2.902
10802SOL    HW233306   0.917   0.335   2.766
10803SOL     OW33307   2.458   5.222   6.269
10803SOL    HW133308   2.421   5.139   6.227
10803SOL    HW233309   2.382   5.283   6.295
10804SOL     OW33310   5.670   3.217   2.476
10804SOL    HW133311   5.613   3.142   2.508
10804SOL    HW233312   5.622   3.304   2.490
10805SOL     OW33313   4.655   6.422   6.291
10805SOL    HW133314   4.742   6.465   6.316
10805SOL    HW233315   4.610   6.387   6.374
10806SOL     OW33316   4.402   4.234   6.311
10806SOL    HW133317   4.494   4.268   6.291
10806SOL    HW233318   4.408   4.151   6.366
10807SOL     OW33319   1.688   6.915   2.379
10807SOL    HW133320   1.611   6.931   2.318
10807SOL    HW233321   1.730   6.827   2.357
10808SOL     OW33322   6.895   2.511   6.014
10808SOL    HW133323   6.819   2.574   6.030
10808SOL    HW233324   6.922   2.516   5.918
10809SOL     OW33325   2.929   4.749   3.534
10809SOL    HW133326   2.842   4.790   3.562
10809SOL    HW233327   2.921   4.649   3.536
10810SOL     OW33328   1.421   0.309   3.764
10810SOL    HW133329   1.407   0.268   3.854
10810SOL    HW233330   1.401   0.242   3.693
10811SOL     OW33331   4.134   4.628   6.152
10811SOL    HW133332   4.160   4.678   6.235
10811SOL    HW233333   4.188   4.544   6.146
10812SOL     OW33334   0.401   3.901   0.572
10812SOL    HW133335   0.346   3.860   0.499
10812SOL    HW233336   0.495   3.866   0.566
10813SOL     OW33337   1.731   4.165   6.475
10813SOL    HW133338   1.681   4.170   6.389
10813SOL    HW233339   1.782   4.079   6.478
10814SOL     OW33340   1.507   6.858   6.247
10814SOL    HW133341   1.495   6.887   6.152
10814SOL    HW233342   1.571   6.920   6.292
10815SOL     OW33343   5.312   3.578   3.404
10815SOL    HW133344   5.215   3.594   3.425
10815SOL    HW233345   5.326   3.480   3.390
10816SOL     OW33346   3.412   3.719   2.802
10816SOL    HW133347   3.375   3.793   2.746
10816SOL    HW233348   3.378   3.727   2.896
10817SOL     OW33349   4.584   0.260   3.373
10817SOL    HW133350   4.617   0.176   3.417
10817SOL    HW233351   4.490   0.245   3.342
10818SOL     OW33352   4.832   4.353   5.343
10818SOL    HW133353   4.820   4.294   5.423
10818SOL    HW233354   4.891   4.308   5.276
10819SOL     OW33355   6.242   5.438   6.213
10819SOL    HW133356   6.339   5.420   6.233
10819SOL    HW233357   6.230   5.450   6.115
10820SOL     OW33358   0.053   4.726   4.270
10820SOL    HW133359   0.118   4.659   4.235
10820SOL    HW233360   0.103   4.799   4.318
10821SOL     OW33361   4.581   6.693   4.060
10821SOL    HW133362   4.598   6.754   3.982
10821SOL    HW233363   4.645   6.616   4.056
10822SOL     OW33364   6.013   2.134   2.908
10822SOL    HW133365   5.995   2.225   2.947
10822SOL    HW233366   6.081   2.142   2.835
10823SOL     OW33367   1.053   0.955   1.865
10823SOL    HW133368   1.070   1.052   1.877
10823SOL    HW233369   1.130   0.903   1.902
10824SOL     OW33370   0.124   1.363   2.631
10824SOL    HW133371   0.098   1.450   2.590
10824SOL    HW233372   0.107   1.366   2.729
10825SOL     OW33373   2.140   1.705   6.369
10825SOL    HW133374   2.113   1.799   6.347
10825SOL    HW233375   2.240   1.700   6.378
10826SOL     OW33376   0.659   1.991   3.422
10826SOL    HW133377   0.748   1.945   3.417
10826SOL    HW233378   0.665   2.069   3.484
10827SOL     OW33379   0.024   3.483   4.504
10827SOL    HW133380   6.969   3.500   4.446
10827SOL    HW233381   0.085   3.417   4.460
10828SOL     OW33382   1.376   3.995   0.898
10828SOL    HW133383   1.455   4.053   0.877
10828SOL    HW233384   1.330   3.970   0.813
10829SOL     OW33385   4.882   2.905   0.657
10829SOL    HW133386   4.937   2.930   0.737
10829SOL    HW233387   4.874   2.805   0.653
10830SOL     OW33388   4.333   2.075   2.913
10830SOL    HW133389   4.389   2.078   2.995
10830SOL    HW233390   4.389   2.099   2.833
10831SOL     OW33391   3.282   6.295   2.922
10831SOL    HW133392   3.264   6.384   2.881
10831SOL    HW233393   3.273   6.224   2.852
10832SOL     OW33394   0.350   3.602   6.075
10832SOL    HW133395   0.292   3.683   6.075
10832SOL    HW233396   0.399   3.595   6.162
10833SOL     OW33397   0.560   1.244   1.777
10833SOL    HW133398   0.493   1.182   1.737
10833SOL    HW233399   0.635   1.259   1.712
10834SOL     OW33400   6.475   1.515   0.706
10834SOL    HW133401   6.404   1.455   0.668
10834SOL    HW233402   6.548   1.460   0.745
10835SOL     OW33403   6.005   2.534   0.411
10835SOL    HW133404   5.922   2.567   0.455
10835SOL    HW233405   6.085   2.568   0.460
10836SOL     OW33406   6.517   1.571   4.814
10836SOL    HW133407   6.608   1.601   4.783
10836SOL    HW233408   6.468   1.650   4.852
10837SOL     OW33409   6.647   4.966   1.168
10837SOL    HW133410   6.562   4.919   1.191
10837SOL    HW233411   6.649   4.985   1.070
10838SOL     OW33412   6.837   6.056   3.678
10838SOL    HW133413   6.849   6.148   3.716
10838SOL    HW233414   6.769   6.058   3.605
10839SOL     OW33415   4.399   3.270   1.757
10839SOL    HW133416   4.406   3.220   1.670
10839SOL    HW233417   4.447   3.219   1.828
10840SOL     OW33418   3.359   6.066   2.490
10840SOL    HW133419   3.451   6.096   2.517
10840SOL    HW233420   3.359   6.040   2.394
10841SOL     OW33421   6.554   4.760   5.619
10841SOL    HW133422   6.544   4.666   5.650
10841SOL    HW233423   6.553   4.762   5.519
10842SOL     OW33424   4.813   2.257   1.074
10842SOL    HW133425   4.841   2.168   1.038
10842SOL    HW233426   4.770   2.310   1.002
10843SOL     OW33427   1.186   1.424   0.818
10843SOL    HW133428   1.134   1.509   0.806
10843SOL    HW233429   1.280   1.439   0.788
10844SOL     OW33430   0.736   5.963   3.288
10844SOL    HW133431   0.701   6.023   3.361
10844SOL    HW233432   0.822   6.000   3.254
10845SOL     OW33433   3.544   6.471   5.507
10845SOL    HW133434   3.523   6.478   5.604
10845SOL    HW233435   3.643   6.467   5.494
10846SOL     OW33436   5.733   0.887   6.869
10846SOL    HW133437   5.694   0.795   6.878
10846SOL    HW233438   5.793   0.905   6.947
10847SOL     OW33439   3.829   2.971   0.235
10847SOL    HW133440   3.927   2.957   0.246
10847SOL    HW233441   3.780   2.927   0.310
10848SOL     OW33442   2.306   3.947   0.609
10848SOL    HW133443   2.311   3.872   0.543
10848SOL    HW233444   2.363   3.926   0.688
10849SOL     OW33445   2.538   4.480   4.112
10849SOL    HW133446   2.445   4.444   4.117
10849SOL    HW233447   2.566   4.484   4.016
10850SOL     OW33448   2.673   6.345   6.085
10850SOL    HW133449   2.703   6.398   6.165
10850SOL    HW233450   2.705   6.390   6.002
10851SOL     OW33451   2.385   3.450   0.614
10851SOL    HW133452   2.388   3.522   0.544
10851SOL    HW233453   2.434   3.481   0.695
10852SOL     OW33454   1.177   0.355   7.021
10852SOL    HW133455   1.255   0.376   0.055
10852SOL    HW233456   1.198   0.381   6.927
10853SOL     OW33457   1.574   3.005   5.241
10853SOL    HW133458   1.642   3.076   5.255
10853SOL    HW233459   1.619   2.920   5.212
10854SOL     OW33460   4.386   4.840   5.542
10854SOL    HW133461   4.293   4.838   5.580
10854SOL    HW233462   4.452   4.840   5.617
10855SOL     OW33463   4.118   1.306   0.925
10855SOL    HW133464   4.125   1.404   0.943
10855SOL    HW233465   4.088   1.259   1.009
10856SOL     OW33466   5.163   0.884   0.669
10856SOL    HW133467   5.083   0.908   0.723
10856SOL    HW233468   5.173   0.784   0.667
10857SOL     OW33469   0.583   2.252   2.855
10857SOL    HW133470   0.553   2.347   2.858
10857SOL    HW233471   0.672   2.247   2.810
10858SOL     OW33472   0.955   1.346   0.080
10858SOL    HW133473   0.948   1.327   0.178
10858SOL    HW233474   1.043   1.312   0.045
10859SOL     OW33475   1.190   4.562   4.586
10859SOL    HW133476   1.289   4.579   4.583
10859SOL    HW233477   1.152   4.602   4.670
10860SOL     OW33478   0.326   3.231   5.122
10860SOL    HW133479   0.383   3.234   5.204
10860SOL    HW233480   0.331   3.140   5.081
10861SOL     OW33481   3.180   4.027   3.615
10861SOL    HW133482   3.196   3.935   3.650
10861SOL    HW233483   3.241   4.091   3.662
10862SOL     OW33484   2.118   1.294   6.331
10862SOL    HW133485   2.044   1.323   6.391
10862SOL    HW233486   2.179   1.232   6.380
10863SOL     OW33487   2.662   0.795   3.733
10863SOL    HW133488   2.610   0.786   3.818
10863SOL    HW233489   2.634   0.877   3.684
10864SOL     OW33490   2.334   6.525   0.313
10864SOL    HW133491   2.362   6.445   0.261
10864SOL    HW233492   2.363   6.514   0.409
10865SOL     OW33493   0.005   1.449   1.269
10865SOL    HW133494   0.080   1.385   1.282
10865SOL    HW233495   6.975   1.456   1.353
10866SOL     OW33496   5.417   3.894   0.340
10866SOL    HW133497   5.372   3.806   0.328
10866SOL    HW233498   5.437   3.934   0.251
10867SOL     OW33499   3.661   3.950   0.244
10867SOL    HW133500   3.614   3.872   0.285
10867SOL    HW233501   3.757   3.949   0.269
10868SOL     OW33502   5.251   1.028   4.009
10868SOL    HW133503   5.291   1.117   3.988
10868SOL    HW233504   5.168   1.014   3.955
10869NA      NA33505   6.382   2.936   5.287
10870NA      NA33506   4.454   4.587   5.195
10871NA      NA33507   1.947   2.882   2.181
10872NA      NA33508   5.061   3.821   4.936
10873NA      NA33509   4.111   2.317   5.269
10874NA      NA33510   3.507   4.870   1.781
10875NA      NA33511   0.098   4.943   0.182
10876NA      NA33512   3.591   3.408   4.468
10877NA      NA33513   4.904   6.087   0.099
10878NA      NA33514   3.426   6.529   5.285
10879NA      NA33515   6.021   5.179   1.852
10880NA      NA33516   2.188   0.173   3.984
10881NA      NA33517   3.855   5.521   2.737
10882NA      NA33518   3.746   3.907   2.385
   7.02435   7.02435   7.02435
