Generated by trjconv : CNT in water t= 291.00000
33518
    1C        C    1   2.840   2.765   4.747
    1C        C    2   2.898   2.719   4.868
    1C        C    3   2.841   2.769   4.986
    1C        C    4   2.843   2.770   4.262
    1C        C    5   2.898   2.724   4.384
    1C        C    6   2.846   2.771   4.507
    1C        C    7   3.007   2.629   4.627
    1C        C    8   2.895   2.715   4.627
    1C        C    9   3.073   2.596   4.747
    1C        C   10   3.007   2.630   4.868
    1C        C   11   3.180   2.491   4.976
    1C        C   12   3.062   2.565   4.980
    1C        C   13   2.853   2.772   3.774
    1C        C   14   2.899   2.718   3.896
    1C        C   15   2.848   2.767   4.018
    1C        C   16   3.018   2.646   4.140
    1C        C   17   2.898   2.720   4.142
    1C        C   18   3.082   2.617   4.263
    1C        C   19   3.020   2.653   4.385
    1C        C   20   3.208   2.559   4.504
    1C        C   21   3.075   2.605   4.506
    1C        C   22   3.277   2.536   4.626
    1C        C   23   3.206   2.546   4.748
    1C        C   24   3.413   2.489   4.869
    1C        C   25   3.271   2.503   4.866
    1C        C   26   3.488   2.480   4.987
    1C        C   27   2.852   2.772   3.284
    1C        C   28   2.909   2.726   3.405
    1C        C   29   2.856   2.773   3.527
    1C        C   30   3.021   2.643   3.648
    1C        C   31   2.908   2.728   3.651
    1C        C   32   3.078   2.607   3.773
    1C        C   33   3.016   2.639   3.896
    1C        C   34   3.209   2.553   4.019
    1C        C   35   3.079   2.608   4.018
    1C        C   36   3.277   2.535   4.141
    1C        C   37   3.209   2.556   4.263
    1C        C   38   3.417   2.507   4.382
    1C        C   39   3.279   2.536   4.384
    1C        C   40   3.487   2.507   4.505
    1C        C   41   3.415   2.509   4.627
    1C        C   42   3.628   2.486   4.749
    1C        C   43   3.485   2.485   4.747
    1C        C   44   3.707   2.489   4.866
    1C        C   45   3.627   2.484   4.981
    1C        C   46   2.836   2.757   2.797
    1C        C   47   2.896   2.717   2.918
    1C        C   48   2.844   2.764   3.040
    1C        C   49   3.017   2.640   3.161
    1C        C   50   2.900   2.720   3.162
    1C        C   51   3.081   2.607   3.283
    1C        C   52   3.020   2.639   3.406
    1C        C   53   3.215   2.552   3.530
    1C        C   54   3.083   2.603   3.528
    1C        C   55   3.279   2.531   3.655
    1C        C   56   3.208   2.552   3.775
    1C        C   57   3.417   2.514   3.896
    1C        C   58   3.276   2.532   3.897
    1C        C   59   3.488   2.503   4.018
    1C        C   60   3.416   2.508   4.139
    1C        C   61   3.630   2.505   4.263
    1C        C   62   3.489   2.500   4.260
    1C        C   63   3.701   2.514   4.386
    1C        C   64   3.628   2.507   4.507
    1C        C   65   3.836   2.538   4.624
    1C        C   66   3.699   2.506   4.629
    1C        C   67   3.906   2.563   4.744
    1C        C   68   3.841   2.533   4.865
    1C        C   69   4.053   2.584   4.985
    1C        C   70   3.921   2.537   4.980
    1C        C   71   2.827   2.735   2.310
    1C        C   72   2.884   2.692   2.432
    1C        C   73   2.835   2.747   2.552
    1C        C   74   3.009   2.630   2.673
    1C        C   75   2.892   2.710   2.676
    1C        C   76   3.072   2.599   2.796
    1C        C   77   3.013   2.637   2.918
    1C        C   78   3.208   2.550   3.040
    1C        C   79   3.077   2.603   3.039
    1C        C   80   3.277   2.531   3.162
    1C        C   81   3.210   2.551   3.285
    1C        C   82   3.417   2.501   3.407
    1C        C   83   3.279   2.529   3.407
    1C        C   84   3.488   2.493   3.529
    1C        C   85   3.418   2.505   3.651
    1C        C   86   3.628   2.501   3.772
    1C        C   87   3.487   2.502   3.774
    1C        C   88   3.698   2.518   3.894
    1C        C   89   3.629   2.503   4.016
    1C        C   90   3.833   2.554   4.137
    1C        C   91   3.697   2.513   4.139
    1C        C   92   3.901   2.578   4.258
    1C        C   93   3.836   2.552   4.381
    1C        C   94   4.032   2.628   4.502
    1C        C   95   3.905   2.567   4.504
    1C        C   96   4.094   2.668   4.623
    1C        C   97   4.031   2.632   4.744
    1C        C   98   4.187   2.766   4.865
    1C        C   99   4.095   2.656   4.869
    1C        C  100   4.210   2.845   4.978
    1C        C  101   2.821   2.727   2.071
    1C        C  102   2.992   2.593   2.192
    1C        C  103   2.875   2.676   2.190
    1C        C  104   3.062   2.570   2.313
    1C        C  105   2.999   2.610   2.434
    1C        C  106   3.204   2.541   2.553
    1C        C  107   3.071   2.589   2.553
    1C        C  108   3.272   2.520   2.675
    1C        C  109   3.202   2.543   2.795
    1C        C  110   3.409   2.489   2.918
    1C        C  111   3.271   2.521   2.916
    1C        C  112   3.484   2.491   3.037
    1C        C  113   3.416   2.505   3.161
    1C        C  114   3.627   2.501   3.281
    1C        C  115   3.486   2.499   3.283
    1C        C  116   3.698   2.508   3.403
    1C        C  117   3.629   2.500   3.526
    1C        C  118   3.832   2.553   3.647
    1C        C  119   3.698   2.508   3.649
    1C        C  120   3.897   2.579   3.770
    1C        C  121   3.834   2.555   3.894
    1C        C  122   4.028   2.640   4.015
    1C        C  123   3.902   2.576   4.016
    1C        C  124   4.090   2.674   4.137
    1C        C  125   4.029   2.638   4.259
    1C        C  126   4.198   2.764   4.381
    1C        C  127   4.090   2.673   4.382
    1C        C  128   4.248   2.815   4.503
    1C        C  129   4.197   2.764   4.625
    1C        C  130   4.326   2.935   4.744
    1C        C  131   4.245   2.818   4.746
    1C        C  132   4.360   3.000   4.865
    1C        C  133   4.290   2.959   4.979
    1C        C  134   3.173   2.476   2.079
    1C        C  135   3.038   2.514   2.082
    1C        C  136   3.258   2.483   2.190
    1C        C  137   3.193   2.516   2.311
    1C        C  138   3.406   2.484   2.431
    1C        C  139   3.268   2.512   2.431
    1C        C  140   3.480   2.490   2.551
    1C        C  141   3.411   2.493   2.674
    1C        C  142   3.622   2.496   2.795
    1C        C  143   3.481   2.482   2.797
    1C        C  144   3.698   2.504   2.914
    1C        C  145   3.625   2.496   3.035
    1C        C  146   3.833   2.537   3.158
    1C        C  147   3.695   2.507   3.157
    1C        C  148   3.902   2.563   3.278
    1C        C  149   3.834   2.545   3.401
    1C        C  150   4.027   2.630   3.524
    1C        C  151   3.899   2.571   3.524
    1C        C  152   4.084   2.674   3.645
    1C        C  153   4.025   2.640   3.769
    1C        C  154   4.203   2.756   3.891
    1C        C  155   4.086   2.675   3.891
    1C        C  156   4.253   2.805   4.013
    1C        C  157   4.201   2.762   4.137
    1C        C  158   4.340   2.921   4.256
    1C        C  159   4.253   2.810   4.259
    1C        C  160   4.375   2.983   4.378
    1C        C  161   4.331   2.929   4.501
    1C        C  162   4.437   3.115   4.618
    1C        C  163   4.369   2.992   4.622
    1C        C  164   4.466   3.183   4.739
    1C        C  165   4.438   3.118   4.861
    1C        C  166   4.520   3.323   4.973
    1C        C  167   4.484   3.188   4.973
    1C        C  168   3.474   2.438   2.077
    1C        C  169   3.397   2.460   2.192
    1C        C  170   3.618   2.464   2.312
    1C        C  171   3.476   2.470   2.309
    1C        C  172   3.694   2.489   2.429
    1C        C  173   3.622   2.495   2.550
    1C        C  174   3.828   2.537   2.669
    1C        C  175   3.691   2.504   2.672
    1C        C  176   3.898   2.562   2.789
    1C        C  177   3.833   2.545   2.914
    1C        C  178   4.026   2.627   3.033
    1C        C  179   3.901   2.562   3.036
    1C        C  180   4.088   2.664   3.155
    1C        C  181   4.028   2.627   3.277
    1C        C  182   4.198   2.751   3.398
    1C        C  183   4.088   2.663   3.400
    1C        C  184   4.249   2.799   3.521
    1C        C  185   4.201   2.753   3.646
    1C        C  186   4.336   2.918   3.765
    1C        C  187   4.251   2.805   3.767
    1C        C  188   4.372   2.977   3.888
    1C        C  189   4.335   2.921   4.012
    1C        C  190   4.442   3.106   4.132
    1C        C  191   4.378   2.980   4.133
    1C        C  192   4.468   3.173   4.253
    1C        C  193   4.442   3.107   4.375
    1C        C  194   4.499   3.316   4.492
    1C        C  195   4.465   3.179   4.495
    1C        C  196   4.516   3.387   4.612
    1C        C  197   4.511   3.318   4.736
    1C        C  198   4.553   3.536   4.854
    1C        C  199   4.532   3.394   4.854
    1C        C  200   4.579   3.619   4.967
    1C        C  201   3.613   2.425   2.079
    1C        C  202   3.828   2.511   2.182
    1C        C  203   3.692   2.466   2.191
    1C        C  204   3.898   2.542   2.302
    1C        C  205   3.831   2.523   2.425
    1C        C  206   4.022   2.617   2.545
    1C        C  207   3.897   2.552   2.546
    1C        C  208   4.084   2.657   2.665
    1C        C  209   4.024   2.626   2.789
    1C        C  210   4.202   2.744   2.907
    1C        C  211   4.086   2.664   2.910
    1C        C  212   4.251   2.797   3.029
    1C        C  213   4.197   2.754   3.152
    1C        C  214   4.331   2.914   3.274
    1C        C  215   4.247   2.801   3.275
    1C        C  216   4.371   2.972   3.397
    1C        C  217   4.335   2.911   3.520
    1C        C  218   4.431   3.102   3.643
    1C        C  219   4.374   2.972   3.641
    1C        C  220   4.459   3.169   3.764
    1C        C  221   4.438   3.102   3.886
    1C        C  222   4.491   3.308   4.004
    1C        C  223   4.465   3.169   4.008
    1C        C  224   4.505   3.380   4.125
    1C        C  225   4.503   3.310   4.248
    1C        C  226   4.522   3.524   4.370
    1C        C  227   4.511   3.383   4.368
    1C        C  228   4.518   3.597   4.491
    1C        C  229   4.527   3.527   4.613
    1C        C  230   4.499   3.743   4.728
    1C        C  231   4.535   3.605   4.731
    1C        C  232   4.498   3.823   4.845
    1C        C  233   4.546   3.755   4.957
    1C        C  234   4.020   2.610   2.065
    1C        C  235   3.893   2.553   2.066
    1C        C  236   4.087   2.646   2.183
    1C        C  237   4.027   2.603   2.303
    1C        C  238   4.200   2.734   2.424
    1C        C  239   4.085   2.650   2.423
    1C        C  240   4.252   2.788   2.544
    1C        C  241   4.192   2.748   2.666
    1C        C  242   4.336   2.909   2.786
    1C        C  243   4.249   2.797   2.785
    1C        C  244   4.376   2.968   2.908
    1C        C  245   4.334   2.911   3.030
    1C        C  246   4.432   3.100   3.152
    1C        C  247   4.369   2.974   3.152
    1C        C  248   4.459   3.164   3.275
    1C        C  249   4.434   3.098   3.397
    1C        C  250   4.489   3.303   3.518
    1C        C  251   4.454   3.166   3.519
    1C        C  252   4.503   3.376   3.638
    1C        C  253   4.495   3.306   3.760
    1C        C  254   4.522   3.518   3.880
    1C        C  255   4.507   3.377   3.882
    1C        C  256   4.512   3.590   4.001
    1C        C  257   4.509   3.521   4.124
    1C        C  258   4.486   3.729   4.242
    1C        C  259   4.517   3.591   4.246
    1C        C  260   4.465   3.800   4.363
    1C        C  261   4.482   3.734   4.486
    1C        C  262   4.428   3.942   4.602
    1C        C  263   4.474   3.808   4.606
    1C        C  264   4.401   4.012   4.721
    1C        C  265   4.437   3.950   4.843
    1C        C  266   4.326   4.136   4.959
    1C        C  267   4.397   4.017   4.959
    1C        C  268   4.263   2.774   2.063
    1C        C  269   4.199   2.732   2.181
    1C        C  270   4.343   2.890   2.301
    1C        C  271   4.253   2.780   2.302
    1C        C  272   4.387   2.952   2.420
    1C        C  273   4.342   2.897   2.542
    1C        C  274   4.452   3.082   2.662
    1C        C  275   4.381   2.960   2.662
    1C        C  276   4.479   3.153   2.782
    1C        C  277   4.447   3.090   2.904
    1C        C  278   4.501   3.294   3.026
    1C        C  279   4.467   3.157   3.027
    1C        C  280   4.507   3.366   3.148
    1C        C  281   4.501   3.299   3.272
    1C        C  282   4.512   3.511   3.392
    1C        C  283   4.505   3.370   3.394
    1C        C  284   4.514   3.586   3.512
    1C        C  285   4.509   3.517   3.636
    1C        C  286   4.493   3.728   3.757
    1C        C  287   4.516   3.588   3.757
    1C        C  288   4.476   3.798   3.879
    1C        C  289   4.487   3.729   4.001
    1C        C  290   4.427   3.935   4.119
    1C        C  291   4.473   3.802   4.121
    1C        C  292   4.397   4.001   4.240
    1C        C  293   4.415   3.932   4.361
    1C        C  294   4.327   4.130   4.479
    1C        C  295   4.393   4.005   4.480
    1C        C  296   4.279   4.188   4.598
    1C        C  297   4.323   4.131   4.720
    1C        C  298   4.196   4.310   4.841
    1C        C  299   4.284   4.197   4.840
    1C        C  300   4.169   4.401   4.948
    1C        C  301   4.347   2.884   2.065
    1C        C  302   4.467   3.071   2.181
    1C        C  303   4.391   2.949   2.181
    1C        C  304   4.485   3.144   2.301
    1C        C  305   4.454   3.077   2.422
    1C        C  306   4.506   3.287   2.540
    1C        C  307   4.480   3.148   2.541
    1C        C  308   4.522   3.360   2.659
    1C        C  309   4.507   3.291   2.782
    1C        C  310   4.527   3.502   2.904
    1C        C  311   4.521   3.361   2.904
    1C        C  312   4.516   3.576   3.023
    1C        C  313   4.512   3.507   3.146
    1C        C  314   4.489   3.718   3.266
    1C        C  315   4.512   3.578   3.268
    1C        C  316   4.475   3.789   3.386
    1C        C  317   4.493   3.725   3.511
    1C        C  318   4.427   3.926   3.631
    1C        C  319   4.475   3.793   3.634
    1C        C  320   4.395   3.991   3.752
    1C        C  321   4.428   3.931   3.876
    1C        C  322   4.321   4.119   3.994
    1C        C  323   4.396   3.998   3.996
    1C        C  324   4.284   4.180   4.116
    1C        C  325   4.324   4.122   4.238
    1C        C  326   4.196   4.297   4.354
    1C        C  327   4.285   4.188   4.357
    1C        C  328   4.142   4.348   4.474
    1C        C  329   4.196   4.302   4.596
    1C        C  330   4.030   4.440   4.717
    1C        C  331   4.146   4.357   4.716
    1C        C  332   3.972   4.492   4.834
    1C        C  333   4.055   4.481   4.947
    1C        C  334   4.554   3.267   2.063
    1C        C  335   4.533   3.129   2.068
    1C        C  336   4.546   3.351   2.175
    1C        C  337   4.519   3.282   2.295
    1C        C  338   4.527   3.496   2.415
    1C        C  339   4.521   3.355   2.417
    1C        C  340   4.525   3.570   2.535
    1C        C  341   4.526   3.501   2.658
    1C        C  342   4.494   3.710   2.776
    1C        C  343   4.519   3.571   2.781
    1C        C  344   4.478   3.782   2.897
    1C        C  345   4.489   3.715   3.021
    1C        C  346   4.428   3.918   3.139
    1C        C  347   4.475   3.785   3.142
    1C        C  348   4.397   3.983   3.260
    1C        C  349   4.425   3.921   3.384
    1C        C  350   4.321   4.105   3.503
    1C        C  351   4.398   3.987   3.506
    1C        C  352   4.276   4.163   3.624
    1C        C  353   4.323   4.112   3.747
    1C        C  354   4.180   4.270   3.868
    1C        C  355   4.281   4.171   3.869
    1C        C  356   4.125   4.318   3.988
    1C        C  357   4.183   4.279   4.111
    1C        C  358   4.017   4.413   4.233
    1C        C  359   4.134   4.334   4.232
    1C        C  360   3.960   4.457   4.355
    1C        C  361   4.024   4.425   4.477
    1C        C  362   3.833   4.525   4.597
    1C        C  363   3.961   4.466   4.597
    1C        C  364   3.765   4.547   4.719
    1C        C  365   3.839   4.540   4.839
    1C        C  366   3.629   4.595   4.952
    1C        C  367   3.768   4.579   4.953
    1C        C  368   4.515   3.563   2.056
    1C        C  369   4.527   3.491   2.176
    1C        C  370   4.505   3.708   2.290
    1C        C  371   4.521   3.568   2.294
    1C        C  372   4.490   3.781   2.410
    1C        C  373   4.507   3.710   2.531
    1C        C  374   4.426   3.908   2.650
    1C        C  375   4.477   3.776   2.652
    1C        C  376   4.391   3.972   2.771
    1C        C  377   4.424   3.912   2.895
    1C        C  378   4.322   4.100   3.014
    1C        C  379   4.398   3.981   3.016
    1C        C  380   4.276   4.156   3.135
    1C        C  381   4.316   4.099   3.258
    1C        C  382   4.179   4.261   3.377
    1C        C  383   4.273   4.156   3.381
    1C        C  384   4.128   4.311   3.499
    1C        C  385   4.180   4.267   3.623
    1C        C  386   4.010   4.394   3.743
    1C        C  387   4.128   4.316   3.745
    1C        C  388   3.948   4.430   3.865
    1C        C  389   4.008   4.396   3.989
    1C        C  390   3.819   4.490   4.111
    1C        C  391   3.950   4.436   4.111
    1C        C  392   3.755   4.517   4.234
    1C        C  393   3.826   4.500   4.355
    1C        C  394   3.621   4.555   4.477
    1C        C  395   3.761   4.535   4.476
    1C        C  396   3.548   4.563   4.597
    1C        C  397   3.624   4.559   4.716
    1C        C  398   3.413   4.558   4.843
    1C        C  399   3.553   4.573   4.837
    1C        C  400   3.343   4.512   4.955
    1C        C  401   4.519   3.702   2.057
    1C        C  402   4.454   3.917   2.167
    1C        C  403   4.495   3.782   2.170
    1C        C  404   4.412   3.979   2.287
    1C        C  405   4.441   3.914   2.409
    1C        C  406   4.325   4.096   2.528
    1C        C  407   4.402   3.978   2.529
    1C        C  408   4.282   4.154   2.649
    1C        C  409   4.318   4.092   2.771
    1C        C  410   4.177   4.253   2.888
    1C        C  411   4.275   4.152   2.892
    1C        C  412   4.128   4.304   3.010
    1C        C  413   4.181   4.261   3.134
    1C        C  414   4.003   4.379   3.254
    1C        C  415   4.125   4.307   3.255
    1C        C  416   3.945   4.412   3.378
    1C        C  417   4.007   4.385   3.502
    1C        C  418   3.815   4.482   3.620
    1C        C  419   3.945   4.425   3.622
    1C        C  420   3.750   4.502   3.744
    1C        C  421   3.819   4.486   3.866
    1C        C  422   3.612   4.535   3.989
    1C        C  423   3.751   4.508   3.988
    1C        C  424   3.545   4.545   4.113
    1C        C  425   3.616   4.543   4.235
    1C        C  426   3.405   4.545   4.360
    1C        C  427   3.546   4.555   4.357
    1C        C  428   3.334   4.543   4.482
    1C        C  429   3.407   4.553   4.602
    1C        C  430   3.196   4.522   4.722
    1C        C  431   3.336   4.549   4.724
    1C        C  432   3.126   4.500   4.843
    1C        C  433   3.206   4.488   4.958
    1C        C  434   4.383   4.123   2.054
    1C        C  435   4.451   4.001   2.055
    1C        C  436   4.299   4.161   2.164
    1C        C  437   4.335   4.098   2.286
    1C        C  438   4.179   4.249   2.401
    1C        C  439   4.281   4.151   2.405
    1C        C  440   4.130   4.303   2.522
    1C        C  441   4.182   4.253   2.644
    1C        C  442   4.006   4.376   2.765
    1C        C  443   4.124   4.298   2.765
    1C        C  444   3.946   4.413   2.888
    1C        C  445   4.006   4.376   3.010
    1C        C  446   3.813   4.469   3.130
    1C        C  447   3.941   4.408   3.131
    1C        C  448   3.748   4.494   3.253
    1C        C  449   3.817   4.471   3.374
    1C        C  450   3.613   4.531   3.497
    1C        C  451   3.751   4.500   3.496
    1C        C  452   3.544   4.540   3.620
    1C        C  453   3.611   4.528   3.744
    1C        C  454   3.401   4.540   3.869
    1C        C  455   3.542   4.538   3.867
    1C        C  456   3.331   4.531   3.992
    1C        C  457   3.404   4.536   4.113
    1C        C  458   3.199   4.501   4.237
    1C        C  459   3.337   4.529   4.237
    1C        C  460   3.132   4.483   4.360
    1C        C  461   3.195   4.517   4.481
    1C        C  462   2.999   4.431   4.606
    1C        C  463   3.126   4.494   4.602
    1C        C  464   2.934   4.399   4.727
    1C        C  465   2.993   4.449   4.847
    1C        C  466   2.810   4.333   4.963
    1C        C  467   2.911   4.430   4.963
    1C        C  468   4.117   4.282   2.041
    1C        C  469   4.186   4.249   2.159
    1C        C  470   4.007   4.375   2.275
    1C        C  471   4.126   4.296   2.279
    1C        C  472   3.942   4.401   2.398
    1C        C  473   4.010   4.377   2.519
    1C        C  474   3.817   4.465   2.645
    1C        C  475   3.947   4.409   2.641
    1C        C  476   3.747   4.489   2.765
    1C        C  477   3.816   4.468   2.886
    1C        C  478   3.607   4.513   3.008
    1C        C  479   3.746   4.490   3.007
    1C        C  480   3.539   4.526   3.131
    1C        C  481   3.609   4.521   3.254
    1C        C  482   3.399   4.531   3.378
    1C        C  483   3.540   4.536   3.376
    1C        C  484   3.331   4.525   3.502
    1C        C  485   3.403   4.537   3.623
    1C        C  486   3.195   4.499   3.748
    1C        C  487   3.332   4.533   3.745
    1C        C  488   3.130   4.473   3.871
    1C        C  489   3.193   4.502   3.994
    1C        C  490   3.001   4.415   4.116
    1C        C  491   3.127   4.479   4.117
    1C        C  492   2.944   4.381   4.240
    1C        C  493   3.004   4.421   4.361
    1C        C  494   2.831   4.301   4.483
    1C        C  495   2.945   4.385   4.484
    1C        C  496   2.784   4.250   4.606
    1C        C  497   2.823   4.310   4.728
    1C        C  498   2.667   4.166   4.846
    1C        C  499   2.756   4.276   4.847
    1C        C  500   2.606   4.113   4.960
    1C        C  501   3.999   4.355   2.036
    1C        C  502   3.816   4.467   2.157
    1C        C  503   3.943   4.406   2.154
    1C        C  504   3.746   4.483   2.279
    1C        C  505   3.811   4.454   2.401
    1C        C  506   3.609   4.513   2.519
    1C        C  507   3.747   4.481   2.523
    1C        C  508   3.537   4.523   2.641
    1C        C  509   3.608   4.516   2.763
    1C        C  510   3.396   4.522   2.888
    1C        C  511   3.538   4.522   2.885
    1C        C  512   3.326   4.521   3.010
    1C        C  513   3.398   4.532   3.131
    1C        C  514   3.193   4.492   3.258
    1C        C  515   3.330   4.525   3.255
    1C        C  516   3.128   4.465   3.381
    1C        C  517   3.195   4.488   3.503
    1C        C  518   3.002   4.407   3.628
    1C        C  519   3.129   4.470   3.627
    1C        C  520   2.938   4.377   3.750
    1C        C  521   3.002   4.414   3.871
    1C        C  522   2.836   4.284   3.998
    1C        C  523   2.940   4.380   3.993
    1C        C  524   2.785   4.239   4.122
    1C        C  525   2.834   4.292   4.243
    1C        C  526   2.685   4.140   4.366
    1C        C  527   2.776   4.248   4.364
    1C        C  528   2.647   4.083   4.489
    1C        C  529   2.695   4.140   4.609
    1C        C  530   2.588   3.958   4.733
    1C        C  531   2.644   4.088   4.730
    1C        C  532   2.540   3.903   4.855
    1C        C  533   2.524   4.000   4.959
    1C        C  534   3.621   4.559   2.040
    1C        C  535   3.755   4.519   2.042
    1C        C  536   3.539   4.539   2.155
    1C        C  537   3.607   4.516   2.278
    1C        C  538   3.396   4.519   2.402
    1C        C  539   3.536   4.529   2.399
    1C        C  540   3.324   4.511   2.524
    1C        C  541   3.396   4.523   2.645
    1C        C  542   3.188   4.483   2.767
    1C        C  543   3.325   4.521   2.766
    1C        C  544   3.123   4.465   2.891
    1C        C  545   3.187   4.493   3.013
    1C        C  546   2.997   4.404   3.140
    1C        C  547   3.123   4.469   3.137
    1C        C  548   2.937   4.367   3.262
    1C        C  549   3.000   4.405   3.383
    1C        C  550   2.829   4.283   3.506
    1C        C  551   2.941   4.369   3.507
    1C        C  552   2.780   4.233   3.629
    1C        C  553   2.830   4.286   3.750
    1C        C  554   2.699   4.125   3.876
    1C        C  555   2.785   4.237   3.875
    1C        C  556   2.662   4.066   3.999
    1C        C  557   2.698   4.128   4.121
    1C        C  558   2.598   3.945   4.249
    1C        C  559   2.660   4.071   4.245
    1C        C  560   2.572   3.879   4.372
    1C        C  561   2.596   3.952   4.491
    1C        C  562   2.533   3.749   4.617
    1C        C  563   2.572   3.885   4.613
    1C        C  564   2.519   3.681   4.740
    1C        C  565   2.527   3.760   4.858
    1C        C  566   2.534   3.544   4.983
    1C        C  567   2.527   3.682   4.975
    1C        C  568   3.332   4.475   2.040
    1C        C  569   3.398   4.519   2.156
    1C        C  570   3.189   4.477   2.284
    1C        C  571   3.327   4.511   2.279
    1C        C  572   3.116   4.462   2.404
    1C        C  573   3.185   4.485   2.525
    1C        C  574   2.988   4.404   2.653
    1C        C  575   3.117   4.462   2.647
    1C        C  576   2.927   4.366   2.775
    1C        C  577   2.996   4.403   2.893
    1C        C  578   2.831   4.276   3.016
    1C        C  579   2.938   4.368   3.017
    1C        C  580   2.783   4.225   3.139
    1C        C  581   2.832   4.274   3.262
    1C        C  582   2.693   4.118   3.384
    1C        C  583   2.780   4.230   3.385
    1C        C  584   2.653   4.062   3.508
    1C        C  585   2.693   4.122   3.629
    1C        C  586   2.598   3.939   3.757
    1C        C  587   2.658   4.067   3.754
    1C        C  588   2.576   3.874   3.881
    1C        C  589   2.601   3.939   4.004
    1C        C  590   2.539   3.740   4.129
    1C        C  591   2.571   3.878   4.128
    1C        C  592   2.526   3.672   4.252
    1C        C  593   2.535   3.743   4.374
    1C        C  594   2.519   3.534   4.499
    1C        C  595   2.524   3.675   4.497
    1C        C  596   2.521   3.466   4.623
    1C        C  597   2.516   3.539   4.744
    1C        C  598   2.542   3.327   4.865
    1C        C  599   2.526   3.467   4.866
    1C        C  600   2.531   3.246   4.979
    1C        C  601   3.200   4.436   2.048
    1C        C  602   2.988   4.394   2.162
    1C        C  603   3.121   4.446   2.163
    1C        C  604   2.931   4.358   2.288
    1C        C  605   2.990   4.398   2.409
    1C        C  606   2.820   4.274   2.531
    1C        C  607   2.928   4.365   2.532
    1C        C  608   2.769   4.222   2.652
    1C        C  609   2.821   4.273   2.773
    1C        C  610   2.686   4.114   2.895
    1C        C  611   2.774   4.225   2.897
    1C        C  612   2.652   4.055   3.018
    1C        C  613   2.700   4.110   3.139
    1C        C  614   2.594   3.929   3.266
    1C        C  615   2.660   4.054   3.263
    1C        C  616   2.568   3.867   3.390
    1C        C  617   2.595   3.933   3.512
    1C        C  618   2.533   3.734   3.640
    1C        C  619   2.574   3.869   3.636
    1C        C  620   2.523   3.665   3.763
    1C        C  621   2.541   3.737   3.883
    1C        C  622   2.524   3.529   4.010
    1C        C  623   2.533   3.670   4.007
    1C        C  624   2.529   3.460   4.133
    1C        C  625   2.524   3.531   4.255
    1C        C  626   2.545   3.322   4.380
    1C        C  627   2.522   3.461   4.378
    1C        C  628   2.558   3.254   4.503
    1C        C  629   2.539   3.326   4.623
    1C        C  630   2.600   3.119   4.744
    1C        C  631   2.559   3.255   4.744
    1C        C  632   2.618   3.047   4.866
    1C        C  633   2.557   3.108   4.980
    1C        C  634   2.788   4.304   2.054
    1C        C  635   2.896   4.394   2.053
    1C        C  636   2.758   4.229   2.168
    1C        C  637   2.817   4.273   2.289
    1C        C  638   2.679   4.111   2.410
    1C        C  639   2.765   4.223   2.411
    1C        C  640   2.646   4.048   2.531
    1C        C  641   2.685   4.109   2.653
    1C        C  642   2.588   3.922   2.777
    1C        C  643   2.646   4.050   2.775
    1C        C  644   2.569   3.857   2.901
    1C        C  645   2.592   3.927   3.022
    1C        C  646   2.528   3.726   3.150
    1C        C  647   2.563   3.863   3.144
    1C        C  648   2.518   3.656   3.273
    1C        C  649   2.532   3.730   3.392
    1C        C  650   2.515   3.523   3.520
    1C        C  651   2.525   3.664   3.517
    1C        C  652   2.520   3.453   3.642
    1C        C  653   2.521   3.523   3.765
    1C        C  654   2.541   3.316   3.888
    1C        C  655   2.525   3.457   3.889
    1C        C  656   2.560   3.252   4.013
    1C        C  657   2.546   3.320   4.136
    1C        C  658   2.607   3.117   4.258
    1C        C  659   2.563   3.251   4.259
    1C        C  660   2.631   3.054   4.382
    1C        C  661   2.597   3.118   4.503
    1C        C  662   2.713   2.938   4.624
    1C        C  663   2.630   3.053   4.623
    1C        C  664   2.752   2.877   4.745
    1C        C  665   2.699   2.930   4.866
    1C        C  666   2.745   2.869   4.984
    1C        C  667   2.688   4.023   2.054
    1C        C  668   2.694   4.104   2.168
    1C        C  669   2.592   3.916   2.290
    1C        C  670   2.645   4.048   2.289
    1C        C  671   2.564   3.850   2.412
    1C        C  672   2.588   3.919   2.533
    1C        C  673   2.523   3.718   2.660
    1C        C  674   2.561   3.854   2.655
    1C        C  675   2.517   3.650   2.784
    1C        C  676   2.535   3.720   2.905
    1C        C  677   2.499   3.515   3.033
    1C        C  678   2.514   3.655   3.029
    1C        C  679   2.502   3.442   3.154
    1C        C  680   2.504   3.516   3.275
    1C        C  681   2.528   3.309   3.401
    1C        C  682   2.511   3.449   3.399
    1C        C  683   2.551   3.242   3.523
    1C        C  684   2.539   3.313   3.645
    1C        C  685   2.609   3.113   3.769
    1C        C  686   2.556   3.244   3.768
    1C        C  687   2.638   3.051   3.893
    1C        C  688   2.609   3.119   4.013
    1C        C  689   2.717   2.938   4.138
    1C        C  690   2.638   3.055   4.135
    1C        C  691   2.753   2.879   4.261
    1C        C  692   2.713   2.939   4.382
    1C        C  693   2.754   2.878   4.503
    1C        C  694   2.634   3.894   2.057
    1C        C  695   2.532   3.705   2.177
    1C        C  696   2.580   3.838   2.173
    1C        C  697   2.511   3.638   2.299
    1C        C  698   2.525   3.714   2.417
    1C        C  699   2.491   3.507   2.546
    1C        C  700   2.503   3.647   2.540
    1C        C  701   2.506   3.436   2.667
    1C        C  702   2.506   3.509   2.788
    1C        C  703   2.520   3.301   2.914
    1C        C  704   2.504   3.441   2.912
    1C        C  705   2.535   3.231   3.036
    1C        C  706   2.520   3.302   3.158
    1C        C  707   2.586   3.102   3.283
    1C        C  708   2.538   3.235   3.281
    1C        C  709   2.618   3.037   3.404
    1C        C  710   2.597   3.108   3.524
    1C        C  711   2.711   2.929   3.650
    1C        C  712   2.636   3.049   3.646
    1C        C  713   2.757   2.876   3.773
    1C        C  714   2.720   2.936   3.895
    1C        C  715   2.763   2.880   4.017
    1C        C  716   2.457   3.502   2.064
    1C        C  717   2.493   3.637   2.061
    1C        C  718   2.470   3.423   2.182
    1C        C  719   2.486   3.498   2.302
    1C        C  720   2.512   3.292   2.427
    1C        C  721   2.486   3.431   2.427
    1C        C  722   2.538   3.225   2.548
    1C        C  723   2.528   3.296   2.669
    1C        C  724   2.594   3.099   2.794
    1C        C  725   2.545   3.232   2.793
    1C        C  726   2.626   3.040   2.918
    1C        C  727   2.592   3.102   3.041
    1C        C  728   2.705   2.921   3.163
    1C        C  729   2.625   3.038   3.163
    1C        C  730   2.748   2.868   3.287
    1C        C  731   2.703   2.924   3.409
    1C        C  732   2.757   2.873   3.529
    1C        C  733   2.496   3.197   2.072
    1C        C  734   2.490   3.281   2.184
    1C        C  735   2.586   3.090   2.307
    1C        C  736   2.523   3.217   2.307
    1C        C  737   2.621   3.025   2.428
    1C        C  738   2.593   3.094   2.548
    1C        C  739   2.699   2.915   2.671
    1C        C  740   2.624   3.034   2.672
    1C        C  741   2.738   2.859   2.795
    1C        C  742   2.703   2.922   2.917
    1C        C  743   2.748   2.868   3.040
    1C        C  744   2.543   3.066   2.077
    1C        C  745   2.684   2.898   2.188
    1C        C  746   2.614   3.020   2.188
    1C        C  747   2.732   2.841   2.308
    1C        C  748   2.695   2.906   2.429
    1C        C  749   2.740   2.852   2.551
    1C        C  750   2.734   2.836   2.073
    1C        C  751   3.656   2.310   1.996
    1C        O  752   3.749   2.234   2.038
    1C        O  753   3.644   2.289   1.858
    1C        C  754   4.631   3.040   2.002
    1C        O  755   4.622   3.011   1.880
    1C        O  756   4.746   2.988   2.063
    1C        C  757   4.420   4.220   1.948
    1C        O  758   4.537   4.266   1.947
    1C        O  759   4.373   4.171   1.826
    1C        C  760   3.601   4.668   1.942
    1C        O  761   3.629   4.789   1.967
    1C        O  762   3.552   4.648   1.813
    1C        C  763   2.882   4.514   1.967
    1C        O  764   2.938   4.520   1.854
    1C        O  765   2.805   4.626   2.000
    1C        C  766   2.353   3.484   1.960
    1C        O  767   2.388   3.459   1.841
    1C        O  768   2.217   3.511   1.975
    1C        C  769   4.697   3.593   5.053
    1C        O  770   4.692   3.563   5.175
    1C        O  771   4.827   3.574   5.006
    1C        C  772   4.280   4.441   5.039
    1C        O  773   4.271   4.441   5.164
    1C        O  774   4.374   4.531   4.988
    1C        C  775   4.145   2.495   5.060
    1C        O  776   4.198   2.396   5.004
    1C        O  777   4.185   2.532   5.189
    1C        C  778   2.890   4.533   5.067
    1C        O  779   2.796   4.616   5.055
    1C        O  780   2.911   4.507   5.203
    1C        C  781   2.463   3.037   5.069
    1C        O  782   2.342   3.024   5.036
    1C        O  783   2.515   2.995   5.192
    1C        C  784   2.405   4.018   5.045
    1C        O  785   2.289   4.013   4.996
    1C        O  786   2.408   4.091   5.164
    1C        C  787   2.950   2.428   2.000
    1C        O  788   2.976   2.426   1.877
    1C        O  789   2.916   2.300   2.043
    1C        C  790   3.165   2.357   5.037
    1C        O  791   3.115   2.258   4.977
    1C        O  792   3.192   2.338   5.173
    1C        H  793   4.250   3.037   5.040
    1C        H  794   4.202   2.798   5.074
    1C        H  795   4.488   3.133   5.065
    1C        H  796   4.464   3.372   5.050
    1C        H  797   4.597   3.816   5.029
    1C        H  798   4.433   3.980   5.053
    1C        H  799   4.285   4.176   5.050
    1C        H  800   4.005   4.481   5.042
    1C        H  801   3.814   4.621   5.040
    1C        H  802   3.599   4.669   5.023
    1C        H  803   3.385   4.535   5.051
    1C        H  804   3.174   4.429   5.042
    1C        H  805   3.886   2.490   5.069
    1C        H  806   3.681   2.502   5.072
    1C        H  807   2.999   2.542   5.063
    1C        H  808   3.440   2.468   5.083
    1C        H  809   2.860   2.725   5.082
    1C        H  810   2.757   2.937   5.065
    1C        H  811   2.496   3.291   5.069
    1C        H  812   2.562   3.503   5.078
    1C        H  813   2.485   3.726   5.063
    1C        H  814   2.608   4.174   5.048
    1C        H  815   2.785   4.295   5.060
    1C        H  816   2.719   2.895   1.985
    1C        H  817   2.840   2.677   1.979
    1C        H  818   3.218   2.467   1.982
    1C        H  819   3.433   2.437   1.978
    1C        H  820   3.831   2.568   1.980
    1C        H  821   4.074   2.598   1.973
    1C        H  822   4.220   2.748   1.968
    1C        H  823   4.345   2.937   1.972
    1C        H  824   4.534   3.308   1.966
    1C        H  825   4.472   3.517   1.970
    1C        H  826   4.537   3.749   1.962
    1C        H  827   3.816   4.528   1.954
    1C        H  828   3.959   4.382   1.941
    1C        H  829   4.167   4.257   1.950
    1C        H  830   4.510   3.975   1.970
    1C        H  831   2.603   3.852   1.963
    1C        H  832   2.715   4.053   1.955
    1C        H  833   2.712   4.328   1.983
    1C        H  834   3.372   4.497   1.943
    1C        H  835   3.170   4.364   1.975
    1C        H  836   2.508   2.990   2.010
    1C        H  837   2.466   3.232   1.975
    1C        H  838   2.437   3.699   1.994
    2V3OU   H29  839   2.816   3.545   2.911
    2V3OU   C27  840   2.795   3.502   3.013
    2V3OU   H27  841   2.737   3.570   3.080
    2V3OU   H28  842   2.737   3.406   3.006
    2V3OU   O11  843   2.919   3.479   3.079
    2V3OU   C15  844   2.931   3.398   3.190
    2V3OU   C13  845   3.057   3.374   3.249
    2V3OU   C14  846   3.082   3.270   3.340
    2V3OU   C16  847   2.981   3.186   3.384
    2V3OU    H6  848   2.999   3.104   3.456
    2V3OU   C12  849   3.220   3.229   3.373
    2V3OU    O2  850   3.243   3.122   3.434
    2V3OU   C10  851   3.332   3.312   3.326
    2V3OU    C8  852   3.462   3.273   3.357
    2V3OU   O10  853   3.499   3.154   3.411
    2V3OU   H26  854   3.413   3.115   3.434
    2V3OU    C6  855   3.569   3.354   3.308
    2V3OU    C5  856   3.541   3.466   3.231
    2V3OU    C4  857   3.708   3.300   3.312
    2V3OU    H4  858   3.725   3.223   3.393
    2V3OU    H5  859   3.717   3.233   3.221
    2V3OU    C2  860   3.819   3.405   3.308
    2V3OU    O6  861   3.807   3.476   3.431
    2V3OU   H21  862   3.770   3.562   3.405
    2V3OU    C3  863   3.783   3.494   3.189
    2V3OU    H2  864   3.860   3.573   3.172
    2V3OU    H3  865   3.783   3.430   3.096
    2V3OU   C25  866   3.951   3.328   3.290
    2V3OU    O7  867   3.998   3.301   3.179
    2V3OU   C26  868   4.033   3.293   3.413
    2V3OU   H22  869   4.069   3.385   3.464
    2V3OU   H23  870   4.120   3.229   3.382
    2V3OU    O8  871   3.968   3.208   3.505
    2V3OU   H24  872   3.926   3.270   3.568
    2V3OU    C1  873   3.650   3.565   3.203
    2V3OU    H1  874   3.630   3.619   3.106
    2V3OU    O3  875   3.660   3.654   3.315
    2V3OU   C19  876   3.620   3.790   3.297
    2V3OU    H9  877   3.527   3.799   3.235
    2V3OU    O4  878   3.719   3.846   3.213
    2V3OU   C20  879   3.847   3.878   3.267
    2V3OU   H10  880   3.902   3.779   3.276
    2V3OU   C24  881   3.610   3.855   3.436
    2V3OU   H16  882   3.545   3.796   3.505
    2V3OU   H17  883   3.568   3.958   3.432
    2V3OU   C23  884   3.753   3.873   3.489
    2V3OU   H15  885   3.798   3.770   3.508
    2V3OU    N1  886   3.736   3.954   3.608
    2V3OU   H19  887   3.805   3.926   3.675
    2V3OU   H20  888   3.647   3.938   3.651
    2V3OU   C21  889   3.851   3.954   3.399
    2V3OU   H11  890   3.950   3.945   3.452
    2V3OU    O5  891   3.821   4.093   3.400
    2V3OU   H18  892   3.787   4.102   3.491
    2V3OU   C22  893   3.919   3.950   3.154
    2V3OU   H12  894   3.871   4.051   3.142
    2V3OU   H13  895   3.915   3.888   3.060
    2V3OU   H14  896   4.028   3.961   3.177
    2V3OU   C11  897   3.160   3.477   3.238
    2V3OU    O1  898   3.140   3.585   3.178
    2V3OU    C9  899   3.299   3.428   3.250
    2V3OU    C7  900   3.406   3.505   3.205
    2V3OU    O9  901   3.391   3.621   3.131
    2V3OU   H25  902   3.296   3.626   3.110
    2V3OU   C17  903   2.830   3.315   3.244
    2V3OU    H7  904   2.731   3.361   3.245
    2V3OU   C18  905   2.854   3.213   3.335
    2V3OU    H8  906   2.785   3.178   3.414
    3SOL     OW  907   2.906   5.273   6.251
    3SOL    HW1  908   2.883   5.191   6.304
    3SOL    HW2  909   2.939   5.247   6.161
    4SOL     OW  910   6.801   0.532   1.100
    4SOL    HW1  911   6.858   0.613   1.116
    4SOL    HW2  912   6.730   0.526   1.170
    5SOL     OW  913   4.367   2.451   1.933
    5SOL    HW1  914   4.391   2.465   2.029
    5SOL    HW2  915   4.274   2.415   1.926
    6SOL     OW  916   4.312   1.617   1.687
    6SOL    HW1  917   4.265   1.647   1.770
    6SOL    HW2  918   4.247   1.609   1.612
    7SOL     OW  919   0.512   4.039   3.512
    7SOL    HW1  920   0.500   4.029   3.413
    7SOL    HW2  921   0.605   4.072   3.531
    8SOL     OW  922   2.985   1.913   5.712
    8SOL    HW1  923   2.928   1.831   5.701
    8SOL    HW2  924   3.014   1.946   5.622
    9SOL     OW  925   5.108   1.888   6.022
    9SOL    HW1  926   5.075   1.826   5.951
    9SOL    HW2  927   5.096   1.845   6.111
   10SOL     OW  928   2.377   5.272   5.061
   10SOL    HW1  929   2.398   5.369   5.046
   10SOL    HW2  930   2.294   5.264   5.116
   11SOL     OW  931   2.457   1.197   5.420
   11SOL    HW1  932   2.549   1.236   5.427
   11SOL    HW2  933   2.408   1.242   5.345
   12SOL     OW  934   2.987   4.876   3.651
   12SOL    HW1  935   2.963   4.784   3.619
   12SOL    HW2  936   2.903   4.930   3.664
   13SOL     OW  937   3.424   6.511   4.348
   13SOL    HW1  938   3.348   6.542   4.291
   13SOL    HW2  939   3.509   6.555   4.318
   14SOL     OW  940   3.944   5.067   6.096
   14SOL    HW1  941   3.860   5.120   6.093
   14SOL    HW2  942   3.982   5.068   6.188
   15SOL     OW  943   0.610   6.690   1.133
   15SOL    HW1  944   0.549   6.724   1.203
   15SOL    HW2  945   0.600   6.744   1.050
   16SOL     OW  946   5.414   3.227   6.117
   16SOL    HW1  947   5.395   3.192   6.209
   16SOL    HW2  948   5.491   3.178   6.077
   17SOL     OW  949   6.107   6.441   6.719
   17SOL    HW1  950   6.033   6.504   6.740
   17SOL    HW2  951   6.112   6.370   6.791
   18SOL     OW  952   3.008   0.944   5.911
   18SOL    HW1  953   3.012   1.024   5.851
   18SOL    HW2  954   3.098   0.928   5.952
   19SOL     OW  955   0.561   2.108   2.912
   19SOL    HW1  956   0.628   2.043   2.949
   19SOL    HW2  957   0.580   2.199   2.949
   20SOL     OW  958   4.989   1.377   4.708
   20SOL    HW1  959   4.947   1.456   4.753
   20SOL    HW2  960   4.999   1.302   4.774
   21SOL     OW  961   2.883   1.611   2.142
   21SOL    HW1  962   2.973   1.638   2.108
   21SOL    HW2  963   2.893   1.534   2.206
   22SOL     OW  964   1.076   6.260   0.144
   22SOL    HW1  965   1.120   6.258   0.055
   22SOL    HW2  966   1.139   6.299   0.211
   23SOL     OW  967   4.460   5.463   2.329
   23SOL    HW1  968   4.464   5.445   2.427
   23SOL    HW2  969   4.513   5.544   2.307
   24SOL     OW  970   3.154   0.330   2.387
   24SOL    HW1  971   3.175   0.234   2.408
   24SOL    HW2  972   3.239   0.382   2.381
   25SOL     OW  973   2.990   0.262   3.460
   25SOL    HW1  974   3.011   0.290   3.366
   25SOL    HW2  975   2.992   0.163   3.467
   26SOL     OW  976   6.329   1.751   0.629
   26SOL    HW1  977   6.288   1.715   0.713
   26SOL    HW2  978   6.428   1.739   0.632
   27SOL     OW  979   1.787   1.188   2.414
   27SOL    HW1  980   1.823   1.281   2.410
   27SOL    HW2  981   1.700   1.183   2.365
   28SOL     OW  982   1.963   6.857   5.013
   28SOL    HW1  983   2.011   6.841   5.099
   28SOL    HW2  984   1.884   6.796   5.006
   29SOL     OW  985   6.170   1.857   1.712
   29SOL    HW1  986   6.192   1.783   1.648
   29SOL    HW2  987   6.094   1.827   1.771
   30SOL     OW  988   4.372   0.578   3.504
   30SOL    HW1  989   4.338   0.585   3.598
   30SOL    HW2  990   4.463   0.620   3.499
   31SOL     OW  991   0.449   2.450   6.515
   31SOL    HW1  992   0.351   2.454   6.494
   31SOL    HW2  993   0.488   2.542   6.507
   32SOL     OW  994   0.788   1.905   2.937
   32SOL    HW1  995   0.858   1.977   2.937
   32SOL    HW2  996   0.801   1.845   2.859
   33SOL     OW  997   1.312   4.346   5.046
   33SOL    HW1  998   1.314   4.249   5.070
   33SOL    HW2  999   1.220   4.382   5.060
   34SOL     OW 1000   2.513   6.950   4.858
   34SOL    HW1 1001   2.607   6.924   4.881
   34SOL    HW2 1002   2.469   6.988   4.939
   35SOL     OW 1003   4.904   2.673   5.950
   35SOL    HW1 1004   4.828   2.623   5.907
   35SOL    HW2 1005   4.937   2.620   6.028
   36SOL     OW 1006   4.914   2.017   4.497
   36SOL    HW1 1007   4.959   1.928   4.493
   36SOL    HW2 1008   4.938   2.063   4.582
   37SOL     OW 1009   1.750   1.172   5.602
   37SOL    HW1 1010   1.800   1.245   5.556
   37SOL    HW2 1011   1.733   1.197   5.697
   38SOL     OW 1012   1.103   5.374   2.349
   38SOL    HW1 1013   1.158   5.310   2.297
   38SOL    HW2 1014   1.123   5.364   2.446
   39SOL     OW 1015   6.327   4.587   6.478
   39SOL    HW1 1016   6.243   4.533   6.491
   39SOL    HW2 1017   6.331   4.618   6.383
   40SOL     OW 1018   4.370   1.908   0.696
   40SOL    HW1 1019   4.379   1.844   0.772
   40SOL    HW2 1020   4.455   1.911   0.644
   41SOL     OW 1021   6.397   3.451   3.671
   41SOL    HW1 1022   6.358   3.361   3.652
   41SOL    HW2 1023   6.450   3.483   3.593
   42SOL     OW 1024   3.505   5.962   4.454
   42SOL    HW1 1025   3.580   5.922   4.508
   42SOL    HW2 1026   3.418   5.940   4.497
   43SOL     OW 1027   4.667   0.028   5.375
   43SOL    HW1 1028   4.700   6.974   5.424
   43SOL    HW2 1029   4.586   0.064   5.422
   44SOL     OW 1030   4.886   2.323   5.533
   44SOL    HW1 1031   4.943   2.247   5.561
   44SOL    HW2 1032   4.834   2.357   5.611
   45SOL     OW 1033   4.563   4.556   1.163
   45SOL    HW1 1034   4.627   4.574   1.088
   45SOL    HW2 1035   4.600   4.482   1.220
   46SOL     OW 1036   0.749   2.989   3.912
   46SOL    HW1 1037   0.783   2.996   4.006
   46SOL    HW2 1038   0.650   2.999   3.911
   47SOL     OW 1039   4.318   3.777   0.418
   47SOL    HW1 1040   4.340   3.818   0.507
   47SOL    HW2 1041   4.354   3.684   0.415
   48SOL     OW 1042   6.239   2.524   6.254
   48SOL    HW1 1043   6.244   2.444   6.194
   48SOL    HW2 1044   6.327   2.538   6.298
   49SOL     OW 1045   6.060   3.098   2.072
   49SOL    HW1 1046   5.993   3.169   2.049
   49SOL    HW2 1047   6.149   3.140   2.088
   50SOL     OW 1048   5.952   0.933   5.023
   50SOL    HW1 1049   5.999   0.960   5.107
   50SOL    HW2 1050   5.953   1.009   4.958
   51SOL     OW 1051   2.441   6.627   3.094
   51SOL    HW1 1052   2.412   6.720   3.071
   51SOL    HW2 1053   2.540   6.618   3.079
   52SOL     OW 1054   5.686   3.063   1.955
   52SOL    HW1 1055   5.742   3.016   1.887
   52SOL    HW2 1056   5.618   3.121   1.910
   53SOL     OW 1057   5.086   1.649   3.784
   53SOL    HW1 1058   5.143   1.707   3.727
   53SOL    HW2 1059   5.063   1.697   3.869
   54SOL     OW 1060   5.684   6.061   1.180
   54SOL    HW1 1061   5.753   6.107   1.125
   54SOL    HW2 1062   5.718   5.972   1.209
   55SOL     OW 1063   2.562   2.597   5.030
   55SOL    HW1 1064   2.492   2.527   5.016
   55SOL    HW2 1065   2.552   2.668   4.961
   56SOL     OW 1066   0.612   0.814   1.360
   56SOL    HW1 1067   0.658   0.739   1.311
   56SOL    HW2 1068   0.672   0.847   1.433
   57SOL     OW 1069   4.319   1.186   1.546
   57SOL    HW1 1070   4.386   1.190   1.620
   57SOL    HW2 1071   4.281   1.277   1.531
   58SOL     OW 1072   0.688   6.784   5.421
   58SOL    HW1 1073   0.786   6.796   5.436
   58SOL    HW2 1074   0.647   6.873   5.397
   59SOL     OW 1075   6.873   3.069   6.693
   59SOL    HW1 1076   6.900   3.122   6.773
   59SOL    HW2 1077   6.860   3.130   6.615
   60SOL     OW 1078   5.030   2.772   4.444
   60SOL    HW1 1079   4.976   2.830   4.505
   60SOL    HW2 1080   5.079   2.830   4.378
   61SOL     OW 1081   6.415   1.635   4.005
   61SOL    HW1 1082   6.413   1.536   3.987
   61SOL    HW2 1083   6.510   1.666   4.012
   62SOL     OW 1084   2.160   1.017   2.007
   62SOL    HW1 1085   2.067   0.981   1.999
   62SOL    HW2 1086   2.156   1.115   2.025
   63SOL     OW 1087   4.103   0.548   4.175
   63SOL    HW1 1088   4.105   0.520   4.271
   63SOL    HW2 1089   4.166   0.624   4.161
   64SOL     OW 1090   7.001   2.875   6.548
   64SOL    HW1 1091   6.942   2.952   6.576
   64SOL    HW2 1092   7.018   2.881   6.450
   65SOL     OW 1093   0.595   4.791   6.583
   65SOL    HW1 1094   0.535   4.785   6.663
   65SOL    HW2 1095   0.690   4.779   6.612
   66SOL     OW 1096   3.181   0.895   3.648
   66SOL    HW1 1097   3.129   0.810   3.651
   66SOL    HW2 1098   3.142   0.961   3.712
   67SOL     OW 1099   6.599   2.603   6.051
   67SOL    HW1 1100   6.624   2.699   6.059
   67SOL    HW2 1101   6.603   2.560   6.142
   68SOL     OW 1102   0.352   1.658   0.030
   68SOL    HW1 1103   0.388   1.610   0.111
   68SOL    HW2 1104   0.265   1.617   0.003
   69SOL     OW 1105   1.332   2.775   5.412
   69SOL    HW1 1106   1.395   2.700   5.392
   69SOL    HW2 1107   1.299   2.815   5.327
   70SOL     OW 1108   5.267   4.637   3.807
   70SOL    HW1 1109   5.213   4.575   3.750
   70SOL    HW2 1110   5.333   4.685   3.749
   71SOL     OW 1111   4.176   2.056   3.713
   71SOL    HW1 1112   4.201   2.147   3.680
   71SOL    HW2 1113   4.215   1.987   3.653
   72SOL     OW 1114   1.234   1.501   3.269
   72SOL    HW1 1115   1.217   1.578   3.331
   72SOL    HW2 1116   1.305   1.442   3.307
   73SOL     OW 1117   3.206   0.284   0.951
   73SOL    HW1 1118   3.173   0.253   0.862
   73SOL    HW2 1119   3.289   0.339   0.939
   74SOL     OW 1120   4.228   0.525   0.258
   74SOL    HW1 1121   4.193   0.462   0.328
   74SOL    HW2 1122   4.322   0.550   0.281
   75SOL     OW 1123   4.101   0.536   1.173
   75SOL    HW1 1124   4.198   0.517   1.185
   75SOL    HW2 1125   4.088   0.628   1.138
   76SOL     OW 1126   3.194   3.418   7.017
   76SOL    HW1 1127   3.187   3.517   7.009
   76SOL    HW2 1128   3.150   3.375   6.938
   77SOL     OW 1129   1.127   0.261   3.329
   77SOL    HW1 1130   1.153   0.357   3.337
   77SOL    HW2 1131   1.209   0.204   3.329
   78SOL     OW 1132   5.066   1.523   0.522
   78SOL    HW1 1133   5.130   1.562   0.455
   78SOL    HW2 1134   5.108   1.524   0.612
   79SOL     OW 1135   2.919   5.677   1.500
   79SOL    HW1 1136   2.871   5.764   1.512
   79SOL    HW2 1137   2.902   5.618   1.580
   80SOL     OW 1138   4.441   1.335   4.253
   80SOL    HW1 1139   4.344   1.342   4.277
   80SOL    HW2 1140   4.466   1.410   4.193
   81SOL     OW 1141   1.810   0.388   2.478
   81SOL    HW1 1142   1.775   0.338   2.399
   81SOL    HW2 1143   1.736   0.403   2.544
   82SOL     OW 1144   5.656   5.162   0.966
   82SOL    HW1 1145   5.670   5.065   0.945
   82SOL    HW2 1146   5.727   5.192   1.031
   83SOL     OW 1147   0.323   0.901   0.024
   83SOL    HW1 1148   0.293   0.914   6.956
   83SOL    HW2 1149   0.251   0.857   0.077
   84SOL     OW 1150   6.172   3.609   3.014
   84SOL    HW1 1151   6.223   3.691   2.987
   84SOL    HW2 1152   6.193   3.586   3.109
   85SOL     OW 1153   1.812   1.373   2.800
   85SOL    HW1 1154   1.879   1.299   2.810
   85SOL    HW2 1155   1.852   1.459   2.833
   86SOL     OW 1156   6.862   1.510   6.516
   86SOL    HW1 1157   6.839   1.463   6.431
   86SOL    HW2 1158   6.848   1.449   6.593
   87SOL     OW 1159   4.657   4.360   1.295
   87SOL    HW1 1160   4.669   4.388   1.390
   87SOL    HW2 1161   4.734   4.304   1.267
   88SOL     OW 1162   3.100   2.191   6.196
   88SOL    HW1 1163   3.047   2.115   6.158
   88SOL    HW2 1164   3.160   2.228   6.125
   89SOL     OW 1165   3.204   2.950   0.050
   89SOL    HW1 1166   3.182   2.990   6.988
   89SOL    HW2 1167   3.303   2.933   0.055
   90SOL     OW 1168   4.082   5.262   2.260
   90SOL    HW1 1169   4.088   5.280   2.358
   90SOL    HW2 1170   3.997   5.213   2.240
   91SOL     OW 1171   6.597   4.294   6.259
   91SOL    HW1 1172   6.524   4.283   6.327
   91SOL    HW2 1173   6.595   4.216   6.197
   92SOL     OW 1174   4.428   4.186   1.247
   92SOL    HW1 1175   4.397   4.159   1.156
   92SOL    HW2 1176   4.505   4.249   1.239
   93SOL     OW 1177   3.003   3.356   6.805
   93SOL    HW1 1178   2.937   3.407   6.861
   93SOL    HW2 1179   2.959   3.274   6.769
   94SOL     OW 1180   3.008   5.534   6.563
   94SOL    HW1 1181   2.964   5.625   6.560
   94SOL    HW2 1182   3.031   5.512   6.657
   95SOL     OW 1183   1.978   1.113   2.803
   95SOL    HW1 1184   1.921   1.041   2.842
   95SOL    HW2 1185   2.048   1.140   2.869
   96SOL     OW 1186   4.089   5.596   5.305
   96SOL    HW1 1187   3.996   5.596   5.267
   96SOL    HW2 1188   4.087   5.622   5.401
   97SOL     OW 1189   2.338   3.733   6.016
   97SOL    HW1 1190   2.382   3.790   5.947
   97SOL    HW2 1191   2.383   3.746   6.105
   98SOL     OW 1192   1.374   2.294   0.267
   98SOL    HW1 1193   1.463   2.259   0.297
   98SOL    HW2 1194   1.366   2.283   0.168
   99SOL     OW 1195   4.143   3.474   1.399
   99SOL    HW1 1196   4.097   3.518   1.476
   99SOL    HW2 1197   4.172   3.544   1.334
  100SOL     OW 1198   0.498   6.946   4.202
  100SOL    HW1 1199   0.457   6.935   4.112
  100SOL    HW2 1200   0.555   0.001   4.203
  101SOL     OW 1201   0.782   4.663   2.386
  101SOL    HW1 1202   0.713   4.675   2.458
  101SOL    HW2 1203   0.869   4.702   2.416
  102SOL     OW 1204   3.656   5.296   2.314
  102SOL    HW1 1205   3.575   5.324   2.264
  102SOL    HW2 1206   3.715   5.241   2.255
  103SOL     OW 1207   2.308   2.309   1.929
  103SOL    HW1 1208   2.390   2.333   1.876
  103SOL    HW2 1209   2.293   2.378   1.999
  104SOL     OW 1210   1.122   6.227   2.715
  104SOL    HW1 1211   1.126   6.252   2.812
  104SOL    HW2 1212   1.163   6.300   2.661
  105SOL     OW 1213   6.112   1.275   6.344
  105SOL    HW1 1214   6.072   1.296   6.255
  105SOL    HW2 1215   6.061   1.322   6.416
  106SOL     OW 1216   3.501   6.439   3.341
  106SOL    HW1 1217   3.588   6.428   3.294
  106SOL    HW2 1218   3.508   6.402   3.433
  107SOL     OW 1219   0.350   1.070   0.254
  107SOL    HW1 1220   0.402   1.044   0.335
  107SOL    HW2 1221   0.348   0.994   0.190
  108SOL     OW 1222   3.854   6.385   6.542
  108SOL    HW1 1223   3.795   6.418   6.616
  108SOL    HW2 1224   3.922   6.322   6.579
  109SOL     OW 1225   2.912   1.802   2.358
  109SOL    HW1 1226   2.937   1.845   2.271
  109SOL    HW2 1227   2.876   1.710   2.340
  110SOL     OW 1228   3.389   5.430   4.430
  110SOL    HW1 1229   3.356   5.440   4.524
  110SOL    HW2 1230   3.323   5.377   4.377
  111SOL     OW 1231   2.349   1.656   4.325
  111SOL    HW1 1232   2.358   1.713   4.243
  111SOL    HW2 1233   2.413   1.579   4.319
  112SOL     OW 1234   3.726   6.477   0.103
  112SOL    HW1 1235   3.662   6.547   0.072
  112SOL    HW2 1236   3.784   6.448   0.028
  113SOL     OW 1237   0.474   6.611   2.996
  113SOL    HW1 1238   0.485   6.547   2.920
  113SOL    HW2 1239   0.438   6.563   3.076
  114SOL     OW 1240   1.195   5.895   1.767
  114SOL    HW1 1241   1.148   5.964   1.712
  114SOL    HW2 1242   1.231   5.824   1.708
  115SOL     OW 1243   5.246   0.283   2.580
  115SOL    HW1 1244   5.211   0.295   2.672
  115SOL    HW2 1245   5.309   0.358   2.558
  116SOL     OW 1246   6.618   5.957   1.289
  116SOL    HW1 1247   6.633   5.978   1.385
  116SOL    HW2 1248   6.706   5.942   1.244
  117SOL     OW 1249   0.238   1.175   0.787
  117SOL    HW1 1250   0.140   1.163   0.772
  117SOL    HW2 1251   0.284   1.185   0.698
  118SOL     OW 1252   1.258   1.658   2.330
  118SOL    HW1 1253   1.355   1.634   2.328
  118SOL    HW2 1254   1.207   1.596   2.270
  119SOL     OW 1255   0.603   0.213   0.411
  119SOL    HW1 1256   0.544   0.265   0.349
  119SOL    HW2 1257   0.656   0.277   0.467
  120SOL     OW 1258   5.200   0.863   5.077
  120SOL    HW1 1259   5.110   0.901   5.057
  120SOL    HW2 1260   5.193   0.805   5.159
  121SOL     OW 1261   0.825   3.297   0.618
  121SOL    HW1 1262   0.734   3.264   0.642
  121SOL    HW2 1263   0.854   3.254   0.532
  122SOL     OW 1264   1.766   3.607   0.392
  122SOL    HW1 1265   1.786   3.524   0.339
  122SOL    HW2 1266   1.668   3.624   0.392
  123SOL     OW 1267   1.396   1.279   2.420
  123SOL    HW1 1268   1.309   1.266   2.468
  123SOL    HW2 1269   1.441   1.362   2.454
  124SOL     OW 1270   3.445   3.001   1.028
  124SOL    HW1 1271   3.496   2.923   0.992
  124SOL    HW2 1272   3.349   2.976   1.036
  125SOL     OW 1273   4.246   2.477   0.604
  125SOL    HW1 1274   4.305   2.558   0.600
  125SOL    HW2 1275   4.294   2.404   0.652
  126SOL     OW 1276   3.606   3.459   2.384
  126SOL    HW1 1277   3.649   3.372   2.409
  126SOL    HW2 1278   3.576   3.454   2.288
  127SOL     OW 1279   0.562   5.069   6.518
  127SOL    HW1 1280   0.593   4.977   6.542
  127SOL    HW2 1281   0.464   5.069   6.499
  128SOL     OW 1282   5.097   3.179   1.457
  128SOL    HW1 1283   5.122   3.268   1.494
  128SOL    HW2 1284   5.000   3.179   1.431
  129SOL     OW 1285   2.798   3.152   6.834
  129SOL    HW1 1286   2.739   3.232   6.824
  129SOL    HW2 1287   2.807   3.105   6.746
  130SOL     OW 1288   0.283   0.506   4.462
  130SOL    HW1 1289   0.248   0.412   4.466
  130SOL    HW2 1290   0.378   0.504   4.429
  131SOL     OW 1291   5.206   0.537   3.985
  131SOL    HW1 1292   5.261   0.608   3.943
  131SOL    HW2 1293   5.122   0.524   3.932
  132SOL     OW 1294   3.095   2.663   1.774
  132SOL    HW1 1295   3.190   2.632   1.765
  132SOL    HW2 1296   3.040   2.590   1.815
  133SOL     OW 1297   4.995   0.548   4.231
  133SOL    HW1 1298   4.937   0.557   4.312
  133SOL    HW2 1299   5.060   0.473   4.245
  134SOL     OW 1300   0.315   0.598   2.654
  134SOL    HW1 1301   0.242   0.632   2.594
  134SOL    HW2 1302   0.319   0.655   2.736
  135SOL     OW 1303   5.731   3.580   4.664
  135SOL    HW1 1304   5.769   3.658   4.613
  135SOL    HW2 1305   5.633   3.595   4.677
  136SOL     OW 1306   1.501   4.995   5.035
  136SOL    HW1 1307   1.522   4.936   5.113
  136SOL    HW2 1308   1.555   4.967   4.956
  137SOL     OW 1309   4.587   1.461   3.893
  137SOL    HW1 1310   4.512   1.504   3.843
  137SOL    HW2 1311   4.603   1.511   3.978
  138SOL     OW 1312   1.147   3.681   3.005
  138SOL    HW1 1313   1.141   3.773   3.045
  138SOL    HW2 1314   1.061   3.633   3.020
  139SOL     OW 1315   2.012   6.039   5.156
  139SOL    HW1 1316   1.992   6.133   5.128
  139SOL    HW2 1317   2.090   6.038   5.218
  140SOL     OW 1318   1.439   6.440   3.529
  140SOL    HW1 1319   1.460   6.361   3.586
  140SOL    HW2 1320   1.347   6.431   3.491
  141SOL     OW 1321   0.119   2.692   5.454
  141SOL    HW1 1322   0.051   2.666   5.385
  141SOL    HW2 1323   0.208   2.703   5.411
  142SOL     OW 1324   2.083   3.506   2.205
  142SOL    HW1 1325   2.155   3.517   2.136
  142SOL    HW2 1326   2.111   3.436   2.271
  143SOL     OW 1327   5.345   4.780   0.965
  143SOL    HW1 1328   5.312   4.819   0.879
  143SOL    HW2 1329   5.269   4.738   1.013
  144SOL     OW 1330   2.241   4.690   5.448
  144SOL    HW1 1331   2.207   4.671   5.540
  144SOL    HW2 1332   2.301   4.769   5.451
  145SOL     OW 1333   2.489   5.398   1.327
  145SOL    HW1 1334   2.463   5.466   1.259
  145SOL    HW2 1335   2.473   5.306   1.291
  146SOL     OW 1336   5.304   0.326   6.384
  146SOL    HW1 1337   5.322   0.407   6.440
  146SOL    HW2 1338   5.388   0.297   6.338
  147SOL     OW 1339   5.443   1.125   5.863
  147SOL    HW1 1340   5.376   1.166   5.801
  147SOL    HW2 1341   5.529   1.111   5.814
  148SOL     OW 1342   0.120   5.259   1.359
  148SOL    HW1 1343   0.178   5.253   1.278
  148SOL    HW2 1344   0.142   5.184   1.421
  149SOL     OW 1345   3.610   2.123   5.090
  149SOL    HW1 1346   3.649   2.166   5.172
  149SOL    HW2 1347   3.684   2.099   5.027
  150SOL     OW 1348   5.609   0.167   6.470
  150SOL    HW1 1349   5.567   0.189   6.382
  150SOL    HW2 1350   5.653   0.249   6.508
  151SOL     OW 1351   3.578   0.700   1.544
  151SOL    HW1 1352   3.487   0.667   1.567
  151SOL    HW2 1353   3.639   0.684   1.622
  152SOL     OW 1354   0.122   1.688   0.595
  152SOL    HW1 1355   0.158   1.691   0.502
  152SOL    HW2 1356   0.039   1.631   0.597
  153SOL     OW 1357   2.539   6.823   2.777
  153SOL    HW1 1358   2.508   6.917   2.789
  153SOL    HW2 1359   2.461   6.765   2.756
  154SOL     OW 1360   0.157   3.148   0.838
  154SOL    HW1 1361   0.245   3.188   0.809
  154SOL    HW2 1362   0.083   3.208   0.811
  155SOL     OW 1363   0.855   1.162   3.651
  155SOL    HW1 1364   0.887   1.251   3.618
  155SOL    HW2 1365   0.827   1.170   3.747
  156SOL     OW 1366   6.775   0.454   0.008
  156SOL    HW1 1367   6.740   0.365   0.037
  156SOL    HW2 1368   6.870   0.445   7.007
  157SOL     OW 1369   5.692   3.775   0.307
  157SOL    HW1 1370   5.691   3.869   0.274
  157SOL    HW2 1371   5.697   3.713   0.228
  158SOL     OW 1372   1.857   2.820   1.465
  158SOL    HW1 1373   1.798   2.770   1.401
  158SOL    HW2 1374   1.812   2.825   1.554
  159SOL     OW 1375   4.061   5.144   1.463
  159SOL    HW1 1376   4.062   5.119   1.560
  159SOL    HW2 1377   4.154   5.168   1.434
  160SOL     OW 1378   6.029   0.368   0.544
  160SOL    HW1 1379   6.070   0.346   0.632
  160SOL    HW2 1380   5.939   0.410   0.559
  161SOL     OW 1381   1.022   0.713   2.962
  161SOL    HW1 1382   1.120   0.725   2.943
  161SOL    HW2 1383   1.007   0.712   3.061
  162SOL     OW 1384   3.845   6.051   6.761
  162SOL    HW1 1385   3.763   6.054   6.703
  162SOL    HW2 1386   3.821   6.085   6.852
  163SOL     OW 1387   6.843   6.148   2.073
  163SOL    HW1 1388   6.867   6.056   2.103
  163SOL    HW2 1389   6.809   6.144   1.979
  164SOL     OW 1390   0.866   3.587   2.750
  164SOL    HW1 1391   0.789   3.647   2.729
  164SOL    HW2 1392   0.874   3.577   2.849
  165SOL     OW 1393   4.812   4.746   6.548
  165SOL    HW1 1394   4.783   4.751   6.453
  165SOL    HW2 1395   4.858   4.831   6.574
  166SOL     OW 1396   0.297   3.303   2.267
  166SOL    HW1 1397   0.269   3.249   2.188
  166SOL    HW2 1398   0.276   3.399   2.250
  167SOL     OW 1399   6.089   1.734   6.718
  167SOL    HW1 1400   6.161   1.666   6.729
  167SOL    HW2 1401   6.013   1.695   6.666
  168SOL     OW 1402   3.938   1.874   0.611
  168SOL    HW1 1403   3.911   1.780   0.633
  168SOL    HW2 1404   4.007   1.873   0.539
  169SOL     OW 1405   5.804   2.814   0.823
  169SOL    HW1 1406   5.733   2.884   0.828
  169SOL    HW2 1407   5.819   2.776   0.915
  170SOL     OW 1408   6.936   5.892   2.198
  170SOL    HW1 1409   6.888   5.895   2.286
  170SOL    HW2 1410   6.916   5.806   2.152
  171SOL     OW 1411   2.321   4.772   0.345
  171SOL    HW1 1412   2.383   4.699   0.373
  171SOL    HW2 1413   2.233   4.760   0.389
  172SOL     OW 1414   6.214   1.664   3.310
  172SOL    HW1 1415   6.165   1.627   3.390
  172SOL    HW2 1416   6.233   1.761   3.324
  173SOL     OW 1417   5.441   0.977   4.475
  173SOL    HW1 1418   5.539   0.973   4.453
  173SOL    HW2 1419   5.415   1.072   4.492
  174SOL     OW 1420   4.647   5.406   3.665
  174SOL    HW1 1421   4.549   5.390   3.666
  174SOL    HW2 1422   4.682   5.406   3.759
  175SOL     OW 1423   3.686   0.594   1.151
  175SOL    HW1 1424   3.661   0.667   1.215
  175SOL    HW2 1425   3.752   0.533   1.196
  176SOL     OW 1426   5.689   4.777   2.062
  176SOL    HW1 1427   5.651   4.754   2.152
  176SOL    HW2 1428   5.785   4.802   2.071
  177SOL     OW 1429   5.331   3.434   4.618
  177SOL    HW1 1430   5.378   3.346   4.615
  177SOL    HW2 1431   5.232   3.419   4.616
  178SOL     OW 1432   3.009   4.630   5.562
  178SOL    HW1 1433   3.000   4.662   5.468
  178SOL    HW2 1434   3.105   4.613   5.583
  179SOL     OW 1435   3.554   0.443   6.710
  179SOL    HW1 1436   3.601   0.500   6.777
  179SOL    HW2 1437   3.488   0.384   6.756
  180SOL     OW 1438   2.284   0.738   0.879
  180SOL    HW1 1439   2.260   0.817   0.936
  180SOL    HW2 1440   2.324   0.769   0.793
  181SOL     OW 1441   3.170   3.551   5.457
  181SOL    HW1 1442   3.193   3.524   5.364
  181SOL    HW2 1443   3.121   3.638   5.455
  182SOL     OW 1444   4.389   2.038   5.977
  182SOL    HW1 1445   4.461   2.026   5.908
  182SOL    HW2 1446   4.328   2.112   5.950
  183SOL     OW 1447   3.582   2.062   4.067
  183SOL    HW1 1448   3.648   2.106   4.127
  183SOL    HW2 1449   3.630   2.017   3.992
  184SOL     OW 1450   0.199   6.868   3.517
  184SOL    HW1 1451   0.191   6.777   3.476
  184SOL    HW2 1452   0.214   6.936   3.445
  185SOL     OW 1453   1.269   1.733   4.803
  185SOL    HW1 1454   1.222   1.709   4.718
  185SOL    HW2 1455   1.243   1.667   4.874
  186SOL     OW 1456   6.649   1.249   4.041
  186SOL    HW1 1457   6.716   1.288   4.104
  186SOL    HW2 1458   6.582   1.196   4.092
  187SOL     OW 1459   5.361   0.055   2.478
  187SOL    HW1 1460   5.451   0.066   2.436
  187SOL    HW2 1461   5.322   0.145   2.499
  188SOL     OW 1462   0.628   3.459   3.875
  188SOL    HW1 1463   0.655   3.446   3.970
  188SOL    HW2 1464   0.565   3.386   3.848
  189SOL     OW 1465   1.554   5.372   0.053
  189SOL    HW1 1466   1.466   5.340   0.090
  189SOL    HW2 1467   1.546   5.467   0.026
  190SOL     OW 1468   6.251   4.288   5.983
  190SOL    HW1 1469   6.167   4.321   5.940
  190SOL    HW2 1470   6.230   4.210   6.042
  191SOL     OW 1471   6.123   1.446   0.035
  191SOL    HW1 1472   6.194   1.377   0.027
  191SOL    HW2 1473   6.165   1.535   0.057
  192SOL     OW 1474   0.227   5.180   1.810
  192SOL    HW1 1475   0.267   5.253   1.755
  192SOL    HW2 1476   0.278   5.172   1.896
  193SOL     OW 1477   4.984   3.671   5.186
  193SOL    HW1 1478   5.043   3.597   5.220
  193SOL    HW2 1479   4.903   3.632   5.142
  194SOL     OW 1480   4.018   6.695   3.773
  194SOL    HW1 1481   4.071   6.725   3.694
  194SOL    HW2 1482   3.964   6.772   3.808
  195SOL     OW 1483   1.697   1.007   4.211
  195SOL    HW1 1484   1.757   1.083   4.237
  195SOL    HW2 1485   1.738   0.957   4.134
  196SOL     OW 1486   2.779   6.750   6.665
  196SOL    HW1 1487   2.686   6.723   6.691
  196SOL    HW2 1488   2.775   6.831   6.606
  197SOL     OW 1489   2.324   0.644   1.243
  197SOL    HW1 1490   2.373   0.729   1.258
  197SOL    HW2 1491   2.384   0.578   1.197
  198SOL     OW 1492   4.388   6.755   2.306
  198SOL    HW1 1493   4.371   6.811   2.224
  198SOL    HW2 1494   4.314   6.769   2.371
  199SOL     OW 1495   6.905   0.928   3.837
  199SOL    HW1 1496   6.872   1.020   3.819
  199SOL    HW2 1497   6.834   0.876   3.885
  200SOL     OW 1498   0.996   3.963   1.850
  200SOL    HW1 1499   0.995   4.062   1.846
  200SOL    HW2 1500   0.963   3.925   1.764
  201SOL     OW 1501   5.393   6.816   6.261
  201SOL    HW1 1502   5.326   6.778   6.325
  201SOL    HW2 1503   5.485   6.787   6.288
  202SOL     OW 1504   4.844   0.213   6.039
  202SOL    HW1 1505   4.823   0.310   6.027
  202SOL    HW2 1506   4.940   0.202   6.062
  203SOL     OW 1507   4.882   2.185   5.217
  203SOL    HW1 1508   4.879   2.284   5.231
  203SOL    HW2 1509   4.928   2.141   5.294
  204SOL     OW 1510   6.456   0.635   6.359
  204SOL    HW1 1511   6.457   0.645   6.458
  204SOL    HW2 1512   6.427   0.722   6.317
  205SOL     OW 1513   0.655   1.001   2.669
  205SOL    HW1 1514   0.595   0.997   2.749
  205SOL    HW2 1515   0.744   0.961   2.691
  206SOL     OW 1516   0.402   4.807   2.548
  206SOL    HW1 1517   0.306   4.831   2.566
  206SOL    HW2 1518   0.406   4.719   2.501
  207SOL     OW 1519   4.725   0.373   3.813
  207SOL    HW1 1520   4.754   0.468   3.825
  207SOL    HW2 1521   4.792   0.312   3.856
  208SOL     OW 1522   5.108   4.040   5.386
  208SOL    HW1 1523   5.179   4.084   5.331
  208SOL    HW2 1524   5.126   4.059   5.483
  209SOL     OW 1525   1.023   5.225   4.231
  209SOL    HW1 1526   0.989   5.291   4.298
  209SOL    HW2 1527   1.121   5.240   4.217
  210SOL     OW 1528   4.466   1.998   1.485
  210SOL    HW1 1529   4.455   1.979   1.582
  210SOL    HW2 1530   4.560   2.029   1.468
  211SOL     OW 1531   1.180   6.468   3.403
  211SOL    HW1 1532   1.081   6.455   3.418
  211SOL    HW2 1533   1.198   6.472   3.305
  212SOL     OW 1534   2.045   5.104   2.011
  212SOL    HW1 1535   2.028   5.027   1.949
  212SOL    HW2 1536   2.090   5.070   2.094
  213SOL     OW 1537   3.199   0.619   5.937
  213SOL    HW1 1538   3.234   0.706   5.974
  213SOL    HW2 1539   3.272   0.572   5.888
  214SOL     OW 1540   4.022   5.616   2.000
  214SOL    HW1 1541   4.075   5.568   2.070
  214SOL    HW2 1542   4.055   5.710   1.992
  215SOL     OW 1543   2.617   3.677   1.669
  215SOL    HW1 1544   2.519   3.662   1.684
  215SOL    HW2 1545   2.666   3.590   1.679
  216SOL     OW 1546   1.518   5.806   4.663
  216SOL    HW1 1547   1.509   5.765   4.754
  216SOL    HW2 1548   1.435   5.856   4.641
  217SOL     OW 1549   2.364   2.716   3.523
  217SOL    HW1 1550   2.266   2.700   3.522
  217SOL    HW2 1551   2.394   2.748   3.432
  218SOL     OW 1552   0.643   3.063   4.440
  218SOL    HW1 1553   0.671   3.027   4.529
  218SOL    HW2 1554   0.548   3.038   4.423
  219SOL     OW 1555   3.656   6.184   6.165
  219SOL    HW1 1556   3.731   6.149   6.108
  219SOL    HW2 1557   3.576   6.124   6.156
  220SOL     OW 1558   3.503   6.643   6.996
  220SOL    HW1 1559   3.550   6.730   7.014
  220SOL    HW2 1560   3.483   6.635   6.899
  221SOL     OW 1561   6.979   4.143   2.580
  221SOL    HW1 1562   6.932   4.091   2.652
  221SOL    HW2 1563   6.958   4.103   2.491
  222SOL     OW 1564   2.488   4.860   5.610
  222SOL    HW1 1565   2.568   4.807   5.579
  222SOL    HW2 1566   2.448   4.908   5.531
  223SOL     OW 1567   5.621   3.537   0.880
  223SOL    HW1 1568   5.659   3.468   0.820
  223SOL    HW2 1569   5.541   3.579   0.837
  224SOL     OW 1570   2.920   1.686   4.024
  224SOL    HW1 1571   2.953   1.775   3.993
  224SOL    HW2 1572   2.997   1.633   4.061
  225SOL     OW 1573   5.683   1.710   5.267
  225SOL    HW1 1574   5.728   1.755   5.344
  225SOL    HW2 1575   5.676   1.774   5.190
  226SOL     OW 1576   1.342   0.156   6.083
  226SOL    HW1 1577   1.331   0.133   5.987
  226SOL    HW2 1578   1.259   0.200   6.117
  227SOL     OW 1579   1.789   4.074   2.265
  227SOL    HW1 1580   1.745   4.144   2.321
  227SOL    HW2 1581   1.741   3.987   2.277
  228SOL     OW 1582   3.306   6.315   3.992
  228SOL    HW1 1583   3.297   6.274   4.083
  228SOL    HW2 1584   3.227   6.374   3.975
  229SOL     OW 1585   4.935   6.766   0.368
  229SOL    HW1 1586   4.837   6.749   0.367
  229SOL    HW2 1587   4.969   6.760   0.461
  230SOL     OW 1588   2.591   4.667   2.735
  230SOL    HW1 1589   2.647   4.651   2.654
  230SOL    HW2 1590   2.550   4.581   2.765
  231SOL     OW 1591   6.494   1.624   6.927
  231SOL    HW1 1592   6.436   1.591   6.853
  231SOL    HW2 1593   6.440   1.634   7.010
  232SOL     OW 1594   1.523   3.901   6.081
  232SOL    HW1 1595   1.539   3.980   6.140
  232SOL    HW2 1596   1.431   3.865   6.097
  233SOL     OW 1597   2.590   1.447   4.231
  233SOL    HW1 1598   2.663   1.503   4.267
  233SOL    HW2 1599   2.607   1.428   4.134
  234SOL     OW 1600   3.484   6.222   5.720
  234SOL    HW1 1601   3.412   6.224   5.650
  234SOL    HW2 1602   3.568   6.261   5.683
  235SOL     OW 1603   3.212   3.292   2.035
  235SOL    HW1 1604   3.265   3.326   1.957
  235SOL    HW2 1605   3.118   3.277   2.007
  236SOL     OW 1606   6.079   3.000   6.289
  236SOL    HW1 1607   6.114   2.938   6.218
  236SOL    HW2 1608   6.023   3.071   6.247
  237SOL     OW 1609   6.498   6.165   1.183
  237SOL    HW1 1610   6.504   6.065   1.185
  237SOL    HW2 1611   6.544   6.203   1.263
  238SOL     OW 1612   5.999   2.130   0.201
  238SOL    HW1 1613   6.028   2.122   0.106
  238SOL    HW2 1614   6.078   2.147   0.259
  239SOL     OW 1615   0.258   5.735   6.645
  239SOL    HW1 1616   0.260   5.647   6.597
  239SOL    HW2 1617   0.200   5.799   6.593
  240SOL     OW 1618   0.328   2.616   6.162
  240SOL    HW1 1619   0.326   2.551   6.086
  240SOL    HW2 1620   0.306   2.568   6.247
  241SOL     OW 1621   1.815   6.745   4.197
  241SOL    HW1 1622   1.878   6.759   4.121
  241SOL    HW2 1623   1.853   6.677   4.260
  242SOL     OW 1624   2.546   3.018   6.088
  242SOL    HW1 1625   2.604   3.069   6.151
  242SOL    HW2 1626   2.543   3.065   6.000
  243SOL     OW 1627   5.474   0.286   6.179
  243SOL    HW1 1628   5.446   0.369   6.130
  243SOL    HW2 1629   5.563   0.255   6.143
  244SOL     OW 1630   5.234   3.125   4.958
  244SOL    HW1 1631   5.197   3.212   4.992
  244SOL    HW2 1632   5.184   3.098   4.875
  245SOL     OW 1633   6.921   2.499   5.687
  245SOL    HW1 1634   6.829   2.518   5.721
  245SOL    HW2 1635   6.962   2.585   5.655
  246SOL     OW 1636   4.847   3.069   2.665
  246SOL    HW1 1637   4.796   3.155   2.665
  246SOL    HW2 1638   4.936   3.083   2.710
  247SOL     OW 1639   2.838   1.173   1.773
  247SOL    HW1 1640   2.842   1.138   1.680
  247SOL    HW2 1641   2.750   1.217   1.789
  248SOL     OW 1642   4.608   1.922   4.724
  248SOL    HW1 1643   4.660   1.837   4.738
  248SOL    HW2 1644   4.532   1.925   4.790
  249SOL     OW 1645   5.097   6.731   5.634
  249SOL    HW1 1646   5.059   6.639   5.645
  249SOL    HW2 1647   5.023   6.798   5.640
  250SOL     OW 1648   4.831   1.754   6.507
  250SOL    HW1 1649   4.758   1.744   6.574
  250SOL    HW2 1650   4.877   1.666   6.495
  251SOL     OW 1651   4.137   4.427   6.529
  251SOL    HW1 1652   4.105   4.515   6.494
  251SOL    HW2 1653   4.226   4.439   6.573
  252SOL     OW 1654   6.509   0.697   6.668
  252SOL    HW1 1655   6.437   0.761   6.641
  252SOL    HW2 1656   6.527   0.706   6.766
  253SOL     OW 1657   1.722   3.974   6.902
  253SOL    HW1 1658   1.731   4.072   6.922
  253SOL    HW2 1659   1.735   3.960   6.804
  254SOL     OW 1660   5.963   3.187   3.415
  254SOL    HW1 1661   5.971   3.212   3.512
  254SOL    HW2 1662   6.016   3.251   3.359
  255SOL     OW 1663   1.646   3.500   4.316
  255SOL    HW1 1664   1.632   3.596   4.340
  255SOL    HW2 1665   1.594   3.479   4.233
  256SOL     OW 1666   6.194   4.201   6.793
  256SOL    HW1 1667   6.194   4.117   6.848
  256SOL    HW2 1668   6.108   4.249   6.807
  257SOL     OW 1669   4.367   6.104   4.425
  257SOL    HW1 1670   4.420   6.088   4.508
  257SOL    HW2 1671   4.276   6.063   4.435
  258SOL     OW 1672   5.719   4.734   4.577
  258SOL    HW1 1673   5.701   4.637   4.558
  258SOL    HW2 1674   5.675   4.760   4.663
  259SOL     OW 1675   2.016   2.994   2.206
  259SOL    HW1 1676   2.011   3.053   2.126
  259SOL    HW2 1677   2.106   3.001   2.248
  260SOL     OW 1678   4.433   1.027   1.327
  260SOL    HW1 1679   4.475   1.085   1.257
  260SOL    HW2 1680   4.403   1.084   1.404
  261SOL     OW 1681   6.336   3.855   1.351
  261SOL    HW1 1682   6.424   3.902   1.357
  261SOL    HW2 1683   6.339   3.787   1.278
  262SOL     OW 1684   0.586   3.798   1.509
  262SOL    HW1 1685   0.557   3.885   1.468
  262SOL    HW2 1686   0.595   3.809   1.608
  263SOL     OW 1687   0.748   1.403   3.931
  263SOL    HW1 1688   0.690   1.422   3.852
  263SOL    HW2 1689   0.785   1.310   3.925
  264SOL     OW 1690   5.014   3.936   5.149
  264SOL    HW1 1691   5.019   3.838   5.166
  264SOL    HW2 1692   5.058   3.985   5.224
  265SOL     OW 1693   4.139   4.724   3.081
  265SOL    HW1 1694   4.162   4.734   2.984
  265SOL    HW2 1695   4.205   4.663   3.125
  266SOL     OW 1696   3.606   3.734   6.109
  266SOL    HW1 1697   3.651   3.653   6.072
  266SOL    HW2 1698   3.657   3.816   6.082
  267SOL     OW 1699   6.140   2.759   6.156
  267SOL    HW1 1700   6.170   2.681   6.211
  267SOL    HW2 1701   6.080   2.727   6.083
  268SOL     OW 1702   4.695   5.967   5.547
  268SOL    HW1 1703   4.696   6.067   5.548
  268SOL    HW2 1704   4.604   5.935   5.520
  269SOL     OW 1705   1.756   2.779   0.586
  269SOL    HW1 1706   1.748   2.715   0.662
  269SOL    HW2 1707   1.741   2.872   0.619
  270SOL     OW 1708   6.857   6.988   2.096
  270SOL    HW1 1709   6.875   6.901   2.052
  270SOL    HW2 1710   6.938   7.016   2.149
  271SOL     OW 1711   2.549   2.670   0.908
  271SOL    HW1 1712   2.588   2.618   0.833
  271SOL    HW2 1713   2.485   2.613   0.959
  272SOL     OW 1714   3.659   5.570   4.195
  272SOL    HW1 1715   3.650   5.594   4.292
  272SOL    HW2 1716   3.638   5.474   4.182
  273SOL     OW 1717   1.906   4.805   4.848
  273SOL    HW1 1718   1.844   4.882   4.866
  273SOL    HW2 1719   1.887   4.767   4.758
  274SOL     OW 1720   4.773   2.314   3.645
  274SOL    HW1 1721   4.817   2.257   3.575
  274SOL    HW2 1722   4.678   2.330   3.619
  275SOL     OW 1723   6.737   5.885   6.458
  275SOL    HW1 1724   6.811   5.841   6.508
  275SOL    HW2 1725   6.773   5.963   6.406
  276SOL     OW 1726   0.009   5.229   3.483
  276SOL    HW1 1727   7.009   5.145   3.437
  276SOL    HW2 1728   0.087   5.270   3.435
  277SOL     OW 1729   2.904   2.341   0.479
  277SOL    HW1 1730   2.834   2.410   0.463
  277SOL    HW2 1731   2.871   2.276   0.548
  278SOL     OW 1732   6.508   3.829   1.822
  278SOL    HW1 1733   6.465   3.824   1.732
  278SOL    HW2 1734   6.465   3.763   1.883
  279SOL     OW 1735   6.572   2.841   4.576
  279SOL    HW1 1736   6.546   2.842   4.672
  279SOL    HW2 1737   6.669   2.815   4.568
  280SOL     OW 1738   3.509   6.772   2.808
  280SOL    HW1 1739   3.446   6.734   2.741
  280SOL    HW2 1740   3.561   6.698   2.851
  281SOL     OW 1741   2.782   4.966   2.248
  281SOL    HW1 1742   2.702   4.910   2.271
  281SOL    HW2 1743   2.810   4.948   2.154
  282SOL     OW 1744   4.317   2.348   5.376
  282SOL    HW1 1745   4.326   2.406   5.457
  282SOL    HW2 1746   4.236   2.290   5.386
  283SOL     OW 1747   6.845   1.317   5.600
  283SOL    HW1 1748   6.921   1.257   5.575
  283SOL    HW2 1749   6.853   1.342   5.697
  284SOL     OW 1750   0.483   4.248   5.193
  284SOL    HW1 1751   0.465   4.341   5.160
  284SOL    HW2 1752   0.580   4.238   5.214
  285SOL     OW 1753   5.288   5.541   6.950
  285SOL    HW1 1754   5.285   5.441   6.949
  285SOL    HW2 1755   5.266   5.576   6.860
  286SOL     OW 1756   3.740   4.947   5.168
  286SOL    HW1 1757   3.743   5.046   5.180
  286SOL    HW2 1758   3.647   4.919   5.146
  287SOL     OW 1759   0.734   5.081   6.748
  287SOL    HW1 1760   0.655   5.123   6.702
  287SOL    HW2 1761   0.811   5.144   6.744
  288SOL     OW 1762   3.922   1.209   0.504
  288SOL    HW1 1763   3.865   1.257   0.436
  288SOL    HW2 1764   3.898   1.112   0.505
  289SOL     OW 1765   0.520   5.167   4.929
  289SOL    HW1 1766   0.564   5.249   4.892
  289SOL    HW2 1767   0.461   5.194   5.006
  290SOL     OW 1768   4.984   2.278   3.412
  290SOL    HW1 1769   5.078   2.286   3.448
  290SOL    HW2 1770   4.966   2.355   3.350
  291SOL     OW 1771   4.257   0.779   4.178
  291SOL    HW1 1772   4.279   0.873   4.153
  291SOL    HW2 1773   4.322   0.747   4.248
  292SOL     OW 1774   4.110   1.742   3.326
  292SOL    HW1 1775   4.181   1.811   3.312
  292SOL    HW2 1776   4.152   1.656   3.353
  293SOL     OW 1777   3.814   5.671   2.207
  293SOL    HW1 1778   3.737   5.677   2.143
  293SOL    HW2 1779   3.899   5.666   2.155
  294SOL     OW 1780   6.708   5.536   6.721
  294SOL    HW1 1781   6.660   5.545   6.807
  294SOL    HW2 1782   6.646   5.557   6.645
  295SOL     OW 1783   3.042   1.729   4.909
  295SOL    HW1 1784   2.973   1.793   4.942
  295SOL    HW2 1785   3.124   1.780   4.883
  296SOL     OW 1786   6.522   2.290   1.869
  296SOL    HW1 1787   6.622   2.289   1.872
  296SOL    HW2 1788   6.492   2.268   1.776
  297SOL     OW 1789   2.851   4.751   2.855
  297SOL    HW1 1790   2.825   4.714   2.944
  297SOL    HW2 1791   2.776   4.738   2.791
  298SOL     OW 1792   3.978   0.095   6.941
  298SOL    HW1 1793   3.899   0.109   6.881
  298SOL    HW2 1794   3.946   0.072   0.006
  299SOL     OW 1795   5.166   2.006   6.660
  299SOL    HW1 1796   5.189   2.102   6.670
  299SOL    HW2 1797   5.084   1.996   6.603
  300SOL     OW 1798   4.711   0.803   1.999
  300SOL    HW1 1799   4.723   0.705   1.985
  300SOL    HW2 1800   4.652   0.819   2.078
  301SOL     OW 1801   4.759   2.028   6.989
  301SOL    HW1 1802   4.809   1.964   0.020
  301SOL    HW2 1803   4.817   2.057   6.912
  302SOL     OW 1804   6.528   0.726   3.218
  302SOL    HW1 1805   6.466   0.775   3.158
  302SOL    HW2 1806   6.613   0.707   3.169
  303SOL     OW 1807   5.850   6.417   2.307
  303SOL    HW1 1808   5.867   6.418   2.209
  303SOL    HW2 1809   5.891   6.336   2.348
  304SOL     OW 1810   1.982   6.423   5.923
  304SOL    HW1 1811   2.036   6.460   5.998
  304SOL    HW2 1812   1.942   6.336   5.950
  305SOL     OW 1813   1.384   2.647   0.450
  305SOL    HW1 1814   1.478   2.661   0.419
  305SOL    HW2 1815   1.322   2.709   0.401
  306SOL     OW 1816   1.224   1.173   3.332
  306SOL    HW1 1817   1.200   1.090   3.382
  306SOL    HW2 1818   1.174   1.174   3.245
  307SOL     OW 1819   4.939   4.212   0.641
  307SOL    HW1 1820   5.029   4.214   0.597
  307SOL    HW2 1821   4.950   4.184   0.737
  308SOL     OW 1822   6.211   3.824   4.994
  308SOL    HW1 1823   6.140   3.761   5.027
  308SOL    HW2 1824   6.291   3.819   5.054
  309SOL     OW 1825   1.812   5.555   0.384
  309SOL    HW1 1826   1.828   5.598   0.295
  309SOL    HW2 1827   1.771   5.465   0.370
  310SOL     OW 1828   4.833   5.731   5.626
  310SOL    HW1 1829   4.793   5.816   5.590
  310SOL    HW2 1830   4.822   5.729   5.725
  311SOL     OW 1831   3.286   4.936   2.810
  311SOL    HW1 1832   3.261   5.028   2.778
  311SOL    HW2 1833   3.220   4.870   2.776
  312SOL     OW 1834   4.355   1.575   4.095
  312SOL    HW1 1835   4.401   1.528   4.020
  312SOL    HW2 1836   4.349   1.673   4.076
  313SOL     OW 1837   3.253   3.454   1.725
  313SOL    HW1 1838   3.237   3.358   1.702
  313SOL    HW2 1839   3.346   3.467   1.757
  314SOL     OW 1840   2.854   4.672   0.035
  314SOL    HW1 1841   2.915   4.750   0.049
  314SOL    HW2 1842   2.777   4.677   0.099
  315SOL     OW 1843   0.954   3.589   3.853
  315SOL    HW1 1844   0.994   3.574   3.944
  315SOL    HW2 1845   0.864   3.546   3.848
  316SOL     OW 1846   3.544   1.017   4.369
  316SOL    HW1 1847   3.444   1.024   4.368
  316SOL    HW2 1848   3.574   0.952   4.300
  317SOL     OW 1849   0.565   1.741   1.567
  317SOL    HW1 1850   0.561   1.785   1.478
  317SOL    HW2 1851   0.556   1.810   1.639
  318SOL     OW 1852   6.943   5.946   6.961
  318SOL    HW1 1853   6.885   5.964   6.882
  318SOL    HW2 1854   6.993   5.861   6.947
  319SOL     OW 1855   6.368   1.265   3.699
  319SOL    HW1 1856   6.359   1.303   3.791
  319SOL    HW2 1857   6.448   1.304   3.655
  320SOL     OW 1858   5.840   2.490   0.005
  320SOL    HW1 1859   5.871   2.467   6.940
  320SOL    HW2 1860   5.904   2.555   0.046
  321SOL     OW 1861   3.473   1.808   6.690
  321SOL    HW1 1862   3.492   1.871   6.765
  321SOL    HW2 1863   3.559   1.779   6.647
  322SOL     OW 1864   3.226   3.596   3.559
  322SOL    HW1 1865   3.312   3.640   3.532
  322SOL    HW2 1866   3.246   3.508   3.601
  323SOL     OW 1867   1.424   2.954   6.015
  323SOL    HW1 1868   1.345   2.913   5.972
  323SOL    HW2 1869   1.441   3.045   5.976
  324SOL     OW 1870   3.100   0.836   3.002
  324SOL    HW1 1871   3.065   0.768   2.937
  324SOL    HW2 1872   3.023   0.889   3.038
  325SOL     OW 1873   0.304   2.688   2.232
  325SOL    HW1 1874   0.260   2.606   2.269
  325SOL    HW2 1875   0.377   2.716   2.293
  326SOL     OW 1876   1.608   5.000   6.700
  326SOL    HW1 1877   1.540   4.927   6.698
  326SOL    HW2 1878   1.663   4.992   6.783
  327SOL     OW 1879   1.929   4.654   2.495
  327SOL    HW1 1880   1.969   4.624   2.409
  327SOL    HW2 1881   1.862   4.586   2.526
  328SOL     OW 1882   1.434   5.723   1.872
  328SOL    HW1 1883   1.532   5.701   1.866
  328SOL    HW2 1884   1.395   5.724   1.780
  329SOL     OW 1885   2.986   3.219   4.543
  329SOL    HW1 1886   2.943   3.244   4.457
  329SOL    HW2 1887   3.060   3.155   4.526
  330SOL     OW 1888   3.377   6.248   1.505
  330SOL    HW1 1889   3.421   6.210   1.586
  330SOL    HW2 1890   3.362   6.176   1.437
  331SOL     OW 1891   4.106   5.590   0.607
  331SOL    HW1 1892   4.088   5.674   0.660
  331SOL    HW2 1893   4.201   5.590   0.576
  332SOL     OW 1894   4.872   2.072   5.735
  332SOL    HW1 1895   4.811   2.072   5.656
  332SOL    HW2 1896   4.846   1.999   5.798
  333SOL     OW 1897   4.602   0.306   5.846
  333SOL    HW1 1898   4.509   0.307   5.882
  333SOL    HW2 1899   4.660   0.367   5.900
  334SOL     OW 1900   3.315   1.259   0.223
  334SOL    HW1 1901   3.319   1.166   0.188
  334SOL    HW2 1902   3.241   1.268   0.289
  335SOL     OW 1903   4.631   6.428   6.019
  335SOL    HW1 1904   4.564   6.485   5.971
  335SOL    HW2 1905   4.584   6.372   6.088
  336SOL     OW 1906   2.790   1.208   3.395
  336SOL    HW1 1907   2.765   1.134   3.331
  336SOL    HW2 1908   2.780   1.296   3.349
  337SOL     OW 1909   0.099   3.226   6.218
  337SOL    HW1 1910   0.192   3.212   6.181
  337SOL    HW2 1911   0.072   3.145   6.271
  338SOL     OW 1912   3.091   2.578   1.374
  338SOL    HW1 1913   3.057   2.642   1.441
  338SOL    HW2 1914   3.063   2.485   1.398
  339SOL     OW 1915   4.703   5.718   4.923
  339SOL    HW1 1916   4.741   5.802   4.884
  339SOL    HW2 1917   4.625   5.688   4.868
  340SOL     OW 1918   4.768   4.078   5.142
  340SOL    HW1 1919   4.836   4.005   5.138
  340SOL    HW2 1920   4.797   4.153   5.082
  341SOL     OW 1921   6.409   6.748   4.321
  341SOL    HW1 1922   6.377   6.686   4.249
  341SOL    HW2 1923   6.508   6.761   4.312
  342SOL     OW 1924   5.617   3.742   0.556
  342SOL    HW1 1925   5.699   3.726   0.611
  342SOL    HW2 1926   5.642   3.744   0.459
  343SOL     OW 1927   1.680   6.611   1.554
  343SOL    HW1 1928   1.684   6.599   1.653
  343SOL    HW2 1929   1.713   6.527   1.510
  344SOL     OW 1930   1.310   3.107   1.847
  344SOL    HW1 1931   1.257   3.164   1.910
  344SOL    HW2 1932   1.287   3.132   1.753
  345SOL     OW 1933   4.966   2.473   3.766
  345SOL    HW1 1934   5.063   2.452   3.754
  345SOL    HW2 1935   4.910   2.408   3.714
  346SOL     OW 1936   2.019   0.874   3.094
  346SOL    HW1 1937   2.105   0.843   3.054
  346SOL    HW2 1938   1.944   0.818   3.058
  347SOL     OW 1939   2.459   5.387   6.718
  347SOL    HW1 1940   2.442   5.338   6.803
  347SOL    HW2 1941   2.437   5.328   6.640
  348SOL     OW 1942   4.901   4.217   2.370
  348SOL    HW1 1943   4.813   4.261   2.390
  348SOL    HW2 1944   4.933   4.247   2.280
  349SOL     OW 1945   6.614   5.533   0.786
  349SOL    HW1 1946   6.611   5.438   0.754
  349SOL    HW2 1947   6.654   5.591   0.715
  350SOL     OW 1948   3.176   2.942   1.130
  350SOL    HW1 1949   3.148   2.961   1.224
  350SOL    HW2 1950   3.189   2.844   1.118
  351SOL     OW 1951   2.620   3.665   0.724
  351SOL    HW1 1952   2.587   3.631   0.636
  351SOL    HW2 1953   2.720   3.668   0.724
  352SOL     OW 1954   3.252   6.612   4.173
  352SOL    HW1 1955   3.181   6.566   4.121
  352SOL    HW2 1956   3.331   6.630   4.114
  353SOL     OW 1957   2.917   0.010   0.230
  353SOL    HW1 1958   2.865   0.044   0.309
  353SOL    HW2 1959   2.854   6.995   0.165
  354SOL     OW 1960   4.073   2.943   0.659
  354SOL    HW1 1961   4.046   2.891   0.740
  354SOL    HW2 1962   4.084   2.881   0.581
  355SOL     OW 1963   1.388   3.528   2.871
  355SOL    HW1 1964   1.388   3.505   2.773
  355SOL    HW2 1965   1.295   3.547   2.901
  356SOL     OW 1966   2.262   0.086   5.823
  356SOL    HW1 1967   2.330   0.142   5.775
  356SOL    HW2 1968   2.230   0.014   5.761
  357SOL     OW 1969   0.071   6.005   5.500
  357SOL    HW1 1970   0.071   6.055   5.413
  357SOL    HW2 1971   7.013   6.025   5.550
  358SOL     OW 1972   4.864   6.272   0.785
  358SOL    HW1 1973   4.778   6.231   0.753
  358SOL    HW2 1974   4.917   6.202   0.832
  359SOL     OW 1975   3.110   2.283   1.681
  359SOL    HW1 1976   3.183   2.221   1.709
  359SOL    HW2 1977   3.068   2.324   1.762
  360SOL     OW 1978   1.337   4.879   6.084
  360SOL    HW1 1979   1.284   4.887   6.168
  360SOL    HW2 1980   1.391   4.962   6.070
  361SOL     OW 1981   6.097   6.779   2.618
  361SOL    HW1 1982   6.174   6.758   2.557
  361SOL    HW2 1983   6.062   6.694   2.657
  362SOL     OW 1984   3.785   3.058   1.237
  362SOL    HW1 1985   3.817   3.106   1.319
  362SOL    HW2 1986   3.840   3.088   1.159
  363SOL     OW 1987   5.670   4.187   2.965
  363SOL    HW1 1988   5.594   4.200   2.902
  363SOL    HW2 1989   5.664   4.095   3.006
  364SOL     OW 1990   6.288   5.220   6.753
  364SOL    HW1 1991   6.310   5.123   6.745
  364SOL    HW2 1992   6.281   5.260   6.661
  365SOL     OW 1993   5.555   6.611   1.718
  365SOL    HW1 1994   5.618   6.543   1.681
  365SOL    HW2 1995   5.516   6.577   1.804
  366SOL     OW 1996   5.660   0.617   6.317
  366SOL    HW1 1997   5.658   0.592   6.220
  366SOL    HW2 1998   5.745   0.584   6.358
  367SOL     OW 1999   5.308   2.954   2.010
  367SOL    HW1 2000   5.384   2.987   2.066
  367SOL    HW2 2001   5.248   3.031   1.986
  368SOL     OW 2002   0.715   2.922   5.307
  368SOL    HW1 2003   0.801   2.969   5.286
  368SOL    HW2 2004   0.704   2.916   5.406
  369SOL     OW 2005   6.173   4.933   2.145
  369SOL    HW1 2006   6.087   4.943   2.195
  369SOL    HW2 2007   6.215   4.845   2.167
  370SOL     OW 2008   2.120   1.331   4.950
  370SOL    HW1 2009   2.103   1.428   4.969
  370SOL    HW2 2010   2.049   1.275   4.994
  371SOL     OW 2011   1.667   4.396   5.677
  371SOL    HW1 2012   1.611   4.337   5.735
  371SOL    HW2 2013   1.719   4.339   5.612
  372SOL     OW 2014   1.329   6.331   6.469
  372SOL    HW1 2015   1.375   6.418   6.453
  372SOL    HW2 2016   1.232   6.340   6.450
  373SOL     OW 2017   6.110   6.491   4.272
  373SOL    HW1 2018   6.078   6.398   4.290
  373SOL    HW2 2019   6.194   6.488   4.217
  374SOL     OW 2020   3.076   1.897   3.891
  374SOL    HW1 2021   3.122   1.951   3.961
  374SOL    HW2 2022   3.129   1.900   3.806
  375SOL     OW 2023   1.159   4.668   4.050
  375SOL    HW1 2024   1.160   4.676   4.150
  375SOL    HW2 2025   1.170   4.759   4.010
  376SOL     OW 2026   2.637   0.942   5.218
  376SOL    HW1 2027   2.646   1.041   5.232
  376SOL    HW2 2028   2.727   0.904   5.197
  377SOL     OW 2029   0.878   2.030   1.121
  377SOL    HW1 2030   0.925   2.083   1.191
  377SOL    HW2 2031   0.853   2.089   1.044
  378SOL     OW 2032   4.957   2.497   6.144
  378SOL    HW1 2033   4.920   2.517   6.235
  378SOL    HW2 2034   4.949   2.399   6.126
  379SOL     OW 2035   5.780   2.946   1.672
  379SOL    HW1 2036   5.860   3.000   1.646
  379SOL    HW2 2037   5.730   2.919   1.590
  380SOL     OW 2038   2.175   1.161   0.782
  380SOL    HW1 2039   2.270   1.166   0.753
  380SOL    HW2 2040   2.129   1.086   0.734
  381SOL     OW 2041   1.103   3.662   2.518
  381SOL    HW1 2042   1.191   3.624   2.491
  381SOL    HW2 2043   1.044   3.589   2.553
  382SOL     OW 2044   5.473   0.461   6.776
  382SOL    HW1 2045   5.474   0.546   6.829
  382SOL    HW2 2046   5.457   0.482   6.680
  383SOL     OW 2047   4.137   3.934   6.317
  383SOL    HW1 2048   4.221   3.941   6.371
  383SOL    HW2 2049   4.105   4.026   6.295
  384SOL     OW 2050   0.428   5.888   3.789
  384SOL    HW1 2051   0.346   5.902   3.844
  384SOL    HW2 2052   0.421   5.800   3.742
  385SOL     OW 2053   3.417   4.687   5.374
  385SOL    HW1 2054   3.337   4.635   5.405
  385SOL    HW2 2055   3.490   4.679   5.442
  386SOL     OW 2056   2.389   0.139   5.289
  386SOL    HW1 2057   2.424   0.233   5.282
  386SOL    HW2 2058   2.296   0.141   5.324
  387SOL     OW 2059   1.365   6.998   2.267
  387SOL    HW1 2060   1.330   0.033   2.197
  387SOL    HW2 2061   1.291   6.939   2.300
  388SOL     OW 2062   1.637   1.569   4.899
  388SOL    HW1 2063   1.728   1.610   4.894
  388SOL    HW2 2064   1.643   1.480   4.944
  389SOL     OW 2065   3.595   3.948   1.067
  389SOL    HW1 2066   3.630   4.042   1.060
  389SOL    HW2 2067   3.626   3.907   1.153
  390SOL     OW 2068   3.528   1.791   1.136
  390SOL    HW1 2069   3.624   1.819   1.127
  390SOL    HW2 2070   3.524   1.695   1.165
  391SOL     OW 2071   1.815   3.065   6.757
  391SOL    HW1 2072   1.784   3.023   6.672
  391SOL    HW2 2073   1.894   3.015   6.792
  392SOL     OW 2074   1.415   4.370   1.044
  392SOL    HW1 2075   1.491   4.310   1.018
  392SOL    HW2 2076   1.333   4.341   0.995
  393SOL     OW 2077   1.498   4.248   6.594
  393SOL    HW1 2078   1.511   4.155   6.629
  393SOL    HW2 2079   1.587   4.293   6.587
  394SOL     OW 2080   6.897   2.028   0.206
  394SOL    HW1 2081   6.952   2.096   0.157
  394SOL    HW2 2082   6.950   1.988   0.280
  395SOL     OW 2083   5.077   4.111   2.912
  395SOL    HW1 2084   5.110   4.205   2.925
  395SOL    HW2 2085   5.149   4.056   2.871
  396SOL     OW 2086   3.149   3.783   1.159
  396SOL    HW1 2087   3.105   3.734   1.084
  396SOL    HW2 2088   3.113   3.751   1.246
  397SOL     OW 2089   6.040   1.286   5.097
  397SOL    HW1 2090   5.974   1.337   5.152
  397SOL    HW2 2091   6.129   1.331   5.102
  398SOL     OW 2092   1.075   0.255   2.376
  398SOL    HW1 2093   1.104   0.234   2.283
  398SOL    HW2 2094   1.091   0.351   2.396
  399SOL     OW 2095   5.644   5.845   2.475
  399SOL    HW1 2096   5.704   5.778   2.519
  399SOL    HW2 2097   5.571   5.871   2.538
  400SOL     OW 2098   6.591   6.251   5.490
  400SOL    HW1 2099   6.592   6.323   5.420
  400SOL    HW2 2100   6.537   6.282   5.568
  401SOL     OW 2101   5.880   0.490   6.446
  401SOL    HW1 2102   5.913   0.478   6.353
  401SOL    HW2 2103   5.941   0.443   6.510
  402SOL     OW 2104   6.136   0.415   3.653
  402SOL    HW1 2105   6.071   0.459   3.715
  402SOL    HW2 2106   6.170   0.331   3.695
  403SOL     OW 2107   3.762   1.895   4.346
  403SOL    HW1 2108   3.859   1.881   4.328
  403SOL    HW2 2109   3.749   1.980   4.397
  404SOL     OW 2110   1.707   5.232   3.792
  404SOL    HW1 2111   1.673   5.141   3.815
  404SOL    HW2 2112   1.792   5.223   3.740
  405SOL     OW 2113   1.811   3.053   2.396
  405SOL    HW1 2114   1.798   2.978   2.461
  405SOL    HW2 2115   1.889   3.033   2.337
  406SOL     OW 2116   0.902   3.912   4.705
  406SOL    HW1 2117   0.937   3.830   4.752
  406SOL    HW2 2118   0.918   3.903   4.607
  407SOL     OW 2119   1.452   0.784   4.470
  407SOL    HW1 2120   1.418   0.871   4.436
  407SOL    HW2 2121   1.552   0.786   4.474
  408SOL     OW 2122   1.512   2.369   3.037
  408SOL    HW1 2123   1.558   2.294   3.084
  408SOL    HW2 2124   1.520   2.452   3.091
  409SOL     OW 2125   6.720   2.892   2.348
  409SOL    HW1 2126   6.813   2.924   2.365
  409SOL    HW2 2127   6.718   2.792   2.348
  410SOL     OW 2128   1.714   1.999   1.082
  410SOL    HW1 2129   1.661   1.954   1.154
  410SOL    HW2 2130   1.795   1.944   1.060
  411SOL     OW 2131   6.291   0.712   1.671
  411SOL    HW1 2132   6.342   0.686   1.590
  411SOL    HW2 2133   6.241   0.797   1.653
  412SOL     OW 2134   2.795   6.039   3.849
  412SOL    HW1 2135   2.892   6.061   3.851
  412SOL    HW2 2136   2.779   5.968   3.781
  413SOL     OW 2137   5.657   3.732   1.554
  413SOL    HW1 2138   5.738   3.784   1.583
  413SOL    HW2 2139   5.575   3.788   1.567
  414SOL     OW 2140   3.372   5.145   3.705
  414SOL    HW1 2141   3.449   5.199   3.672
  414SOL    HW2 2142   3.398   5.095   3.788
  415SOL     OW 2143   0.997   6.379   6.751
  415SOL    HW1 2144   1.054   6.462   6.753
  415SOL    HW2 2145   1.056   6.299   6.738
  416SOL     OW 2146   4.831   6.369   4.831
  416SOL    HW1 2147   4.849   6.467   4.818
  416SOL    HW2 2148   4.733   6.353   4.838
  417SOL     OW 2149   1.885   6.165   5.957
  417SOL    HW1 2150   1.956   6.123   6.014
  417SOL    HW2 2151   1.795   6.144   5.994
  418SOL     OW 2152   4.024   6.846   6.732
  418SOL    HW1 2153   4.086   6.770   6.713
  418SOL    HW2 2154   3.945   6.813   6.783
  419SOL     OW 2155   2.054   6.590   1.447
  419SOL    HW1 2156   2.058   6.499   1.488
  419SOL    HW2 2157   1.986   6.590   1.374
  420SOL     OW 2158   5.907   1.217   0.230
  420SOL    HW1 2159   5.992   1.238   0.278
  420SOL    HW2 2160   5.832   1.271   0.270
  421SOL     OW 2161   0.199   4.096   5.251
  421SOL    HW1 2162   0.233   4.167   5.189
  421SOL    HW2 2163   0.139   4.034   5.202
  422SOL     OW 2164   5.222   3.478   1.219
  422SOL    HW1 2165   5.170   3.463   1.303
  422SOL    HW2 2166   5.274   3.396   1.198
  423SOL     OW 2167   0.520   2.041   5.828
  423SOL    HW1 2168   0.610   2.083   5.821
  423SOL    HW2 2169   0.500   1.990   5.745
  424SOL     OW 2170   1.468   5.668   0.743
  424SOL    HW1 2171   1.400   5.740   0.727
  424SOL    HW2 2172   1.497   5.669   0.838
  425SOL     OW 2173   4.817   1.830   3.422
  425SOL    HW1 2174   4.886   1.763   3.451
  425SOL    HW2 2175   4.765   1.793   3.346
  426SOL     OW 2176   3.217   1.782   4.420
  426SOL    HW1 2177   3.227   1.831   4.507
  426SOL    HW2 2178   3.269   1.829   4.349
  427SOL     OW 2179   5.594   6.146   3.880
  427SOL    HW1 2180   5.599   6.076   3.951
  427SOL    HW2 2181   5.501   6.149   3.843
  428SOL     OW 2182   4.176   0.186   3.535
  428SOL    HW1 2183   4.230   0.169   3.618
  428SOL    HW2 2184   4.173   0.284   3.516
  429SOL     OW 2185   1.384   4.826   1.891
  429SOL    HW1 2186   1.435   4.820   1.805
  429SOL    HW2 2187   1.372   4.923   1.915
  430SOL     OW 2188   0.623   0.147   4.549
  430SOL    HW1 2189   0.658   0.056   4.523
  430SOL    HW2 2190   0.686   0.189   4.614
  431SOL     OW 2191   3.024   0.855   1.352
  431SOL    HW1 2192   3.092   0.926   1.371
  431SOL    HW2 2193   3.062   0.766   1.375
  432SOL     OW 2194   6.292   1.650   0.880
  432SOL    HW1 2195   6.372   1.613   0.926
  432SOL    HW2 2196   6.228   1.576   0.859
  433SOL     OW 2197   1.752   6.678   4.947
  433SOL    HW1 2198   1.712   6.587   4.935
  433SOL    HW2 2199   1.797   6.707   4.863
  434SOL     OW 2200   3.768   5.562   3.671
  434SOL    HW1 2201   3.832   5.553   3.747
  434SOL    HW2 2202   3.725   5.473   3.652
  435SOL     OW 2203   4.728   2.422   6.776
  435SOL    HW1 2204   4.738   2.428   6.875
  435SOL    HW2 2205   4.645   2.369   6.755
  436SOL     OW 2206   3.027   5.600   2.258
  436SOL    HW1 2207   3.097   5.529   2.253
  436SOL    HW2 2208   3.032   5.658   2.177
  437SOL     OW 2209   0.657   1.457   6.817
  437SOL    HW1 2210   0.605   1.423   6.896
  437SOL    HW2 2211   0.754   1.457   6.839
  438SOL     OW 2212   2.102   4.080   3.649
  438SOL    HW1 2213   2.003   4.083   3.637
  438SOL    HW2 2214   2.146   4.086   3.559
  439SOL     OW 2215   6.060   5.329   2.128
  439SOL    HW1 2216   6.117   5.408   2.107
  439SOL    HW2 2217   5.972   5.338   2.080
  440SOL     OW 2218   2.484   1.699   5.170
  440SOL    HW1 2219   2.393   1.739   5.184
  440SOL    HW2 2220   2.552   1.772   5.168
  441SOL     OW 2221   0.743   3.370   4.127
  441SOL    HW1 2222   0.757   3.379   4.225
  441SOL    HW2 2223   0.667   3.307   4.110
  442SOL     OW 2224   3.750   5.527   5.425
  442SOL    HW1 2225   3.696   5.594   5.475
  442SOL    HW2 2226   3.691   5.479   5.360
  443SOL     OW 2227   6.229   4.275   3.743
  443SOL    HW1 2228   6.153   4.271   3.807
  443SOL    HW2 2229   6.298   4.338   3.777
  444SOL     OW 2230   5.124   0.614   6.611
  444SOL    HW1 2231   5.063   0.660   6.675
  444SOL    HW2 2232   5.101   0.516   6.608
  445SOL     OW 2233   1.031   5.988   3.134
  445SOL    HW1 2234   1.062   5.986   3.229
  445SOL    HW2 2235   1.073   5.913   3.083
  446SOL     OW 2236   3.247   4.958   3.525
  446SOL    HW1 2237   3.269   5.031   3.589
  446SOL    HW2 2238   3.148   4.945   3.521
  447SOL     OW 2239   0.339   2.901   6.406
  447SOL    HW1 2240   0.315   2.924   6.500
  447SOL    HW2 2241   0.390   2.976   6.365
  448SOL     OW 2242   2.475   0.964   3.198
  448SOL    HW1 2243   2.433   1.053   3.176
  448SOL    HW2 2244   2.485   0.911   3.115
  449SOL     OW 2245   2.670   1.346   3.998
  449SOL    HW1 2246   2.595   1.299   3.952
  449SOL    HW2 2247   2.736   1.280   4.032
  450SOL     OW 2248   1.380   4.872   3.098
  450SOL    HW1 2249   1.418   4.887   3.189
  450SOL    HW2 2250   1.335   4.956   3.066
  451SOL     OW 2251   1.291   2.442   4.384
  451SOL    HW1 2252   1.195   2.437   4.358
  451SOL    HW2 2253   1.348   2.446   4.302
  452SOL     OW 2254   5.362   6.151   0.774
  452SOL    HW1 2255   5.297   6.218   0.811
  452SOL    HW2 2256   5.369   6.163   0.675
  453SOL     OW 2257   4.022   0.199   6.477
  453SOL    HW1 2258   4.076   0.225   6.397
  453SOL    HW2 2259   3.976   0.279   6.514
  454SOL     OW 2260   0.342   4.111   6.627
  454SOL    HW1 2261   0.401   4.084   6.551
  454SOL    HW2 2262   0.375   4.069   6.712
  455SOL     OW 2263   5.542   2.190   4.891
  455SOL    HW1 2264   5.457   2.198   4.942
  455SOL    HW2 2265   5.619   2.209   4.952
  456SOL     OW 2266   0.645   6.979   3.909
  456SOL    HW1 2267   0.707   6.959   3.985
  456SOL    HW2 2268   0.689   0.015   3.845
  457SOL     OW 2269   1.775   3.400   4.766
  457SOL    HW1 2270   1.709   3.375   4.695
  457SOL    HW2 2271   1.798   3.319   4.820
  458SOL     OW 2272   3.322   6.146   2.716
  458SOL    HW1 2273   3.248   6.079   2.709
  458SOL    HW2 2274   3.382   6.122   2.792
  459SOL     OW 2275   1.844   0.067   6.039
  459SOL    HW1 2276   1.845   0.026   6.130
  459SOL    HW2 2277   1.895   0.154   6.041
  460SOL     OW 2278   2.316   6.835   4.707
  460SOL    HW1 2279   2.225   6.876   4.715
  460SOL    HW2 2280   2.379   6.884   4.766
  461SOL     OW 2281   6.844   5.494   5.501
  461SOL    HW1 2282   6.928   5.444   5.480
  461SOL    HW2 2283   6.827   5.562   5.430
  462SOL     OW 2284   3.979   3.201   6.990
  462SOL    HW1 2285   3.950   3.218   6.896
  462SOL    HW2 2286   3.998   3.104   7.002
  463SOL     OW 2287   5.779   6.316   3.965
  463SOL    HW1 2288   5.699   6.266   3.932
  463SOL    HW2 2289   5.853   6.309   3.897
  464SOL     OW 2290   3.126   1.063   5.385
  464SOL    HW1 2291   3.185   0.997   5.429
  464SOL    HW2 2292   3.150   1.071   5.288
  465SOL     OW 2293   1.009   2.265   0.075
  465SOL    HW1 2294   1.038   2.271   0.171
  465SOL    HW2 2295   1.049   2.341   0.024
  466SOL     OW 2296   1.874   6.342   3.881
  466SOL    HW1 2297   1.816   6.302   3.951
  466SOL    HW2 2298   1.937   6.408   3.923
  467SOL     OW 2299   2.046   1.288   1.048
  467SOL    HW1 2300   2.078   1.223   1.117
  467SOL    HW2 2301   1.970   1.247   0.997
  468SOL     OW 2302   3.879   5.878   5.619
  468SOL    HW1 2303   3.790   5.861   5.662
  468SOL    HW2 2304   3.868   5.938   5.540
  469SOL     OW 2305   2.888   3.636   6.041
  469SOL    HW1 2306   2.815   3.626   6.109
  469SOL    HW2 2307   2.946   3.714   6.065
  470SOL     OW 2308   4.859   6.629   1.111
  470SOL    HW1 2309   4.867   6.668   1.019
  470SOL    HW2 2310   4.930   6.668   1.169
  471SOL     OW 2311   2.428   2.571   4.039
  471SOL    HW1 2312   2.416   2.617   3.952
  471SOL    HW2 2313   2.338   2.547   4.077
  472SOL     OW 2314   4.739   4.651   6.265
  472SOL    HW1 2315   4.700   4.560   6.251
  472SOL    HW2 2316   4.679   4.720   6.223
  473SOL     OW 2317   1.411   2.541   2.501
  473SOL    HW1 2318   1.359   2.539   2.586
  473SOL    HW2 2319   1.427   2.635   2.473
  474SOL     OW 2320   5.362   6.161   4.803
  474SOL    HW1 2321   5.273   6.128   4.834
  474SOL    HW2 2322   5.396   6.101   4.730
  475SOL     OW 2323   5.870   2.117   6.698
  475SOL    HW1 2324   5.916   2.071   6.622
  475SOL    HW2 2325   5.803   2.055   6.739
  476SOL     OW 2326   0.309   3.602   2.187
  476SOL    HW1 2327   0.219   3.564   2.165
  476SOL    HW2 2328   0.318   3.693   2.147
  477SOL     OW 2329   2.558   6.228   3.218
  477SOL    HW1 2330   2.523   6.161   3.283
  477SOL    HW2 2331   2.549   6.320   3.256
  478SOL     OW 2332   3.383   6.270   2.218
  478SOL    HW1 2333   3.343   6.308   2.301
  478SOL    HW2 2334   3.341   6.312   2.138
  479SOL     OW 2335   3.706   2.878   5.566
  479SOL    HW1 2336   3.655   2.892   5.651
  479SOL    HW2 2337   3.802   2.862   5.587
  480SOL     OW 2338   2.060   0.918   0.661
  480SOL    HW1 2339   1.964   0.929   0.684
  480SOL    HW2 2340   2.072   0.839   0.601
  481SOL     OW 2341   1.627   6.558   1.153
  481SOL    HW1 2342   1.642   6.584   1.058
  481SOL    HW2 2343   1.529   6.563   1.175
  482SOL     OW 2344   4.027   4.788   2.171
  482SOL    HW1 2345   4.098   4.741   2.120
  482SOL    HW2 2346   3.938   4.746   2.153
  483SOL     OW 2347   6.541   2.340   3.232
  483SOL    HW1 2348   6.453   2.384   3.217
  483SOL    HW2 2349   6.611   2.409   3.248
  484SOL     OW 2350   1.867   3.246   5.415
  484SOL    HW1 2351   1.966   3.238   5.404
  484SOL    HW2 2352   1.840   3.342   5.406
  485SOL     OW 2353   3.996   4.853   2.654
  485SOL    HW1 2354   3.910   4.863   2.705
  485SOL    HW2 2355   3.980   4.876   2.558
  486SOL     OW 2356   6.706   0.836   0.292
  486SOL    HW1 2357   6.739   0.887   0.212
  486SOL    HW2 2358   6.608   0.820   0.283
  487SOL     OW 2359   0.740   0.592   3.536
  487SOL    HW1 2360   0.666   0.526   3.538
  487SOL    HW2 2361   0.828   0.545   3.523
  488SOL     OW 2362   1.145   0.951   2.682
  488SOL    HW1 2363   1.176   1.007   2.759
  488SOL    HW2 2364   1.222   0.934   2.621
  489SOL     OW 2365   5.175   5.637   5.244
  489SOL    HW1 2366   5.169   5.723   5.294
  489SOL    HW2 2367   5.143   5.562   5.302
  490SOL     OW 2368   0.817   6.569   3.065
  490SOL    HW1 2369   0.864   6.642   3.015
  490SOL    HW2 2370   0.885   6.507   3.105
  491SOL     OW 2371   1.360   3.421   1.899
  491SOL    HW1 2372   1.263   3.432   1.882
  491SOL    HW2 2373   1.392   3.495   1.959
  492SOL     OW 2374   1.451   0.254   5.694
  492SOL    HW1 2375   1.445   0.330   5.759
  492SOL    HW2 2376   1.438   0.288   5.601
  493SOL     OW 2377   3.682   6.368   5.630
  493SOL    HW1 2378   3.770   6.323   5.647
  493SOL    HW2 2379   3.698   6.464   5.603
  494SOL     OW 2380   0.810   6.725   6.706
  494SOL    HW1 2381   0.782   6.634   6.734
  494SOL    HW2 2382   0.888   6.718   6.644
  495SOL     OW 2383   4.181   5.750   3.575
  495SOL    HW1 2384   4.128   5.815   3.630
  495SOL    HW2 2385   4.276   5.781   3.570
  496SOL     OW 2386   5.287   3.031   1.711
  496SOL    HW1 2387   5.354   3.095   1.750
  496SOL    HW2 2388   5.297   3.029   1.612
  497SOL     OW 2389   3.290   1.629   4.716
  497SOL    HW1 2390   3.207   1.592   4.674
  497SOL    HW2 2391   3.267   1.681   4.798
  498SOL     OW 2392   0.979   4.954   1.774
  498SOL    HW1 2393   0.919   5.023   1.734
  498SOL    HW2 2394   0.957   4.942   1.871
  499SOL     OW 2395   1.658   5.414   4.466
  499SOL    HW1 2396   1.655   5.514   4.463
  499SOL    HW2 2397   1.705   5.379   4.385
  500SOL     OW 2398   0.065   2.235   6.170
  500SOL    HW1 2399   7.023   2.306   6.163
  500SOL    HW2 2400   0.025   2.146   6.147
  501SOL     OW 2401   3.719   0.275   0.995
  501SOL    HW1 2402   3.770   0.322   1.067
  501SOL    HW2 2403   3.687   0.187   1.029
  502SOL     OW 2404   0.507   4.190   5.738
  502SOL    HW1 2405   0.481   4.094   5.736
  502SOL    HW2 2406   0.534   4.219   5.647
  503SOL     OW 2407   0.153   4.898   6.658
  503SOL    HW1 2408   0.097   4.971   6.619
  503SOL    HW2 2409   0.229   4.877   6.596
  504SOL     OW 2410   0.880   5.204   2.213
  504SOL    HW1 2411   0.794   5.208   2.264
  504SOL    HW2 2412   0.948   5.153   2.266
  505SOL     OW 2413   3.259   6.198   4.502
  505SOL    HW1 2414   3.334   6.238   4.555
  505SOL    HW2 2415   3.196   6.269   4.473
  506SOL     OW 2416   3.092   5.230   3.722
  506SOL    HW1 2417   3.108   5.328   3.717
  506SOL    HW2 2418   3.066   5.195   3.632
  507SOL     OW 2419   3.280   0.353   3.296
  507SOL    HW1 2420   3.313   0.445   3.319
  507SOL    HW2 2421   3.254   0.350   3.200
  508SOL     OW 2422   0.034   3.518   2.764
  508SOL    HW1 2423   0.078   3.595   2.809
  508SOL    HW2 2424   6.964   3.539   2.748
  509SOL     OW 2425   2.980   1.555   1.220
  509SOL    HW1 2426   3.033   1.560   1.305
  509SOL    HW2 2427   2.967   1.459   1.194
  510SOL     OW 2428   6.422   4.167   0.118
  510SOL    HW1 2429   6.442   4.216   0.033
  510SOL    HW2 2430   6.398   4.072   0.096
  511SOL     OW 2431   0.994   2.360   5.881
  511SOL    HW1 2432   1.061   2.432   5.860
  511SOL    HW2 2433   1.016   2.278   5.828
  512SOL     OW 2434   6.896   2.407   6.715
  512SOL    HW1 2435   6.981   2.410   6.768
  512SOL    HW2 2436   6.875   2.498   6.681
  513SOL     OW 2437   5.559   6.784   3.243
  513SOL    HW1 2438   5.600   6.831   3.321
  513SOL    HW2 2439   5.582   6.832   3.159
  514SOL     OW 2440   6.092   0.416   4.300
  514SOL    HW1 2441   5.997   0.386   4.307
  514SOL    HW2 2442   6.136   0.406   4.390
  515SOL     OW 2443   1.131   6.884   1.149
  515SOL    HW1 2444   1.214   6.851   1.195
  515SOL    HW2 2445   1.093   6.960   1.201
  516SOL     OW 2446   2.893   4.888   2.005
  516SOL    HW1 2447   2.864   4.794   2.026
  516SOL    HW2 2448   2.940   4.890   1.917
  517SOL     OW 2449   3.784   5.233   1.680
  517SOL    HW1 2450   3.819   5.234   1.586
  517SOL    HW2 2451   3.796   5.323   1.721
  518SOL     OW 2452   2.148   2.177   3.937
  518SOL    HW1 2453   2.092   2.231   3.875
  518SOL    HW2 2454   2.092   2.107   3.980
  519SOL     OW 2455   0.762   6.353   4.018
  519SOL    HW1 2456   0.792   6.321   4.107
  519SOL    HW2 2457   0.798   6.445   4.001
  520SOL     OW 2458   6.016   3.923   6.904
  520SOL    HW1 2459   6.049   3.909   6.811
  520SOL    HW2 2460   5.965   3.842   6.934
  521SOL     OW 2461   6.353   5.931   4.878
  521SOL    HW1 2462   6.403   6.001   4.929
  521SOL    HW2 2463   6.417   5.878   4.822
  522SOL     OW 2464   3.587   3.300   3.654
  522SOL    HW1 2465   3.625   3.229   3.713
  522SOL    HW2 2466   3.598   3.274   3.559
  523SOL     OW 2467   0.514   6.334   1.731
  523SOL    HW1 2468   0.462   6.331   1.646
  523SOL    HW2 2469   0.610   6.315   1.713
  524SOL     OW 2470   0.655   1.918   2.574
  524SOL    HW1 2471   0.681   1.882   2.663
  524SOL    HW2 2472   0.718   1.883   2.504
  525SOL     OW 2473   2.155   4.423   6.000
  525SOL    HW1 2474   2.241   4.467   6.027
  525SOL    HW2 2475   2.170   4.368   5.918
  526SOL     OW 2476   3.256   6.154   4.214
  526SOL    HW1 2477   3.295   6.062   4.214
  526SOL    HW2 2478   3.235   6.181   4.308
  527SOL     OW 2479   6.780   3.048   0.820
  527SOL    HW1 2480   6.744   2.975   0.763
  527SOL    HW2 2481   6.719   3.062   0.898
  528SOL     OW 2482   1.596   2.708   3.929
  528SOL    HW1 2483   1.686   2.669   3.951
  528SOL    HW2 2484   1.604   2.807   3.922
  529SOL     OW 2485   1.499   5.452   5.135
  529SOL    HW1 2486   1.476   5.420   5.227
  529SOL    HW2 2487   1.509   5.551   5.135
  530SOL     OW 2488   4.135   3.462   3.764
  530SOL    HW1 2489   4.133   3.464   3.864
  530SOL    HW2 2490   4.045   3.438   3.729
  531SOL     OW 2491   0.839   2.292   2.707
  531SOL    HW1 2492   0.812   2.263   2.616
  531SOL    HW2 2493   0.758   2.298   2.766
  532SOL     OW 2494   0.820   3.131   0.391
  532SOL    HW1 2495   0.816   3.061   0.462
  532SOL    HW2 2496   0.809   3.089   0.301
  533SOL     OW 2497   4.062   0.187   3.857
  533SOL    HW1 2498   4.097   0.097   3.886
  533SOL    HW2 2499   3.988   0.175   3.792
  534SOL     OW 2500   5.112   6.289   2.629
  534SOL    HW1 2501   5.110   6.239   2.716
  534SOL    HW2 2502   5.037   6.356   2.628
  535SOL     OW 2503   6.874   3.609   4.452
  535SOL    HW1 2504   6.919   3.564   4.375
  535SOL    HW2 2505   6.778   3.626   4.429
  536SOL     OW 2506   5.941   5.151   2.676
  536SOL    HW1 2507   5.956   5.095   2.758
  536SOL    HW2 2508   6.010   5.223   2.673
  537SOL     OW 2509   2.308   6.323   4.619
  537SOL    HW1 2510   2.389   6.281   4.578
  537SOL    HW2 2511   2.304   6.419   4.593
  538SOL     OW 2512   1.179   4.323   4.191
  538SOL    HW1 2513   1.264   4.293   4.149
  538SOL    HW2 2514   1.127   4.379   4.127
  539SOL     OW 2515   1.738   5.144   1.347
  539SOL    HW1 2516   1.767   5.049   1.336
  539SOL    HW2 2517   1.729   5.187   1.256
  540SOL     OW 2518   1.274   1.467   2.795
  540SOL    HW1 2519   1.351   1.482   2.732
  540SOL    HW2 2520   1.294   1.509   2.883
  541SOL     OW 2521   5.171   5.621   3.739
  541SOL    HW1 2522   5.255   5.655   3.695
  541SOL    HW2 2523   5.175   5.521   3.745
  542SOL     OW 2524   5.701   6.341   6.759
  542SOL    HW1 2525   5.602   6.337   6.744
  542SOL    HW2 2526   5.746   6.275   6.699
  543SOL     OW 2527   0.502   3.084   4.680
  543SOL    HW1 2528   0.583   3.029   4.701
  543SOL    HW2 2529   0.499   3.164   4.740
  544SOL     OW 2530   1.568   4.867   0.189
  544SOL    HW1 2531   1.492   4.841   0.130
  544SOL    HW2 2532   1.654   4.862   0.138
  545SOL     OW 2533   3.144   1.679   1.039
  545SOL    HW1 2534   3.069   1.648   1.098
  545SOL    HW2 2535   3.194   1.600   1.004
  546SOL     OW 2536   2.195   3.325   0.416
  546SOL    HW1 2537   2.213   3.415   0.455
  546SOL    HW2 2538   2.145   3.270   0.483
  547SOL     OW 2539   3.711   1.183   0.118
  547SOL    HW1 2540   3.612   1.169   0.123
  547SOL    HW2 2541   3.743   1.160   0.026
  548SOL     OW 2542   3.471   3.419   2.133
  548SOL    HW1 2543   3.385   3.386   2.171
  548SOL    HW2 2544   3.515   3.346   2.081
  549SOL     OW 2545   5.874   3.003   1.114
  549SOL    HW1 2546   5.829   3.080   1.159
  549SOL    HW2 2547   5.932   3.036   1.040
  550SOL     OW 2548   1.189   5.985   3.982
  550SOL    HW1 2549   1.177   5.955   3.887
  550SOL    HW2 2550   1.199   5.905   4.041
  551SOL     OW 2551   1.245   0.176   2.128
  551SOL    HW1 2552   1.162   0.160   2.075
  551SOL    HW2 2553   1.323   0.187   2.066
  552SOL     OW 2554   6.690   4.533   7.020
  552SOL    HW1 2555   6.595   4.543   6.990
  552SOL    HW2 2556   6.736   4.622   7.014
  553SOL     OW 2557   2.737   6.147   3.538
  553SOL    HW1 2558   2.709   6.170   3.631
  553SOL    HW2 2559   2.777   6.227   3.494
  554SOL     OW 2560   6.586   6.519   6.436
  554SOL    HW1 2561   6.568   6.556   6.528
  554SOL    HW2 2562   6.631   6.430   6.444
  555SOL     OW 2563   2.195   4.383   4.667
  555SOL    HW1 2564   2.231   4.303   4.618
  555SOL    HW2 2565   2.232   4.384   4.760
  556SOL     OW 2566   4.333   2.000   3.910
  556SOL    HW1 2567   4.294   1.988   4.001
  556SOL    HW2 2568   4.260   2.026   3.846
  557SOL     OW 2569   0.304   5.515   1.114
  557SOL    HW1 2570   0.238   5.544   1.184
  557SOL    HW2 2571   0.286   5.565   1.029
  558SOL     OW 2572   2.894   3.426   3.635
  558SOL    HW1 2573   2.920   3.510   3.588
  558SOL    HW2 2574   2.798   3.431   3.662
  559SOL     OW 2575   0.033   5.502   0.031
  559SOL    HW1 2576   0.033   5.573   6.987
  559SOL    HW2 2577   0.119   5.504   0.082
  560SOL     OW 2578   5.342   4.889   5.336
  560SOL    HW1 2579   5.432   4.847   5.326
  560SOL    HW2 2580   5.329   4.919   5.430
  561SOL     OW 2581   0.850   1.971   1.512
  561SOL    HW1 2582   0.797   1.902   1.462
  561SOL    HW2 2583   0.947   1.952   1.502
  562SOL     OW 2584   4.556   6.946   5.820
  562SOL    HW1 2585   4.557   7.012   5.895
  562SOL    HW2 2586   4.638   6.889   5.824
  563SOL     OW 2587   2.881   0.541   3.324
  563SOL    HW1 2588   2.974   0.575   3.335
  563SOL    HW2 2589   2.883   0.451   3.280
  564SOL     OW 2590   1.557   2.293   6.796
  564SOL    HW1 2591   1.464   2.258   6.781
  564SOL    HW2 2592   1.569   2.379   6.746
  565SOL     OW 2593   3.192   3.097   5.037
  565SOL    HW1 2594   3.170   3.009   5.078
  565SOL    HW2 2595   3.264   3.142   5.091
  566SOL     OW 2596   6.965   4.724   3.391
  566SOL    HW1 2597   0.011   4.713   3.458
  566SOL    HW2 2598   6.918   4.812   3.407
  567SOL     OW 2599   3.000   2.966   1.361
  567SOL    HW1 2600   3.005   2.903   1.438
  567SOL    HW2 2601   2.914   3.016   1.365
  568SOL     OW 2602   5.036   0.587   0.003
  568SOL    HW1 2603   5.072   0.494   7.020
  568SOL    HW2 2604   4.948   0.584   0.051
  569SOL     OW 2605   1.794   2.866   6.474
  569SOL    HW1 2606   1.700   2.838   6.455
  569SOL    HW2 2607   1.833   2.911   6.394
  570SOL     OW 2608   3.856   5.771   6.818
  570SOL    HW1 2609   3.876   5.866   6.792
  570SOL    HW2 2610   3.935   5.714   6.798
  571SOL     OW 2611   3.445   6.896   2.169
  571SOL    HW1 2612   3.361   6.893   2.114
  571SOL    HW2 2613   3.499   6.814   2.152
  572SOL     OW 2614   2.678   4.666   5.524
  572SOL    HW1 2615   2.679   4.568   5.547
  572SOL    HW2 2616   2.670   4.676   5.424
  573SOL     OW 2617   5.316   1.192   5.223
  573SOL    HW1 2618   5.326   1.217   5.319
  573SOL    HW2 2619   5.309   1.093   5.214
  574SOL     OW 2620   4.018   1.778   4.322
  574SOL    HW1 2621   4.063   1.743   4.404
  574SOL    HW2 2622   3.973   1.703   4.274
  575SOL     OW 2623   4.868   4.048   6.957
  575SOL    HW1 2624   4.955   4.075   6.916
  575SOL    HW2 2625   4.802   4.123   6.949
  576SOL     OW 2626   0.799   1.981   3.308
  576SOL    HW1 2627   0.703   1.985   3.335
  576SOL    HW2 2628   0.824   1.886   3.287
  577SOL     OW 2629   1.555   1.215   2.894
  577SOL    HW1 2630   1.502   1.285   2.943
  577SOL    HW2 2631   1.628   1.260   2.842
  578SOL     OW 2632   5.611   5.948   4.054
  578SOL    HW1 2633   5.552   5.938   4.134
  578SOL    HW2 2634   5.596   5.871   3.991
  579SOL     OW 2635   1.847   3.495   3.340
  579SOL    HW1 2636   1.931   3.471   3.291
  579SOL    HW2 2637   1.789   3.552   3.282
  580SOL     OW 2638   5.013   5.911   6.933
  580SOL    HW1 2639   5.108   5.922   6.963
  580SOL    HW2 2640   5.006   5.936   6.836
  581SOL     OW 2641   2.370   3.590   1.393
  581SOL    HW1 2642   2.290   3.586   1.452
  581SOL    HW2 2643   2.442   3.530   1.429
  582SOL     OW 2644   4.382   6.316   1.881
  582SOL    HW1 2645   4.382   6.416   1.875
  582SOL    HW2 2646   4.464   6.280   1.837
  583SOL     OW 2647   3.262   6.130   5.578
  583SOL    HW1 2648   3.252   6.087   5.667
  583SOL    HW2 2649   3.189   6.099   5.517
  584SOL     OW 2650   2.975   5.018   6.876
  584SOL    HW1 2651   2.887   5.057   6.903
  584SOL    HW2 2652   2.991   4.934   6.928
  585SOL     OW 2653   5.609   2.556   6.101
  585SOL    HW1 2654   5.551   2.550   6.182
  585SOL    HW2 2655   5.681   2.624   6.116
  586SOL     OW 2656   3.763   0.574   6.076
  586SOL    HW1 2657   3.697   0.530   6.137
  586SOL    HW2 2658   3.762   0.673   6.092
  587SOL     OW 2659   4.567   1.681   4.935
  587SOL    HW1 2660   4.513   1.764   4.936
  587SOL    HW2 2661   4.516   1.608   4.891
  588SOL     OW 2662   1.609   4.690   2.367
  588SOL    HW1 2663   1.567   4.617   2.313
  588SOL    HW2 2664   1.677   4.651   2.429
  589SOL     OW 2665   3.265   4.616   1.348
  589SOL    HW1 2666   3.216   4.699   1.375
  589SOL    HW2 2667   3.244   4.594   1.253
  590SOL     OW 2668   4.820   3.038   3.216
  590SOL    HW1 2669   4.821   3.025   3.315
  590SOL    HW2 2670   4.750   2.979   3.176
  591SOL     OW 2671   3.078   5.239   4.000
  591SOL    HW1 2672   3.107   5.164   4.059
  591SOL    HW2 2673   3.110   5.223   3.907
  592SOL     OW 2674   3.888   1.367   0.970
  592SOL    HW1 2675   3.933   1.322   0.893
  592SOL    HW2 2676   3.789   1.353   0.963
  593SOL     OW 2677   4.628   2.670   4.192
  593SOL    HW1 2678   4.620   2.653   4.094
  593SOL    HW2 2679   4.669   2.590   4.236
  594SOL     OW 2680   6.660   1.978   0.359
  594SOL    HW1 2681   6.752   1.995   0.325
  594SOL    HW2 2682   6.601   2.055   0.338
  595SOL     OW 2683   5.775   0.363   3.357
  595SOL    HW1 2684   5.811   0.356   3.264
  595SOL    HW2 2685   5.677   0.343   3.357
  596SOL     OW 2686   0.723   5.434   3.314
  596SOL    HW1 2687   0.694   5.522   3.277
  596SOL    HW2 2688   0.646   5.371   3.315
  597SOL     OW 2689   2.781   0.281   7.013
  597SOL    HW1 2690   2.726   0.358   0.019
  597SOL    HW2 2691   2.720   0.204   6.990
  598SOL     OW 2692   4.164   4.921   5.655
  598SOL    HW1 2693   4.230   4.995   5.643
  598SOL    HW2 2694   4.073   4.960   5.670
  599SOL     OW 2695   1.931   6.324   1.889
  599SOL    HW1 2696   1.928   6.338   1.988
  599SOL    HW2 2697   2.024   6.340   1.856
  600SOL     OW 2698   6.852   1.287   6.306
  600SOL    HW1 2699   6.890   1.344   6.233
  600SOL    HW2 2700   6.753   1.286   6.299
  601SOL     OW 2701   1.785   0.338   4.699
  601SOL    HW1 2702   1.753   0.248   4.729
  601SOL    HW2 2703   1.883   0.334   4.682
  602SOL     OW 2704   2.275   2.505   6.422
  602SOL    HW1 2705   2.245   2.588   6.468
  602SOL    HW2 2706   2.204   2.435   6.430
  603SOL     OW 2707   2.447   2.283   5.490
  603SOL    HW1 2708   2.422   2.284   5.587
  603SOL    HW2 2709   2.390   2.216   5.442
  604SOL     OW 2710   1.352   2.836   1.756
  604SOL    HW1 2711   1.327   2.927   1.790
  604SOL    HW2 2712   1.304   2.766   1.809
  605SOL     OW 2713   6.561   6.586   1.177
  605SOL    HW1 2714   6.631   6.597   1.247
  605SOL    HW2 2715   6.539   6.674   1.137
  606SOL     OW 2716   4.385   6.733   6.846
  606SOL    HW1 2717   4.414   6.820   6.806
  606SOL    HW2 2718   4.390   6.738   6.945
  607SOL     OW 2719   6.765   6.390   5.865
  607SOL    HW1 2720   6.745   6.463   5.800
  607SOL    HW2 2721   6.680   6.360   5.909
  608SOL     OW 2722   3.361   5.826   6.797
  608SOL    HW1 2723   3.299   5.850   6.872
  608SOL    HW2 2724   3.429   5.761   6.830
  609SOL     OW 2725   3.993   3.110   2.978
  609SOL    HW1 2726   3.922   3.057   3.024
  609SOL    HW2 2727   4.055   3.148   3.046
  610SOL     OW 2728   5.458   3.892   1.786
  610SOL    HW1 2729   5.384   3.825   1.782
  610SOL    HW2 2730   5.492   3.899   1.880
  611SOL     OW 2731   3.705   6.863   0.895
  611SOL    HW1 2732   3.703   6.763   0.886
  611SOL    HW2 2733   3.799   6.894   0.906
  612SOL     OW 2734   3.895   6.750   5.747
  612SOL    HW1 2735   3.874   6.824   5.812
  612SOL    HW2 2736   3.935   6.673   5.796
  613SOL     OW 2737   4.154   6.137   5.629
  613SOL    HW1 2738   4.232   6.199   5.627
  613SOL    HW2 2739   4.158   6.075   5.550
  614SOL     OW 2740   5.106   5.197   1.128
  614SOL    HW1 2741   5.199   5.231   1.146
  614SOL    HW2 2742   5.040   5.256   1.173
  615SOL     OW 2743   6.374   2.280   1.569
  615SOL    HW1 2744   6.470   2.309   1.578
  615SOL    HW2 2745   6.329   2.336   1.499
  616SOL     OW 2746   6.915   2.567   4.064
  616SOL    HW1 2747   6.843   2.566   4.134
  616SOL    HW2 2748   6.888   2.508   3.988
  617SOL     OW 2749   6.495   4.688   6.672
  617SOL    HW1 2750   6.582   4.644   6.650
  617SOL    HW2 2751   6.424   4.655   6.610
  618SOL     OW 2752   6.694   2.233   6.753
  618SOL    HW1 2753   6.659   2.265   6.665
  618SOL    HW2 2754   6.778   2.283   6.776
  619SOL     OW 2755   4.528   1.326   0.138
  619SOL    HW1 2756   4.624   1.343   0.114
  619SOL    HW2 2757   4.522   1.243   0.194
  620SOL     OW 2758   4.406   2.885   1.231
  620SOL    HW1 2759   4.336   2.957   1.238
  620SOL    HW2 2760   4.416   2.840   1.320
  621SOL     OW 2761   2.808   6.344   6.750
  621SOL    HW1 2762   2.888   6.299   6.710
  621SOL    HW2 2763   2.726   6.317   6.699
  622SOL     OW 2764   1.861   0.526   5.106
  622SOL    HW1 2765   1.914   0.578   5.173
  622SOL    HW2 2766   1.913   0.445   5.079
  623SOL     OW 2767   0.519   5.228   5.954
  623SOL    HW1 2768   0.561   5.199   6.039
  623SOL    HW2 2769   0.580   5.292   5.906
  624SOL     OW 2770   0.044   2.178   1.112
  624SOL    HW1 2771   0.131   2.139   1.083
  624SOL    HW2 2772   0.035   2.170   1.211
  625SOL     OW 2773   1.554   1.560   2.360
  625SOL    HW1 2774   1.544   1.597   2.268
  625SOL    HW2 2775   1.647   1.527   2.373
  626SOL     OW 2776   2.124   5.849   3.254
  626SOL    HW1 2777   2.223   5.858   3.260
  626SOL    HW2 2778   2.098   5.820   3.162
  627SOL     OW 2779   6.025   6.668   0.107
  627SOL    HW1 2780   5.988   6.600   0.170
  627SOL    HW2 2781   5.951   6.719   0.065
  628SOL     OW 2782   6.023   5.503   5.778
  628SOL    HW1 2783   6.076   5.420   5.758
  628SOL    HW2 2784   5.941   5.504   5.721
  629SOL     OW 2785   0.086   0.660   6.582
  629SOL    HW1 2786   0.073   0.565   6.611
  629SOL    HW2 2787   0.049   0.671   6.489
  630SOL     OW 2788   0.736   1.561   1.312
  630SOL    HW1 2789   0.640   1.546   1.289
  630SOL    HW2 2790   0.769   1.642   1.265
  631SOL     OW 2791   3.865   0.215   5.134
  631SOL    HW1 2792   3.802   0.285   5.167
  631SOL    HW2 2793   3.853   0.203   5.035
  632SOL     OW 2794   3.373   1.462   0.830
  632SOL    HW1 2795   3.351   1.549   0.785
  632SOL    HW2 2796   3.468   1.465   0.863
  633SOL     OW 2797   3.591   3.437   6.730
  633SOL    HW1 2798   3.496   3.465   6.721
  633SOL    HW2 2799   3.646   3.515   6.762
  634SOL     OW 2800   3.659   3.518   1.097
  634SOL    HW1 2801   3.596   3.449   1.062
  634SOL    HW2 2802   3.725   3.476   1.158
  635SOL     OW 2803   4.526   5.506   1.720
  635SOL    HW1 2804   4.439   5.538   1.681
  635SOL    HW2 2805   4.508   5.445   1.797
  636SOL     OW 2806   2.941   6.101   0.177
  636SOL    HW1 2807   2.900   6.024   0.127
  636SOL    HW2 2808   2.882   6.123   0.255
  637SOL     OW 2809   0.144   3.122   3.338
  637SOL    HW1 2810   0.080   3.045   3.329
  637SOL    HW2 2811   0.210   3.120   3.263
  638SOL     OW 2812   5.424   2.307   4.303
  638SOL    HW1 2813   5.486   2.277   4.230
  638SOL    HW2 2814   5.413   2.232   4.369
  639SOL     OW 2815   4.909   3.895   3.054
  639SOL    HW1 2816   4.973   3.965   3.020
  639SOL    HW2 2817   4.897   3.825   2.985
  640SOL     OW 2818   0.475   5.481   3.688
  640SOL    HW1 2819   0.421   5.542   3.632
  640SOL    HW2 2820   0.416   5.411   3.728
  641SOL     OW 2821   6.746   5.170   4.481
  641SOL    HW1 2822   6.757   5.137   4.574
  641SOL    HW2 2823   6.835   5.171   4.435
  642SOL     OW 2824   6.787   3.085   4.480
  642SOL    HW1 2825   6.823   3.159   4.423
  642SOL    HW2 2826   6.823   3.095   4.573
  643SOL     OW 2827   6.017   5.429   5.432
  643SOL    HW1 2828   5.962   5.354   5.468
  643SOL    HW2 2829   6.108   5.396   5.409
  644SOL     OW 2830   1.454   6.550   4.440
  644SOL    HW1 2831   1.498   6.640   4.449
  644SOL    HW2 2832   1.466   6.516   4.347
  645SOL     OW 2833   3.639   0.823   4.182
  645SOL    HW1 2834   3.719   0.771   4.213
  645SOL    HW2 2835   3.557   0.766   4.190
  646SOL     OW 2836   3.525   1.338   4.374
  646SOL    HW1 2837   3.555   1.258   4.426
  646SOL    HW2 2838   3.495   1.410   4.437
  647SOL     OW 2839   5.250   1.427   4.672
  647SOL    HW1 2840   5.301   1.380   4.744
  647SOL    HW2 2841   5.154   1.400   4.675
  648SOL     OW 2842   0.782   3.745   4.137
  648SOL    HW1 2843   0.744   3.756   4.229
  648SOL    HW2 2844   0.708   3.725   4.073
  649SOL     OW 2845   2.597   4.244   0.808
  649SOL    HW1 2846   2.658   4.167   0.787
  649SOL    HW2 2847   2.508   4.209   0.836
  650SOL     OW 2848   6.125   4.147   0.281
  650SOL    HW1 2849   6.211   4.106   0.252
  650SOL    HW2 2850   6.104   4.225   0.222
  651SOL     OW 2851   0.143   5.997   5.932
  651SOL    HW1 2852   0.119   6.094   5.925
  651SOL    HW2 2853   0.069   5.947   5.977
  652SOL     OW 2854   4.442   0.084   3.427
  652SOL    HW1 2855   4.376   0.128   3.487
  652SOL    HW2 2856   4.509   0.151   3.396
  653SOL     OW 2857   1.237   5.552   5.615
  653SOL    HW1 2858   1.256   5.649   5.623
  653SOL    HW2 2859   1.232   5.527   5.518
  654SOL     OW 2860   0.565   4.101   6.371
  654SOL    HW1 2861   0.583   4.135   6.464
  654SOL    HW2 2862   0.639   4.130   6.310
  655SOL     OW 2863   0.365   5.777   2.149
  655SOL    HW1 2864   0.329   5.869   2.133
  655SOL    HW2 2865   0.421   5.748   2.071
  656SOL     OW 2866   1.372   6.043   1.491
  656SOL    HW1 2867   1.442   6.042   1.562
  656SOL    HW2 2868   1.281   6.032   1.532
  657SOL     OW 2869   2.205   3.240   1.797
  657SOL    HW1 2870   2.202   3.261   1.699
  657SOL    HW2 2871   2.260   3.309   1.845
  658SOL     OW 2872   2.888   4.155   6.650
  658SOL    HW1 2873   2.932   4.066   6.647
  658SOL    HW2 2874   2.955   4.225   6.676
  659SOL     OW 2875   1.893   5.861   5.825
  659SOL    HW1 2876   1.952   5.798   5.874
  659SOL    HW2 2877   1.916   5.955   5.850
  660SOL     OW 2878   5.605   4.333   2.360
  660SOL    HW1 2879   5.635   4.265   2.426
  660SOL    HW2 2880   5.648   4.316   2.271
  661SOL     OW 2881   5.033   5.085   3.551
  661SOL    HW1 2882   5.029   5.110   3.454
  661SOL    HW2 2883   4.950   5.118   3.597
  662SOL     OW 2884   3.588   0.739   4.881
  662SOL    HW1 2885   3.563   0.801   4.807
  662SOL    HW2 2886   3.641   0.789   4.950
  663SOL     OW 2887   2.010   3.698   6.724
  663SOL    HW1 2888   2.000   3.627   6.793
  663SOL    HW2 2889   2.087   3.758   6.748
  664SOL     OW 2890   0.324   5.010   6.403
  664SOL    HW1 2891   0.360   4.947   6.334
  664SOL    HW2 2892   0.264   5.077   6.360
  665SOL     OW 2893   4.718   4.815   1.483
  665SOL    HW1 2894   4.785   4.742   1.501
  665SOL    HW2 2895   4.692   4.858   1.570
  666SOL     OW 2896   5.205   1.791   2.685
  666SOL    HW1 2897   5.158   1.808   2.599
  666SOL    HW2 2898   5.253   1.874   2.714
  667SOL     OW 2899   6.455   4.418   3.822
  667SOL    HW1 2900   6.507   4.501   3.840
  667SOL    HW2 2901   6.500   4.340   3.866
  668SOL     OW 2902   5.174   6.279   6.310
  668SOL    HW1 2903   5.267   6.305   6.286
  668SOL    HW2 2904   5.171   6.182   6.334
  669SOL     OW 2905   3.983   0.310   4.149
  669SOL    HW1 2906   4.035   0.396   4.151
  669SOL    HW2 2907   3.927   0.307   4.066
  670SOL     OW 2908   2.914   2.961   0.550
  670SOL    HW1 2909   2.901   3.052   0.589
  670SOL    HW2 2910   2.992   2.962   0.488
  671SOL     OW 2911   2.062   6.142   1.165
  671SOL    HW1 2912   1.971   6.146   1.123
  671SOL    HW2 2913   2.087   6.232   1.199
  672SOL     OW 2914   1.224   5.200   1.807
  672SOL    HW1 2915   1.170   5.154   1.877
  672SOL    HW2 2916   1.223   5.144   1.723
  673SOL     OW 2917   0.690   0.532   1.424
  673SOL    HW1 2918   0.739   0.542   1.511
  673SOL    HW2 2919   0.592   0.531   1.441
  674SOL     OW 2920   0.311   2.749   5.303
  674SOL    HW1 2921   0.392   2.690   5.298
  674SOL    HW2 2922   0.257   2.738   5.219
  675SOL     OW 2923   0.341   0.806   3.881
  675SOL    HW1 2924   0.362   0.903   3.894
  675SOL    HW2 2925   0.314   0.766   3.969
  676SOL     OW 2926   3.838   6.022   3.008
  676SOL    HW1 2927   3.912   6.033   2.942
  676SOL    HW2 2928   3.835   5.928   3.039
  677SOL     OW 2929   6.554   1.765   0.220
  677SOL    HW1 2930   6.577   1.669   0.237
  677SOL    HW2 2931   6.599   1.823   0.287
  678SOL     OW 2932   2.143   1.236   5.268
  678SOL    HW1 2933   2.080   1.185   5.210
  678SOL    HW2 2934   2.190   1.305   5.212
  679SOL     OW 2935   4.473   1.955   4.215
  679SOL    HW1 2936   4.523   2.041   4.214
  679SOL    HW2 2937   4.503   1.900   4.293
  680SOL     OW 2938   5.500   5.215   5.376
  680SOL    HW1 2939   5.418   5.160   5.397
  680SOL    HW2 2940   5.526   5.200   5.281
  681SOL     OW 2941   5.450   5.091   1.663
  681SOL    HW1 2942   5.508   5.172   1.673
  681SOL    HW2 2943   5.492   5.013   1.710
  682SOL     OW 2944   1.129   0.850   0.611
  682SOL    HW1 2945   1.190   0.926   0.632
  682SOL    HW2 2946   1.035   0.884   0.606
  683SOL     OW 2947   3.761   4.054   0.394
  683SOL    HW1 2948   3.709   4.110   0.459
  683SOL    HW2 2949   3.725   3.961   0.395
  684SOL     OW 2950   0.237   0.998   6.836
  684SOL    HW1 2951   0.250   1.096   6.821
  684SOL    HW2 2952   0.145   0.971   6.807
  685SOL     OW 2953   4.583   0.897   4.382
  685SOL    HW1 2954   4.676   0.914   4.347
  685SOL    HW2 2955   4.522   0.967   4.346
  686SOL     OW 2956   5.219   2.498   3.970
  686SOL    HW1 2957   5.183   2.416   4.013
  686SOL    HW2 2958   5.312   2.514   4.002
  687SOL     OW 2959   0.559   2.263   4.699
  687SOL    HW1 2960   0.653   2.299   4.702
  687SOL    HW2 2961   0.499   2.330   4.655
  688SOL     OW 2962   1.074   2.078   0.411
  688SOL    HW1 2963   1.156   2.060   0.467
  688SOL    HW2 2964   1.020   1.995   0.404
  689SOL     OW 2965   6.527   3.850   6.335
  689SOL    HW1 2966   6.559   3.906   6.412
  689SOL    HW2 2967   6.488   3.765   6.371
  690SOL     OW 2968   0.444   4.506   2.802
  690SOL    HW1 2969   0.374   4.436   2.816
  690SOL    HW2 2970   0.500   4.514   2.884
  691SOL     OW 2971   2.523   6.699   6.738
  691SOL    HW1 2972   2.507   6.797   6.752
  691SOL    HW2 2973   2.519   6.652   6.827
  692SOL     OW 2974   2.929   6.550   3.491
  692SOL    HW1 2975   2.899   6.630   3.438
  692SOL    HW2 2976   2.893   6.467   3.448
  693SOL     OW 2977   6.106   0.995   3.163
  693SOL    HW1 2978   6.036   0.962   3.226
  693SOL    HW2 2979   6.092   1.092   3.145
  694SOL     OW 2980   3.809   5.406   2.920
  694SOL    HW1 2981   3.893   5.369   2.960
  694SOL    HW2 2982   3.831   5.459   2.838
  695SOL     OW 2983   4.010   6.042   4.122
  695SOL    HW1 2984   3.935   6.104   4.144
  695SOL    HW2 2985   3.990   5.993   4.037
  696SOL     OW 2986   3.996   4.952   2.378
  696SOL    HW1 2987   3.999   4.876   2.314
  696SOL    HW2 2988   3.930   5.020   2.347
  697SOL     OW 2989   2.169   3.374   3.527
  697SOL    HW1 2990   2.183   3.358   3.625
  697SOL    HW2 2991   2.182   3.471   3.507
  698SOL     OW 2992   5.588   6.634   6.925
  698SOL    HW1 2993   5.529   6.691   6.868
  698SOL    HW2 2994   5.548   6.543   6.933
  699SOL     OW 2995   2.101   3.225   6.357
  699SOL    HW1 2996   2.085   3.283   6.278
  699SOL    HW2 2997   2.038   3.147   6.355
  700SOL     OW 2998   2.869   1.581   2.910
  700SOL    HW1 2999   2.850   1.604   3.006
  700SOL    HW2 3000   2.842   1.486   2.893
  701SOL     OW 3001   6.506   3.647   5.537
  701SOL    HW1 3002   6.570   3.614   5.606
  701SOL    HW2 3003   6.428   3.692   5.581
  702SOL     OW 3004   0.694   5.576   5.237
  702SOL    HW1 3005   0.787   5.600   5.206
  702SOL    HW2 3006   0.680   5.478   5.227
  703SOL     OW 3007   3.514   4.178   6.344
  703SOL    HW1 3008   3.450   4.111   6.382
  703SOL    HW2 3009   3.590   4.131   6.300
  704SOL     OW 3010   1.737   1.739   0.131
  704SOL    HW1 3011   1.728   1.684   0.214
  704SOL    HW2 3012   1.834   1.750   0.109
  705SOL     OW 3013   6.059   5.896   2.661
  705SOL    HW1 3014   6.104   5.815   2.700
  705SOL    HW2 3015   5.962   5.896   2.686
  706SOL     OW 3016   4.683   2.810   4.423
  706SOL    HW1 3017   4.673   2.778   4.329
  706SOL    HW2 3018   4.714   2.735   4.481
  707SOL     OW 3019   4.663   5.570   2.766
  707SOL    HW1 3020   4.676   5.585   2.864
  707SOL    HW2 3021   4.575   5.526   2.750
  708SOL     OW 3022   4.627   6.653   1.534
  708SOL    HW1 3023   4.687   6.730   1.554
  708SOL    HW2 3024   4.664   6.570   1.575
  709SOL     OW 3025   0.779   5.706   1.116
  709SOL    HW1 3026   0.849   5.640   1.139
  709SOL    HW2 3027   0.817   5.799   1.120
  710SOL     OW 3028   3.928   3.180   2.168
  710SOL    HW1 3029   4.023   3.182   2.201
  710SOL    HW2 3030   3.865   3.182   2.245
  711SOL     OW 3031   6.782   3.306   5.848
  711SOL    HW1 3032   6.835   3.349   5.774
  711SOL    HW2 3033   6.823   3.329   5.936
  712SOL     OW 3034   4.214   3.085   1.226
  712SOL    HW1 3035   4.202   3.125   1.317
  712SOL    HW2 3036   4.225   3.158   1.159
  713SOL     OW 3037   4.360   2.544   5.560
  713SOL    HW1 3038   4.321   2.628   5.598
  713SOL    HW2 3039   4.441   2.566   5.506
  714SOL     OW 3040   6.172   4.344   3.411
  714SOL    HW1 3041   6.270   4.356   3.398
  714SOL    HW2 3042   6.142   4.397   3.490
  715SOL     OW 3043   6.029   5.764   0.364
  715SOL    HW1 3044   5.932   5.759   0.336
  715SOL    HW2 3045   6.035   5.792   0.459
  716SOL     OW 3046   0.558   0.683   1.729
  716SOL    HW1 3047   0.561   0.585   1.711
  716SOL    HW2 3048   0.646   0.711   1.769
  717SOL     OW 3049   6.456   4.268   5.750
  717SOL    HW1 3050   6.482   4.327   5.827
  717SOL    HW2 3051   6.385   4.204   5.780
  718SOL     OW 3052   5.445   2.775   5.999
  718SOL    HW1 3053   5.443   2.789   5.900
  718SOL    HW2 3054   5.495   2.691   6.020
  719SOL     OW 3055   6.146   0.876   1.487
  719SOL    HW1 3056   6.080   0.802   1.474
  719SOL    HW2 3057   6.101   0.964   1.472
  720SOL     OW 3058   3.334   0.448   5.778
  720SOL    HW1 3059   3.235   0.448   5.760
  720SOL    HW2 3060   3.382   0.486   5.698
  721SOL     OW 3061   2.605   2.003   3.703
  721SOL    HW1 3062   2.685   1.959   3.745
  721SOL    HW2 3063   2.636   2.063   3.629
  722SOL     OW 3064   2.609   0.579   5.434
  722SOL    HW1 3065   2.581   0.578   5.530
  722SOL    HW2 3066   2.697   0.627   5.425
  723SOL     OW 3067   1.883   4.712   3.041
  723SOL    HW1 3068   1.844   4.637   2.986
  723SOL    HW2 3069   1.869   4.692   3.138
  724SOL     OW 3070   1.010   3.119   4.322
  724SOL    HW1 3071   1.028   3.024   4.297
  724SOL    HW2 3072   1.037   3.179   4.246
  725SOL     OW 3073   2.442   5.678   0.813
  725SOL    HW1 3074   2.535   5.643   0.826
  725SOL    HW2 3075   2.394   5.676   0.900
  726SOL     OW 3076   3.776   5.228   1.040
  726SOL    HW1 3077   3.825   5.276   0.967
  726SOL    HW2 3078   3.842   5.188   1.104
  727SOL     OW 3079   5.528   4.685   5.447
  727SOL    HW1 3080   5.473   4.746   5.503
  727SOL    HW2 3081   5.477   4.600   5.432
  728SOL     OW 3082   6.759   2.809   5.075
  728SOL    HW1 3083   6.812   2.856   5.005
  728SOL    HW2 3084   6.806   2.817   5.163
  729SOL     OW 3085   1.244   2.105   1.121
  729SOL    HW1 3086   1.159   2.133   1.164
  729SOL    HW2 3087   1.319   2.114   1.187
  730SOL     OW 3088   5.514   0.486   4.438
  730SOL    HW1 3089   5.420   0.470   4.468
  730SOL    HW2 3090   5.577   0.464   4.513
  731SOL     OW 3091   5.130   4.567   6.038
  731SOL    HW1 3092   5.073   4.622   6.100
  731SOL    HW2 3093   5.088   4.477   6.024
  732SOL     OW 3094   6.887   2.543   1.527
  732SOL    HW1 3095   6.852   2.624   1.574
  732SOL    HW2 3096   6.855   2.544   1.432
  733SOL     OW 3097   5.313   6.220   5.132
  733SOL    HW1 3098   5.395   6.233   5.187
  733SOL    HW2 3099   5.313   6.128   5.092
  734SOL     OW 3100   0.238   5.029   2.858
  734SOL    HW1 3101   0.163   5.004   2.798
  734SOL    HW2 3102   0.233   4.975   2.942
  735SOL     OW 3103   4.222   1.904   0.436
  735SOL    HW1 3104   4.303   1.916   0.493
  735SOL    HW2 3105   4.246   1.922   0.340
  736SOL     OW 3106   0.122   1.391   4.007
  736SOL    HW1 3107   0.060   1.314   4.022
  736SOL    HW2 3108   0.216   1.364   4.030
  737SOL     OW 3109   5.019   1.862   5.300
  737SOL    HW1 3110   5.064   1.950   5.314
  737SOL    HW2 3111   4.991   1.853   5.205
  738SOL     OW 3112   2.333   4.333   1.157
  738SOL    HW1 3113   2.241   4.371   1.151
  738SOL    HW2 3114   2.329   4.244   1.203
  739SOL     OW 3115   4.604   0.190   4.069
  739SOL    HW1 3116   4.623   0.207   3.973
  739SOL    HW2 3117   4.516   0.231   4.093
  740SOL     OW 3118   6.221   0.509   1.179
  740SOL    HW1 3119   6.156   0.513   1.255
  740SOL    HW2 3120   6.227   0.414   1.146
  741SOL     OW 3121   2.271   6.343   3.405
  741SOL    HW1 3122   2.352   6.381   3.361
  741SOL    HW2 3123   2.211   6.303   3.336
  742SOL     OW 3124   2.999   6.768   2.676
  742SOL    HW1 3125   2.931   6.710   2.720
  742SOL    HW2 3126   3.061   6.807   2.744
  743SOL     OW 3127   7.006   4.879   3.088
  743SOL    HW1 3128   0.069   4.917   3.068
  743SOL    HW2 3129   7.011   4.779   3.088
  744SOL     OW 3130   5.702   0.609   6.916
  744SOL    HW1 3131   5.614   0.648   6.888
  744SOL    HW2 3132   5.776   0.669   6.886
  745SOL     OW 3133   1.472   4.753   4.345
  745SOL    HW1 3134   1.564   4.714   4.347
  745SOL    HW2 3135   1.426   4.734   4.432
  746SOL     OW 3136   0.013   4.010   6.675
  746SOL    HW1 3137   0.069   3.928   6.691
  746SOL    HW2 3138   0.020   4.070   6.755
  747SOL     OW 3139   3.540   6.452   4.583
  747SOL    HW1 3140   3.538   6.353   4.568
  747SOL    HW2 3141   3.505   6.499   4.502
  748SOL     OW 3142   3.829   5.111   2.194
  748SOL    HW1 3143   3.872   5.113   2.105
  748SOL    HW2 3144   3.749   5.050   2.192
  749SOL     OW 3145   6.158   4.104   4.998
  749SOL    HW1 3146   6.081   4.106   5.062
  749SOL    HW2 3147   6.207   4.017   5.008
  750SOL     OW 3148   1.371   2.209   1.329
  750SOL    HW1 3149   1.315   2.271   1.384
  750SOL    HW2 3150   1.440   2.166   1.388
  751SOL     OW 3151   3.784   2.045   0.128
  751SOL    HW1 3152   3.807   1.996   0.044
  751SOL    HW2 3153   3.779   2.143   0.109
  752SOL     OW 3154   3.430   1.198   1.727
  752SOL    HW1 3155   3.482   1.209   1.812
  752SOL    HW2 3156   3.387   1.285   1.703
  753SOL     OW 3157   2.284   2.958   5.559
  753SOL    HW1 3158   2.378   2.924   5.563
  753SOL    HW2 3159   2.245   2.937   5.470
  754SOL     OW 3160   5.248   3.129   5.417
  754SOL    HW1 3161   5.181   3.099   5.348
  754SOL    HW2 3162   5.246   3.066   5.495
  755SOL     OW 3163   1.856   4.624   5.822
  755SOL    HW1 3164   1.856   4.531   5.859
  755SOL    HW2 3165   1.791   4.630   5.746
  756SOL     OW 3166   2.893   6.743   6.347
  756SOL    HW1 3167   2.830   6.809   6.389
  756SOL    HW2 3168   2.972   6.729   6.407
  757SOL     OW 3169   0.296   0.429   3.649
  757SOL    HW1 3170   0.351   0.466   3.724
  757SOL    HW2 3171   0.211   0.392   3.685
  758SOL     OW 3172   3.517   0.429   2.077
  758SOL    HW1 3173   3.458   0.349   2.067
  758SOL    HW2 3174   3.483   0.504   2.020
  759SOL     OW 3175   0.143   1.434   1.537
  759SOL    HW1 3176   0.238   1.465   1.546
  759SOL    HW2 3177   0.084   1.513   1.515
  760SOL     OW 3178   5.572   6.891   5.209
  760SOL    HW1 3179   5.606   6.801   5.183
  760SOL    HW2 3180   5.641   6.961   5.189
  761SOL     OW 3181   5.024   3.715   6.091
  761SOL    HW1 3182   5.067   3.717   6.181
  761SOL    HW2 3183   4.930   3.749   6.098
  762SOL     OW 3184   2.347   0.333   4.831
  762SOL    HW1 3185   2.277   0.265   4.808
  762SOL    HW2 3186   2.438   0.291   4.825
  763SOL     OW 3187   4.112   5.159   6.742
  763SOL    HW1 3188   4.167   5.196   6.667
  763SOL    HW2 3189   4.151   5.072   6.772
  764SOL     OW 3190   4.601   0.897   4.822
  764SOL    HW1 3191   4.629   0.865   4.912
  764SOL    HW2 3192   4.677   0.944   4.777
  765SOL     OW 3193   1.597   6.056   1.638
  765SOL    HW1 3194   1.630   6.102   1.555
  765SOL    HW2 3195   1.645   6.092   1.718
  766SOL     OW 3196   2.515   3.213   5.851
  766SOL    HW1 3197   2.597   3.168   5.816
  766SOL    HW2 3198   2.448   3.222   5.777
  767SOL     OW 3199   6.233   5.333   1.493
  767SOL    HW1 3200   6.157   5.362   1.551
  767SOL    HW2 3201   6.203   5.260   1.432
  768SOL     OW 3202   2.568   6.758   2.444
  768SOL    HW1 3203   2.503   6.725   2.375
  768SOL    HW2 3204   2.527   6.834   2.494
  769SOL     OW 3205   2.872   0.822   5.130
  769SOL    HW1 3206   2.919   0.756   5.188
  769SOL    HW2 3207   2.912   0.819   5.038
  770SOL     OW 3208   1.999   4.969   2.968
  770SOL    HW1 3209   2.078   4.962   2.907
  770SOL    HW2 3210   1.968   4.878   2.993
  771SOL     OW 3211   1.435   5.648   2.494
  771SOL    HW1 3212   1.444   5.549   2.491
  771SOL    HW2 3213   1.339   5.674   2.482
  772SOL     OW 3214   5.637   6.116   0.078
  772SOL    HW1 3215   5.731   6.090   0.101
  772SOL    HW2 3216   5.591   6.039   0.035
  773SOL     OW 3217   0.023   4.176   4.018
  773SOL    HW1 3218   0.023   4.202   4.115
  773SOL    HW2 3219   0.052   4.254   3.963
  774SOL     OW 3220   1.769   1.517   1.630
  774SOL    HW1 3221   1.792   1.530   1.726
  774SOL    HW2 3222   1.675   1.483   1.622
  775SOL     OW 3223   1.051   2.554   3.755
  775SOL    HW1 3224   1.030   2.462   3.788
  775SOL    HW2 3225   0.976   2.587   3.698
  776SOL     OW 3226   1.474   6.837   6.191
  776SOL    HW1 3227   1.449   6.918   6.245
  776SOL    HW2 3228   1.472   6.861   6.094
  777SOL     OW 3229   2.216   4.625   1.591
  777SOL    HW1 3230   2.281   4.570   1.538
  777SOL    HW2 3231   2.164   4.564   1.651
  778SOL     OW 3232   2.291   1.619   2.279
  778SOL    HW1 3233   2.313   1.547   2.214
  778SOL    HW2 3234   2.277   1.705   2.229
  779SOL     OW 3235   6.530   2.603   1.984
  779SOL    HW1 3236   6.475   2.670   1.935
  779SOL    HW2 3237   6.509   2.512   1.949
  780SOL     OW 3238   0.117   4.272   3.647
  780SOL    HW1 3239   0.031   4.223   3.632
  780SOL    HW2 3240   0.191   4.207   3.660
  781SOL     OW 3241   6.226   6.810   6.808
  781SOL    HW1 3242   6.261   6.893   6.764
  781SOL    HW2 3243   6.190   6.748   6.739
  782SOL     OW 3244   1.946   4.098   6.281
  782SOL    HW1 3245   2.004   4.031   6.234
  782SOL    HW2 3246   1.888   4.145   6.214
  783SOL     OW 3247   4.671   4.981   1.694
  783SOL    HW1 3248   4.749   5.011   1.749
  783SOL    HW2 3249   4.586   5.006   1.740
  784SOL     OW 3250   4.828   4.680   0.868
  784SOL    HW1 3251   4.815   4.748   0.940
  784SOL    HW2 3252   4.756   4.611   0.873
  785SOL     OW 3253   0.382   2.783   3.383
  785SOL    HW1 3254   0.373   2.756   3.479
  785SOL    HW2 3255   0.474   2.817   3.367
  786SOL     OW 3256   1.329   1.076   2.918
  786SOL    HW1 3257   1.351   0.989   2.962
  786SOL    HW2 3258   1.413   1.125   2.896
  787SOL     OW 3259   2.243   0.508   0.097
  787SOL    HW1 3260   2.157   0.475   0.136
  787SOL    HW2 3261   2.318   0.447   0.124
  788SOL     OW 3262   3.663   2.572   6.486
  788SOL    HW1 3263   3.744   2.572   6.426
  788SOL    HW2 3264   3.592   2.629   6.446
  789SOL     OW 3265   4.844   4.139   0.375
  789SOL    HW1 3266   4.827   4.124   0.472
  789SOL    HW2 3267   4.820   4.057   0.323
  790SOL     OW 3268   2.520   1.249   3.456
  790SOL    HW1 3269   2.543   1.313   3.529
  790SOL    HW2 3270   2.604   1.220   3.409
  791SOL     OW 3271   2.266   5.744   3.828
  791SOL    HW1 3272   2.351   5.692   3.821
  791SOL    HW2 3273   2.234   5.767   3.736
  792SOL     OW 3274   1.064   0.583   0.948
  792SOL    HW1 3275   0.992   0.585   0.878
  792SOL    HW2 3276   1.115   0.497   0.940
  793SOL     OW 3277   4.776   4.778   3.578
  793SOL    HW1 3278   4.874   4.789   3.594
  793SOL    HW2 3279   4.751   4.824   3.492
  794SOL     OW 3280   3.644   4.047   5.783
  794SOL    HW1 3281   3.638   3.961   5.733
  794SOL    HW2 3282   3.563   4.057   5.841
  795SOL     OW 3283   3.101   6.734   4.375
  795SOL    HW1 3284   3.016   6.721   4.325
  795SOL    HW2 3285   3.179   6.712   4.315
  796SOL     OW 3286   6.883   2.364   6.411
  796SOL    HW1 3287   6.897   2.275   6.368
  796SOL    HW2 3288   6.860   2.351   6.508
  797SOL     OW 3289   5.558   2.687   0.894
  797SOL    HW1 3290   5.651   2.650   0.897
  797SOL    HW2 3291   5.529   2.712   0.987
  798SOL     OW 3292   3.620   6.372   2.181
  798SOL    HW1 3293   3.655   6.404   2.269
  798SOL    HW2 3294   3.523   6.350   2.189
  799SOL     OW 3295   0.629   6.495   5.434
  799SOL    HW1 3296   0.635   6.595   5.428
  799SOL    HW2 3297   0.670   6.454   5.353
  800SOL     OW 3298   5.326   2.041   2.758
  800SOL    HW1 3299   5.363   1.999   2.841
  800SOL    HW2 3300   5.271   2.121   2.783
  801SOL     OW 3301   1.372   3.783   4.412
  801SOL    HW1 3302   1.464   3.767   4.375
  801SOL    HW2 3303   1.358   3.881   4.426
  802SOL     OW 3304   3.683   2.097   1.037
  802SOL    HW1 3305   3.741   2.021   1.065
  802SOL    HW2 3306   3.724   2.144   0.959
  803SOL     OW 3307   0.280   6.814   5.552
  803SOL    HW1 3308   0.353   6.862   5.601
  803SOL    HW2 3309   0.242   6.875   5.483
  804SOL     OW 3310   5.566   5.669   6.358
  804SOL    HW1 3311   5.652   5.700   6.319
  804SOL    HW2 3312   5.521   5.605   6.294
  805SOL     OW 3313   3.360   0.022   4.297
  805SOL    HW1 3314   3.447   7.012   4.264
  805SOL    HW2 3315   3.306   0.054   4.219
  806SOL     OW 3316   4.946   1.501   4.210
  806SOL    HW1 3317   4.984   1.439   4.279
  806SOL    HW2 3318   5.017   1.565   4.180
  807SOL     OW 3319   1.361   0.881   5.411
  807SOL    HW1 3320   1.402   0.955   5.463
  807SOL    HW2 3321   1.434   0.824   5.371
  808SOL     OW 3322   3.933   3.768   6.316
  808SOL    HW1 3323   3.997   3.825   6.266
  808SOL    HW2 3324   3.861   3.825   6.355
  809SOL     OW 3325   0.222   4.774   1.024
  809SOL    HW1 3326   0.182   4.864   1.041
  809SOL    HW2 3327   0.293   4.781   0.954
  810SOL     OW 3328   3.697   3.715   0.931
  810SOL    HW1 3329   3.647   3.796   0.960
  810SOL    HW2 3330   3.678   3.639   0.994
  811SOL     OW 3331   4.798   5.300   5.169
  811SOL    HW1 3332   4.821   5.371   5.235
  811SOL    HW2 3333   4.803   5.210   5.213
  812SOL     OW 3334   0.418   0.943   2.401
  812SOL    HW1 3335   0.394   0.942   2.498
  812SOL    HW2 3336   0.511   0.907   2.389
  813SOL     OW 3337   3.921   6.844   4.257
  813SOL    HW1 3338   3.957   6.751   4.259
  813SOL    HW2 3339   3.884   6.868   4.347
  814SOL     OW 3340   6.105   6.214   2.211
  814SOL    HW1 3341   6.045   6.183   2.285
  814SOL    HW2 3342   6.166   6.140   2.185
  815SOL     OW 3343   0.253   3.706   3.299
  815SOL    HW1 3344   0.260   3.621   3.247
  815SOL    HW2 3345   0.295   3.780   3.246
  816SOL     OW 3346   6.257   6.607   6.992
  816SOL    HW1 3347   6.257   6.681   6.926
  816SOL    HW2 3348   6.176   6.613   0.023
  817SOL     OW 3349   1.650   4.679   0.900
  817SOL    HW1 3350   1.726   4.699   0.838
  817SOL    HW2 3351   1.564   4.677   0.848
  818SOL     OW 3352   6.369   2.983   2.580
  818SOL    HW1 3353   6.401   2.888   2.579
  818SOL    HW2 3354   6.405   3.031   2.500
  819SOL     OW 3355   5.356   2.431   2.685
  819SOL    HW1 3356   5.440   2.484   2.674
  819SOL    HW2 3357   5.304   2.432   2.600
  820SOL     OW 3358   3.390   1.961   5.415
  820SOL    HW1 3359   3.328   1.908   5.357
  820SOL    HW2 3360   3.381   2.058   5.392
  821SOL     OW 3361   1.109   4.434   1.178
  821SOL    HW1 3362   1.206   4.426   1.154
  821SOL    HW2 3363   1.101   4.455   1.276
  822SOL     OW 3364   1.415   4.808   3.486
  822SOL    HW1 3365   1.449   4.870   3.416
  822SOL    HW2 3366   1.492   4.773   3.540
  823SOL     OW 3367   4.813   3.533   6.251
  823SOL    HW1 3368   4.907   3.567   6.241
  823SOL    HW2 3369   4.780   3.552   6.343
  824SOL     OW 3370   5.495   1.175   6.155
  824SOL    HW1 3371   5.503   1.248   6.088
  824SOL    HW2 3372   5.447   1.097   6.116
  825SOL     OW 3373   6.999   4.469   1.385
  825SOL    HW1 3374   6.963   4.525   1.460
  825SOL    HW2 3375   0.062   4.503   1.359
  826SOL     OW 3376   4.341   3.024   5.627
  826SOL    HW1 3377   4.406   2.966   5.578
  826SOL    HW2 3378   4.254   3.025   5.579
  827SOL     OW 3379   2.991   4.731   5.311
  827SOL    HW1 3380   2.916   4.789   5.345
  827SOL    HW2 3381   2.953   4.651   5.265
  828SOL     OW 3382   5.889   6.591   6.763
  828SOL    HW1 3383   5.829   6.588   6.843
  828SOL    HW2 3384   5.905   6.686   6.736
  829SOL     OW 3385   3.758   4.023   2.754
  829SOL    HW1 3386   3.770   4.111   2.799
  829SOL    HW2 3387   3.689   3.969   2.802
  830SOL     OW 3388   4.818   5.102   6.725
  830SOL    HW1 3389   4.792   5.164   6.650
  830SOL    HW2 3390   4.854   5.156   6.801
  831SOL     OW 3391   6.159   0.355   0.054
  831SOL    HW1 3392   6.168   0.455   0.046
  831SOL    HW2 3393   6.127   0.333   0.146
  832SOL     OW 3394   3.449   0.608   1.854
  832SOL    HW1 3395   3.401   0.599   1.766
  832SOL    HW2 3396   3.497   0.696   1.856
  833SOL     OW 3397   1.298   3.687   5.704
  833SOL    HW1 3398   1.300   3.725   5.611
  833SOL    HW2 3399   1.294   3.762   5.770
  834SOL     OW 3400   3.664   3.787   0.456
  834SOL    HW1 3401   3.736   3.723   0.483
  834SOL    HW2 3402   3.591   3.737   0.410
  835SOL     OW 3403   3.718   0.205   5.745
  835SOL    HW1 3404   3.749   0.271   5.814
  835SOL    HW2 3405   3.774   0.214   5.663
  836SOL     OW 3406   3.819   5.812   6.073
  836SOL    HW1 3407   3.827   5.823   6.172
  836SOL    HW2 3408   3.866   5.729   6.044
  837SOL     OW 3409   5.250   0.090   0.708
  837SOL    HW1 3410   5.227   0.100   0.805
  837SOL    HW2 3411   5.240   0.179   0.663
  838SOL     OW 3412   2.804   0.793   4.649
  838SOL    HW1 3413   2.729   0.848   4.685
  838SOL    HW2 3414   2.817   0.712   4.706
  839SOL     OW 3415   1.188   2.328   2.195
  839SOL    HW1 3416   1.280   2.361   2.173
  839SOL    HW2 3417   1.125   2.355   2.122
  840SOL     OW 3418   6.521   5.557   0.425
  840SOL    HW1 3419   6.497   5.624   0.354
  840SOL    HW2 3420   6.596   5.593   0.481
  841SOL     OW 3421   4.169   4.961   6.944
  841SOL    HW1 3422   4.103   4.891   6.917
  841SOL    HW2 3423   4.191   4.949   0.015
  842SOL     OW 3424   4.228   0.289   4.937
  842SOL    HW1 3425   4.242   0.373   4.884
  842SOL    HW2 3426   4.184   0.221   4.879
  843SOL     OW 3427   0.797   1.409   0.695
  843SOL    HW1 3428   0.845   1.486   0.652
  843SOL    HW2 3429   0.702   1.436   0.714
  844SOL     OW 3430   5.593   0.799   0.322
  844SOL    HW1 3431   5.508   0.770   0.366
  844SOL    HW2 3432   5.639   0.720   0.282
  845SOL     OW 3433   5.183   4.586   5.124
  845SOL    HW1 3434   5.242   4.652   5.078
  845SOL    HW2 3435   5.201   4.587   5.222
  846SOL     OW 3436   2.012   1.799   6.200
  846SOL    HW1 3437   2.011   1.883   6.253
  846SOL    HW2 3438   2.106   1.763   6.195
  847SOL     OW 3439   1.200   3.134   1.592
  847SOL    HW1 3440   1.243   3.147   1.503
  847SOL    HW2 3441   1.136   3.210   1.609
  848SOL     OW 3442   6.289   0.126   5.678
  848SOL    HW1 3443   6.384   0.148   5.701
  848SOL    HW2 3444   6.272   0.029   5.699
  849SOL     OW 3445   6.976   3.411   6.065
  849SOL    HW1 3446   7.018   3.324   6.090
  849SOL    HW2 3447   6.960   3.465   6.147
  850SOL     OW 3448   5.351   0.606   2.995
  850SOL    HW1 3449   5.418   0.676   2.970
  850SOL    HW2 3450   5.392   0.515   2.984
  851SOL     OW 3451   0.135   1.866   2.754
  851SOL    HW1 3452   0.086   1.856   2.841
  851SOL    HW2 3453   0.220   1.916   2.770
  852SOL     OW 3454   1.243   3.280   6.765
  852SOL    HW1 3455   1.258   3.328   6.852
  852SOL    HW2 3456   1.286   3.332   6.691
  853SOL     OW 3457   1.524   4.337   1.684
  853SOL    HW1 3458   1.511   4.374   1.592
  853SOL    HW2 3459   1.533   4.237   1.678
  854SOL     OW 3460   5.364   5.548   1.298
  854SOL    HW1 3461   5.285   5.609   1.298
  854SOL    HW2 3462   5.409   5.552   1.209
  855SOL     OW 3463   6.997   7.011   1.791
  855SOL    HW1 3464   7.026   0.046   1.864
  855SOL    HW2 3465   6.952   0.036   1.719
  856SOL     OW 3466   0.841   2.536   5.209
  856SOL    HW1 3467   0.898   2.617   5.222
  856SOL    HW2 3468   0.899   2.457   5.193
  857SOL     OW 3469   5.819   4.139   1.652
  857SOL    HW1 3470   5.838   4.226   1.699
  857SOL    HW2 3471   5.724   4.139   1.620
  858SOL     OW 3472   2.674   3.534   1.026
  858SOL    HW1 3473   2.678   3.456   0.964
  858SOL    HW2 3474   2.616   3.605   0.987
  859SOL     OW 3475   6.181   5.718   5.037
  859SOL    HW1 3476   6.157   5.795   4.977
  859SOL    HW2 3477   6.228   5.648   4.983
  860SOL     OW 3478   5.331   3.145   0.690
  860SOL    HW1 3479   5.288   3.126   0.778
  860SOL    HW2 3480   5.265   3.131   0.616
  861SOL     OW 3481   2.631   5.555   3.418
  861SOL    HW1 3482   2.704   5.611   3.458
  861SOL    HW2 3483   2.653   5.534   3.323
  862SOL     OW 3484   1.262   3.793   5.024
  862SOL    HW1 3485   1.292   3.868   4.964
  862SOL    HW2 3486   1.334   3.772   5.089
  863SOL     OW 3487   5.887   1.253   0.666
  863SOL    HW1 3488   5.980   1.284   0.648
  863SOL    HW2 3489   5.830   1.331   0.691
  864SOL     OW 3490   4.377   5.474   3.927
  864SOL    HW1 3491   4.362   5.480   3.828
  864SOL    HW2 3492   4.448   5.405   3.945
  865SOL     OW 3493   0.981   6.563   5.852
  865SOL    HW1 3494   0.926   6.567   5.768
  865SOL    HW2 3495   0.921   6.555   5.931
  866SOL     OW 3496   1.719   2.401   1.933
  866SOL    HW1 3497   1.814   2.371   1.924
  866SOL    HW2 3498   1.658   2.323   1.914
  867SOL     OW 3499   4.063   3.787   0.510
  867SOL    HW1 3500   4.155   3.795   0.472
  867SOL    HW2 3501   3.997   3.787   0.435
  868SOL     OW 3502   6.144   1.340   1.093
  868SOL    HW1 3503   6.102   1.249   1.098
  868SOL    HW2 3504   6.122   1.382   1.005
  869SOL     OW 3505   0.547   4.569   3.055
  869SOL    HW1 3506   0.464   4.600   3.100
  869SOL    HW2 3507   0.621   4.564   3.122
  870SOL     OW 3508   4.666   3.349   0.615
  870SOL    HW1 3509   4.636   3.352   0.519
  870SOL    HW2 3510   4.653   3.256   0.651
  871SOL     OW 3511   4.571   2.543   3.096
  871SOL    HW1 3512   4.619   2.459   3.120
  871SOL    HW2 3513   4.472   2.529   3.102
  872SOL     OW 3514   5.681   2.956   3.859
  872SOL    HW1 3515   5.737   2.959   3.776
  872SOL    HW2 3516   5.599   2.901   3.841
  873SOL     OW 3517   5.653   7.012   4.279
  873SOL    HW1 3518   5.726   7.020   4.210
  873SOL    HW2 3519   5.587   6.942   4.250
  874SOL     OW 3520   0.995   4.111   6.034
  874SOL    HW1 3521   1.089   4.137   6.015
  874SOL    HW2 3522   0.936   4.142   5.959
  875SOL     OW 3523   3.565   3.488   0.560
  875SOL    HW1 3524   3.488   3.550   0.544
  875SOL    HW2 3525   3.592   3.445   0.473
  876SOL     OW 3526   0.537   4.356   2.447
  876SOL    HW1 3527   0.479   4.274   2.455
  876SOL    HW2 3528   0.575   4.379   2.536
  877SOL     OW 3529   3.849   4.334   6.205
  877SOL    HW1 3530   3.859   4.353   6.107
  877SOL    HW2 3531   3.796   4.408   6.247
  878SOL     OW 3532   3.731   6.068   5.445
  878SOL    HW1 3533   3.662   6.141   5.439
  878SOL    HW2 3534   3.790   6.071   5.365
  879SOL     OW 3535   4.124   2.432   0.904
  879SOL    HW1 3536   4.215   2.394   0.886
  879SOL    HW2 3537   4.059   2.395   0.838
  880SOL     OW 3538   3.141   4.059   4.474
  880SOL    HW1 3539   3.181   4.074   4.564
  880SOL    HW2 3540   3.090   3.973   4.475
  881SOL     OW 3541   4.887   4.071   4.715
  881SOL    HW1 3542   4.942   3.995   4.750
  881SOL    HW2 3543   4.948   4.148   4.692
  882SOL     OW 3544   0.846   2.727   4.417
  882SOL    HW1 3545   0.817   2.731   4.321
  882SOL    HW2 3546   0.765   2.729   4.476
  883SOL     OW 3547   4.659   6.739   6.837
  883SOL    HW1 3548   4.681   6.669   6.769
  883SOL    HW2 3549   4.565   6.724   6.870
  884SOL     OW 3550   0.153   4.277   0.417
  884SOL    HW1 3551   0.099   4.194   0.408
  884SOL    HW2 3552   0.232   4.273   0.355
  885SOL     OW 3553   4.770   6.059   6.495
  885SOL    HW1 3554   4.743   6.012   6.411
  885SOL    HW2 3555   4.690   6.077   6.551
  886SOL     OW 3556   4.203   1.346   1.297
  886SOL    HW1 3557   4.243   1.255   1.289
  886SOL    HW2 3558   4.228   1.401   1.217
  887SOL     OW 3559   3.649   6.017   4.135
  887SOL    HW1 3560   3.646   6.096   4.074
  887SOL    HW2 3561   3.558   6.003   4.176
  888SOL     OW 3562   6.332   5.485   2.492
  888SOL    HW1 3563   6.390   5.434   2.555
  888SOL    HW2 3564   6.387   5.551   2.441
  889SOL     OW 3565   1.028   6.874   5.767
  889SOL    HW1 3566   1.019   6.868   5.867
  889SOL    HW2 3567   1.114   6.832   5.738
  890SOL     OW 3568   1.567   5.892   2.481
  890SOL    HW1 3569   1.496   5.960   2.461
  890SOL    HW2 3570   1.527   5.800   2.475
  891SOL     OW 3571   6.520   3.540   0.366
  891SOL    HW1 3572   6.565   3.579   0.447
  891SOL    HW2 3573   6.431   3.583   0.353
  892SOL     OW 3574   3.886   4.403   5.929
  892SOL    HW1 3575   3.805   4.357   5.891
  892SOL    HW2 3576   3.900   4.490   5.883
  893SOL     OW 3577   2.271   0.780   2.283
  893SOL    HW1 3578   2.324   0.829   2.213
  893SOL    HW2 3579   2.176   0.772   2.253
  894SOL     OW 3580   1.063   2.552   3.315
  894SOL    HW1 3581   1.149   2.515   3.281
  894SOL    HW2 3582   1.030   2.496   3.390
  895SOL     OW 3583   0.955   5.464   3.926
  895SOL    HW1 3584   0.875   5.509   3.886
  895SOL    HW2 3585   0.954   5.367   3.901
  896SOL     OW 3586   6.094   6.898   1.525
  896SOL    HW1 3587   6.090   6.998   1.527
  896SOL    HW2 3588   6.005   6.861   1.552
  897SOL     OW 3589   4.376   1.074   6.624
  897SOL    HW1 3590   4.445   1.050   6.692
  897SOL    HW2 3591   4.416   1.067   6.533
  898SOL     OW 3592   3.118   6.537   3.155
  898SOL    HW1 3593   3.125   6.439   3.141
  898SOL    HW2 3594   3.140   6.585   3.070
  899SOL     OW 3595   0.553   5.531   1.213
  899SOL    HW1 3596   0.464   5.538   1.167
  899SOL    HW2 3597   0.610   5.609   1.186
  900SOL     OW 3598   4.760   6.139   0.433
  900SOL    HW1 3599   4.856   6.124   0.459
  900SOL    HW2 3600   4.756   6.207   0.360
  901SOL     OW 3601   1.195   1.017   5.201
  901SOL    HW1 3602   1.121   0.981   5.144
  901SOL    HW2 3603   1.213   0.954   5.276
  902SOL     OW 3604   0.958   2.458   0.877
  902SOL    HW1 3605   1.041   2.435   0.826
  902SOL    HW2 3606   0.966   2.550   0.914
  903SOL     OW 3607   6.854   3.525   6.337
  903SOL    HW1 3608   6.842   3.619   6.369
  903SOL    HW2 3609   6.772   3.472   6.355
  904SOL     OW 3610   2.256   2.758   2.774
  904SOL    HW1 3611   2.256   2.854   2.802
  904SOL    HW2 3612   2.198   2.747   2.693
  905SOL     OW 3613   5.051   3.847   5.661
  905SOL    HW1 3614   5.088   3.821   5.572
  905SOL    HW2 3615   4.961   3.806   5.673
  906SOL     OW 3616   0.764   3.070   6.105
  906SOL    HW1 3617   0.855   3.075   6.063
  906SOL    HW2 3618   0.696   3.110   6.044
  907SOL     OW 3619   5.044   2.325   2.625
  907SOL    HW1 3620   5.038   2.423   2.646
  907SOL    HW2 3621   5.073   2.314   2.530
  908SOL     OW 3622   2.311   5.147   2.977
  908SOL    HW1 3623   2.399   5.113   2.947
  908SOL    HW2 3624   2.260   5.073   3.022
  909SOL     OW 3625   2.605   5.965   2.313
  909SOL    HW1 3626   2.518   5.942   2.270
  909SOL    HW2 3627   2.589   6.028   2.389
  910SOL     OW 3628   2.299   1.009   0.416
  910SOL    HW1 3629   2.235   1.084   0.430
  910SOL    HW2 3630   2.250   0.921   0.420
  911SOL     OW 3631   6.868   5.966   0.457
  911SOL    HW1 3632   6.870   5.964   0.357
  911SOL    HW2 3633   6.940   5.906   0.492
  912SOL     OW 3634   5.389   0.389   3.607
  912SOL    HW1 3635   5.443   0.362   3.686
  912SOL    HW2 3636   5.423   0.477   3.572
  913SOL     OW 3637   1.850   0.851   3.337
  913SOL    HW1 3638   1.896   0.877   3.252
  913SOL    HW2 3639   1.751   0.856   3.325
  914SOL     OW 3640   1.858   5.839   5.347
  914SOL    HW1 3641   1.892   5.790   5.427
  914SOL    HW2 3642   1.931   5.896   5.310
  915SOL     OW 3643   0.598   3.268   0.837
  915SOL    HW1 3644   0.619   3.179   0.876
  915SOL    HW2 3645   0.657   3.337   0.878
  916SOL     OW 3646   1.654   2.810   2.415
  916SOL    HW1 3647   1.555   2.821   2.410
  916SOL    HW2 3648   1.698   2.885   2.367
  917SOL     OW 3649   5.623   0.559   2.068
  917SOL    HW1 3650   5.713   0.518   2.058
  917SOL    HW2 3651   5.615   0.601   2.158
  918SOL     OW 3652   3.072   0.108   0.762
  918SOL    HW1 3653   3.079   0.012   0.787
  918SOL    HW2 3654   2.976   0.134   0.754
  919SOL     OW 3655   6.523   5.911   2.743
  919SOL    HW1 3656   6.526   5.906   2.843
  919SOL    HW2 3657   6.607   5.953   2.710
  920SOL     OW 3658   2.232   5.401   2.906
  920SOL    HW1 3659   2.180   5.435   2.984
  920SOL    HW2 3660   2.263   5.308   2.925
  921SOL     OW 3661   4.907   4.347   3.092
  921SOL    HW1 3662   4.887   4.332   2.995
  921SOL    HW2 3663   4.882   4.440   3.116
  922SOL     OW 3664   3.287   3.514   5.846
  922SOL    HW1 3665   3.211   3.572   5.817
  922SOL    HW2 3666   3.346   3.565   5.909
  923SOL     OW 3667   3.105   4.615   5.978
  923SOL    HW1 3668   3.138   4.562   5.900
  923SOL    HW2 3669   3.006   4.612   5.982
  924SOL     OW 3670   5.936   2.406   2.951
  924SOL    HW1 3671   5.959   2.487   2.896
  924SOL    HW2 3672   5.839   2.410   2.976
  925SOL     OW 3673   0.539   1.564   6.618
  925SOL    HW1 3674   0.583   1.521   6.697
  925SOL    HW2 3675   0.467   1.505   6.582
  926SOL     OW 3676   5.577   1.188   0.548
  926SOL    HW1 3677   5.659   1.135   0.525
  926SOL    HW2 3678   5.550   1.169   0.642
  927SOL     OW 3679   6.301   4.059   3.073
  927SOL    HW1 3680   6.336   4.054   3.167
  927SOL    HW2 3681   6.271   4.152   3.054
  928SOL     OW 3682   1.017   5.981   0.672
  928SOL    HW1 3683   0.991   6.013   0.581
  928SOL    HW2 3684   0.946   5.920   0.708
  929SOL     OW 3685   0.169   1.054   1.246
  929SOL    HW1 3686   0.185   0.973   1.303
  929SOL    HW2 3687   0.246   1.065   1.183
  930SOL     OW 3688   5.639   6.137   4.418
  930SOL    HW1 3689   5.724   6.145   4.366
  930SOL    HW2 3690   5.586   6.061   4.382
  931SOL     OW 3691   5.885   1.941   3.247
  931SOL    HW1 3692   5.810   1.972   3.304
  931SOL    HW2 3693   5.872   1.844   3.226
  932SOL     OW 3694   3.149   6.783   2.929
  932SOL    HW1 3695   3.195   6.839   2.997
  932SOL    HW2 3696   3.202   6.784   2.844
  933SOL     OW 3697   1.228   6.012   3.407
  933SOL    HW1 3698   1.309   6.057   3.369
  933SOL    HW2 3699   1.240   5.999   3.506
  934SOL     OW 3700   2.031   0.409   5.626
  934SOL    HW1 3701   1.992   0.478   5.565
  934SOL    HW2 3702   1.999   0.319   5.599
  935SOL     OW 3703   4.843   4.519   5.023
  935SOL    HW1 3704   4.751   4.483   5.009
  935SOL    HW2 3705   4.853   4.547   5.118
  936SOL     OW 3706   1.070   0.261   6.155
  936SOL    HW1 3707   0.989   0.319   6.144
  936SOL    HW2 3708   1.097   0.259   6.251
  937SOL     OW 3709   4.784   1.051   4.670
  937SOL    HW1 3710   4.748   1.073   4.579
  937SOL    HW2 3711   4.855   0.981   4.662
  938SOL     OW 3712   6.626   5.440   5.651
  938SOL    HW1 3713   6.701   5.459   5.587
  938SOL    HW2 3714   6.571   5.522   5.662
  939SOL     OW 3715   5.966   0.203   5.656
  939SOL    HW1 3716   6.030   0.231   5.727
  939SOL    HW2 3717   5.966   0.270   5.582
  940SOL     OW 3718   0.286   2.511   2.013
  940SOL    HW1 3719   0.193   2.487   1.986
  940SOL    HW2 3720   0.284   2.571   2.093
  941SOL     OW 3721   5.579   1.078   5.584
  941SOL    HW1 3722   5.652   1.062   5.651
  941SOL    HW2 3723   5.559   0.993   5.535
  942SOL     OW 3724   5.007   6.806   3.108
  942SOL    HW1 3725   4.948   6.732   3.140
  942SOL    HW2 3726   5.092   6.806   3.162
  943SOL     OW 3727   2.122   3.377   3.814
  943SOL    HW1 3728   2.121   3.277   3.813
  943SOL    HW2 3729   2.171   3.410   3.895
  944SOL     OW 3730   0.159   3.767   6.034
  944SOL    HW1 3731   0.149   3.808   6.125
  944SOL    HW2 3732   0.114   3.825   5.966
  945SOL     OW 3733   5.862   4.041   4.682
  945SOL    HW1 3734   5.937   4.054   4.616
  945SOL    HW2 3735   5.810   3.959   4.657
  946SOL     OW 3736   5.206   2.506   6.312
  946SOL    HW1 3737   5.150   2.585   6.290
  946SOL    HW2 3738   5.301   2.535   6.324
  947SOL     OW 3739   3.884   2.966   4.001
  947SOL    HW1 3740   3.819   2.972   4.077
  947SOL    HW2 3741   3.963   3.023   4.021
  948SOL     OW 3742   4.136   7.009   1.378
  948SOL    HW1 3743   4.048   0.011   1.340
  948SOL    HW2 3744   4.143   6.910   1.372
  949SOL     OW 3745   0.879   6.355   6.444
  949SOL    HW1 3746   0.940   6.401   6.379
  949SOL    HW2 3747   0.932   6.320   6.521
  950SOL     OW 3748   4.661   5.314   1.569
  950SOL    HW1 3749   4.747   5.268   1.590
  950SOL    HW2 3750   4.650   5.393   1.629
  951SOL     OW 3751   2.251   1.216   4.228
  951SOL    HW1 3752   2.276   1.280   4.155
  951SOL    HW2 3753   2.303   1.238   4.311
  952SOL     OW 3754   5.070   1.839   3.146
  952SOL    HW1 3755   5.058   1.900   3.225
  952SOL    HW2 3756   4.991   1.777   3.140
  953SOL     OW 3757   5.523   5.717   3.902
  953SOL    HW1 3758   5.540   5.622   3.931
  953SOL    HW2 3759   5.495   5.718   3.806
  954SOL     OW 3760   4.426   5.845   0.593
  954SOL    HW1 3761   4.442   5.882   0.684
  954SOL    HW2 3762   4.510   5.852   0.539
  955SOL     OW 3763   6.865   3.756   3.124
  955SOL    HW1 3764   6.854   3.776   3.222
  955SOL    HW2 3765   6.847   3.839   3.071
  956SOL     OW 3766   6.975   2.297   2.675
  956SOL    HW1 3767   7.000   2.205   2.705
  956SOL    HW2 3768   0.001   2.321   2.594
  957SOL     OW 3769   6.681   4.366   5.207
  957SOL    HW1 3770   6.682   4.309   5.125
  957SOL    HW2 3771   6.644   4.456   5.185
  958SOL     OW 3772   4.384   1.871   1.923
  958SOL    HW1 3773   4.398   1.949   1.861
  958SOL    HW2 3774   4.306   1.891   1.983
  959SOL     OW 3775   3.498   5.417   2.578
  959SOL    HW1 3776   3.441   5.411   2.496
  959SOL    HW2 3777   3.526   5.512   2.592
  960SOL     OW 3778   0.898   6.198   2.002
  960SOL    HW1 3779   0.915   6.138   1.924
  960SOL    HW2 3780   0.980   6.252   2.020
  961SOL     OW 3781   4.984   0.233   3.404
  961SOL    HW1 3782   4.972   0.171   3.482
  961SOL    HW2 3783   4.914   0.303   3.406
  962SOL     OW 3784   0.607   0.814   5.330
  962SOL    HW1 3785   0.565   0.836   5.418
  962SOL    HW2 3786   0.536   0.797   5.262
  963SOL     OW 3787   6.422   1.871   6.172
  963SOL    HW1 3788   6.421   1.849   6.074
  963SOL    HW2 3789   6.492   1.940   6.190
  964SOL     OW 3790   5.603   4.611   0.283
  964SOL    HW1 3791   5.656   4.665   0.348
  964SOL    HW2 3792   5.550   4.542   0.332
  965SOL     OW 3793   5.582   2.102   0.912
  965SOL    HW1 3794   5.501   2.103   0.970
  965SOL    HW2 3795   5.659   2.065   0.964
  966SOL     OW 3796   5.238   2.138   1.943
  966SOL    HW1 3797   5.321   2.162   1.893
  966SOL    HW2 3798   5.170   2.100   1.880
  967SOL     OW 3799   2.173   4.311   1.530
  967SOL    HW1 3800   2.161   4.340   1.625
  967SOL    HW2 3801   2.263   4.341   1.497
  968SOL     OW 3802   3.506   1.110   1.460
  968SOL    HW1 3803   3.592   1.161   1.457
  968SOL    HW2 3804   3.464   1.120   1.551
  969SOL     OW 3805   3.423   6.007   6.070
  969SOL    HW1 3806   3.466   5.917   6.067
  969SOL    HW2 3807   3.404   6.032   6.165
  970SOL     OW 3808   5.796   0.838   5.987
  970SOL    HW1 3809   5.824   0.874   6.077
  970SOL    HW2 3810   5.753   0.749   6.000
  971SOL     OW 3811   6.819   2.168   3.371
  971SOL    HW1 3812   6.737   2.117   3.342
  971SOL    HW2 3813   6.791   2.247   3.426
  972SOL     OW 3814   5.617   3.408   2.109
  972SOL    HW1 3815   5.579   3.425   2.018
  972SOL    HW2 3816   5.562   3.338   2.155
  973SOL     OW 3817   0.481   4.734   0.050
  973SOL    HW1 3818   0.405   4.717   0.112
  973SOL    HW2 3819   0.453   4.798   7.005
  974SOL     OW 3820   5.342   6.441   2.667
  974SOL    HW1 3821   5.271   6.375   2.645
  974SOL    HW2 3822   5.425   6.393   2.696
  975SOL     OW 3823   1.390   6.341   6.742
  975SOL    HW1 3824   1.452   6.419   6.733
  975SOL    HW2 3825   1.373   6.302   6.652
  976SOL     OW 3826   0.272   3.375   2.793
  976SOL    HW1 3827   0.191   3.431   2.771
  976SOL    HW2 3828   0.243   3.281   2.812
  977SOL     OW 3829   0.938   0.739   2.425
  977SOL    HW1 3830   0.924   0.808   2.497
  977SOL    HW2 3831   0.960   0.651   2.467
  978SOL     OW 3832   4.250   3.510   5.753
  978SOL    HW1 3833   4.262   3.507   5.654
  978SOL    HW2 3834   4.175   3.450   5.780
  979SOL     OW 3835   6.559   2.340   0.459
  979SOL    HW1 3836   6.531   2.314   0.366
  979SOL    HW2 3837   6.651   2.379   0.457
  980SOL     OW 3838   4.779   2.440   4.351
  980SOL    HW1 3839   4.829   2.368   4.303
  980SOL    HW2 3840   4.829   2.465   4.434
  981SOL     OW 3841   0.230   1.766   4.661
  981SOL    HW1 3842   0.304   1.747   4.725
  981SOL    HW2 3843   0.232   1.863   4.635
  982SOL     OW 3844   2.596   2.353   3.955
  982SOL    HW1 3845   2.580   2.286   4.028
  982SOL    HW2 3846   2.549   2.438   3.977
  983SOL     OW 3847   5.918   2.525   4.997
  983SOL    HW1 3848   5.996   2.572   5.039
  983SOL    HW2 3849   5.911   2.551   4.901
  984SOL     OW 3850   2.518   1.819   4.713
  984SOL    HW1 3851   2.559   1.792   4.626
  984SOL    HW2 3852   2.563   1.769   4.787
  985SOL     OW 3853   5.710   4.467   4.957
  985SOL    HW1 3854   5.767   4.444   4.878
  985SOL    HW2 3855   5.641   4.395   4.969
  986SOL     OW 3856   6.185   4.508   1.115
  986SOL    HW1 3857   6.118   4.582   1.117
  986SOL    HW2 3858   6.210   4.483   1.208
  987SOL     OW 3859   4.648   0.036   1.968
  987SOL    HW1 3860   4.622   0.120   1.921
  987SOL    HW2 3861   4.644   6.986   1.904
  988SOL     OW 3862   3.128   3.216   2.824
  988SOL    HW1 3863   3.137   3.138   2.762
  988SOL    HW2 3864   3.122   3.300   2.770
  989SOL     OW 3865   6.348   0.599   5.546
  989SOL    HW1 3866   6.367   0.556   5.635
  989SOL    HW2 3867   6.385   0.542   5.473
  990SOL     OW 3868   3.711   0.607   2.140
  990SOL    HW1 3869   3.660   0.688   2.168
  990SOL    HW2 3870   3.646   0.533   2.119
  991SOL     OW 3871   0.691   2.355   5.338
  991SOL    HW1 3872   0.742   2.440   5.328
  991SOL    HW2 3873   0.651   2.330   5.249
  992SOL     OW 3874   6.836   2.562   1.943
  992SOL    HW1 3875   6.873   2.623   2.013
  992SOL    HW2 3876   6.738   2.578   1.933
  993SOL     OW 3877   1.044   4.510   1.429
  993SOL    HW1 3878   0.976   4.529   1.500
  993SOL    HW2 3879   1.064   4.595   1.379
  994SOL     OW 3880   3.712   4.370   1.532
  994SOL    HW1 3881   3.741   4.339   1.622
  994SOL    HW2 3882   3.699   4.469   1.533
  995SOL     OW 3883   3.885   2.999   4.894
  995SOL    HW1 3884   3.969   2.945   4.899
  995SOL    HW2 3885   3.906   3.091   4.862
  996SOL     OW 3886   2.872   4.809   4.538
  996SOL    HW1 3887   2.849   4.756   4.456
  996SOL    HW2 3888   2.820   4.773   4.616
  997SOL     OW 3889   0.620   1.104   3.053
  997SOL    HW1 3890   0.682   1.167   3.101
  997SOL    HW2 3891   0.674   1.036   3.003
  998SOL     OW 3892   4.512   0.133   4.387
  998SOL    HW1 3893   4.418   0.108   4.365
  998SOL    HW2 3894   4.572   0.104   4.312
  999SOL     OW 3895   4.895   4.341   2.806
  999SOL    HW1 3896   4.864   4.256   2.764
  999SOL    HW2 3897   4.980   4.371   2.763
 1000SOL     OW 3898   2.539   1.188   1.868
 1000SOL    HW1 3899   2.440   1.176   1.873
 1000SOL    HW2 3900   2.579   1.172   1.959
 1001SOL     OW 3901   5.126   5.791   0.535
 1001SOL    HW1 3902   5.123   5.744   0.623
 1001SOL    HW2 3903   5.043   5.845   0.523
 1002SOL     OW 3904   5.812   1.582   1.180
 1002SOL    HW1 3905   5.902   1.588   1.222
 1002SOL    HW2 3906   5.819   1.605   1.083
 1003SOL     OW 3907   1.961   6.709   2.120
 1003SOL    HW1 3908   1.941   6.724   2.217
 1003SOL    HW2 3909   1.906   6.632   2.087
 1004SOL     OW 3910   0.319   6.976   2.650
 1004SOL    HW1 3911   0.355   6.933   2.568
 1004SOL    HW2 3912   0.328   0.048   2.643
 1005SOL     OW 3913   2.251   2.935   3.933
 1005SOL    HW1 3914   2.288   2.984   3.854
 1005SOL    HW2 3915   2.253   2.996   4.013
 1006SOL     OW 3916   0.662   4.910   1.408
 1006SOL    HW1 3917   0.679   4.846   1.333
 1006SOL    HW2 3918   0.597   4.980   1.377
 1007SOL     OW 3919   4.275   6.909   5.276
 1007SOL    HW1 3920   4.351   6.948   5.224
 1007SOL    HW2 3921   4.189   6.950   5.244
 1008SOL     OW 3922   1.652   2.674   5.092
 1008SOL    HW1 3923   1.724   2.697   5.026
 1008SOL    HW2 3924   1.566   2.714   5.063
 1009SOL     OW 3925   0.265   5.389   5.032
 1009SOL    HW1 3926   0.175   5.431   5.026
 1009SOL    HW2 3927   0.335   5.460   5.033
 1010SOL     OW 3928   3.534   2.837   5.953
 1010SOL    HW1 3929   3.538   2.746   5.911
 1010SOL    HW2 3930   3.554   2.829   6.051
 1011SOL     OW 3931   2.339   4.661   2.275
 1011SOL    HW1 3932   2.263   4.688   2.215
 1011SOL    HW2 3933   2.328   4.705   2.364
 1012SOL     OW 3934   0.108   0.836   1.846
 1012SOL    HW1 3935   0.014   0.817   1.815
 1012SOL    HW2 3936   0.173   0.796   1.781
 1013SOL     OW 3937   1.140   0.824   5.581
 1013SOL    HW1 3938   1.214   0.866   5.528
 1013SOL    HW2 3939   1.179   0.762   5.649
 1014SOL     OW 3940   5.918   5.544   6.541
 1014SOL    HW1 3941   5.859   5.547   6.461
 1014SOL    HW2 3942   5.992   5.611   6.532
 1015SOL     OW 3943   2.306   6.666   5.803
 1015SOL    HW1 3944   2.237   6.728   5.840
 1015SOL    HW2 3945   2.300   6.577   5.849
 1016SOL     OW 3946   4.051   3.653   6.534
 1016SOL    HW1 3947   4.032   3.555   6.524
 1016SOL    HW2 3948   4.022   3.701   6.451
 1017SOL     OW 3949   4.261   2.599   1.229
 1017SOL    HW1 3950   4.347   2.635   1.267
 1017SOL    HW2 3951   4.271   2.501   1.212
 1018SOL     OW 3952   0.167   4.350   3.387
 1018SOL    HW1 3953   0.262   4.384   3.387
 1018SOL    HW2 3954   0.146   4.311   3.477
 1019SOL     OW 3955   6.769   6.709   1.305
 1019SOL    HW1 3956   6.783   6.748   1.214
 1019SOL    HW2 3957   6.843   6.737   1.366
 1020SOL     OW 3958   0.777   0.907   1.578
 1020SOL    HW1 3959   0.859   0.850   1.562
 1020SOL    HW2 3960   0.782   0.948   1.669
 1021SOL     OW 3961   5.373   0.242   1.346
 1021SOL    HW1 3962   5.297   0.183   1.374
 1021SOL    HW2 3963   5.388   0.233   1.248
 1022SOL     OW 3964   3.754   4.897   5.437
 1022SOL    HW1 3965   3.711   4.808   5.449
 1022SOL    HW2 3966   3.737   4.930   5.344
 1023SOL     OW 3967   0.893   6.939   3.178
 1023SOL    HW1 3968   0.841   6.875   3.121
 1023SOL    HW2 3969   0.850   6.947   3.268
 1024SOL     OW 3970   0.327   2.668   4.180
 1024SOL    HW1 3971   0.306   2.678   4.083
 1024SOL    HW2 3972   0.248   2.697   4.235
 1025SOL     OW 3973   3.544   3.256   1.063
 1025SOL    HW1 3974   3.506   3.166   1.042
 1025SOL    HW2 3975   3.595   3.252   1.149
 1026SOL     OW 3976   2.205   2.683   0.610
 1026SOL    HW1 3977   2.146   2.665   0.689
 1026SOL    HW2 3978   2.205   2.781   0.590
 1027SOL     OW 3979   3.203   6.260   1.738
 1027SOL    HW1 3980   3.135   6.188   1.729
 1027SOL    HW2 3981   3.251   6.272   1.651
 1028SOL     OW 3982   3.074   5.989   0.622
 1028SOL    HW1 3983   2.989   5.963   0.668
 1028SOL    HW2 3984   3.054   6.023   0.530
 1029SOL     OW 3985   1.905   0.057   6.906
 1029SOL    HW1 3986   1.962   7.002   6.911
 1029SOL    HW2 3987   1.963   0.138   6.905
 1030SOL     OW 3988   3.190   2.939   1.951
 1030SOL    HW1 3989   3.209   2.865   1.886
 1030SOL    HW2 3990   3.147   3.015   1.903
 1031SOL     OW 3991   5.405   4.366   0.778
 1031SOL    HW1 3992   5.338   4.352   0.705
 1031SOL    HW2 3993   5.496   4.375   0.738
 1032SOL     OW 3994   2.256   2.136   5.373
 1032SOL    HW1 3995   2.267   2.182   5.285
 1032SOL    HW2 3996   2.171   2.166   5.416
 1033SOL     OW 3997   1.415   6.771   0.860
 1033SOL    HW1 3998   1.315   6.777   0.854
 1033SOL    HW2 3999   1.453   6.863   0.855
 1034SOL     OW 4000   0.635   5.010   4.736
 1034SOL    HW1 4001   0.590   5.068   4.804
 1034SOL    HW2 4002   0.730   5.039   4.725
 1035SOL     OW 4003   0.233   1.049   5.076
 1035SOL    HW1 4004   0.136   1.060   5.095
 1035SOL    HW2 4005   0.283   1.128   5.112
 1036SOL     OW 4006   3.694   1.555   1.785
 1036SOL    HW1 4007   3.681   1.640   1.836
 1036SOL    HW2 4008   3.702   1.479   1.849
 1037SOL     OW 4009   1.883   0.920   1.978
 1037SOL    HW1 4010   1.854   0.841   1.924
 1037SOL    HW2 4011   1.846   1.004   1.936
 1038SOL     OW 4012   1.282   0.495   4.885
 1038SOL    HW1 4013   1.233   0.557   4.824
 1038SOL    HW2 4014   1.352   0.546   4.936
 1039SOL     OW 4015   3.285   4.059   5.285
 1039SOL    HW1 4016   3.256   3.995   5.213
 1039SOL    HW2 4017   3.219   4.134   5.291
 1040SOL     OW 4018   4.289   2.259   2.578
 1040SOL    HW1 4019   4.352   2.270   2.501
 1040SOL    HW2 4020   4.324   2.310   2.657
 1041SOL     OW 4021   0.071   0.306   3.724
 1041SOL    HW1 4022   0.064   0.210   3.698
 1041SOL    HW2 4023   7.016   0.355   3.694
 1042SOL     OW 4024   4.882   5.353   2.055
 1042SOL    HW1 4025   4.893   5.414   2.134
 1042SOL    HW2 4026   4.864   5.260   2.086
 1043SOL     OW 4027   3.617   1.424   5.058
 1043SOL    HW1 4028   3.699   1.367   5.060
 1043SOL    HW2 4029   3.610   1.470   4.969
 1044SOL     OW 4030   5.071   5.123   2.568
 1044SOL    HW1 4031   5.096   5.030   2.593
 1044SOL    HW2 4032   5.096   5.186   2.641
 1045SOL     OW 4033   4.308   6.486   2.125
 1045SOL    HW1 4034   4.284   6.569   2.076
 1045SOL    HW2 4035   4.293   6.499   2.223
 1046SOL     OW 4036   1.130   0.726   0.133
 1046SOL    HW1 4037   1.217   0.770   0.151
 1046SOL    HW2 4038   1.146   0.633   0.099
 1047SOL     OW 4039   1.975   1.135   3.142
 1047SOL    HW1 4040   2.000   1.040   3.124
 1047SOL    HW2 4041   1.964   1.149   3.240
 1048SOL     OW 4042   4.802   6.293   4.313
 1048SOL    HW1 4043   4.827   6.341   4.397
 1048SOL    HW2 4044   4.822   6.196   4.323
 1049SOL     OW 4045   6.415   6.151   3.682
 1049SOL    HW1 4046   6.446   6.084   3.614
 1049SOL    HW2 4047   6.481   6.226   3.687
 1050SOL     OW 4048   4.139   5.096   1.000
 1050SOL    HW1 4049   4.144   5.089   0.901
 1050SOL    HW2 4050   4.130   5.192   1.027
 1051SOL     OW 4051   2.527   5.917   1.057
 1051SOL    HW1 4052   2.433   5.929   1.025
 1051SOL    HW2 4053   2.529   5.847   1.129
 1052SOL     OW 4054   3.576   0.929   4.705
 1052SOL    HW1 4055   3.629   0.902   4.624
 1052SOL    HW2 4056   3.479   0.935   4.680
 1053SOL     OW 4057   5.647   5.300   3.323
 1053SOL    HW1 4058   5.699   5.256   3.250
 1053SOL    HW2 4059   5.705   5.367   3.370
 1054SOL     OW 4060   3.190   4.106   6.064
 1054SOL    HW1 4061   3.117   4.103   5.996
 1054SOL    HW2 4062   3.198   4.198   6.100
 1055SOL     OW 4063   3.756   6.791   5.120
 1055SOL    HW1 4064   3.731   6.829   5.209
 1055SOL    HW2 4065   3.770   6.692   5.129
 1056SOL     OW 4066   1.898   5.568   6.237
 1056SOL    HW1 4067   1.980   5.619   6.211
 1056SOL    HW2 4068   1.918   5.512   6.317
 1057SOL     OW 4069   2.989   3.134   1.667
 1057SOL    HW1 4070   2.965   3.198   1.740
 1057SOL    HW2 4071   2.912   3.073   1.649
 1058SOL     OW 4072   4.852   1.367   3.535
 1058SOL    HW1 4073   4.833   1.399   3.628
 1058SOL    HW2 4074   4.925   1.421   3.495
 1059SOL     OW 4075   2.681   0.590   1.562
 1059SOL    HW1 4076   2.593   0.616   1.602
 1059SOL    HW2 4077   2.716   0.666   1.506
 1060SOL     OW 4078   0.077   4.340   4.758
 1060SOL    HW1 4079   7.026   4.390   4.720
 1060SOL    HW2 4080   0.096   4.373   4.851
 1061SOL     OW 4081   5.974   3.153   0.868
 1061SOL    HW1 4082   5.920   3.108   0.797
 1061SOL    HW2 4083   5.971   3.252   0.855
 1062SOL     OW 4084   5.511   4.040   6.173
 1062SOL    HW1 4085   5.583   3.978   6.206
 1062SOL    HW2 4086   5.525   4.131   6.211
 1063SOL     OW 4087   1.706   4.939   2.334
 1063SOL    HW1 4088   1.707   5.003   2.410
 1063SOL    HW2 4089   1.668   4.851   2.364
 1064SOL     OW 4090   1.868   4.153   1.797
 1064SOL    HW1 4091   1.876   4.098   1.714
 1064SOL    HW2 4092   1.810   4.233   1.780
 1065SOL     OW 4093   3.318   0.388   3.851
 1065SOL    HW1 4094   3.364   0.475   3.870
 1065SOL    HW2 4095   3.261   0.397   3.770
 1066SOL     OW 4096   4.401   6.798   3.155
 1066SOL    HW1 4097   4.314   6.766   3.194
 1066SOL    HW2 4098   4.462   6.720   3.144
 1067SOL     OW 4099   0.511   3.723   0.871
 1067SOL    HW1 4100   0.605   3.692   0.885
 1067SOL    HW2 4101   0.448   3.650   0.899
 1068SOL     OW 4102   5.205   5.668   3.068
 1068SOL    HW1 4103   5.275   5.601   3.043
 1068SOL    HW2 4104   5.212   5.687   3.166
 1069SOL     OW 4105   4.343   5.178   1.261
 1069SOL    HW1 4106   4.340   5.091   1.212
 1069SOL    HW2 4107   4.312   5.252   1.201
 1070SOL     OW 4108   6.877   0.386   2.367
 1070SOL    HW1 4109   6.898   0.445   2.445
 1070SOL    HW2 4110   6.897   0.291   2.391
 1071SOL     OW 4111   1.381   0.548   3.563
 1071SOL    HW1 4112   1.433   0.478   3.613
 1071SOL    HW2 4113   1.435   0.632   3.558
 1072SOL     OW 4114   2.230   1.002   1.001
 1072SOL    HW1 4115   2.184   1.053   0.928
 1072SOL    HW2 4116   2.299   1.060   1.044
 1073SOL     OW 4117   4.822   0.120   1.742
 1073SOL    HW1 4118   4.785   0.101   1.833
 1073SOL    HW2 4119   4.898   0.184   1.750
 1074SOL     OW 4120   1.782   5.291   1.099
 1074SOL    HW1 4121   1.782   5.365   1.167
 1074SOL    HW2 4122   1.819   5.325   1.012
 1075SOL     OW 4123   5.170   6.621   4.302
 1075SOL    HW1 4124   5.218   6.703   4.333
 1075SOL    HW2 4125   5.213   6.540   4.342
 1076SOL     OW 4126   7.008   2.842   5.628
 1076SOL    HW1 4127   0.039   2.796   5.560
 1076SOL    HW2 4128   0.034   2.914   5.674
 1077SOL     OW 4129   5.784   0.500   1.333
 1077SOL    HW1 4130   5.779   0.556   1.251
 1077SOL    HW2 4131   5.693   0.463   1.354
 1078SOL     OW 4132   1.030   1.683   2.506
 1078SOL    HW1 4133   1.123   1.673   2.470
 1078SOL    HW2 4134   1.021   1.632   2.591
 1079SOL     OW 4135   2.417   6.325   2.358
 1079SOL    HW1 4136   2.437   6.387   2.283
 1079SOL    HW2 4137   2.502   6.296   2.402
 1080SOL     OW 4138   0.754   4.155   3.545
 1080SOL    HW1 4139   0.812   4.103   3.482
 1080SOL    HW2 4140   0.809   4.186   3.622
 1081SOL     OW 4141   0.314   5.409   5.896
 1081SOL    HW1 4142   0.303   5.428   5.798
 1081SOL    HW2 4143   0.390   5.346   5.909
 1082SOL     OW 4144   4.281   2.076   5.549
 1082SOL    HW1 4145   4.317   2.017   5.477
 1082SOL    HW2 4146   4.220   2.022   5.608
 1083SOL     OW 4147   4.190   3.654   6.912
 1083SOL    HW1 4148   4.188   3.688   7.006
 1083SOL    HW2 4149   4.283   3.662   6.876
 1084SOL     OW 4150   5.453   6.394   6.953
 1084SOL    HW1 4151   5.482   6.305   6.986
 1084SOL    HW2 4152   5.353   6.398   6.951
 1085SOL     OW 4153   1.162   3.865   4.063
 1085SOL    HW1 4154   1.149   3.936   4.131
 1085SOL    HW2 4155   1.090   3.796   4.072
 1086SOL     OW 4156   6.678   6.388   1.027
 1086SOL    HW1 4157   6.661   6.423   0.936
 1086SOL    HW2 4158   6.628   6.442   1.094
 1087SOL     OW 4159   5.299   1.617   4.946
 1087SOL    HW1 4160   5.300   1.599   5.045
 1087SOL    HW2 4161   5.205   1.611   4.913
 1088SOL     OW 4162   6.647   4.701   3.221
 1088SOL    HW1 4163   6.629   4.607   3.250
 1088SOL    HW2 4164   6.662   4.758   3.301
 1089SOL     OW 4165   1.691   6.276   4.069
 1089SOL    HW1 4166   1.601   6.254   4.031
 1089SOL    HW2 4167   1.698   6.240   4.161
 1090SOL     OW 4168   1.906   2.280   3.801
 1090SOL    HW1 4169   1.922   2.366   3.753
 1090SOL    HW2 4170   1.881   2.209   3.735
 1091SOL     OW 4171   3.200   1.794   5.306
 1091SOL    HW1 4172   3.257   1.740   5.245
 1091SOL    HW2 4173   3.113   1.747   5.321
 1092SOL     OW 4174   2.136   3.861   1.543
 1092SOL    HW1 4175   2.102   3.812   1.463
 1092SOL    HW2 4176   2.186   3.798   1.602
 1093SOL     OW 4177   2.014   1.516   2.244
 1093SOL    HW1 4178   2.086   1.585   2.240
 1093SOL    HW2 4179   2.035   1.442   2.179
 1094SOL     OW 4180   0.729   6.888   3.571
 1094SOL    HW1 4181   0.705   6.912   3.477
 1094SOL    HW2 4182   0.812   6.832   3.572
 1095SOL     OW 4183   0.538   2.726   6.472
 1095SOL    HW1 4184   0.610   2.787   6.439
 1095SOL    HW2 4185   0.449   2.773   6.462
 1096SOL     OW 4186   3.463   4.433   1.706
 1096SOL    HW1 4187   3.519   4.417   1.624
 1096SOL    HW2 4188   3.497   4.515   1.753
 1097SOL     OW 4189   2.181   4.550   4.058
 1097SOL    HW1 4190   2.113   4.554   3.986
 1097SOL    HW2 4191   2.234   4.465   4.049
 1098SOL     OW 4192   4.343   3.170   0.227
 1098SOL    HW1 4193   4.427   3.118   0.216
 1098SOL    HW2 4194   4.274   3.135   0.163
 1099SOL     OW 4195   4.152   1.646   5.417
 1099SOL    HW1 4196   4.195   1.589   5.347
 1099SOL    HW2 4197   4.119   1.589   5.492
 1100SOL     OW 4198   3.472   1.762   5.589
 1100SOL    HW1 4199   3.442   1.837   5.530
 1100SOL    HW2 4200   3.554   1.720   5.549
 1101SOL     OW 4201   6.142   2.344   6.617
 1101SOL    HW1 4202   6.170   2.249   6.633
 1101SOL    HW2 4203   6.138   2.392   6.705
 1102SOL     OW 4204   0.583   6.188   5.078
 1102SOL    HW1 4205   0.569   6.124   5.002
 1102SOL    HW2 4206   0.509   6.256   5.079
 1103SOL     OW 4207   3.420   1.259   0.561
 1103SOL    HW1 4208   3.452   1.257   0.656
 1103SOL    HW2 4209   3.426   1.167   0.521
 1104SOL     OW 4210   2.168   2.678   5.395
 1104SOL    HW1 4211   2.256   2.630   5.396
 1104SOL    HW2 4212   2.181   2.771   5.361
 1105SOL     OW 4213   6.794   4.098   5.250
 1105SOL    HW1 4214   6.768   4.184   5.207
 1105SOL    HW2 4215   6.718   4.033   5.245
 1106SOL     OW 4216   0.381   2.103   1.652
 1106SOL    HW1 4217   0.468   2.136   1.614
 1106SOL    HW2 4218   0.368   2.141   1.744
 1107SOL     OW 4219   1.726   0.364   0.018
 1107SOL    HW1 4220   1.729   0.427   6.967
 1107SOL    HW2 4221   1.633   0.360   0.054
 1108SOL     OW 4222   3.670   0.504   5.830
 1108SOL    HW1 4223   3.577   0.539   5.839
 1108SOL    HW2 4224   3.723   0.529   5.911
 1109SOL     OW 4225   4.472   0.487   4.645
 1109SOL    HW1 4226   4.498   0.584   4.644
 1109SOL    HW2 4227   4.511   0.443   4.564
 1110SOL     OW 4228   2.499   1.599   3.190
 1110SOL    HW1 4229   2.586   1.563   3.223
 1110SOL    HW2 4230   2.510   1.636   3.098
 1111SOL     OW 4231   4.595   5.222   6.429
 1111SOL    HW1 4232   4.645   5.303   6.460
 1111SOL    HW2 4233   4.567   5.168   6.509
 1112SOL     OW 4234   4.780   1.438   2.324
 1112SOL    HW1 4235   4.728   1.519   2.349
 1112SOL    HW2 4236   4.750   1.361   2.380
 1113SOL     OW 4237   6.382   4.075   2.178
 1113SOL    HW1 4238   6.338   4.015   2.111
 1113SOL    HW2 4239   6.315   4.140   2.214
 1114SOL     OW 4240   3.747   1.719   6.614
 1114SOL    HW1 4241   3.766   1.672   6.528
 1114SOL    HW2 4242   3.809   1.796   6.624
 1115SOL     OW 4243   4.152   3.231   6.612
 1115SOL    HW1 4244   4.179   3.179   6.531
 1115SOL    HW2 4245   4.202   3.198   6.692
 1116SOL     OW 4246   4.791   6.262   5.588
 1116SOL    HW1 4247   4.861   6.332   5.596
 1116SOL    HW2 4248   4.755   6.259   5.495
 1117SOL     OW 4249   1.757   2.385   2.216
 1117SOL    HW1 4250   1.742   2.397   2.118
 1117SOL    HW2 4251   1.773   2.288   2.236
 1118SOL     OW 4252   2.790   4.714   0.867
 1118SOL    HW1 4253   2.711   4.654   0.884
 1118SOL    HW2 4254   2.873   4.667   0.896
 1119SOL     OW 4255   4.137   4.392   1.176
 1119SOL    HW1 4256   4.051   4.411   1.224
 1119SOL    HW2 4257   4.168   4.300   1.198
 1120SOL     OW 4258   6.186   6.647   5.891
 1120SOL    HW1 4259   6.203   6.552   5.917
 1120SOL    HW2 4260   6.137   6.649   5.803
 1121SOL     OW 4261   5.067   5.108   3.271
 1121SOL    HW1 4262   5.148   5.088   3.217
 1121SOL    HW2 4263   4.998   5.038   3.256
 1122SOL     OW 4264   5.429   3.422   6.790
 1122SOL    HW1 4265   5.440   3.435   6.888
 1122SOL    HW2 4266   5.351   3.363   6.773
 1123SOL     OW 4267   4.789   1.217   3.290
 1123SOL    HW1 4268   4.842   1.153   3.234
 1123SOL    HW2 4269   4.849   1.260   3.358
 1124SOL     OW 4270   0.387   3.764   5.145
 1124SOL    HW1 4271   0.301   3.775   5.195
 1124SOL    HW2 4272   0.455   3.828   5.181
 1125SOL     OW 4273   3.360   2.058   4.532
 1125SOL    HW1 4274   3.264   2.034   4.551
 1125SOL    HW2 4275   3.387   2.020   4.444
 1126SOL     OW 4276   6.134   4.888   6.555
 1126SOL    HW1 4277   6.083   4.963   6.513
 1126SOL    HW2 4278   6.232   4.909   6.555
 1127SOL     OW 4279   5.318   5.280   4.722
 1127SOL    HW1 4280   5.339   5.191   4.681
 1127SOL    HW2 4281   5.277   5.267   4.812
 1128SOL     OW 4282   5.590   1.523   5.452
 1128SOL    HW1 4283   5.626   1.564   5.369
 1128SOL    HW2 4284   5.490   1.526   5.451
 1129SOL     OW 4285   2.650   0.520   7.005
 1129SOL    HW1 4286   2.642   0.609   0.022
 1129SOL    HW2 4287   2.645   0.530   6.906
 1130SOL     OW 4288   2.729   4.806   0.609
 1130SOL    HW1 4289   2.634   4.779   0.590
 1130SOL    HW2 4290   2.752   4.782   0.703
 1131SOL     OW 4291   0.259   5.619   6.077
 1131SOL    HW1 4292   0.280   5.547   6.010
 1131SOL    HW2 4293   0.183   5.590   6.134
 1132SOL     OW 4294   5.163   0.873   1.579
 1132SOL    HW1 4295   5.232   0.803   1.562
 1132SOL    HW2 4296   5.202   0.947   1.634
 1133SOL     OW 4297   0.733   0.370   1.215
 1133SOL    HW1 4298   0.733   0.446   1.280
 1133SOL    HW2 4299   0.674   0.393   1.138
 1134SOL     OW 4300   5.309   0.943   2.167
 1134SOL    HW1 4301   5.236   0.999   2.128
 1134SOL    HW2 4302   5.371   1.002   2.220
 1135SOL     OW 4303   2.677   1.285   2.709
 1135SOL    HW1 4304   2.749   1.230   2.750
 1135SOL    HW2 4305   2.607   1.225   2.669
 1136SOL     OW 4306   3.722   5.101   3.634
 1136SOL    HW1 4307   3.820   5.099   3.616
 1136SOL    HW2 4308   3.673   5.050   3.563
 1137SOL     OW 4309   1.278   0.860   6.655
 1137SOL    HW1 4310   1.219   0.780   6.644
 1137SOL    HW2 4311   1.292   0.903   6.567
 1138SOL     OW 4312   0.380   0.745   5.913
 1138SOL    HW1 4313   0.429   0.708   5.991
 1138SOL    HW2 4314   0.344   0.836   5.936
 1139SOL     OW 4315   3.482   5.165   1.633
 1139SOL    HW1 4316   3.580   5.179   1.623
 1139SOL    HW2 4317   3.438   5.251   1.659
 1140SOL     OW 4318   4.131   1.406   2.267
 1140SOL    HW1 4319   4.211   1.396   2.327
 1140SOL    HW2 4320   4.155   1.464   2.189
 1141SOL     OW 4321   0.320   6.079   6.911
 1141SOL    HW1 4322   0.389   6.094   6.841
 1141SOL    HW2 4323   0.346   6.002   6.968
 1142SOL     OW 4324   3.061   7.008   4.753
 1142SOL    HW1 4325   3.037   6.912   4.764
 1142SOL    HW2 4326   3.113   7.020   4.668
 1143SOL     OW 4327   1.618   3.721   2.578
 1143SOL    HW1 4328   1.526   3.754   2.598
 1143SOL    HW2 4329   1.661   3.782   2.512
 1144SOL     OW 4330   6.526   4.986   4.410
 1144SOL    HW1 4331   6.591   5.061   4.398
 1144SOL    HW2 4332   6.493   4.985   4.504
 1145SOL     OW 4333   6.510   3.770   2.455
 1145SOL    HW1 4334   6.538   3.852   2.404
 1145SOL    HW2 4335   6.481   3.796   2.547
 1146SOL     OW 4336   6.480   0.956   2.370
 1146SOL    HW1 4337   6.505   0.911   2.455
 1146SOL    HW2 4338   6.451   1.050   2.389
 1147SOL     OW 4339   2.335   4.929   1.399
 1147SOL    HW1 4340   2.239   4.956   1.402
 1147SOL    HW2 4341   2.389   4.993   1.453
 1148SOL     OW 4342   5.253   5.945   0.946
 1148SOL    HW1 4343   5.292   5.956   1.037
 1148SOL    HW2 4344   5.316   5.983   0.878
 1149SOL     OW 4345   6.874   4.060   3.035
 1149SOL    HW1 4346   6.818   4.067   3.117
 1149SOL    HW2 4347   6.816   4.071   2.954
 1150SOL     OW 4348   2.316   3.559   0.087
 1150SOL    HW1 4349   2.278   3.648   0.111
 1150SOL    HW2 4350   2.248   3.488   0.103
 1151SOL     OW 4351   4.752   4.705   6.801
 1151SOL    HW1 4352   4.760   4.718   6.702
 1151SOL    HW2 4353   4.838   4.732   6.845
 1152SOL     OW 4354   5.586   4.879   5.866
 1152SOL    HW1 4355   5.605   4.831   5.951
 1152SOL    HW2 4356   5.607   4.976   5.877
 1153SOL     OW 4357   1.717   0.596   1.571
 1153SOL    HW1 4358   1.672   0.541   1.501
 1153SOL    HW2 4359   1.815   0.580   1.568
 1154SOL     OW 4360   0.665   4.428   1.289
 1154SOL    HW1 4361   0.736   4.372   1.246
 1154SOL    HW2 4362   0.579   4.377   1.291
 1155SOL     OW 4363   2.664   5.710   6.197
 1155SOL    HW1 4364   2.700   5.679   6.285
 1155SOL    HW2 4365   2.570   5.741   6.208
 1156SOL     OW 4366   3.983   1.842   4.655
 1156SOL    HW1 4367   4.073   1.875   4.629
 1156SOL    HW2 4368   3.913   1.898   4.609
 1157SOL     OW 4369   5.901   0.423   5.418
 1157SOL    HW1 4370   5.993   0.460   5.404
 1157SOL    HW2 4371   5.843   0.447   5.340
 1158SOL     OW 4372   0.151   5.313   5.342
 1158SOL    HW1 4373   0.179   5.297   5.247
 1158SOL    HW2 4374   0.054   5.293   5.352
 1159SOL     OW 4375   6.420   0.060   4.280
 1159SOL    HW1 4376   6.349   0.120   4.242
 1159SOL    HW2 4377   6.447   7.020   4.211
 1160SOL     OW 4378   4.101   3.696   0.952
 1160SOL    HW1 4379   4.022   3.662   1.004
 1160SOL    HW2 4380   4.071   3.760   0.882
 1161SOL     OW 4381   6.378   0.168   6.319
 1161SOL    HW1 4382   6.294   0.122   6.290
 1161SOL    HW2 4383   6.366   0.267   6.314
 1162SOL     OW 4384   3.161   2.387   6.401
 1162SOL    HW1 4385   3.089   2.374   6.469
 1162SOL    HW2 4386   3.131   2.345   6.315
 1163SOL     OW 4387   6.614   3.318   1.874
 1163SOL    HW1 4388   6.623   3.416   1.856
 1163SOL    HW2 4389   6.643   3.299   1.968
 1164SOL     OW 4390   6.075   3.285   4.915
 1164SOL    HW1 4391   5.999   3.252   4.970
 1164SOL    HW2 4392   6.046   3.365   4.862
 1165SOL     OW 4393   2.882   4.779   3.987
 1165SOL    HW1 4394   2.864   4.878   3.980
 1165SOL    HW2 4395   2.822   4.730   3.924
 1166SOL     OW 4396   3.880   6.974   0.144
 1166SOL    HW1 4397   3.806   6.950   0.207
 1166SOL    HW2 4398   3.916   6.891   0.102
 1167SOL     OW 4399   4.203   6.371   6.642
 1167SOL    HW1 4400   4.161   6.461   6.628
 1167SOL    HW2 4401   4.138   6.299   6.618
 1168SOL     OW 4402   5.249   2.323   3.482
 1168SOL    HW1 4403   5.245   2.383   3.562
 1168SOL    HW2 4404   5.306   2.365   3.411
 1169SOL     OW 4405   5.119   2.206   5.759
 1169SOL    HW1 4406   5.038   2.150   5.771
 1169SOL    HW2 4407   5.201   2.150   5.770
 1170SOL     OW 4408   5.073   0.959   3.115
 1170SOL    HW1 4409   5.024   0.931   3.198
 1170SOL    HW2 4410   5.126   0.882   3.081
 1171SOL     OW 4411   2.919   6.304   0.000
 1171SOL    HW1 4412   3.000   6.359   0.018
 1171SOL    HW2 4413   2.915   6.229   0.067
 1172SOL     OW 4414   3.152   4.097   1.872
 1172SOL    HW1 4415   3.148   4.003   1.907
 1172SOL    HW2 4416   3.143   4.161   1.949
 1173SOL     OW 4417   2.895   0.693   6.468
 1173SOL    HW1 4418   2.939   0.614   6.426
 1173SOL    HW2 4419   2.815   0.664   6.520
 1174SOL     OW 4420   3.266   4.871   1.073
 1174SOL    HW1 4421   3.291   4.905   0.982
 1174SOL    HW2 4422   3.265   4.771   1.071
 1175SOL     OW 4423   3.916   3.282   6.751
 1175SOL    HW1 4424   4.005   3.279   6.705
 1175SOL    HW2 4425   3.850   3.330   6.693
 1176SOL     OW 4426   6.032   5.090   6.405
 1176SOL    HW1 4427   5.983   5.106   6.319
 1176SOL    HW2 4428   6.001   5.157   6.473
 1177SOL     OW 4429   6.982   1.796   5.450
 1177SOL    HW1 4430   6.928   1.712   5.449
 1177SOL    HW2 4431   6.974   1.843   5.362
 1178SOL     OW 4432   2.884   4.128   0.588
 1178SOL    HW1 4433   2.813   4.120   0.519
 1178SOL    HW2 4434   2.850   4.096   0.676
 1179SOL     OW 4435   3.411   6.148   0.903
 1179SOL    HW1 4436   3.448   6.085   0.835
 1179SOL    HW2 4437   3.441   6.241   0.883
 1180SOL     OW 4438   1.935   5.857   3.927
 1180SOL    HW1 4439   2.025   5.887   3.959
 1180SOL    HW2 4440   1.931   5.864   3.827
 1181SOL     OW 4441   0.451   3.232   5.835
 1181SOL    HW1 4442   0.518   3.273   5.897
 1181SOL    HW2 4443   0.384   3.301   5.808
 1182SOL     OW 4444   3.026   4.888   3.319
 1182SOL    HW1 4445   3.031   4.897   3.220
 1182SOL    HW2 4446   2.952   4.825   3.343
 1183SOL     OW 4447   3.461   5.355   2.125
 1183SOL    HW1 4448   3.443   5.260   2.103
 1183SOL    HW2 4449   3.507   5.399   2.048
 1184SOL     OW 4450   5.804   6.750   5.991
 1184SOL    HW1 4451   5.807   6.849   6.007
 1184SOL    HW2 4452   5.883   6.724   5.934
 1185SOL     OW 4453   0.432   0.896   1.121
 1185SOL    HW1 4454   0.479   0.900   1.209
 1185SOL    HW2 4455   0.407   0.989   1.092
 1186SOL     OW 4456   5.699   5.356   5.575
 1186SOL    HW1 4457   5.642   5.328   5.499
 1186SOL    HW2 4458   5.766   5.284   5.594
 1187SOL     OW 4459   5.333   6.555   5.628
 1187SOL    HW1 4460   5.389   6.531   5.549
 1187SOL    HW2 4461   5.262   6.620   5.600
 1188SOL     OW 4462   3.404   5.175   6.333
 1188SOL    HW1 4463   3.370   5.212   6.420
 1188SOL    HW2 4464   3.346   5.208   6.258
 1189SOL     OW 4465   6.038   0.627   1.007
 1189SOL    HW1 4466   6.120   0.581   1.041
 1189SOL    HW2 4467   6.060   0.722   0.985
 1190SOL     OW 4468   2.890   6.017   2.716
 1190SOL    HW1 4469   2.949   6.007   2.636
 1190SOL    HW2 4470   2.936   5.983   2.797
 1191SOL     OW 4471   2.778   6.347   4.520
 1191SOL    HW1 4472   2.781   6.445   4.538
 1191SOL    HW2 4473   2.870   6.314   4.500
 1192SOL     OW 4474   5.728   6.465   3.375
 1192SOL    HW1 4475   5.741   6.538   3.308
 1192SOL    HW2 4476   5.648   6.411   3.350
 1193SOL     OW 4477   0.371   0.374   5.003
 1193SOL    HW1 4478   0.438   0.414   5.065
 1193SOL    HW2 4479   0.285   0.424   5.010
 1194SOL     OW 4480   6.601   1.500   1.171
 1194SOL    HW1 4481   6.515   1.452   1.152
 1194SOL    HW2 4482   6.656   1.446   1.234
 1195SOL     OW 4483   6.759   3.253   0.444
 1195SOL    HW1 4484   6.847   3.242   0.490
 1195SOL    HW2 4485   6.768   3.321   0.371
 1196SOL     OW 4486   6.185   4.707   3.697
 1196SOL    HW1 4487   6.173   4.675   3.791
 1196SOL    HW2 4488   6.261   4.659   3.655
 1197SOL     OW 4489   4.568   6.623   4.697
 1197SOL    HW1 4490   4.473   6.609   4.668
 1197SOL    HW2 4491   4.628   6.621   4.618
 1198SOL     OW 4492   1.421   3.716   1.931
 1198SOL    HW1 4493   1.334   3.765   1.942
 1198SOL    HW2 4494   1.469   3.752   1.851
 1199SOL     OW 4495   3.386   3.677   2.794
 1199SOL    HW1 4496   3.450   3.741   2.838
 1199SOL    HW2 4497   3.421   3.583   2.804
 1200SOL     OW 4498   3.772   4.122   4.565
 1200SOL    HW1 4499   3.697   4.121   4.631
 1200SOL    HW2 4500   3.736   4.145   4.474
 1201SOL     OW 4501   6.597   0.976   5.155
 1201SOL    HW1 4502   6.678   0.988   5.212
 1201SOL    HW2 4503   6.617   1.006   5.062
 1202SOL     OW 4504   6.945   6.353   5.599
 1202SOL    HW1 4505   6.864   6.392   5.643
 1202SOL    HW2 4506   6.934   6.253   5.594
 1203SOL     OW 4507   0.338   6.630   0.499
 1203SOL    HW1 4508   0.321   6.536   0.469
 1203SOL    HW2 4509   0.427   6.660   0.465
 1204SOL     OW 4510   4.609   1.371   1.605
 1204SOL    HW1 4511   4.574   1.463   1.619
 1204SOL    HW2 4512   4.608   1.321   1.692
 1205SOL     OW 4513   3.647   3.715   0.163
 1205SOL    HW1 4514   3.726   3.773   0.140
 1205SOL    HW2 4515   3.677   3.640   0.222
 1206SOL     OW 4516   0.955   3.145   4.877
 1206SOL    HW1 4517   1.038   3.089   4.872
 1206SOL    HW2 4518   0.978   3.240   4.854
 1207SOL     OW 4519   0.240   0.701   1.049
 1207SOL    HW1 4520   0.287   0.619   1.082
 1207SOL    HW2 4521   0.301   0.780   1.057
 1208SOL     OW 4522   3.538   3.415   1.374
 1208SOL    HW1 4523   3.455   3.363   1.355
 1208SOL    HW2 4524   3.517   3.513   1.367
 1209SOL     OW 4525   5.101   0.050   4.188
 1209SOL    HW1 4526   5.150   0.119   4.134
 1209SOL    HW2 4527   5.014   0.088   4.220
 1210SOL     OW 4528   4.333   6.675   3.667
 1210SOL    HW1 4529   4.311   6.585   3.630
 1210SOL    HW2 4530   4.379   6.665   3.755
 1211SOL     OW 4531   0.766   3.345   2.595
 1211SOL    HW1 4532   0.712   3.406   2.652
 1211SOL    HW2 4533   0.864   3.358   2.615
 1212SOL     OW 4534   6.624   0.022   5.783
 1212SOL    HW1 4535   6.640   0.121   5.778
 1212SOL    HW2 4536   6.653   7.014   5.872
 1213SOL     OW 4537   5.571   2.319   2.074
 1213SOL    HW1 4538   5.667   2.307   2.099
 1213SOL    HW2 4539   5.560   2.305   1.976
 1214SOL     OW 4540   0.729   2.501   6.902
 1214SOL    HW1 4541   0.709   2.579   6.843
 1214SOL    HW2 4542   0.643   2.459   6.933
 1215SOL     OW 4543   1.296   5.060   2.713
 1215SOL    HW1 4544   1.341   5.037   2.627
 1215SOL    HW2 4545   1.225   4.993   2.732
 1216SOL     OW 4546   5.597   1.437   0.942
 1216SOL    HW1 4547   5.621   1.431   1.039
 1216SOL    HW2 4548   5.596   1.533   0.914
 1217SOL     OW 4549   2.384   4.927   0.640
 1217SOL    HW1 4550   2.364   5.023   0.661
 1217SOL    HW2 4551   2.417   4.919   0.546
 1218SOL     OW 4552   1.574   2.427   5.136
 1218SOL    HW1 4553   1.627   2.364   5.079
 1218SOL    HW2 4554   1.608   2.520   5.122
 1219SOL     OW 4555   5.685   5.505   2.190
 1219SOL    HW1 4556   5.665   5.601   2.170
 1219SOL    HW2 4557   5.731   5.499   2.279
 1220SOL     OW 4558   6.899   4.052   2.325
 1220SOL    HW1 4559   6.801   4.047   2.345
 1220SOL    HW2 4560   6.919   3.996   2.244
 1221SOL     OW 4561   5.058   3.883   6.666
 1221SOL    HW1 4562   5.141   3.886   6.721
 1221SOL    HW2 4563   5.028   3.788   6.657
 1222SOL     OW 4564   6.965   1.140   6.736
 1222SOL    HW1 4565   6.871   1.174   6.730
 1222SOL    HW2 4566   6.964   1.041   6.749
 1223SOL     OW 4567   3.858   0.804   0.088
 1223SOL    HW1 4568   3.943   0.753   0.102
 1223SOL    HW2 4569   3.846   0.822   7.017
 1224SOL     OW 4570   3.123   6.124   6.806
 1224SOL    HW1 4571   3.063   6.105   6.729
 1224SOL    HW2 4572   3.210   6.076   6.793
 1225SOL     OW 4573   3.701   2.380   6.704
 1225SOL    HW1 4574   3.704   2.436   6.621
 1225SOL    HW2 4575   3.614   2.396   6.750
 1226SOL     OW 4576   3.876   6.274   0.496
 1226SOL    HW1 4577   3.969   6.310   0.496
 1226SOL    HW2 4578   3.876   6.181   0.460
 1227SOL     OW 4579   4.966   4.684   5.766
 1227SOL    HW1 4580   4.902   4.656   5.694
 1227SOL    HW2 4581   5.059   4.667   5.736
 1228SOL     OW 4582   3.403   2.405   6.228
 1228SOL    HW1 4583   3.409   2.496   6.187
 1228SOL    HW2 4584   3.319   2.398   6.282
 1229SOL     OW 4585   2.361   5.462   0.105
 1229SOL    HW1 4586   2.399   5.505   0.187
 1229SOL    HW2 4587   2.386   5.517   0.025
 1230SOL     OW 4588   5.301   6.028   2.140
 1230SOL    HW1 4589   5.359   6.107   2.161
 1230SOL    HW2 4590   5.270   5.986   2.225
 1231SOL     OW 4591   1.787   2.314   5.575
 1231SOL    HW1 4592   1.731   2.246   5.623
 1231SOL    HW2 4593   1.783   2.297   5.476
 1232SOL     OW 4594   6.769   1.047   4.949
 1232SOL    HW1 4595   6.797   1.138   4.919
 1232SOL    HW2 4596   6.698   1.013   4.888
 1233SOL     OW 4597   0.904   5.459   4.939
 1233SOL    HW1 4598   0.870   5.408   5.018
 1233SOL    HW2 4599   0.955   5.397   4.879
 1234SOL     OW 4600   5.877   3.107   5.577
 1234SOL    HW1 4601   5.812   3.098   5.502
 1234SOL    HW2 4602   5.830   3.140   5.659
 1235SOL     OW 4603   6.061   4.964   1.798
 1235SOL    HW1 4604   6.112   5.048   1.819
 1235SOL    HW2 4605   6.073   4.899   1.873
 1236SOL     OW 4606   4.310   1.148   0.989
 1236SOL    HW1 4607   4.399   1.107   1.012
 1236SOL    HW2 4608   4.245   1.075   0.965
 1237SOL     OW 4609   1.655   4.654   5.615
 1237SOL    HW1 4610   1.672   4.557   5.635
 1237SOL    HW2 4611   1.574   4.685   5.665
 1238SOL     OW 4612   1.646   0.649   6.240
 1238SOL    HW1 4613   1.601   0.676   6.155
 1238SOL    HW2 4614   1.700   0.726   6.275
 1239SOL     OW 4615   0.550   0.220   6.884
 1239SOL    HW1 4616   0.540   0.131   6.838
 1239SOL    HW2 4617   0.491   0.287   6.839
 1240SOL     OW 4618   5.949   6.147   1.081
 1240SOL    HW1 4619   5.934   6.182   0.989
 1240SOL    HW2 4620   5.972   6.223   1.142
 1241SOL     OW 4621   6.149   3.849   5.337
 1241SOL    HW1 4622   6.233   3.882   5.295
 1241SOL    HW2 4623   6.148   3.875   5.434
 1242SOL     OW 4624   2.114   3.684   1.314
 1242SOL    HW1 4625   2.081   3.624   1.387
 1242SOL    HW2 4626   2.195   3.643   1.272
 1243SOL     OW 4627   1.150   0.329   5.150
 1243SOL    HW1 4628   1.217   0.378   5.206
 1243SOL    HW2 4629   1.144   0.372   5.060
 1244SOL     OW 4630   5.427   6.426   4.148
 1244SOL    HW1 4631   5.521   6.460   4.140
 1244SOL    HW2 4632   5.393   6.445   4.240
 1245SOL     OW 4633   5.476   4.408   0.424
 1245SOL    HW1 4634   5.379   4.385   0.419
 1245SOL    HW2 4635   5.515   4.374   0.510
 1246SOL     OW 4636   3.384   1.261   1.250
 1246SOL    HW1 4637   3.388   1.198   1.172
 1246SOL    HW2 4638   3.446   1.229   1.321
 1247SOL     OW 4639   0.180   6.582   5.675
 1247SOL    HW1 4640   0.216   6.671   5.649
 1247SOL    HW2 4641   0.122   6.546   5.602
 1248SOL     OW 4642   2.312   6.634   4.161
 1248SOL    HW1 4643   2.284   6.643   4.257
 1248SOL    HW2 4644   2.312   6.724   4.118
 1249SOL     OW 4645   6.777   2.303   1.920
 1249SOL    HW1 4646   6.796   2.399   1.899
 1249SOL    HW2 4647   6.834   2.273   1.997
 1250SOL     OW 4648   5.360   5.458   3.399
 1250SOL    HW1 4649   5.351   5.557   3.388
 1250SOL    HW2 4650   5.437   5.426   3.345
 1251SOL     OW 4651   2.724   1.362   3.173
 1251SOL    HW1 4652   2.675   1.424   3.112
 1251SOL    HW2 4653   2.815   1.344   3.135
 1252SOL     OW 4654   4.163   4.192   6.858
 1252SOL    HW1 4655   4.149   4.212   6.761
 1252SOL    HW2 4656   4.230   4.256   6.896
 1253SOL     OW 4657   3.320   6.340   1.972
 1253SOL    HW1 4658   3.348   6.430   1.939
 1253SOL    HW2 4659   3.283   6.286   1.896
 1254SOL     OW 4660   0.625   2.662   3.653
 1254SOL    HW1 4661   0.717   2.686   3.621
 1254SOL    HW2 4662   0.631   2.591   3.722
 1255SOL     OW 4663   5.815   1.413   5.864
 1255SOL    HW1 4664   5.795   1.356   5.784
 1255SOL    HW2 4665   5.899   1.382   5.907
 1256SOL     OW 4666   6.768   0.508   3.402
 1256SOL    HW1 4667   6.792   0.538   3.310
 1256SOL    HW2 4668   6.675   0.537   3.424
 1257SOL     OW 4669   0.147   5.004   4.639
 1257SOL    HW1 4670   0.191   5.065   4.574
 1257SOL    HW2 4671   0.186   5.018   4.730
 1258SOL     OW 4672   1.532   5.201   3.113
 1258SOL    HW1 4673   1.441   5.193   3.072
 1258SOL    HW2 4674   1.602   5.199   3.041
 1259SOL     OW 4675   3.349   0.568   4.462
 1259SOL    HW1 4676   3.301   0.480   4.461
 1259SOL    HW2 4677   3.441   0.555   4.498
 1260SOL     OW 4678   3.159   1.950   6.790
 1260SOL    HW1 4679   3.235   1.985   6.734
 1260SOL    HW2 4680   3.114   2.027   6.835
 1261SOL     OW 4681   6.697   5.259   6.807
 1261SOL    HW1 4682   6.621   5.274   6.871
 1261SOL    HW2 4683   6.720   5.345   6.762
 1262SOL     OW 4684   5.875   3.891   1.548
 1262SOL    HW1 4685   5.849   3.970   1.604
 1262SOL    HW2 4686   5.884   3.919   1.453
 1263SOL     OW 4687   7.002   1.605   1.205
 1263SOL    HW1 4688   6.902   1.606   1.198
 1263SOL    HW2 4689   0.014   1.661   1.132
 1264SOL     OW 4690   6.667   3.596   1.828
 1264SOL    HW1 4691   6.757   3.599   1.786
 1264SOL    HW2 4692   6.630   3.689   1.834
 1265SOL     OW 4693   4.853   6.027   4.071
 1265SOL    HW1 4694   4.834   6.124   4.052
 1265SOL    HW2 4695   4.800   5.970   4.008
 1266SOL     OW 4696   0.351   1.391   4.770
 1266SOL    HW1 4697   0.325   1.429   4.859
 1266SOL    HW2 4698   0.431   1.333   4.781
 1267SOL     OW 4699   4.567   6.516   1.067
 1267SOL    HW1 4700   4.659   6.543   1.040
 1267SOL    HW2 4701   4.534   6.575   1.141
 1268SOL     OW 4702   3.530   2.990   0.626
 1268SOL    HW1 4703   3.619   3.000   0.582
 1268SOL    HW2 4704   3.459   3.028   0.565
 1269SOL     OW 4705   5.858   5.264   4.720
 1269SOL    HW1 4706   5.833   5.333   4.787
 1269SOL    HW2 4707   5.786   5.195   4.714
 1270SOL     OW 4708   1.512   3.698   3.444
 1270SOL    HW1 4709   1.536   3.627   3.511
 1270SOL    HW2 4710   1.566   3.684   3.360
 1271SOL     OW 4711   2.644   2.199   3.420
 1271SOL    HW1 4712   2.703   2.243   3.488
 1271SOL    HW2 4713   2.656   2.100   3.426
 1272SOL     OW 4714   5.366   5.297   0.362
 1272SOL    HW1 4715   5.439   5.340   0.308
 1272SOL    HW2 4716   5.382   5.199   0.366
 1273SOL     OW 4717   0.159   3.827   0.306
 1273SOL    HW1 4718   0.175   3.742   0.256
 1273SOL    HW2 4719   0.084   3.877   0.263
 1274SOL     OW 4720   6.736   4.449   0.885
 1274SOL    HW1 4721   6.728   4.546   0.909
 1274SOL    HW2 4722   6.832   4.423   0.881
 1275SOL     OW 4723   3.787   2.094   4.886
 1275SOL    HW1 4724   3.870   2.151   4.888
 1275SOL    HW2 4725   3.729   2.123   4.809
 1276SOL     OW 4726   0.059   5.566   4.753
 1276SOL    HW1 4727   0.072   5.473   4.719
 1276SOL    HW2 4728   0.003   5.618   4.688
 1277SOL     OW 4729   1.366   5.893   6.285
 1277SOL    HW1 4730   1.418   5.899   6.199
 1277SOL    HW2 4731   1.337   5.984   6.313
 1278SOL     OW 4732   0.778   6.837   4.771
 1278SOL    HW1 4733   0.738   6.886   4.694
 1278SOL    HW2 4734   0.731   6.862   4.856
 1279SOL     OW 4735   2.774   6.163   0.796
 1279SOL    HW1 4736   2.752   6.066   0.790
 1279SOL    HW2 4737   2.711   6.208   0.858
 1280SOL     OW 4738   3.210   6.416   5.198
 1280SOL    HW1 4739   3.143   6.342   5.200
 1280SOL    HW2 4740   3.281   6.394   5.131
 1281SOL     OW 4741   1.982   6.540   3.328
 1281SOL    HW1 4742   2.066   6.527   3.381
 1281SOL    HW2 4743   1.933   6.620   3.362
 1282SOL     OW 4744   0.606   2.109   6.952
 1282SOL    HW1 4745   0.689   2.148   6.913
 1282SOL    HW2 4746   0.535   2.180   6.955
 1283SOL     OW 4747   0.596   3.008   5.805
 1283SOL    HW1 4748   0.536   3.086   5.821
 1283SOL    HW2 4749   0.559   2.952   5.731
 1284SOL     OW 4750   4.766   2.138   1.136
 1284SOL    HW1 4751   4.804   2.225   1.106
 1284SOL    HW2 4752   4.833   2.066   1.122
 1285SOL     OW 4753   4.294   2.008   6.411
 1285SOL    HW1 4754   4.392   2.018   6.424
 1285SOL    HW2 4755   4.276   1.938   6.342
 1286SOL     OW 4756   4.816   3.733   1.762
 1286SOL    HW1 4757   4.721   3.724   1.733
 1286SOL    HW2 4758   4.868   3.777   1.689
 1287SOL     OW 4759   5.765   5.945   5.274
 1287SOL    HW1 4760   5.768   5.854   5.231
 1287SOL    HW2 4761   5.692   5.946   5.343
 1288SOL     OW 4762   4.532   2.937   6.529
 1288SOL    HW1 4763   4.554   2.969   6.437
 1288SOL    HW2 4764   4.444   2.890   6.527
 1289SOL     OW 4765   0.813   6.327   1.727
 1289SOL    HW1 4766   0.845   6.360   1.638
 1289SOL    HW2 4767   0.825   6.228   1.732
 1290SOL     OW 4768   0.534   5.770   6.696
 1290SOL    HW1 4769   0.436   5.755   6.705
 1290SOL    HW2 4770   0.560   5.769   6.600
 1291SOL     OW 4771   0.268   3.943   4.982
 1291SOL    HW1 4772   0.205   3.872   4.951
 1291SOL    HW2 4773   0.309   3.915   5.069
 1292SOL     OW 4774   0.200   5.990   2.003
 1292SOL    HW1 4775   0.179   6.039   1.919
 1292SOL    HW2 4776   0.116   5.951   2.041
 1293SOL     OW 4777   0.966   1.844   0.357
 1293SOL    HW1 4778   0.878   1.829   0.310
 1293SOL    HW2 4779   1.006   1.756   0.380
 1294SOL     OW 4780   0.722   2.882   6.314
 1294SOL    HW1 4781   0.712   2.944   6.237
 1294SOL    HW2 4782   0.811   2.896   6.357
 1295SOL     OW 4783   0.066   3.466   2.169
 1295SOL    HW1 4784   0.024   3.388   2.215
 1295SOL    HW2 4785   0.093   3.439   2.076
 1296SOL     OW 4786   3.878   6.979   5.968
 1296SOL    HW1 4787   3.778   6.984   5.970
 1296SOL    HW2 4788   3.916   0.023   6.028
 1297SOL     OW 4789   6.687   0.782   1.464
 1297SOL    HW1 4790   6.744   0.824   1.394
 1297SOL    HW2 4791   6.700   0.829   1.551
 1298SOL     OW 4792   5.345   4.982   2.629
 1298SOL    HW1 4793   5.412   4.938   2.690
 1298SOL    HW2 4794   5.253   4.958   2.660
 1299SOL     OW 4795   1.427   3.939   2.957
 1299SOL    HW1 4796   1.490   3.980   3.023
 1299SOL    HW2 4797   1.449   3.843   2.945
 1300SOL     OW 4798   2.815   3.126   1.016
 1300SOL    HW1 4799   2.794   3.103   1.111
 1300SOL    HW2 4800   2.803   3.045   0.959
 1301SOL     OW 4801   0.773   6.316   1.385
 1301SOL    HW1 4802   0.784   6.404   1.338
 1301SOL    HW2 4803   0.708   6.259   1.336
 1302SOL     OW 4804   4.930   6.927   5.711
 1302SOL    HW1 4805   4.872   6.869   5.769
 1302SOL    HW2 4806   4.882   7.013   5.693
 1303SOL     OW 4807   4.705   2.126   1.403
 1303SOL    HW1 4808   4.784   2.146   1.460
 1303SOL    HW2 4809   4.735   2.113   1.308
 1304SOL     OW 4810   1.959   1.044   6.498
 1304SOL    HW1 4811   2.021   1.066   6.422
 1304SOL    HW2 4812   1.871   1.089   6.482
 1305SOL     OW 4813   5.139   3.533   0.571
 1305SOL    HW1 4814   5.233   3.503   0.554
 1305SOL    HW2 4815   5.128   3.555   0.668
 1306SOL     OW 4816   0.532   4.814   3.546
 1306SOL    HW1 4817   0.593   4.752   3.495
 1306SOL    HW2 4818   0.540   4.906   3.509
 1307SOL     OW 4819   0.846   4.582   3.818
 1307SOL    HW1 4820   0.932   4.624   3.788
 1307SOL    HW2 4821   0.809   4.634   3.895
 1308SOL     OW 4822   6.023   6.517   5.243
 1308SOL    HW1 4823   6.061   6.434   5.283
 1308SOL    HW2 4824   5.963   6.492   5.167
 1309SOL     OW 4825   5.889   3.878   5.271
 1309SOL    HW1 4826   5.875   3.902   5.175
 1309SOL    HW2 4827   5.987   3.871   5.289
 1310SOL     OW 4828   6.721   4.114   3.978
 1310SOL    HW1 4829   6.788   4.085   4.046
 1310SOL    HW2 4830   6.697   4.036   3.919
 1311SOL     OW 4831   0.795   6.318   4.870
 1311SOL    HW1 4832   0.791   6.408   4.826
 1311SOL    HW2 4833   0.712   6.302   4.922
 1312SOL     OW 4834   1.317   6.868   0.161
 1312SOL    HW1 4835   1.380   6.911   0.226
 1312SOL    HW2 4836   1.361   6.791   0.116
 1313SOL     OW 4837   0.398   4.475   3.359
 1313SOL    HW1 4838   0.412   4.411   3.284
 1313SOL    HW2 4839   0.483   4.484   3.411
 1314SOL     OW 4840   4.160   1.205   5.503
 1314SOL    HW1 4841   4.203   1.120   5.535
 1314SOL    HW2 4842   4.198   1.282   5.553
 1315SOL     OW 4843   0.155   1.209   1.671
 1315SOL    HW1 4844   0.060   1.182   1.689
 1315SOL    HW2 4845   0.156   1.296   1.623
 1316SOL     OW 4846   1.507   5.687   4.910
 1316SOL    HW1 4847   1.576   5.650   4.973
 1316SOL    HW2 4848   1.417   5.683   4.955
 1317SOL     OW 4849   2.527   4.724   6.825
 1317SOL    HW1 4850   2.525   4.684   6.734
 1317SOL    HW2 4851   2.464   4.674   6.885
 1318SOL     OW 4852   0.671   1.847   1.338
 1318SOL    HW1 4853   0.730   1.893   1.272
 1318SOL    HW2 4854   0.611   1.783   1.291
 1319SOL     OW 4855   6.817   0.150   0.407
 1319SOL    HW1 4856   6.733   0.112   0.368
 1319SOL    HW2 4857   6.891   0.143   0.339
 1320SOL     OW 4858   4.749   4.148   0.959
 1320SOL    HW1 4859   4.690   4.070   0.942
 1320SOL    HW2 4860   4.843   4.124   0.935
 1321SOL     OW 4861   5.580   1.215   6.667
 1321SOL    HW1 4862   5.642   1.249   6.738
 1321SOL    HW2 4863   5.487   1.213   6.702
 1322SOL     OW 4864   3.957   0.717   3.424
 1322SOL    HW1 4865   4.051   0.692   3.399
 1322SOL    HW2 4866   3.935   0.680   3.514
 1323SOL     OW 4867   4.683   0.700   5.717
 1323SOL    HW1 4868   4.594   0.686   5.761
 1323SOL    HW2 4869   4.683   0.657   5.627
 1324SOL     OW 4870   1.065   3.666   0.482
 1324SOL    HW1 4871   0.972   3.656   0.519
 1324SOL    HW2 4872   1.060   3.688   0.385
 1325SOL     OW 4873   2.065   0.241   2.893
 1325SOL    HW1 4874   1.996   0.258   2.963
 1325SOL    HW2 4875   2.140   0.187   2.932
 1326SOL     OW 4876   4.948   3.429   4.816
 1326SOL    HW1 4877   4.969   3.493   4.742
 1326SOL    HW2 4878   4.901   3.477   4.890
 1327SOL     OW 4879   0.770   5.691   2.045
 1327SOL    HW1 4880   0.721   5.738   2.119
 1327SOL    HW2 4881   0.772   5.593   2.064
 1328SOL     OW 4882   1.250   2.949   0.702
 1328SOL    HW1 4883   1.289   3.029   0.656
 1328SOL    HW2 4884   1.180   2.908   0.644
 1329SOL     OW 4885   0.092   2.337   1.597
 1329SOL    HW1 4886   0.020   2.404   1.575
 1329SOL    HW2 4887   0.061   2.279   1.673
 1330SOL     OW 4888   0.622   1.739   2.199
 1330SOL    HW1 4889   0.536   1.713   2.156
 1330SOL    HW2 4890   0.641   1.835   2.181
 1331SOL     OW 4891   5.130   2.724   2.795
 1331SOL    HW1 4892   5.067   2.787   2.840
 1331SOL    HW2 4893   5.080   2.660   2.737
 1332SOL     OW 4894   2.528   6.943   6.066
 1332SOL    HW1 4895   2.549   6.968   5.972
 1332SOL    HW2 4896   2.428   6.943   6.079
 1333SOL     OW 4897   3.636   3.801   4.530
 1333SOL    HW1 4898   3.661   3.822   4.624
 1333SOL    HW2 4899   3.585   3.877   4.491
 1334SOL     OW 4900   6.034   1.502   4.213
 1334SOL    HW1 4901   6.060   1.441   4.138
 1334SOL    HW2 4902   5.939   1.484   4.240
 1335SOL     OW 4903   2.292   2.155   3.113
 1335SOL    HW1 4904   2.302   2.121   3.207
 1335SOL    HW2 4905   2.364   2.115   3.056
 1336SOL     OW 4906   1.960   2.354   5.098
 1336SOL    HW1 4907   1.952   2.429   5.163
 1336SOL    HW2 4908   1.931   2.385   5.007
 1337SOL     OW 4909   2.056   2.432   4.621
 1337SOL    HW1 4910   2.003   2.350   4.601
 1337SOL    HW2 4911   1.995   2.509   4.637
 1338SOL     OW 4912   5.195   1.741   5.453
 1338SOL    HW1 4913   5.125   1.768   5.387
 1338SOL    HW2 4914   5.223   1.822   5.505
 1339SOL     OW 4915   6.919   2.092   6.401
 1339SOL    HW1 4916   6.869   2.053   6.479
 1339SOL    HW2 4917   7.015   2.064   6.405
 1340SOL     OW 4918   6.939   2.503   2.443
 1340SOL    HW1 4919   6.919   2.415   2.399
 1340SOL    HW2 4920   6.855   2.555   2.455
 1341SOL     OW 4921   5.411   6.491   6.200
 1341SOL    HW1 4922   5.375   6.556   6.133
 1341SOL    HW2 4923   5.408   6.532   6.291
 1342SOL     OW 4924   2.049   5.653   5.940
 1342SOL    HW1 4925   2.117   5.702   5.886
 1342SOL    HW2 4926   2.096   5.596   6.008
 1343SOL     OW 4927   4.387   5.862   3.195
 1343SOL    HW1 4928   4.294   5.894   3.179
 1343SOL    HW2 4929   4.432   5.921   3.262
 1344SOL     OW 4930   6.759   5.972   4.381
 1344SOL    HW1 4931   6.783   5.902   4.314
 1344SOL    HW2 4932   6.838   6.030   4.398
 1345SOL     OW 4933   1.532   0.796   2.799
 1345SOL    HW1 4934   1.590   0.877   2.788
 1345SOL    HW2 4935   1.567   0.723   2.739
 1346SOL     OW 4936   0.692   5.957   5.177
 1346SOL    HW1 4937   0.651   6.048   5.169
 1346SOL    HW2 4938   0.660   5.899   5.102
 1347SOL     OW 4939   6.310   6.833   4.634
 1347SOL    HW1 4940   6.293   6.751   4.579
 1347SOL    HW2 4941   6.304   6.914   4.576
 1348SOL     OW 4942   5.562   5.499   2.606
 1348SOL    HW1 4943   5.500   5.506   2.527
 1348SOL    HW2 4944   5.588   5.404   2.620
 1349SOL     OW 4945   4.472   2.669   5.912
 1349SOL    HW1 4946   4.544   2.706   5.853
 1349SOL    HW2 4947   4.435   2.586   5.870
 1350SOL     OW 4948   5.053   5.152   5.365
 1350SOL    HW1 4949   5.101   5.224   5.314
 1350SOL    HW2 4950   5.034   5.075   5.305
 1351SOL     OW 4951   5.976   1.706   3.538
 1351SOL    HW1 4952   5.881   1.715   3.568
 1351SOL    HW2 4953   6.029   1.782   3.576
 1352SOL     OW 4954   6.768   6.572   2.499
 1352SOL    HW1 4955   6.766   6.481   2.539
 1352SOL    HW2 4956   6.699   6.578   2.426
 1353SOL     OW 4957   0.491   3.114   0.404
 1353SOL    HW1 4958   0.391   3.113   0.399
 1353SOL    HW2 4959   0.522   3.049   0.474
 1354SOL     OW 4960   1.009   3.252   0.843
 1354SOL    HW1 4961   1.058   3.331   0.880
 1354SOL    HW2 4962   0.969   3.276   0.755
 1355SOL     OW 4963   6.779   2.355   5.038
 1355SOL    HW1 4964   6.867   2.378   4.997
 1355SOL    HW2 4965   6.773   2.256   5.050
 1356SOL     OW 4966   3.069   3.085   3.065
 1356SOL    HW1 4967   3.000   3.132   3.120
 1356SOL    HW2 4968   3.094   3.142   2.986
 1357SOL     OW 4969   1.183   3.084   5.564
 1357SOL    HW1 4970   1.213   3.131   5.481
 1357SOL    HW2 4971   1.259   3.082   5.630
 1358SOL     OW 4972   4.359   0.517   5.743
 1358SOL    HW1 4973   4.420   0.478   5.675
 1358SOL    HW2 4974   4.410   0.532   5.829
 1359SOL     OW 4975   5.546   4.110   1.608
 1359SOL    HW1 4976   5.493   4.058   1.675
 1359SOL    HW2 4977   5.485   4.165   1.552
 1360SOL     OW 4978   4.103   2.764   0.440
 1360SOL    HW1 4979   4.189   2.761   0.492
 1360SOL    HW2 4980   4.063   2.673   0.437
 1361SOL     OW 4981   6.898   5.308   5.056
 1361SOL    HW1 4982   6.952   5.391   5.070
 1361SOL    HW2 4983   6.893   5.288   4.958
 1362SOL     OW 4984   3.339   4.172   3.993
 1362SOL    HW1 4985   3.279   4.171   3.913
 1362SOL    HW2 4986   3.386   4.084   4.000
 1363SOL     OW 4987   7.008   5.818   3.160
 1363SOL    HW1 4988   0.038   5.900   3.156
 1363SOL    HW2 4989   6.913   5.845   3.176
 1364SOL     OW 4990   6.428   2.432   1.229
 1364SOL    HW1 4991   6.490   2.498   1.271
 1364SOL    HW2 4992   6.346   2.423   1.285
 1365SOL     OW 4993   1.205   2.748   6.328
 1365SOL    HW1 4994   1.166   2.658   6.349
 1365SOL    HW2 4995   1.293   2.736   6.282
 1366SOL     OW 4996   1.167   4.470   6.863
 1366SOL    HW1 4997   1.146   4.563   6.833
 1366SOL    HW2 4998   1.257   4.444   6.828
 1367SOL     OW 4999   2.008   7.022   2.772
 1367SOL    HW1 5000   1.988   6.972   2.856
 1367SOL    HW2 5001   2.034   0.089   2.794
 1368SOL     OW 5002   6.148   0.672   3.259
 1368SOL    HW1 5003   6.151   0.601   3.189
 1368SOL    HW2 5004   6.232   0.669   3.314
 1369SOL     OW 5005   2.486   0.236   1.466
 1369SOL    HW1 5006   2.449   0.269   1.379
 1369SOL    HW2 5007   2.433   0.274   1.542
 1370SOL     OW 5008   4.118   1.677   1.901
 1370SOL    HW1 5009   4.185   1.668   1.975
 1370SOL    HW2 5010   4.045   1.739   1.930
 1371SOL     OW 5011   6.409   1.376   3.962
 1371SOL    HW1 5012   6.336   1.309   3.977
 1371SOL    HW2 5013   6.497   1.334   3.983
 1372SOL     OW 5014   1.367   3.166   0.614
 1372SOL    HW1 5015   1.422   3.175   0.697
 1372SOL    HW2 5016   1.328   3.255   0.590
 1373SOL     OW 5017   4.896   2.199   6.759
 1373SOL    HW1 5018   4.905   2.146   6.675
 1373SOL    HW2 5019   4.834   2.276   6.742
 1374SOL     OW 5020   4.998   1.816   6.837
 1374SOL    HW1 5021   5.036   1.878   6.906
 1374SOL    HW2 5022   5.016   1.852   6.746
 1375SOL     OW 5023   0.648   4.137   6.629
 1375SOL    HW1 5024   0.705   4.217   6.609
 1375SOL    HW2 5025   0.705   4.065   6.669
 1376SOL     OW 5026   4.288   4.758   5.073
 1376SOL    HW1 5027   4.194   4.788   5.059
 1376SOL    HW2 5028   4.305   4.677   5.016
 1377SOL     OW 5029   0.416   3.639   5.624
 1377SOL    HW1 5030   0.506   3.601   5.599
 1377SOL    HW2 5031   0.370   3.575   5.685
 1378SOL     OW 5032   5.731   0.848   4.691
 1378SOL    HW1 5033   5.741   0.804   4.602
 1378SOL    HW2 5034   5.741   0.779   4.763
 1379SOL     OW 5035   3.601   6.995   3.143
 1379SOL    HW1 5036   3.653   6.912   3.126
 1379SOL    HW2 5037   3.507   6.983   3.111
 1380SOL     OW 5038   6.983   6.744   2.435
 1380SOL    HW1 5039   6.886   6.723   2.436
 1380SOL    HW2 5040   7.007   6.795   2.518
 1381SOL     OW 5041   5.825   2.418   6.711
 1381SOL    HW1 5042   5.800   2.322   6.728
 1381SOL    HW2 5043   5.844   2.430   6.614
 1382SOL     OW 5044   4.809   3.327   0.037
 1382SOL    HW1 5045   4.872   3.277   7.005
 1382SOL    HW2 5046   4.786   3.415   7.022
 1383SOL     OW 5047   0.883   0.324   2.084
 1383SOL    HW1 5048   0.913   0.367   2.169
 1383SOL    HW2 5049   0.784   0.329   2.077
 1384SOL     OW 5050   4.526   6.987   1.672
 1384SOL    HW1 5051   4.611   6.938   1.692
 1384SOL    HW2 5052   4.543   0.058   1.671
 1385SOL     OW 5053   1.788   4.041   3.657
 1385SOL    HW1 5054   1.746   4.131   3.644
 1385SOL    HW2 5055   1.722   3.970   3.634
 1386SOL     OW 5056   3.594   0.602   4.599
 1386SOL    HW1 5057   3.640   0.626   4.684
 1386SOL    HW2 5058   3.661   0.571   4.532
 1387SOL     OW 5059   3.468   5.653   2.243
 1387SOL    HW1 5060   3.384   5.701   2.267
 1387SOL    HW2 5061   3.447   5.580   2.177
 1388SOL     OW 5062   0.401   0.013   3.090
 1388SOL    HW1 5063   0.367   6.957   3.047
 1388SOL    HW2 5064   0.361   0.094   3.047
 1389SOL     OW 5065   6.643   0.894   3.645
 1389SOL    HW1 5066   6.669   0.986   3.674
 1389SOL    HW2 5067   6.726   0.843   3.620
 1390SOL     OW 5068   5.888   3.314   6.421
 1390SOL    HW1 5069   5.824   3.253   6.372
 1390SOL    HW2 5070   5.977   3.310   6.376
 1391SOL     OW 5071   6.239   0.010   5.265
 1391SOL    HW1 5072   6.192   0.075   5.324
 1391SOL    HW2 5073   6.242   6.947   5.310
 1392SOL     OW 5074   5.677   6.562   6.592
 1392SOL    HW1 5075   5.695   6.497   6.666
 1392SOL    HW2 5076   5.749   6.631   6.590
 1393SOL     OW 5077   6.835   3.633   6.005
 1393SOL    HW1 5078   6.898   3.555   6.015
 1393SOL    HW2 5079   6.887   3.718   6.000
 1394SOL     OW 5080   3.874   6.125   4.995
 1394SOL    HW1 5081   3.779   6.094   4.993
 1394SOL    HW2 5082   3.915   6.111   4.905
 1395SOL     OW 5083   1.631   4.514   4.124
 1395SOL    HW1 5084   1.633   4.449   4.200
 1395SOL    HW2 5085   1.542   4.510   4.079
 1396SOL     OW 5086   0.805   0.499   4.558
 1396SOL    HW1 5087   0.855   0.417   4.528
 1396SOL    HW2 5088   0.868   0.577   4.560
 1397SOL     OW 5089   0.590   5.666   4.654
 1397SOL    HW1 5090   0.613   5.611   4.573
 1397SOL    HW2 5091   0.491   5.683   4.655
 1398SOL     OW 5092   2.210   1.849   6.747
 1398SOL    HW1 5093   2.270   1.822   6.823
 1398SOL    HW2 5094   2.182   1.944   6.758
 1399SOL     OW 5095   3.703   6.848   0.327
 1399SOL    HW1 5096   3.715   6.822   0.422
 1399SOL    HW2 5097   3.608   6.831   0.300
 1400SOL     OW 5098   0.291   2.117   4.527
 1400SOL    HW1 5099   0.295   2.193   4.462
 1400SOL    HW2 5100   0.358   2.048   4.502
 1401SOL     OW 5101   5.999   6.822   4.724
 1401SOL    HW1 5102   6.095   6.796   4.733
 1401SOL    HW2 5103   5.967   6.798   4.632
 1402SOL     OW 5104   5.672   4.228   6.447
 1402SOL    HW1 5105   5.661   4.296   6.520
 1402SOL    HW2 5106   5.637   4.265   6.361
 1403SOL     OW 5107   1.675   2.058   1.482
 1403SOL    HW1 5108   1.678   2.150   1.521
 1403SOL    HW2 5109   1.765   2.032   1.449
 1404SOL     OW 5110   6.662   0.215   0.125
 1404SOL    HW1 5111   6.578   0.251   0.085
 1404SOL    HW2 5112   6.642   0.134   0.179
 1405SOL     OW 5113   2.635   4.348   1.224
 1405SOL    HW1 5114   2.548   4.358   1.176
 1405SOL    HW2 5115   2.634   4.263   1.277
 1406SOL     OW 5116   1.838   5.719   1.182
 1406SOL    HW1 5117   1.892   5.792   1.225
 1406SOL    HW2 5118   1.852   5.634   1.233
 1407SOL     OW 5119   1.599   4.075   3.412
 1407SOL    HW1 5120   1.556   4.053   3.325
 1407SOL    HW2 5121   1.616   4.173   3.418
 1408SOL     OW 5122   6.052   6.539   6.269
 1408SOL    HW1 5123   6.001   6.505   6.190
 1408SOL    HW2 5124   6.079   6.634   6.253
 1409SOL     OW 5125   0.820   0.360   5.197
 1409SOL    HW1 5126   0.795   0.306   5.277
 1409SOL    HW2 5127   0.862   0.446   5.225
 1410SOL     OW 5128   2.603   4.172   6.724
 1410SOL    HW1 5129   2.643   4.126   6.645
 1410SOL    HW2 5130   2.674   4.194   6.791
 1411SOL     OW 5131   3.678   6.474   0.433
 1411SOL    HW1 5132   3.762   6.427   0.460
 1411SOL    HW2 5133   3.682   6.494   0.335
 1412SOL     OW 5134   0.630   4.096   1.473
 1412SOL    HW1 5135   0.532   4.113   1.490
 1412SOL    HW2 5136   0.652   4.121   1.379
 1413SOL     OW 5137   2.523   1.486   4.586
 1413SOL    HW1 5138   2.480   1.499   4.676
 1413SOL    HW2 5139   2.537   1.576   4.543
 1414SOL     OW 5140   2.755   2.051   1.780
 1414SOL    HW1 5141   2.790   1.959   1.791
 1414SOL    HW2 5142   2.829   2.113   1.753
 1415SOL     OW 5143   3.178   1.600   4.043
 1415SOL    HW1 5144   3.181   1.548   3.958
 1415SOL    HW2 5145   3.260   1.582   4.097
 1416SOL     OW 5146   3.673   6.966   4.949
 1416SOL    HW1 5147   3.575   6.988   4.949
 1416SOL    HW2 5148   3.695   6.912   5.029
 1417SOL     OW 5149   3.096   2.830   6.621
 1417SOL    HW1 5150   3.190   2.815   6.652
 1417SOL    HW2 5151   3.093   2.825   6.521
 1418SOL     OW 5152   2.727   4.002   0.750
 1418SOL    HW1 5153   2.798   3.933   0.767
 1418SOL    HW2 5154   2.637   3.962   0.768
 1419SOL     OW 5155   3.071   5.698   3.920
 1419SOL    HW1 5156   3.112   5.631   3.981
 1419SOL    HW2 5157   3.008   5.651   3.857
 1420SOL     OW 5158   3.538   6.068   3.309
 1420SOL    HW1 5159   3.510   6.019   3.227
 1420SOL    HW2 5160   3.491   6.031   3.389
 1421SOL     OW 5161   0.713   4.226   3.972
 1421SOL    HW1 5162   0.654   4.265   3.902
 1421SOL    HW2 5163   0.695   4.271   4.060
 1422SOL     OW 5164   3.040   4.587   6.847
 1422SOL    HW1 5165   2.988   4.615   6.928
 1422SOL    HW2 5166   3.121   4.536   6.876
 1423SOL     OW 5167   3.905   0.777   4.311
 1423SOL    HW1 5168   3.911   0.869   4.349
 1423SOL    HW2 5169   3.996   0.735   4.310
 1424SOL     OW 5170   6.767   3.993   6.701
 1424SOL    HW1 5171   6.709   4.072   6.721
 1424SOL    HW2 5172   6.862   4.023   6.690
 1425SOL     OW 5173   2.046   5.462   5.259
 1425SOL    HW1 5174   2.143   5.459   5.236
 1425SOL    HW2 5175   2.035   5.493   5.354
 1426SOL     OW 5176   2.453   2.240   5.751
 1426SOL    HW1 5177   2.361   2.275   5.768
 1426SOL    HW2 5178   2.471   2.161   5.811
 1427SOL     OW 5179   6.722   6.750   3.787
 1427SOL    HW1 5180   6.745   6.816   3.858
 1427SOL    HW2 5181   6.802   6.733   3.730
 1428SOL     OW 5182   1.080   1.812   1.727
 1428SOL    HW1 5183   1.073   1.713   1.727
 1428SOL    HW2 5184   1.165   1.839   1.772
 1429SOL     OW 5185   5.881   1.622   0.423
 1429SOL    HW1 5186   5.901   1.692   0.354
 1429SOL    HW2 5187   5.785   1.630   0.452
 1430SOL     OW 5188   2.331   4.987   3.648
 1430SOL    HW1 5189   2.409   5.043   3.677
 1430SOL    HW2 5190   2.266   4.978   3.724
 1431SOL     OW 5191   2.754   2.908   6.391
 1431SOL    HW1 5192   2.738   2.839   6.321
 1431SOL    HW2 5193   2.710   2.879   6.477
 1432SOL     OW 5194   3.365   1.014   0.783
 1432SOL    HW1 5195   3.270   1.044   0.786
 1432SOL    HW2 5196   3.378   0.951   0.707
 1433SOL     OW 5197   4.093   0.354   5.159
 1433SOL    HW1 5198   4.149   0.336   5.078
 1433SOL    HW2 5199   4.022   0.285   5.167
 1434SOL     OW 5200   0.412   0.992   6.498
 1434SOL    HW1 5201   0.472   0.912   6.503
 1434SOL    HW2 5202   0.465   1.075   6.516
 1435SOL     OW 5203   6.747   0.215   2.830
 1435SOL    HW1 5204   6.701   0.281   2.890
 1435SOL    HW2 5205   6.722   0.123   2.857
 1436SOL     OW 5206   5.568   3.938   6.996
 1436SOL    HW1 5207   5.482   3.978   0.000
 1436SOL    HW2 5208   5.630   3.927   0.047
 1437SOL     OW 5209   3.424   1.566   6.186
 1437SOL    HW1 5210   3.458   1.482   6.142
 1437SOL    HW2 5211   3.327   1.555   6.207
 1438SOL     OW 5212   2.406   0.344   1.199
 1438SOL    HW1 5213   2.489   0.351   1.144
 1438SOL    HW2 5214   2.332   0.393   1.154
 1439SOL     OW 5215   0.532   5.095   0.666
 1439SOL    HW1 5216   0.521   5.011   0.613
 1439SOL    HW2 5217   0.625   5.129   0.654
 1440SOL     OW 5218   3.183   2.715   5.813
 1440SOL    HW1 5219   3.282   2.698   5.810
 1440SOL    HW2 5220   3.139   2.667   5.737
 1441SOL     OW 5221   6.047   3.829   4.233
 1441SOL    HW1 5222   6.111   3.867   4.166
 1441SOL    HW2 5223   6.096   3.808   4.317
 1442SOL     OW 5224   6.480   5.262   7.000
 1442SOL    HW1 5225   6.438   5.221   0.055
 1442SOL    HW2 5226   6.409   5.284   6.933
 1443SOL     OW 5227   1.401   2.752   4.670
 1443SOL    HW1 5228   1.421   2.780   4.764
 1443SOL    HW2 5229   1.351   2.666   4.671
 1444SOL     OW 5230   4.369   5.807   1.643
 1444SOL    HW1 5231   4.419   5.817   1.557
 1444SOL    HW2 5232   4.401   5.876   1.708
 1445SOL     OW 5233   0.109   2.913   2.218
 1445SOL    HW1 5234   0.177   2.841   2.218
 1445SOL    HW2 5235   0.030   2.886   2.164
 1446SOL     OW 5236   4.927   2.016   6.531
 1446SOL    HW1 5237   4.875   2.086   6.482
 1446SOL    HW2 5238   4.882   1.927   6.521
 1447SOL     OW 5239   6.064   6.825   5.397
 1447SOL    HW1 5240   6.123   6.747   5.373
 1447SOL    HW2 5241   6.001   6.843   5.322
 1448SOL     OW 5242   6.326   2.492   0.045
 1448SOL    HW1 5243   6.294   2.451   6.987
 1448SOL    HW2 5244   6.410   2.544   0.027
 1449SOL     OW 5245   6.438   0.986   0.040
 1449SOL    HW1 5246   6.400   1.022   0.125
 1449SOL    HW2 5247   6.529   0.949   0.057
 1450SOL     OW 5248   1.018   2.418   1.987
 1450SOL    HW1 5249   0.985   2.367   1.908
 1450SOL    HW2 5250   1.004   2.515   1.972
 1451SOL     OW 5251   2.967   1.118   2.591
 1451SOL    HW1 5252   3.030   1.194   2.611
 1451SOL    HW2 5253   3.011   1.055   2.526
 1452SOL     OW 5254   4.438   1.054   4.185
 1452SOL    HW1 5255   4.421   1.144   4.224
 1452SOL    HW2 5256   4.494   1.064   4.102
 1453SOL     OW 5257   0.216   3.322   5.554
 1453SOL    HW1 5258   0.213   3.351   5.649
 1453SOL    HW2 5259   0.155   3.380   5.499
 1454SOL     OW 5260   6.151   2.298   3.112
 1454SOL    HW1 5261   6.208   2.373   3.146
 1454SOL    HW2 5262   6.071   2.335   3.065
 1455SOL     OW 5263   1.147   0.518   1.271
 1455SOL    HW1 5264   1.217   0.584   1.243
 1455SOL    HW2 5265   1.113   0.470   1.190
 1456SOL     OW 5266   6.611   0.091   5.407
 1456SOL    HW1 5267   6.681   0.052   5.347
 1456SOL    HW2 5268   6.562   0.018   5.453
 1457SOL     OW 5269   1.492   0.147   1.263
 1457SOL    HW1 5270   1.426   0.179   1.196
 1457SOL    HW2 5271   1.563   0.217   1.276
 1458SOL     OW 5272   6.095   6.706   3.470
 1458SOL    HW1 5273   6.039   6.633   3.509
 1458SOL    HW2 5274   6.090   6.787   3.528
 1459SOL     OW 5275   2.171   5.190   5.999
 1459SOL    HW1 5276   2.252   5.138   5.970
 1459SOL    HW2 5277   2.174   5.281   5.958
 1460SOL     OW 5278   0.168   5.053   5.710
 1460SOL    HW1 5279   0.106   4.990   5.662
 1460SOL    HW2 5280   0.214   5.004   5.784
 1461SOL     OW 5281   0.570   5.089   3.435
 1461SOL    HW1 5282   0.555   5.149   3.357
 1461SOL    HW2 5283   0.660   5.107   3.474
 1462SOL     OW 5284   0.808   0.714   6.222
 1462SOL    HW1 5285   0.738   0.753   6.281
 1462SOL    HW2 5286   0.780   0.721   6.126
 1463SOL     OW 5287   0.364   5.387   6.859
 1463SOL    HW1 5288   0.317   5.301   6.880
 1463SOL    HW2 5289   0.368   5.399   6.760
 1464SOL     OW 5290   6.014   6.758   1.200
 1464SOL    HW1 5291   6.099   6.772   1.151
 1464SOL    HW2 5292   6.010   6.818   1.280
 1465SOL     OW 5293   1.762   1.691   3.843
 1465SOL    HW1 5294   1.723   1.673   3.933
 1465SOL    HW2 5295   1.734   1.782   3.812
 1466SOL     OW 5296   1.250   1.183   2.186
 1466SOL    HW1 5297   1.244   1.083   2.184
 1466SOL    HW2 5298   1.325   1.210   2.247
 1467SOL     OW 5299   2.075   2.181   2.158
 1467SOL    HW1 5300   2.161   2.156   2.201
 1467SOL    HW2 5301   2.067   2.281   2.156
 1468SOL     OW 5302   5.379   5.295   2.987
 1468SOL    HW1 5303   5.456   5.234   2.970
 1468SOL    HW2 5304   5.413   5.389   2.999
 1469SOL     OW 5305   1.000   1.536   1.945
 1469SOL    HW1 5306   0.901   1.527   1.958
 1469SOL    HW2 5307   1.024   1.506   1.853
 1470SOL     OW 5308   1.724   0.996   2.856
 1470SOL    HW1 5309   1.687   1.089   2.851
 1470SOL    HW2 5310   1.703   0.956   2.945
 1471SOL     OW 5311   0.794   0.251   0.683
 1471SOL    HW1 5312   0.695   0.242   0.696
 1471SOL    HW2 5313   0.816   0.346   0.662
 1472SOL     OW 5314   3.918   5.847   5.151
 1472SOL    HW1 5315   3.824   5.813   5.158
 1472SOL    HW2 5316   3.926   5.906   5.071
 1473SOL     OW 5317   5.823   6.016   3.332
 1473SOL    HW1 5318   5.884   6.064   3.394
 1473SOL    HW2 5319   5.868   6.003   3.244
 1474SOL     OW 5320   5.932   5.715   3.004
 1474SOL    HW1 5321   5.876   5.642   2.966
 1474SOL    HW2 5322   5.890   5.804   2.985
 1475SOL     OW 5323   6.566   0.337   1.490
 1475SOL    HW1 5324   6.627   0.327   1.568
 1475SOL    HW2 5325   6.479   0.291   1.510
 1476SOL     OW 5326   2.414   1.686   1.304
 1476SOL    HW1 5327   2.354   1.618   1.348
 1476SOL    HW2 5328   2.500   1.643   1.279
 1477SOL     OW 5329   3.304   0.675   6.880
 1477SOL    HW1 5330   3.277   0.587   6.840
 1477SOL    HW2 5331   3.228   0.739   6.872
 1478SOL     OW 5332   5.360   4.973   0.421
 1478SOL    HW1 5333   5.270   4.934   0.442
 1478SOL    HW2 5334   5.430   4.903   0.435
 1479SOL     OW 5335   1.496   3.425   6.843
 1479SOL    HW1 5336   1.461   3.411   6.935
 1479SOL    HW2 5337   1.575   3.364   6.828
 1480SOL     OW 5338   3.250   6.989   6.280
 1480SOL    HW1 5339   3.194   6.972   6.198
 1480SOL    HW2 5340   3.298   0.050   6.270
 1481SOL     OW 5341   0.387   2.446   5.291
 1481SOL    HW1 5342   0.291   2.419   5.296
 1481SOL    HW2 5343   0.431   2.429   5.379
 1482SOL     OW 5344   5.161   2.640   0.897
 1482SOL    HW1 5345   5.191   2.544   0.900
 1482SOL    HW2 5346   5.205   2.691   0.970
 1483SOL     OW 5347   5.925   1.770   6.039
 1483SOL    HW1 5348   5.890   1.751   5.947
 1483SOL    HW2 5349   5.854   1.816   6.093
 1484SOL     OW 5350   5.591   5.449   3.952
 1484SOL    HW1 5351   5.551   5.374   3.901
 1484SOL    HW2 5352   5.624   5.416   4.041
 1485SOL     OW 5353   3.386   1.675   3.315
 1485SOL    HW1 5354   3.404   1.699   3.219
 1485SOL    HW2 5355   3.375   1.759   3.368
 1486SOL     OW 5356   4.925   2.458   3.040
 1486SOL    HW1 5357   4.868   2.385   3.002
 1486SOL    HW2 5358   5.020   2.426   3.048
 1487SOL     OW 5359   6.719   2.902   6.826
 1487SOL    HW1 5360   6.683   2.820   6.781
 1487SOL    HW2 5361   6.758   2.964   6.758
 1488SOL     OW 5362   5.836   1.975   3.890
 1488SOL    HW1 5363   5.857   1.920   3.970
 1488SOL    HW2 5364   5.916   1.979   3.830
 1489SOL     OW 5365   4.264   5.168   3.739
 1489SOL    HW1 5366   4.179   5.169   3.791
 1489SOL    HW2 5367   4.290   5.073   3.719
 1490SOL     OW 5368   1.236   3.003   1.000
 1490SOL    HW1 5369   1.187   2.941   1.061
 1490SOL    HW2 5370   1.202   2.992   0.906
 1491SOL     OW 5371   6.266   3.997   3.762
 1491SOL    HW1 5372   6.248   3.975   3.858
 1491SOL    HW2 5373   6.234   4.089   3.742
 1492SOL     OW 5374   5.666   1.716   2.625
 1492SOL    HW1 5375   5.720   1.719   2.541
 1492SOL    HW2 5376   5.672   1.805   2.671
 1493SOL     OW 5377   4.604   0.026   3.824
 1493SOL    HW1 5378   4.527   6.990   3.814
 1493SOL    HW2 5379   4.609   0.086   3.743
 1494SOL     OW 5380   5.855   1.763   5.497
 1494SOL    HW1 5381   5.812   1.726   5.580
 1494SOL    HW2 5382   5.887   1.856   5.515
 1495SOL     OW 5383   6.637   2.563   5.094
 1495SOL    HW1 5384   6.691   2.481   5.080
 1495SOL    HW2 5385   6.692   2.644   5.070
 1496SOL     OW 5386   0.602   1.547   2.628
 1496SOL    HW1 5387   0.564   1.473   2.683
 1496SOL    HW2 5388   0.601   1.521   2.532
 1497SOL     OW 5389   6.785   2.989   3.820
 1497SOL    HW1 5390   6.865   2.972   3.762
 1497SOL    HW2 5391   6.758   2.904   3.866
 1498SOL     OW 5392   2.107   4.688   6.469
 1498SOL    HW1 5393   2.147   4.639   6.392
 1498SOL    HW2 5394   2.087   4.782   6.442
 1499SOL     OW 5395   1.009   3.550   6.423
 1499SOL    HW1 5396   1.085   3.496   6.459
 1499SOL    HW2 5397   1.018   3.557   6.324
 1500SOL     OW 5398   6.757   6.454   6.876
 1500SOL    HW1 5399   6.798   6.460   6.967
 1500SOL    HW2 5400   6.826   6.480   6.807
 1501SOL     OW 5401   5.497   1.821   6.161
 1501SOL    HW1 5402   5.522   1.827   6.065
 1501SOL    HW2 5403   5.438   1.742   6.176
 1502SOL     OW 5404   5.806   0.508   0.841
 1502SOL    HW1 5405   5.887   0.514   0.900
 1502SOL    HW2 5406   5.824   0.555   0.755
 1503SOL     OW 5407   2.630   1.853   2.228
 1503SOL    HW1 5408   2.596   1.941   2.263
 1503SOL    HW2 5409   2.703   1.870   2.162
 1504SOL     OW 5410   0.940   0.570   4.962
 1504SOL    HW1 5411   0.951   0.542   5.058
 1504SOL    HW2 5412   0.869   0.640   4.956
 1505SOL     OW 5413   6.149   0.304   5.845
 1505SOL    HW1 5414   6.176   0.397   5.820
 1505SOL    HW2 5415   6.199   0.238   5.789
 1506SOL     OW 5416   1.843   5.476   1.319
 1506SOL    HW1 5417   1.758   5.491   1.370
 1506SOL    HW2 5418   1.904   5.417   1.373
 1507SOL     OW 5419   0.602   1.910   5.572
 1507SOL    HW1 5420   0.661   1.866   5.505
 1507SOL    HW2 5421   0.532   1.846   5.602
 1508SOL     OW 5422   6.769   0.513   1.868
 1508SOL    HW1 5423   6.671   0.507   1.885
 1508SOL    HW2 5424   6.800   0.432   1.819
 1509SOL     OW 5425   4.504   2.413   6.107
 1509SOL    HW1 5426   4.548   2.441   6.021
 1509SOL    HW2 5427   4.519   2.484   6.176
 1510SOL     OW 5428   5.820   2.940   4.842
 1510SOL    HW1 5429   5.845   3.019   4.786
 1510SOL    HW2 5430   5.818   2.858   4.784
 1511SOL     OW 5431   3.349   3.164   1.276
 1511SOL    HW1 5432   3.329   3.204   1.186
 1511SOL    HW2 5433   3.392   3.075   1.263
 1512SOL     OW 5434   0.350   5.517   1.452
 1512SOL    HW1 5435   0.419   5.543   1.384
 1512SOL    HW2 5436   0.262   5.503   1.408
 1513SOL     OW 5437   3.419   0.930   3.789
 1513SOL    HW1 5438   3.472   0.861   3.741
 1513SOL    HW2 5439   3.324   0.927   3.757
 1514SOL     OW 5440   5.248   2.437   5.785
 1514SOL    HW1 5441   5.316   2.397   5.847
 1514SOL    HW2 5442   5.179   2.367   5.763
 1515SOL     OW 5443   5.918   3.075   5.061
 1515SOL    HW1 5444   5.883   3.025   4.981
 1515SOL    HW2 5445   5.841   3.098   5.121
 1516SOL     OW 5446   0.239   6.887   0.537
 1516SOL    HW1 5447   0.272   6.794   0.521
 1516SOL    HW2 5448   0.142   6.884   0.564
 1517SOL     OW 5449   4.021   6.124   3.358
 1517SOL    HW1 5450   3.926   6.149   3.341
 1517SOL    HW2 5451   4.038   6.120   3.457
 1518SOL     OW 5452   0.569   2.882   0.564
 1518SOL    HW1 5453   0.517   2.845   0.640
 1518SOL    HW2 5454   0.567   2.817   0.488
 1519SOL     OW 5455   6.351   5.150   2.204
 1519SOL    HW1 5456   6.418   5.077   2.215
 1519SOL    HW2 5457   6.260   5.111   2.191
 1520SOL     OW 5458   0.411   3.839   2.519
 1520SOL    HW1 5459   0.430   3.773   2.446
 1520SOL    HW2 5460   0.316   3.870   2.512
 1521SOL     OW 5461   2.313   4.204   0.334
 1521SOL    HW1 5462   2.333   4.187   0.237
 1521SOL    HW2 5463   2.367   4.142   0.390
 1522SOL     OW 5464   6.488   0.120   4.739
 1522SOL    HW1 5465   6.565   0.148   4.682
 1522SOL    HW2 5466   6.420   0.072   4.683
 1523SOL     OW 5467   4.929   4.259   0.120
 1523SOL    HW1 5468   4.878   4.237   0.204
 1523SOL    HW2 5469   4.927   4.180   0.059
 1524SOL     OW 5470   1.498   2.579   1.866
 1524SOL    HW1 5471   1.518   2.653   1.930
 1524SOL    HW2 5472   1.583   2.532   1.842
 1525SOL     OW 5473   6.492   2.150   0.233
 1525SOL    HW1 5474   6.410   2.208   0.239
 1525SOL    HW2 5475   6.527   2.152   0.139
 1526SOL     OW 5476   0.999   0.099   6.617
 1526SOL    HW1 5477   1.056   0.145   6.549
 1526SOL    HW2 5478   0.993   0.156   6.699
 1527SOL     OW 5479   3.863   0.972   5.693
 1527SOL    HW1 5480   3.910   0.919   5.621
 1527SOL    HW2 5481   3.771   0.994   5.662
 1528SOL     OW 5482   4.976   5.702   2.461
 1528SOL    HW1 5483   4.925   5.628   2.505
 1528SOL    HW2 5484   5.065   5.667   2.432
 1529SOL     OW 5485   4.053   0.200   0.704
 1529SOL    HW1 5486   4.087   0.137   0.774
 1529SOL    HW2 5487   3.958   0.178   0.682
 1530SOL     OW 5488   3.316   1.405   2.883
 1530SOL    HW1 5489   3.256   1.475   2.920
 1530SOL    HW2 5490   3.359   1.355   2.958
 1531SOL     OW 5491   5.393   0.819   4.869
 1531SOL    HW1 5492   5.317   0.830   4.933
 1531SOL    HW2 5493   5.358   0.795   4.779
 1532SOL     OW 5494   3.133   3.772   5.775
 1532SOL    HW1 5495   3.221   3.819   5.763
 1532SOL    HW2 5496   3.066   3.810   5.711
 1533SOL     OW 5497   0.082   3.267   0.173
 1533SOL    HW1 5498   0.088   3.311   0.262
 1533SOL    HW2 5499   0.039   3.177   0.183
 1534SOL     OW 5500   1.883   5.236   6.344
 1534SOL    HW1 5501   1.908   5.214   6.250
 1534SOL    HW2 5502   1.943   5.308   6.379
 1535SOL     OW 5503   5.044   5.944   4.542
 1535SOL    HW1 5504   5.081   5.969   4.632
 1535SOL    HW2 5505   5.103   5.981   4.470
 1536SOL     OW 5506   4.055   4.194   5.250
 1536SOL    HW1 5507   4.003   4.151   5.176
 1536SOL    HW2 5508   4.138   4.236   5.212
 1537SOL     OW 5509   3.777   6.180   3.245
 1537SOL    HW1 5510   3.796   6.117   3.169
 1537SOL    HW2 5511   3.683   6.167   3.277
 1538SOL     OW 5512   3.524   5.419   6.012
 1538SOL    HW1 5513   3.471   5.379   5.937
 1538SOL    HW2 5514   3.461   5.466   6.075
 1539SOL     OW 5515   4.100   3.768   1.898
 1539SOL    HW1 5516   4.079   3.814   1.984
 1539SOL    HW2 5517   4.060   3.676   1.899
 1540SOL     OW 5518   1.497   6.891   5.929
 1540SOL    HW1 5519   1.430   6.830   5.886
 1540SOL    HW2 5520   1.466   6.986   5.921
 1541SOL     OW 5521   3.773   2.853   2.244
 1541SOL    HW1 5522   3.676   2.867   2.264
 1541SOL    HW2 5523   3.792   2.755   2.240
 1542SOL     OW 5524   6.632   6.418   1.619
 1542SOL    HW1 5525   6.616   6.469   1.704
 1542SOL    HW2 5526   6.729   6.424   1.594
 1543SOL     OW 5527   3.411   3.836   4.012
 1543SOL    HW1 5528   3.323   3.854   4.056
 1543SOL    HW2 5529   3.484   3.839   4.080
 1544SOL     OW 5530   3.262   3.609   1.972
 1544SOL    HW1 5531   3.238   3.547   1.898
 1544SOL    HW2 5532   3.286   3.556   2.054
 1545SOL     OW 5533   4.952   0.862   4.636
 1545SOL    HW1 5534   5.045   0.852   4.602
 1545SOL    HW2 5535   4.932   0.791   4.704
 1546SOL     OW 5536   4.873   6.563   5.992
 1546SOL    HW1 5537   4.790   6.508   6.007
 1546SOL    HW2 5538   4.946   6.529   6.050
 1547SOL     OW 5539   1.901   3.901   3.035
 1547SOL    HW1 5540   1.861   3.876   3.123
 1547SOL    HW2 5541   1.909   3.819   2.978
 1548SOL     OW 5542   4.416   4.070   6.119
 1548SOL    HW1 5543   4.348   4.131   6.078
 1548SOL    HW2 5544   4.463   4.117   6.194
 1549SOL     OW 5545   4.418   1.157   2.753
 1549SOL    HW1 5546   4.387   1.210   2.674
 1549SOL    HW2 5547   4.372   1.068   2.754
 1550SOL     OW 5548   2.852   5.023   6.361
 1550SOL    HW1 5549   2.853   4.923   6.352
 1550SOL    HW2 5550   2.921   5.051   6.428
 1551SOL     OW 5551   2.537   3.720   6.989
 1551SOL    HW1 5552   2.487   3.634   6.983
 1551SOL    HW2 5553   2.568   3.748   6.898
 1552SOL     OW 5554   0.470   0.050   1.199
 1552SOL    HW1 5555   0.427   0.084   1.115
 1552SOL    HW2 5556   0.472   0.123   1.267
 1553SOL     OW 5557   6.871   0.509   5.717
 1553SOL    HW1 5558   6.924   0.425   5.706
 1553SOL    HW2 5559   6.919   0.585   5.674
 1554SOL     OW 5560   3.912   1.842   3.649
 1554SOL    HW1 5561   3.907   1.923   3.590
 1554SOL    HW2 5562   3.876   1.763   3.600
 1555SOL     OW 5563   5.299   1.693   6.601
 1555SOL    HW1 5564   5.297   1.736   6.691
 1555SOL    HW2 5565   5.330   1.598   6.610
 1556SOL     OW 5566   3.627   0.854   0.236
 1556SOL    HW1 5567   3.642   0.861   0.335
 1556SOL    HW2 5568   3.715   0.848   0.189
 1557SOL     OW 5569   2.118   1.458   6.342
 1557SOL    HW1 5570   2.028   1.496   6.363
 1557SOL    HW2 5571   2.178   1.532   6.309
 1558SOL     OW 5572   5.277   1.282   4.207
 1558SOL    HW1 5573   5.298   1.185   4.204
 1558SOL    HW2 5574   5.211   1.300   4.281
 1559SOL     OW 5575   0.133   2.407   6.904
 1559SOL    HW1 5576   0.163   2.501   6.889
 1559SOL    HW2 5577   0.052   2.407   6.961
 1560SOL     OW 5578   3.309   1.241   6.409
 1560SOL    HW1 5579   3.312   1.160   6.467
 1560SOL    HW2 5580   3.331   1.216   6.315
 1561SOL     OW 5581   6.112   6.478   2.709
 1561SOL    HW1 5582   6.136   6.415   2.783
 1561SOL    HW2 5583   6.149   6.444   2.623
 1562SOL     OW 5584   4.384   6.111   1.585
 1562SOL    HW1 5585   4.473   6.128   1.542
 1562SOL    HW2 5586   4.315   6.099   1.514
 1563SOL     OW 5587   2.508   1.024   5.891
 1563SOL    HW1 5588   2.456   1.058   5.813
 1563SOL    HW2 5589   2.576   0.957   5.859
 1564SOL     OW 5590   1.430   2.236   2.522
 1564SOL    HW1 5591   1.394   2.298   2.452
 1564SOL    HW2 5592   1.441   2.285   2.608
 1565SOL     OW 5593   4.084   5.756   4.358
 1565SOL    HW1 5594   4.100   5.757   4.456
 1565SOL    HW2 5595   4.123   5.673   4.318
 1566SOL     OW 5596   5.989   4.711   4.455
 1566SOL    HW1 5597   5.930   4.743   4.529
 1566SOL    HW2 5598   5.988   4.611   4.453
 1567SOL     OW 5599   6.539   6.221   6.991
 1567SOL    HW1 5600   6.584   6.137   6.962
 1567SOL    HW2 5601   6.587   6.299   6.951
 1568SOL     OW 5602   1.860   6.779   1.766
 1568SOL    HW1 5603   1.869   6.790   1.667
 1568SOL    HW2 5604   1.910   6.852   1.812
 1569SOL     OW 5605   3.077   6.895   3.733
 1569SOL    HW1 5606   3.176   6.895   3.749
 1569SOL    HW2 5607   3.031   6.933   3.813
 1570SOL     OW 5608   2.358   6.677   0.367
 1570SOL    HW1 5609   2.373   6.600   0.305
 1570SOL    HW2 5610   2.443   6.698   0.416
 1571SOL     OW 5611   6.293   1.936   3.077
 1571SOL    HW1 5612   6.325   2.022   3.039
 1571SOL    HW2 5613   6.193   1.931   3.071
 1572SOL     OW 5614   1.749   6.177   0.793
 1572SOL    HW1 5615   1.816   6.240   0.754
 1572SOL    HW2 5616   1.782   6.083   0.782
 1573SOL     OW 5617   6.218   3.983   1.971
 1573SOL    HW1 5618   6.159   3.929   1.911
 1573SOL    HW2 5619   6.272   4.047   1.917
 1574SOL     OW 5620   6.419   1.842   3.835
 1574SOL    HW1 5621   6.427   1.791   3.749
 1574SOL    HW2 5622   6.394   1.780   3.909
 1575SOL     OW 5623   2.411   1.913   1.437
 1575SOL    HW1 5624   2.402   1.837   1.372
 1575SOL    HW2 5625   2.344   1.984   1.414
 1576SOL     OW 5626   0.943   0.730   3.228
 1576SOL    HW1 5627   0.852   0.744   3.190
 1576SOL    HW2 5628   0.939   0.732   3.328
 1577SOL     OW 5629   2.476   0.413   5.858
 1577SOL    HW1 5630   2.554   0.351   5.853
 1577SOL    HW2 5631   2.473   0.456   5.948
 1578SOL     OW 5632   5.314   1.953   5.825
 1578SOL    HW1 5633   5.254   1.899   5.885
 1578SOL    HW2 5634   5.369   2.015   5.881
 1579SOL     OW 5635   6.920   1.939   2.052
 1579SOL    HW1 5636   6.935   1.840   2.050
 1579SOL    HW2 5637   6.835   1.962   2.005
 1580SOL     OW 5638   3.611   4.139   4.235
 1580SOL    HW1 5639   3.564   4.219   4.197
 1580SOL    HW2 5640   3.551   4.095   4.302
 1581SOL     OW 5641   6.275   4.832   4.545
 1581SOL    HW1 5642   6.294   4.735   4.557
 1581SOL    HW2 5643   6.188   4.843   4.497
 1582SOL     OW 5644   1.562   6.473   4.680
 1582SOL    HW1 5645   1.475   6.423   4.680
 1582SOL    HW2 5646   1.571   6.523   4.594
 1583SOL     OW 5647   0.551   6.141   2.948
 1583SOL    HW1 5648   0.635   6.141   3.003
 1583SOL    HW2 5649   0.547   6.056   2.895
 1584SOL     OW 5650   0.935   5.748   5.671
 1584SOL    HW1 5651   1.033   5.753   5.651
 1584SOL    HW2 5652   0.920   5.760   5.769
 1585SOL     OW 5653   4.154   1.979   3.101
 1585SOL    HW1 5654   4.059   1.950   3.109
 1585SOL    HW2 5655   4.158   2.076   3.077
 1586SOL     OW 5656   3.320   4.865   2.105
 1586SOL    HW1 5657   3.385   4.793   2.131
 1586SOL    HW2 5658   3.296   4.855   2.008
 1587SOL     OW 5659   2.569   5.867   5.732
 1587SOL    HW1 5660   2.489   5.907   5.687
 1587SOL    HW2 5661   2.560   5.877   5.831
 1588SOL     OW 5662   4.166   0.611   2.252
 1588SOL    HW1 5663   4.115   0.563   2.180
 1588SOL    HW2 5664   4.260   0.579   2.254
 1589SOL     OW 5665   6.992   3.228   2.045
 1589SOL    HW1 5666   0.019   3.146   2.067
 1589SOL    HW2 5667   6.998   3.247   1.947
 1590SOL     OW 5668   4.163   0.433   4.410
 1590SOL    HW1 5669   4.260   0.433   4.386
 1590SOL    HW2 5670   4.129   0.338   4.410
 1591SOL     OW 5671   0.120   5.517   1.305
 1591SOL    HW1 5672   0.109   5.418   1.319
 1591SOL    HW2 5673   0.036   5.553   1.263
 1592SOL     OW 5674   2.562   3.872   6.528
 1592SOL    HW1 5675   2.552   3.970   6.515
 1592SOL    HW2 5676   2.602   3.831   6.447
 1593SOL     OW 5677   0.946   6.816   5.493
 1593SOL    HW1 5678   0.960   6.888   5.560
 1593SOL    HW2 5679   0.995   6.838   5.409
 1594SOL     OW 5680   1.311   6.727   1.592
 1594SOL    HW1 5681   1.364   6.648   1.623
 1594SOL    HW2 5682   1.338   6.807   1.646
 1595SOL     OW 5683   1.471   5.147   0.567
 1595SOL    HW1 5684   1.446   5.140   0.471
 1595SOL    HW2 5685   1.460   5.242   0.598
 1596SOL     OW 5686   0.472   2.997   3.939
 1596SOL    HW1 5687   0.376   2.985   3.914
 1596SOL    HW2 5688   0.478   3.038   4.030
 1597SOL     OW 5689   1.280   6.280   0.350
 1597SOL    HW1 5690   1.219   6.313   0.422
 1597SOL    HW2 5691   1.338   6.355   0.319
 1598SOL     OW 5692   6.813   4.609   5.492
 1598SOL    HW1 5693   6.721   4.573   5.477
 1598SOL    HW2 5694   6.861   4.552   5.557
 1599SOL     OW 5695   5.273   5.713   4.679
 1599SOL    HW1 5696   5.220   5.724   4.763
 1599SOL    HW2 5697   5.313   5.622   4.677
 1600SOL     OW 5698   4.038   0.968   3.473
 1600SOL    HW1 5699   3.990   0.881   3.462
 1600SOL    HW2 5700   4.136   0.950   3.484
 1601SOL     OW 5701   0.115   6.378   4.359
 1601SOL    HW1 5702   0.145   6.389   4.265
 1601SOL    HW2 5703   0.162   6.299   4.400
 1602SOL     OW 5704   4.076   5.237   3.937
 1602SOL    HW1 5705   4.112   5.185   4.014
 1602SOL    HW2 5706   3.985   5.203   3.913
 1603SOL     OW 5707   1.754   6.610   2.837
 1603SOL    HW1 5708   1.655   6.595   2.838
 1603SOL    HW2 5709   1.795   6.557   2.763
 1604SOL     OW 5710   5.322   4.296   1.073
 1604SOL    HW1 5711   5.404   4.299   1.131
 1604SOL    HW2 5712   5.339   4.346   0.989
 1605SOL     OW 5713   6.879   5.403   1.725
 1605SOL    HW1 5714   6.848   5.308   1.727
 1605SOL    HW2 5715   6.804   5.462   1.693
 1606SOL     OW 5716   3.510   6.749   5.608
 1606SOL    HW1 5717   3.514   6.692   5.690
 1606SOL    HW2 5718   3.578   6.718   5.542
 1607SOL     OW 5719   4.127   1.006   0.818
 1607SOL    HW1 5720   4.075   1.086   0.790
 1607SOL    HW2 5721   4.066   0.928   0.829
 1608SOL     OW 5722   0.403   1.094   3.921
 1608SOL    HW1 5723   0.441   1.164   3.981
 1608SOL    HW2 5724   0.374   1.135   3.835
 1609SOL     OW 5725   4.684   6.950   0.121
 1609SOL    HW1 5726   4.649   6.990   0.036
 1609SOL    HW2 5727   4.783   6.939   0.114
 1610SOL     OW 5728   6.120   4.714   6.765
 1610SOL    HW1 5729   6.119   4.623   6.723
 1610SOL    HW2 5730   6.090   4.782   6.698
 1611SOL     OW 5731   2.662   3.603   0.198
 1611SOL    HW1 5732   2.631   3.630   0.107
 1611SOL    HW2 5733   2.719   3.521   0.190
 1612SOL     OW 5734   2.730   0.378   0.330
 1612SOL    HW1 5735   2.726   0.281   0.354
 1612SOL    HW2 5736   2.745   0.432   0.413
 1613SOL     OW 5737   1.707   6.092   2.331
 1613SOL    HW1 5738   1.628   6.108   2.272
 1613SOL    HW2 5739   1.678   6.039   2.411
 1614SOL     OW 5740   5.279   2.260   6.589
 1614SOL    HW1 5741   5.365   2.244   6.539
 1614SOL    HW2 5742   5.301   2.287   6.683
 1615SOL     OW 5743   5.986   5.601   0.604
 1615SOL    HW1 5744   5.920   5.668   0.570
 1615SOL    HW2 5745   5.998   5.529   0.536
 1616SOL     OW 5746   3.635   1.093   5.145
 1616SOL    HW1 5747   3.679   1.162   5.202
 1616SOL    HW2 5748   3.644   1.118   5.049
 1617SOL     OW 5749   5.498   6.931   2.677
 1617SOL    HW1 5750   5.448   6.844   2.685
 1617SOL    HW2 5751   5.442   6.996   2.626
 1618SOL     OW 5752   1.197   5.791   2.523
 1618SOL    HW1 5753   1.103   5.779   2.489
 1618SOL    HW2 5754   1.197   5.860   2.596
 1619SOL     OW 5755   0.796   4.313   1.623
 1619SOL    HW1 5756   0.768   4.249   1.552
 1619SOL    HW2 5757   0.816   4.402   1.582
 1620SOL     OW 5758   2.843   4.427   1.625
 1620SOL    HW1 5759   2.834   4.327   1.620
 1620SOL    HW2 5760   2.886   4.452   1.712
 1621SOL     OW 5761   6.605   1.154   0.639
 1621SOL    HW1 5762   6.549   1.237   0.641
 1621SOL    HW2 5763   6.572   1.090   0.709
 1622SOL     OW 5764   0.485   3.256   4.880
 1622SOL    HW1 5765   0.572   3.287   4.919
 1622SOL    HW2 5766   0.439   3.196   4.946
 1623SOL     OW 5767   1.637   2.964   4.704
 1623SOL    HW1 5768   1.731   2.977   4.735
 1623SOL    HW2 5769   1.633   2.885   4.642
 1624SOL     OW 5770   3.369   1.630   5.195
 1624SOL    HW1 5771   3.411   1.701   5.137
 1624SOL    HW2 5772   3.422   1.545   5.186
 1625SOL     OW 5773   1.344   4.723   0.373
 1625SOL    HW1 5774   1.443   4.721   0.384
 1625SOL    HW2 5775   1.320   4.692   0.280
 1626SOL     OW 5776   4.180   1.081   0.300
 1626SOL    HW1 5777   4.087   1.047   0.314
 1626SOL    HW2 5778   4.181   1.180   0.316
 1627SOL     OW 5779   6.190   2.961   3.555
 1627SOL    HW1 5780   6.162   2.866   3.564
 1627SOL    HW2 5781   6.191   2.987   3.458
 1628SOL     OW 5782   4.948   4.732   0.628
 1628SOL    HW1 5783   4.922   4.727   0.725
 1628SOL    HW2 5784   4.935   4.642   0.586
 1629SOL     OW 5785   2.949   1.027   3.805
 1629SOL    HW1 5786   2.957   0.952   3.870
 1629SOL    HW2 5787   3.014   1.099   3.828
 1630SOL     OW 5788   1.082   4.901   6.406
 1630SOL    HW1 5789   1.055   4.951   6.324
 1630SOL    HW2 5790   1.166   4.940   6.443
 1631SOL     OW 5791   0.837   2.936   0.614
 1631SOL    HW1 5792   0.741   2.917   0.592
 1631SOL    HW2 5793   0.849   2.933   0.714
 1632SOL     OW 5794   5.826   2.066   1.052
 1632SOL    HW1 5795   5.857   2.019   0.969
 1632SOL    HW2 5796   5.902   2.076   1.116
 1633SOL     OW 5797   5.299   3.825   4.599
 1633SOL    HW1 5798   5.326   3.858   4.689
 1633SOL    HW2 5799   5.381   3.804   4.546
 1634SOL     OW 5800   4.215   5.509   4.139
 1634SOL    HW1 5801   4.270   5.474   4.063
 1634SOL    HW2 5802   4.135   5.558   4.104
 1635SOL     OW 5803   0.193   5.136   6.836
 1635SOL    HW1 5804   0.138   5.143   6.919
 1635SOL    HW2 5805   0.133   5.135   6.756
 1636SOL     OW 5806   2.987   4.563   0.987
 1636SOL    HW1 5807   2.983   4.503   0.906
 1636SOL    HW2 5808   2.958   4.511   1.067
 1637SOL     OW 5809   0.093   0.755   2.936
 1637SOL    HW1 5810   0.046   0.842   2.923
 1637SOL    HW2 5811   0.109   0.739   3.033
 1638SOL     OW 5812   7.026   4.316   3.185
 1638SOL    HW1 5813   0.016   4.259   3.104
 1638SOL    HW2 5814   0.078   4.311   3.246
 1639SOL     OW 5815   5.666   6.307   1.794
 1639SOL    HW1 5816   5.607   6.345   1.866
 1639SOL    HW2 5817   5.609   6.267   1.722
 1640SOL     OW 5818   5.941   0.241   6.729
 1640SOL    HW1 5819   6.003   0.269   6.656
 1640SOL    HW2 5820   5.846   0.258   6.700
 1641SOL     OW 5821   4.576   1.735   2.947
 1641SOL    HW1 5822   4.567   1.736   3.047
 1641SOL    HW2 5823   4.503   1.678   2.909
 1642SOL     OW 5824   6.935   3.337   6.751
 1642SOL    HW1 5825   6.858   3.376   6.700
 1642SOL    HW2 5826   7.021   3.373   6.715
 1643SOL     OW 5827   2.352   5.040   4.526
 1643SOL    HW1 5828   2.391   4.948   4.519
 1643SOL    HW2 5829   2.382   5.082   4.612
 1644SOL     OW 5830   5.757   4.087   6.657
 1644SOL    HW1 5831   5.723   4.130   6.573
 1644SOL    HW2 5832   5.797   3.998   6.635
 1645SOL     OW 5833   3.275   5.164   6.934
 1645SOL    HW1 5834   3.209   5.222   6.887
 1645SOL    HW2 5835   3.305   5.209   7.019
 1646SOL     OW 5836   2.823   6.674   0.127
 1646SOL    HW1 5837   2.792   6.608   0.058
 1646SOL    HW2 5838   2.896   6.633   0.182
 1647SOL     OW 5839   6.012   3.256   4.479
 1647SOL    HW1 5840   6.108   3.228   4.475
 1647SOL    HW2 5841   5.959   3.201   4.414
 1648SOL     OW 5842   5.623   5.523   0.462
 1648SOL    HW1 5843   5.662   5.490   0.376
 1648SOL    HW2 5844   5.632   5.452   0.532
 1649SOL     OW 5845   3.539   1.538   3.541
 1649SOL    HW1 5846   3.529   1.512   3.637
 1649SOL    HW2 5847   3.453   1.575   3.507
 1650SOL     OW 5848   1.203   6.068   5.460
 1650SOL    HW1 5849   1.147   6.137   5.413
 1650SOL    HW2 5850   1.299   6.082   5.438
 1651SOL     OW 5851   0.577   1.899   1.793
 1651SOL    HW1 5852   0.676   1.913   1.784
 1651SOL    HW2 5853   0.536   1.982   1.830
 1652SOL     OW 5854   1.134   3.192   2.838
 1652SOL    HW1 5855   1.224   3.152   2.819
 1652SOL    HW2 5856   1.108   3.252   2.762
 1653SOL     OW 5857   0.909   0.113   0.102
 1653SOL    HW1 5858   1.009   0.113   0.095
 1653SOL    HW2 5859   0.871   0.049   0.035
 1654SOL     OW 5860   0.142   3.492   1.904
 1654SOL    HW1 5861   0.242   3.482   1.908
 1654SOL    HW2 5862   0.119   3.563   1.837
 1655SOL     OW 5863   0.398   1.809   4.899
 1655SOL    HW1 5864   0.401   1.828   4.997
 1655SOL    HW2 5865   0.474   1.855   4.854
 1656SOL     OW 5866   2.097   4.321   2.872
 1656SOL    HW1 5867   2.028   4.303   2.802
 1656SOL    HW2 5868   2.157   4.242   2.881
 1657SOL     OW 5869   6.812   1.005   4.201
 1657SOL    HW1 5870   6.829   0.935   4.132
 1657SOL    HW2 5871   6.832   0.968   4.291
 1658SOL     OW 5872   6.722   7.002   1.634
 1658SOL    HW1 5873   6.702   7.003   1.732
 1658SOL    HW2 5874   6.671   6.928   1.590
 1659SOL     OW 5875   3.626   6.890   0.012
 1659SOL    HW1 5876   3.594   6.911   0.104
 1659SOL    HW2 5877   3.626   6.973   6.983
 1660SOL     OW 5878   1.452   5.801   2.925
 1660SOL    HW1 5879   1.461   5.831   2.830
 1660SOL    HW2 5880   1.529   5.836   2.979
 1661SOL     OW 5881   3.074   6.729   1.065
 1661SOL    HW1 5882   3.043   6.777   1.147
 1661SOL    HW2 5883   3.021   6.760   0.986
 1662SOL     OW 5884   0.427   0.748   4.224
 1662SOL    HW1 5885   0.481   0.738   4.308
 1662SOL    HW2 5886   0.423   0.660   4.176
 1663SOL     OW 5887   4.361   6.352   3.328
 1663SOL    HW1 5888   4.327   6.346   3.422
 1663SOL    HW2 5889   4.286   6.338   3.264
 1664SOL     OW 5890   2.005   6.275   4.987
 1664SOL    HW1 5891   1.985   6.220   4.905
 1664SOL    HW2 5892   1.921   6.321   5.016
 1665SOL     OW 5893   6.935   2.608   2.721
 1665SOL    HW1 5894   6.924   2.541   2.794
 1665SOL    HW2 5895   6.912   2.566   2.634
 1666SOL     OW 5896   5.738   1.513   6.363
 1666SOL    HW1 5897   5.750   1.552   6.455
 1666SOL    HW2 5898   5.693   1.425   6.370
 1667SOL     OW 5899   0.203   6.236   0.789
 1667SOL    HW1 5900   0.151   6.154   0.764
 1667SOL    HW2 5901   0.296   6.228   0.756
 1668SOL     OW 5902   4.995   6.571   3.900
 1668SOL    HW1 5903   5.023   6.665   3.879
 1668SOL    HW2 5904   4.965   6.565   3.995
 1669SOL     OW 5905   6.602   5.073   6.619
 1669SOL    HW1 5906   6.677   5.010   6.635
 1669SOL    HW2 5907   6.610   5.151   6.680
 1670SOL     OW 5908   0.378   3.606   6.027
 1670SOL    HW1 5909   0.287   3.648   6.037
 1670SOL    HW2 5910   0.440   3.672   5.985
 1671SOL     OW 5911   5.468   1.428   3.080
 1671SOL    HW1 5912   5.415   1.365   3.137
 1671SOL    HW2 5913   5.458   1.521   3.117
 1672SOL     OW 5914   1.506   2.917   0.927
 1672SOL    HW1 5915   1.517   2.874   0.837
 1672SOL    HW2 5916   1.434   2.986   0.922
 1673SOL     OW 5917   1.197   1.213   4.674
 1673SOL    HW1 5918   1.294   1.236   4.682
 1673SOL    HW2 5919   1.154   1.217   4.764
 1674SOL     OW 5920   1.052   3.015   2.358
 1674SOL    HW1 5921   1.047   3.016   2.258
 1674SOL    HW2 5922   1.025   2.925   2.392
 1675SOL     OW 5923   5.275   6.862   0.651
 1675SOL    HW1 5924   5.354   6.837   0.595
 1675SOL    HW2 5925   5.276   6.960   0.668
 1676SOL     OW 5926   2.089   2.637   1.722
 1676SOL    HW1 5927   2.175   2.615   1.768
 1676SOL    HW2 5928   2.099   2.722   1.670
 1677SOL     OW 5929   3.458   3.545   3.978
 1677SOL    HW1 5930   3.491   3.452   3.995
 1677SOL    HW2 5931   3.529   3.611   4.006
 1678SOL     OW 5932   5.837   4.334   3.400
 1678SOL    HW1 5933   5.929   4.323   3.437
 1678SOL    HW2 5934   5.770   4.319   3.472
 1679SOL     OW 5935   2.399   2.753   4.285
 1679SOL    HW1 5936   2.369   2.847   4.296
 1679SOL    HW2 5937   2.419   2.735   4.189
 1680SOL     OW 5938   7.021   2.879   5.175
 1680SOL    HW1 5939   0.074   2.888   5.116
 1680SOL    HW2 5940   7.027   2.946   5.249
 1681SOL     OW 5941   6.970   5.603   6.791
 1681SOL    HW1 5942   6.878   5.584   6.758
 1681SOL    HW2 5943   0.009   5.549   6.738
 1682SOL     OW 5944   1.833   0.582   5.467
 1682SOL    HW1 5945   1.756   0.632   5.427
 1682SOL    HW2 5946   1.800   0.495   5.504
 1683SOL     OW 5947   4.513   4.740   1.859
 1683SOL    HW1 5948   4.416   4.739   1.835
 1683SOL    HW2 5949   4.566   4.775   1.782
 1684SOL     OW 5950   1.157   6.378   2.220
 1684SOL    HW1 5951   1.209   6.336   2.294
 1684SOL    HW2 5952   1.151   6.315   2.143
 1685SOL     OW 5953   2.652   1.180   4.854
 1685SOL    HW1 5954   2.567   1.192   4.907
 1685SOL    HW2 5955   2.730   1.182   4.916
 1686SOL     OW 5956   2.379   6.065   4.473
 1686SOL    HW1 5957   2.365   6.020   4.385
 1686SOL    HW2 5958   2.454   6.130   4.465
 1687SOL     OW 5959   1.984   3.097   1.942
 1687SOL    HW1 5960   2.068   3.150   1.929
 1687SOL    HW2 5961   1.907   3.145   1.901
 1688SOL     OW 5962   2.178   2.492   4.126
 1688SOL    HW1 5963   2.144   2.520   4.216
 1688SOL    HW2 5964   2.155   2.396   4.110
 1689SOL     OW 5965   6.039   1.214   2.905
 1689SOL    HW1 5966   6.117   1.212   2.968
 1689SOL    HW2 5967   5.958   1.180   2.952
 1690SOL     OW 5968   1.500   3.066   4.334
 1690SOL    HW1 5969   1.467   3.105   4.420
 1690SOL    HW2 5970   1.430   3.005   4.296
 1691SOL     OW 5971   5.703   3.653   3.441
 1691SOL    HW1 5972   5.632   3.664   3.511
 1691SOL    HW2 5973   5.676   3.702   3.358
 1692SOL     OW 5974   5.261   6.560   1.460
 1692SOL    HW1 5975   5.336   6.500   1.430
 1692SOL    HW2 5976   5.297   6.626   1.526
 1693SOL     OW 5977   6.668   2.087   2.233
 1693SOL    HW1 5978   6.593   2.152   2.248
 1693SOL    HW2 5979   6.754   2.137   2.223
 1694SOL     OW 5980   5.537   1.320   2.791
 1694SOL    HW1 5981   5.627   1.357   2.769
 1694SOL    HW2 5982   5.488   1.383   2.851
 1695SOL     OW 5983   4.003   0.600   6.469
 1695SOL    HW1 5984   3.956   0.517   6.497
 1695SOL    HW2 5985   4.079   0.619   6.531
 1696SOL     OW 5986   4.221   5.564   0.938
 1696SOL    HW1 5987   4.285   5.632   0.973
 1696SOL    HW2 5988   4.261   5.517   0.859
 1697SOL     OW 5989   6.047   0.945   0.352
 1697SOL    HW1 5990   6.063   0.916   0.446
 1697SOL    HW2 5991   6.019   0.867   0.297
 1698SOL     OW 5992   3.470   0.223   0.043
 1698SOL    HW1 5993   3.561   0.214   0.083
 1698SOL    HW2 5994   3.416   0.287   0.097
 1699SOL     OW 5995   2.507   1.289   6.629
 1699SOL    HW1 5996   2.431   1.345   6.596
 1699SOL    HW2 5997   2.593   1.328   6.598
 1700SOL     OW 5998   6.339   3.867   3.497
 1700SOL    HW1 5999   6.325   3.909   3.587
 1700SOL    HW2 6000   6.250   3.849   3.455
 1701SOL     OW 6001   5.084   4.329   5.634
 1701SOL    HW1 6002   5.003   4.279   5.664
 1701SOL    HW2 6003   5.101   4.405   5.698
 1702SOL     OW 6004   6.139   1.305   0.342
 1702SOL    HW1 6005   6.179   1.394   0.319
 1702SOL    HW2 6006   6.187   1.267   0.421
 1703SOL     OW 6007   3.678   2.681   0.868
 1703SOL    HW1 6008   3.702   2.652   0.775
 1703SOL    HW2 6009   3.596   2.737   0.865
 1704SOL     OW 6010   1.299   1.813   1.346
 1704SOL    HW1 6011   1.261   1.881   1.409
 1704SOL    HW2 6012   1.235   1.737   1.336
 1705SOL     OW 6013   3.011   2.214   2.500
 1705SOL    HW1 6014   3.095   2.178   2.459
 1705SOL    HW2 6015   2.940   2.221   2.429
 1706SOL     OW 6016   4.967   1.104   2.411
 1706SOL    HW1 6017   4.936   1.110   2.316
 1706SOL    HW2 6018   5.045   1.164   2.425
 1707SOL     OW 6019   5.021   2.168   1.721
 1707SOL    HW1 6020   5.060   2.167   1.629
 1707SOL    HW2 6021   5.035   2.258   1.763
 1708SOL     OW 6022   4.915   5.466   2.307
 1708SOL    HW1 6023   4.869   5.429   2.388
 1708SOL    HW2 6024   4.905   5.565   2.306
 1709SOL     OW 6025   3.056   6.102   2.227
 1709SOL    HW1 6026   3.004   6.127   2.146
 1709SOL    HW2 6027   3.097   6.184   2.268
 1710SOL     OW 6028   4.941   4.563   3.768
 1710SOL    HW1 6029   4.977   4.649   3.731
 1710SOL    HW2 6030   4.949   4.565   3.868
 1711SOL     OW 6031   1.619   4.318   4.368
 1711SOL    HW1 6032   1.615   4.274   4.457
 1711SOL    HW2 6033   1.637   4.250   4.297
 1712SOL     OW 6034   6.501   2.242   4.866
 1712SOL    HW1 6035   6.475   2.257   4.962
 1712SOL    HW2 6036   6.466   2.153   4.837
 1713SOL     OW 6037   4.705   2.402   2.001
 1713SOL    HW1 6038   4.695   2.501   1.993
 1713SOL    HW2 6039   4.672   2.358   1.917
 1714SOL     OW 6040   3.609   1.021   5.570
 1714SOL    HW1 6041   3.592   1.116   5.545
 1714SOL    HW2 6042   3.537   0.963   5.531
 1715SOL     OW 6043   1.400   5.598   3.099
 1715SOL    HW1 6044   1.370   5.654   3.177
 1715SOL    HW2 6045   1.447   5.656   3.033
 1716SOL     OW 6046   5.133   0.323   2.831
 1716SOL    HW1 6047   5.048   0.271   2.830
 1716SOL    HW2 6048   5.169   0.327   2.924
 1717SOL     OW 6049   2.765   6.049   5.675
 1717SOL    HW1 6050   2.800   6.076   5.765
 1717SOL    HW2 6051   2.707   5.968   5.685
 1718SOL     OW 6052   2.650   1.532   1.691
 1718SOL    HW1 6053   2.630   1.447   1.641
 1718SOL    HW2 6054   2.700   1.595   1.631
 1719SOL     OW 6055   2.132   3.192   1.235
 1719SOL    HW1 6056   2.134   3.197   1.135
 1719SOL    HW2 6057   2.065   3.123   1.263
 1720SOL     OW 6058   0.077   2.807   0.298
 1720SOL    HW1 6059   0.176   2.794   0.292
 1720SOL    HW2 6060   0.043   2.765   0.382
 1721SOL     OW 6061   1.959   0.282   1.853
 1721SOL    HW1 6062   1.961   0.202   1.914
 1721SOL    HW2 6063   1.996   0.257   1.764
 1722SOL     OW 6064   3.403   1.251   3.086
 1722SOL    HW1 6065   3.386   1.173   3.026
 1722SOL    HW2 6066   3.434   1.219   3.175
 1723SOL     OW 6067   5.767   2.345   1.879
 1723SOL    HW1 6068   5.805   2.428   1.920
 1723SOL    HW2 6069   5.840   2.280   1.860
 1724SOL     OW 6070   6.638   3.053   2.120
 1724SOL    HW1 6071   6.667   2.988   2.190
 1724SOL    HW2 6072   6.545   3.083   2.138
 1725SOL     OW 6073   2.406   4.822   6.443
 1725SOL    HW1 6074   2.400   4.735   6.491
 1725SOL    HW2 6075   2.481   4.876   6.480
 1726SOL     OW 6076   6.594   4.622   5.122
 1726SOL    HW1 6077   6.495   4.628   5.139
 1726SOL    HW2 6078   6.614   4.658   5.031
 1727SOL     OW 6079   3.398   2.863   3.440
 1727SOL    HW1 6080   3.362   2.873   3.347
 1727SOL    HW2 6081   3.322   2.856   3.505
 1728SOL     OW 6082   5.194   4.929   4.929
 1728SOL    HW1 6083   5.184   4.875   4.846
 1728SOL    HW2 6084   5.274   4.989   4.920
 1729SOL     OW 6085   2.162   4.352   3.254
 1729SOL    HW1 6086   2.182   4.448   3.234
 1729SOL    HW2 6087   2.079   4.324   3.205
 1730SOL     OW 6088   1.321   6.941   5.553
 1730SOL    HW1 6089   1.286   6.849   5.535
 1730SOL    HW2 6090   1.421   6.939   5.556
 1731SOL     OW 6091   0.045   3.865   3.462
 1731SOL    HW1 6092   0.104   3.812   3.523
 1731SOL    HW2 6093   0.079   3.858   3.369
 1732SOL     OW 6094   2.439   5.107   5.790
 1732SOL    HW1 6095   2.516   5.153   5.833
 1732SOL    HW2 6096   2.467   5.016   5.759
 1733SOL     OW 6097   1.744   4.689   1.810
 1733SOL    HW1 6098   1.707   4.671   1.902
 1733SOL    HW2 6099   1.803   4.769   1.814
 1734SOL     OW 6100   4.827   3.166   1.424
 1734SOL    HW1 6101   4.787   3.152   1.515
 1734SOL    HW2 6102   4.762   3.212   1.365
 1735SOL     OW 6103   5.019   5.056   0.280
 1735SOL    HW1 6104   4.940   5.108   0.312
 1735SOL    HW2 6105   5.100   5.115   0.281
 1736SOL     OW 6106   3.291   4.025   0.337
 1736SOL    HW1 6107   3.356   4.000   0.265
 1736SOL    HW2 6108   3.203   4.049   0.296
 1737SOL     OW 6109   3.828   1.158   4.098
 1737SOL    HW1 6110   3.862   1.119   4.013
 1737SOL    HW2 6111   3.893   1.225   4.132
 1738SOL     OW 6112   1.756   2.946   4.299
 1738SOL    HW1 6113   1.659   2.923   4.308
 1738SOL    HW2 6114   1.781   3.012   4.369
 1739SOL     OW 6115   0.225   1.522   5.563
 1739SOL    HW1 6116   0.315   1.486   5.539
 1739SOL    HW2 6117   0.167   1.447   5.597
 1740SOL     OW 6118   6.900   2.292   5.934
 1740SOL    HW1 6119   6.904   2.356   6.011
 1740SOL    HW2 6120   6.992   2.263   5.909
 1741SOL     OW 6121   2.280   0.478   3.955
 1741SOL    HW1 6122   2.271   0.425   4.039
 1741SOL    HW2 6123   2.374   0.513   3.947
 1742SOL     OW 6124   5.541   0.835   6.417
 1742SOL    HW1 6125   5.593   0.758   6.380
 1742SOL    HW2 6126   5.444   0.811   6.419
 1743SOL     OW 6127   0.769   2.210   2.058
 1743SOL    HW1 6128   0.848   2.151   2.071
 1743SOL    HW2 6129   0.799   2.303   2.038
 1744SOL     OW 6130   6.157   2.657   3.531
 1744SOL    HW1 6131   6.143   2.644   3.432
 1744SOL    HW2 6132   6.154   2.569   3.577
 1745SOL     OW 6133   5.457   5.426   2.324
 1745SOL    HW1 6134   5.549   5.446   2.291
 1745SOL    HW2 6135   5.418   5.352   2.270
 1746SOL     OW 6136   1.612   3.883   4.644
 1746SOL    HW1 6137   1.588   3.821   4.718
 1746SOL    HW2 6138   1.709   3.872   4.621
 1747SOL     OW 6139   4.593   1.416   3.261
 1747SOL    HW1 6140   4.680   1.367   3.252
 1747SOL    HW2 6141   4.532   1.393   3.185
 1748SOL     OW 6142   0.716   1.204   5.314
 1748SOL    HW1 6143   0.629   1.177   5.355
 1748SOL    HW2 6144   0.788   1.199   5.383
 1749SOL     OW 6145   2.266   6.800   5.046
 1749SOL    HW1 6146   2.218   6.836   5.126
 1749SOL    HW2 6147   2.218   6.720   5.011
 1750SOL     OW 6148   5.099   6.119   4.153
 1750SOL    HW1 6149   5.010   6.079   4.129
 1750SOL    HW2 6150   5.110   6.206   4.105
 1751SOL     OW 6151   3.901   0.208   4.416
 1751SOL    HW1 6152   3.910   0.221   4.317
 1751SOL    HW2 6153   3.863   0.291   4.457
 1752SOL     OW 6154   6.324   1.960   2.461
 1752SOL    HW1 6155   6.307   2.058   2.472
 1752SOL    HW2 6156   6.388   1.929   2.532
 1753SOL     OW 6157   6.397   0.956   1.102
 1753SOL    HW1 6158   6.315   1.013   1.109
 1753SOL    HW2 6159   6.381   0.868   1.146
 1754SOL     OW 6160   1.420   4.446   6.773
 1754SOL    HW1 6161   1.442   4.377   6.704
 1754SOL    HW2 6162   1.505   4.479   6.814
 1755SOL     OW 6163   0.041   6.199   1.277
 1755SOL    HW1 6164   6.993   6.257   1.243
 1755SOL    HW2 6165   0.129   6.241   1.253
 1756SOL     OW 6166   4.394   5.335   5.759
 1756SOL    HW1 6167   4.493   5.348   5.751
 1756SOL    HW2 6168   4.371   5.310   5.853
 1757SOL     OW 6169   2.164   5.315   4.812
 1757SOL    HW1 6170   2.254   5.280   4.787
 1757SOL    HW2 6171   2.140   5.282   4.903
 1758SOL     OW 6172   2.796   0.773   4.359
 1758SOL    HW1 6173   2.771   0.780   4.455
 1758SOL    HW2 6174   2.714   0.755   4.304
 1759SOL     OW 6175   1.750   6.342   5.170
 1759SOL    HW1 6176   1.712   6.253   5.198
 1759SOL    HW2 6177   1.691   6.382   5.100
 1760SOL     OW 6178   5.403   1.425   3.469
 1760SOL    HW1 6179   5.373   1.329   3.466
 1760SOL    HW2 6180   5.361   1.475   3.394
 1761SOL     OW 6181   0.211   0.815   1.436
 1761SOL    HW1 6182   0.164   0.727   1.446
 1761SOL    HW2 6183   0.279   0.825   1.508
 1762SOL     OW 6184   1.088   1.204   4.211
 1762SOL    HW1 6185   1.072   1.286   4.265
 1762SOL    HW2 6186   1.001   1.160   4.189
 1763SOL     OW 6187   1.038   4.080   4.237
 1763SOL    HW1 6188   1.074   4.173   4.232
 1763SOL    HW2 6189   0.970   4.067   4.164
 1764SOL     OW 6190   2.087   3.324   2.412
 1764SOL    HW1 6191   1.991   3.304   2.391
 1764SOL    HW2 6192   2.140   3.240   2.412
 1765SOL     OW 6193   3.749   1.236   1.432
 1765SOL    HW1 6194   3.743   1.230   1.532
 1765SOL    HW2 6195   3.777   1.328   1.406
 1766SOL     OW 6196   5.247   4.661   2.850
 1766SOL    HW1 6197   5.252   4.742   2.908
 1766SOL    HW2 6198   5.318   4.665   2.780
 1767SOL     OW 6199   0.968   3.841   2.349
 1767SOL    HW1 6200   1.024   3.911   2.304
 1767SOL    HW2 6201   1.023   3.794   2.418
 1768SOL     OW 6202   3.602   1.362   6.716
 1768SOL    HW1 6203   3.568   1.416   6.639
 1768SOL    HW2 6204   3.572   1.403   6.802
 1769SOL     OW 6205   4.726   1.170   6.469
 1769SOL    HW1 6206   4.704   1.238   6.539
 1769SOL    HW2 6207   4.646   1.115   6.449
 1770SOL     OW 6208   6.792   4.662   4.745
 1770SOL    HW1 6209   6.816   4.571   4.779
 1770SOL    HW2 6210   6.692   4.673   4.747
 1771SOL     OW 6211   1.935   5.378   0.890
 1771SOL    HW1 6212   1.929   5.326   0.804
 1771SOL    HW2 6213   2.029   5.373   0.925
 1772SOL     OW 6214   3.325   6.653   3.285
 1772SOL    HW1 6215   3.251   6.609   3.235
 1772SOL    HW2 6216   3.401   6.589   3.295
 1773SOL     OW 6217   2.792   3.310   6.061
 1773SOL    HW1 6218   2.770   3.267   6.149
 1773SOL    HW2 6219   2.811   3.240   5.993
 1774SOL     OW 6220   4.797   6.481   1.648
 1774SOL    HW1 6221   4.889   6.515   1.628
 1774SOL    HW2 6222   4.786   6.470   1.747
 1775SOL     OW 6223   1.746   4.657   5.364
 1775SOL    HW1 6224   1.837   4.682   5.397
 1775SOL    HW2 6225   1.683   4.650   5.441
 1776SOL     OW 6226   5.264   0.997   6.077
 1776SOL    HW1 6227   5.207   1.058   6.133
 1776SOL    HW2 6228   5.288   1.043   5.992
 1777SOL     OW 6229   3.311   6.324   5.935
 1777SOL    HW1 6230   3.349   6.264   5.864
 1777SOL    HW2 6231   3.375   6.329   6.011
 1778SOL     OW 6232   4.633   2.075   4.507
 1778SOL    HW1 6233   4.731   2.071   4.490
 1778SOL    HW2 6234   4.614   2.045   4.601
 1779SOL     OW 6235   3.977   1.363   4.769
 1779SOL    HW1 6236   4.043   1.437   4.758
 1779SOL    HW2 6237   4.007   1.302   4.843
 1780SOL     OW 6238   2.471   4.147   6.165
 1780SOL    HW1 6239   2.384   4.135   6.118
 1780SOL    HW2 6240   2.487   4.244   6.183
 1781SOL     OW 6241   5.282   5.188   3.973
 1781SOL    HW1 6242   5.354   5.132   4.015
 1781SOL    HW2 6243   5.239   5.244   4.044
 1782SOL     OW 6244   3.289   1.772   3.570
 1782SOL    HW1 6245   3.251   1.685   3.539
 1782SOL    HW2 6246   3.227   1.847   3.543
 1783SOL     OW 6247   2.381   3.257   6.138
 1783SOL    HW1 6248   2.362   3.352   6.163
 1783SOL    HW2 6249   2.452   3.253   6.068
 1784SOL     OW 6250   2.353   1.423   2.107
 1784SOL    HW1 6251   2.430   1.455   2.052
 1784SOL    HW2 6252   2.381   1.342   2.159
 1785SOL     OW 6253   6.086   6.112   3.383
 1785SOL    HW1 6254   6.167   6.147   3.337
 1785SOL    HW2 6255   6.112   6.079   3.474
 1786SOL     OW 6256   1.260   3.734   0.782
 1786SOL    HW1 6257   1.325   3.783   0.839
 1786SOL    HW2 6258   1.236   3.791   0.703
 1787SOL     OW 6259   2.694   1.500   5.256
 1787SOL    HW1 6260   2.635   1.575   5.287
 1787SOL    HW2 6261   2.754   1.533   5.184
 1788SOL     OW 6262   3.834   4.253   0.151
 1788SOL    HW1 6263   3.836   4.170   0.208
 1788SOL    HW2 6264   3.763   4.244   0.081
 1789SOL     OW 6265   5.360   3.064   2.404
 1789SOL    HW1 6266   5.282   3.032   2.459
 1789SOL    HW2 6267   5.407   2.984   2.365
 1790SOL     OW 6268   3.820   0.540   4.432
 1790SOL    HW1 6269   3.803   0.526   4.335
 1790SOL    HW2 6270   3.842   0.636   4.448
 1791SOL     OW 6271   6.599   1.204   4.554
 1791SOL    HW1 6272   6.698   1.204   4.570
 1791SOL    HW2 6273   6.552   1.210   4.642
 1792SOL     OW 6274   0.823   1.390   4.751
 1792SOL    HW1 6275   0.724   1.377   4.754
 1792SOL    HW2 6276   0.865   1.344   4.829
 1793SOL     OW 6277   6.268   0.845   3.840
 1793SOL    HW1 6278   6.225   0.828   3.929
 1793SOL    HW2 6279   6.200   0.876   3.775
 1794SOL     OW 6280   4.738   6.117   6.005
 1794SOL    HW1 6281   4.709   6.168   5.924
 1794SOL    HW2 6282   4.761   6.181   6.078
 1795SOL     OW 6283   6.477   5.349   2.044
 1795SOL    HW1 6284   6.575   5.336   2.062
 1795SOL    HW2 6285   6.425   5.283   2.098
 1796SOL     OW 6286   2.159   0.888   4.758
 1796SOL    HW1 6287   2.114   0.809   4.798
 1796SOL    HW2 6288   2.237   0.914   4.815
 1797SOL     OW 6289   1.368   6.636   5.531
 1797SOL    HW1 6290   1.441   6.587   5.579
 1797SOL    HW2 6291   1.323   6.575   5.466
 1798SOL     OW 6292   4.267   3.177   5.329
 1798SOL    HW1 6293   4.289   3.226   5.413
 1798SOL    HW2 6294   4.228   3.240   5.262
 1799SOL     OW 6295   5.871   3.016   6.556
 1799SOL    HW1 6296   5.928   3.097   6.566
 1799SOL    HW2 6297   5.817   3.023   6.472
 1800SOL     OW 6298   4.875   4.592   3.244
 1800SOL    HW1 6299   4.902   4.554   3.333
 1800SOL    HW2 6300   4.923   4.678   3.229
 1801SOL     OW 6301   1.315   1.597   3.029
 1801SOL    HW1 6302   1.279   1.563   3.115
 1801SOL    HW2 6303   1.348   1.691   3.040
 1802SOL     OW 6304   6.170   6.639   3.056
 1802SOL    HW1 6305   6.246   6.582   3.024
 1802SOL    HW2 6306   6.093   6.579   3.081
 1803SOL     OW 6307   6.565   6.774   2.120
 1803SOL    HW1 6308   6.594   6.844   2.055
 1803SOL    HW2 6309   6.507   6.816   2.190
 1804SOL     OW 6310   3.715   3.131   5.341
 1804SOL    HW1 6311   3.629   3.179   5.360
 1804SOL    HW2 6312   3.749   3.088   5.424
 1805SOL     OW 6313   1.371   4.581   6.144
 1805SOL    HW1 6314   1.387   4.680   6.148
 1805SOL    HW2 6315   1.353   4.554   6.049
 1806SOL     OW 6316   0.939   2.206   1.754
 1806SOL    HW1 6317   0.906   2.113   1.737
 1806SOL    HW2 6318   0.867   2.272   1.733
 1807SOL     OW 6319   6.260   2.201   6.369
 1807SOL    HW1 6320   6.203   2.148   6.306
 1807SOL    HW2 6321   6.205   2.275   6.409
 1808SOL     OW 6322   5.547   4.844   4.389
 1808SOL    HW1 6323   5.603   4.834   4.471
 1808SOL    HW2 6324   5.494   4.760   4.373
 1809SOL     OW 6325   2.734   2.359   5.156
 1809SOL    HW1 6326   2.792   2.282   5.130
 1809SOL    HW2 6327   2.646   2.352   5.109
 1810SOL     OW 6328   1.336   0.112   4.440
 1810SOL    HW1 6329   1.435   0.103   4.428
 1810SOL    HW2 6330   1.307   0.204   4.412
 1811SOL     OW 6331   4.782   4.574   2.712
 1811SOL    HW1 6332   4.765   4.502   2.780
 1811SOL    HW2 6333   4.877   4.571   2.683
 1812SOL     OW 6334   4.844   6.830   6.166
 1812SOL    HW1 6335   4.877   6.746   6.125
 1812SOL    HW2 6336   4.745   6.836   6.154
 1813SOL     OW 6337   4.874   5.141   1.565
 1813SOL    HW1 6338   4.885   5.060   1.508
 1813SOL    HW2 6339   4.891   5.117   1.661
 1814SOL     OW 6340   6.163   0.282   0.756
 1814SOL    HW1 6341   6.189   0.193   0.720
 1814SOL    HW2 6342   6.242   0.344   0.752
 1815SOL     OW 6343   6.117   0.517   2.966
 1815SOL    HW1 6344   6.117   0.435   3.024
 1815SOL    HW2 6345   6.103   0.490   2.871
 1816SOL     OW 6346   2.759   5.023   0.250
 1816SOL    HW1 6347   2.770   4.926   0.270
 1816SOL    HW2 6348   2.834   5.075   0.290
 1817SOL     OW 6349   4.097   0.440   3.164
 1817SOL    HW1 6350   4.151   0.524   3.158
 1817SOL    HW2 6351   4.000   0.463   3.169
 1818SOL     OW 6352   2.063   6.660   1.001
 1818SOL    HW1 6353   2.126   6.659   1.079
 1818SOL    HW2 6354   2.020   6.750   0.994
 1819SOL     OW 6355   1.630   6.670   1.916
 1819SOL    HW1 6356   1.722   6.673   1.877
 1819SOL    HW2 6357   1.584   6.757   1.900
 1820SOL     OW 6358   3.674   0.383   2.594
 1820SOL    HW1 6359   3.615   0.444   2.541
 1820SOL    HW2 6360   3.665   0.290   2.559
 1821SOL     OW 6361   2.536   1.342   1.510
 1821SOL    HW1 6362   2.437   1.345   1.516
 1821SOL    HW2 6363   2.566   1.398   1.433
 1822SOL     OW 6364   0.686   2.553   1.813
 1822SOL    HW1 6365   0.738   2.520   1.734
 1822SOL    HW2 6366   0.591   2.525   1.804
 1823SOL     OW 6367   3.117   6.271   3.077
 1823SOL    HW1 6368   3.140   6.243   3.170
 1823SOL    HW2 6369   3.041   6.216   3.044
 1824SOL     OW 6370   4.139   4.155   0.686
 1824SOL    HW1 6371   4.096   4.065   0.694
 1824SOL    HW2 6372   4.074   4.226   0.714
 1825SOL     OW 6373   0.816   2.361   4.600
 1825SOL    HW1 6374   0.855   2.269   4.602
 1825SOL    HW2 6375   0.825   2.399   4.509
 1826SOL     OW 6376   3.286   1.864   1.491
 1826SOL    HW1 6377   3.268   1.897   1.398
 1826SOL    HW2 6378   3.346   1.928   1.538
 1827SOL     OW 6379   6.530   5.179   1.219
 1827SOL    HW1 6380   6.593   5.174   1.142
 1827SOL    HW2 6381   6.446   5.226   1.191
 1828SOL     OW 6382   1.453   2.856   6.834
 1828SOL    HW1 6383   1.499   2.916   6.768
 1828SOL    HW2 6384   1.512   2.845   6.914
 1829SOL     OW 6385   4.200   0.998   3.036
 1829SOL    HW1 6386   4.149   0.981   2.952
 1829SOL    HW2 6387   4.141   1.047   3.101
 1830SOL     OW 6388   5.565   5.998   4.936
 1830SOL    HW1 6389   5.540   6.076   4.878
 1830SOL    HW2 6390   5.647   6.021   4.988
 1831SOL     OW 6391   5.687   6.279   2.139
 1831SOL    HW1 6392   5.765   6.286   2.077
 1831SOL    HW2 6393   5.707   6.330   2.223
 1832SOL     OW 6394   4.219   1.604   0.765
 1832SOL    HW1 6395   4.272   1.662   0.828
 1832SOL    HW2 6396   4.263   1.515   0.756
 1833SOL     OW 6397   5.411   0.574   1.804
 1833SOL    HW1 6398   5.398   0.655   1.861
 1833SOL    HW2 6399   5.370   0.494   1.849
 1834SOL     OW 6400   2.086   4.056   0.465
 1834SOL    HW1 6401   1.999   4.086   0.427
 1834SOL    HW2 6402   2.161   4.098   0.415
 1835SOL     OW 6403   0.194   4.919   1.871
 1835SOL    HW1 6404   0.207   5.018   1.858
 1835SOL    HW2 6405   0.271   4.882   1.923
 1836SOL     OW 6406   5.550   2.447   1.717
 1836SOL    HW1 6407   5.551   2.495   1.629
 1836SOL    HW2 6408   5.641   2.451   1.758
 1837SOL     OW 6409   1.068   6.952   5.286
 1837SOL    HW1 6410   1.009   6.959   5.206
 1837SOL    HW2 6411   1.154   6.999   5.269
 1838SOL     OW 6412   6.094   0.998   5.244
 1838SOL    HW1 6413   6.071   0.919   5.300
 1838SOL    HW2 6414   6.086   1.081   5.299
 1839SOL     OW 6415   0.468   1.291   5.407
 1839SOL    HW1 6416   0.496   1.385   5.428
 1839SOL    HW2 6417   0.436   1.287   5.312
 1840SOL     OW 6418   4.087   0.086   1.788
 1840SOL    HW1 6419   4.099   7.016   1.767
 1840SOL    HW2 6420   4.019   0.096   1.861
 1841SOL     OW 6421   2.705   0.951   3.312
 1841SOL    HW1 6422   2.615   0.953   3.271
 1841SOL    HW2 6423   2.701   0.903   3.400
 1842SOL     OW 6424   1.386   5.759   1.199
 1842SOL    HW1 6425   1.352   5.669   1.226
 1842SOL    HW2 6426   1.474   5.777   1.244
 1843SOL     OW 6427   5.884   0.516   4.830
 1843SOL    HW1 6428   5.913   0.429   4.871
 1843SOL    HW2 6429   5.796   0.544   4.869
 1844SOL     OW 6430   3.422   0.035   4.975
 1844SOL    HW1 6431   3.338   0.004   5.019
 1844SOL    HW2 6432   3.404   0.057   4.880
 1845SOL     OW 6433   2.364   6.583   4.625
 1845SOL    HW1 6434   2.339   6.666   4.674
 1845SOL    HW2 6435   2.454   6.551   4.657
 1846SOL     OW 6436   3.771   1.043   2.496
 1846SOL    HW1 6437   3.818   1.044   2.408
 1846SOL    HW2 6438   3.719   1.128   2.507
 1847SOL     OW 6439   1.730   0.155   5.748
 1847SOL    HW1 6440   1.799   0.141   5.819
 1847SOL    HW2 6441   1.670   0.230   5.775
 1848SOL     OW 6442   2.072   6.320   2.899
 1848SOL    HW1 6443   2.075   6.419   2.887
 1848SOL    HW2 6444   2.032   6.278   2.817
 1849SOL     OW 6445   4.727   2.414   1.518
 1849SOL    HW1 6446   4.733   2.492   1.580
 1849SOL    HW2 6447   4.758   2.442   1.427
 1850SOL     OW 6448   0.050   2.412   1.948
 1850SOL    HW1 6449   0.021   2.337   2.007
 1850SOL    HW2 6450   6.997   2.461   1.914
 1851SOL     OW 6451   0.878   3.521   6.912
 1851SOL    HW1 6452   0.802   3.458   6.901
 1851SOL    HW2 6453   0.909   3.519   7.008
 1852SOL     OW 6454   6.983   4.520   2.507
 1852SOL    HW1 6455   0.021   4.456   2.465
 1852SOL    HW2 6456   6.973   4.601   2.449
 1853SOL     OW 6457   6.712   2.521   3.325
 1853SOL    HW1 6458   6.657   2.545   3.405
 1853SOL    HW2 6459   6.741   2.605   3.279
 1854SOL     OW 6460   1.808   5.534   2.578
 1854SOL    HW1 6461   1.873   5.461   2.563
 1854SOL    HW2 6462   1.812   5.599   2.502
 1855SOL     OW 6463   5.937   3.625   5.676
 1855SOL    HW1 6464   5.853   3.580   5.706
 1855SOL    HW2 6465   5.945   3.618   5.577
 1856SOL     OW 6466   4.904   3.198   5.856
 1856SOL    HW1 6467   4.965   3.254   5.799
 1856SOL    HW2 6468   4.943   3.106   5.864
 1857SOL     OW 6469   4.059   2.114   0.538
 1857SOL    HW1 6470   3.962   2.091   0.533
 1857SOL    HW2 6471   4.113   2.039   0.500
 1858SOL     OW 6472   5.480   3.257   3.283
 1858SOL    HW1 6473   5.482   3.279   3.185
 1858SOL    HW2 6474   5.526   3.329   3.334
 1859SOL     OW 6475   4.749   1.790   3.746
 1859SOL    HW1 6476   4.706   1.879   3.736
 1859SOL    HW2 6477   4.721   1.730   3.671
 1860SOL     OW 6478   0.397   1.278   5.096
 1860SOL    HW1 6479   0.382   1.372   5.067
 1860SOL    HW2 6480   0.457   1.232   5.031
 1861SOL     OW 6481   5.456   0.475   2.512
 1861SOL    HW1 6482   5.420   0.542   2.447
 1861SOL    HW2 6483   5.489   0.522   2.594
 1862SOL     OW 6484   2.608   0.077   6.264
 1862SOL    HW1 6485   2.594   0.010   6.191
 1862SOL    HW2 6486   2.607   0.169   6.224
 1863SOL     OW 6487   7.021   2.930   3.683
 1863SOL    HW1 6488   7.007   2.831   3.679
 1863SOL    HW2 6489   7.026   2.966   3.590
 1864SOL     OW 6490   3.043   5.848   4.739
 1864SOL    HW1 6491   3.024   5.803   4.651
 1864SOL    HW2 6492   3.111   5.795   4.789
 1865SOL     OW 6493   3.861   0.461   0.202
 1865SOL    HW1 6494   3.888   0.490   0.294
 1865SOL    HW2 6495   3.940   0.423   0.154
 1866SOL     OW 6496   6.741   4.717   3.614
 1866SOL    HW1 6497   6.656   4.723   3.560
 1866SOL    HW2 6498   6.779   4.808   3.627
 1867SOL     OW 6499   1.821   3.977   1.224
 1867SOL    HW1 6500   1.859   4.061   1.185
 1867SOL    HW2 6501   1.756   4.001   1.297
 1868SOL     OW 6502   4.965   3.109   6.447
 1868SOL    HW1 6503   4.955   3.010   6.443
 1868SOL    HW2 6504   5.057   3.132   6.480
 1869SOL     OW 6505   6.630   3.067   5.108
 1869SOL    HW1 6506   6.671   3.033   5.023
 1869SOL    HW2 6507   6.562   3.002   5.141
 1870SOL     OW 6508   1.334   3.361   5.030
 1870SOL    HW1 6509   1.362   3.278   4.981
 1870SOL    HW2 6510   1.414   3.415   5.054
 1871SOL     OW 6511   0.351   0.470   0.479
 1871SOL    HW1 6512   0.307   0.400   0.536
 1871SOL    HW2 6513   0.358   0.437   0.385
 1872SOL     OW 6514   4.398   2.196   0.132
 1872SOL    HW1 6515   4.318   2.252   0.157
 1872SOL    HW2 6516   4.371   2.100   0.129
 1873SOL     OW 6517   6.078   0.584   5.796
 1873SOL    HW1 6518   6.006   0.611   5.858
 1873SOL    HW2 6519   6.087   0.651   5.723
 1874SOL     OW 6520   1.739   1.498   6.712
 1874SOL    HW1 6521   1.691   1.543   6.787
 1874SOL    HW2 6522   1.779   1.566   6.651
 1875SOL     OW 6523   6.402   0.468   0.711
 1875SOL    HW1 6524   6.468   0.400   0.745
 1875SOL    HW2 6525   6.426   0.558   0.748
 1876SOL     OW 6526   3.678   5.675   6.476
 1876SOL    HW1 6527   3.727   5.615   6.539
 1876SOL    HW2 6528   3.631   5.619   6.407
 1877SOL     OW 6529   1.322   1.757   3.717
 1877SOL    HW1 6530   1.352   1.829   3.654
 1877SOL    HW2 6531   1.323   1.669   3.669
 1878SOL     OW 6532   6.910   3.120   4.081
 1878SOL    HW1 6533   6.856   3.114   3.997
 1878SOL    HW2 6534   7.004   3.092   4.062
 1879SOL     OW 6535   2.680   6.204   4.189
 1879SOL    HW1 6536   2.648   6.299   4.193
 1879SOL    HW2 6537   2.603   6.142   4.201
 1880SOL     OW 6538   0.259   1.966   3.082
 1880SOL    HW1 6539   0.327   1.893   3.094
 1880SOL    HW2 6540   0.183   1.951   3.147
 1881SOL     OW 6541   1.468   1.903   3.936
 1881SOL    HW1 6542   1.449   1.837   3.864
 1881SOL    HW2 6543   1.385   1.920   3.989
 1882SOL     OW 6544   1.084   4.713   6.828
 1882SOL    HW1 6545   1.074   4.805   6.866
 1882SOL    HW2 6546   1.067   4.715   6.730
 1883SOL     OW 6547   1.045   3.466   3.509
 1883SOL    HW1 6548   1.029   3.481   3.607
 1883SOL    HW2 6549   1.128   3.515   3.482
 1884SOL     OW 6550   5.916   2.551   1.269
 1884SOL    HW1 6551   5.923   2.457   1.238
 1884SOL    HW2 6552   5.896   2.553   1.366
 1885SOL     OW 6553   0.397   2.198   0.301
 1885SOL    HW1 6554   0.396   2.210   0.400
 1885SOL    HW2 6555   0.491   2.180   0.270
 1886SOL     OW 6556   2.817   1.806   0.778
 1886SOL    HW1 6557   2.734   1.751   0.793
 1886SOL    HW2 6558   2.860   1.826   0.866
 1887SOL     OW 6559   0.403   4.798   5.588
 1887SOL    HW1 6560   0.423   4.753   5.501
 1887SOL    HW2 6561   0.456   4.882   5.596
 1888SOL     OW 6562   3.171   2.030   6.450
 1888SOL    HW1 6563   3.167   2.096   6.374
 1888SOL    HW2 6564   3.078   2.004   6.475
 1889SOL     OW 6565   5.769   2.172   6.199
 1889SOL    HW1 6566   5.825   2.255   6.191
 1889SOL    HW2 6567   5.821   2.101   6.246
 1890SOL     OW 6568   1.281   5.401   5.371
 1890SOL    HW1 6569   1.223   5.389   5.290
 1890SOL    HW2 6570   1.301   5.311   5.411
 1891SOL     OW 6571   5.352   3.334   4.312
 1891SOL    HW1 6572   5.343   3.433   4.317
 1891SOL    HW2 6573   5.280   3.291   4.367
 1892SOL     OW 6574   3.781   0.242   0.726
 1892SOL    HW1 6575   3.770   0.242   0.826
 1892SOL    HW2 6576   3.692   0.252   0.683
 1893SOL     OW 6577   3.270   1.638   5.938
 1893SOL    HW1 6578   3.247   1.734   5.920
 1893SOL    HW2 6579   3.321   1.632   6.024
 1894SOL     OW 6580   3.700   3.928   2.159
 1894SOL    HW1 6581   3.769   3.971   2.100
 1894SOL    HW2 6582   3.612   3.976   2.148
 1895SOL     OW 6583   5.170   1.114   2.679
 1895SOL    HW1 6584   5.183   1.192   2.618
 1895SOL    HW2 6585   5.072   1.101   2.695
 1896SOL     OW 6586   0.606   0.235   3.281
 1896SOL    HW1 6587   0.557   0.284   3.353
 1896SOL    HW2 6588   0.705   0.251   3.292
 1897SOL     OW 6589   0.653   5.145   2.368
 1897SOL    HW1 6590   0.707   5.071   2.407
 1897SOL    HW2 6591   0.597   5.188   2.439
 1898SOL     OW 6592   3.074   4.840   2.251
 1898SOL    HW1 6593   2.989   4.888   2.230
 1898SOL    HW2 6594   3.139   4.853   2.176
 1899SOL     OW 6595   0.903   2.216   2.448
 1899SOL    HW1 6596   0.960   2.143   2.485
 1899SOL    HW2 6597   0.957   2.270   2.383
 1900SOL     OW 6598   1.214   0.076   5.078
 1900SOL    HW1 6599   1.202   0.156   5.136
 1900SOL    HW2 6600   1.161   0.087   4.994
 1901SOL     OW 6601   2.241   1.372   1.502
 1901SOL    HW1 6602   2.256   1.361   1.404
 1901SOL    HW2 6603   2.201   1.463   1.520
 1902SOL     OW 6604   2.723   2.382   4.678
 1902SOL    HW1 6605   2.660   2.452   4.711
 1902SOL    HW2 6606   2.817   2.412   4.694
 1903SOL     OW 6607   6.745   4.269   3.723
 1903SOL    HW1 6608   6.752   4.219   3.809
 1903SOL    HW2 6609   6.837   4.295   3.693
 1904SOL     OW 6610   6.147   6.495   3.925
 1904SOL    HW1 6611   6.139   6.409   3.974
 1904SOL    HW2 6612   6.109   6.569   3.980
 1905SOL     OW 6613   1.788   1.162   4.573
 1905SOL    HW1 6614   1.836   1.246   4.549
 1905SOL    HW2 6615   1.712   1.148   4.509
 1906SOL     OW 6616   2.984   0.102   5.147
 1906SOL    HW1 6617   2.991   0.037   5.070
 1906SOL    HW2 6618   2.991   0.052   5.233
 1907SOL     OW 6619   3.378   0.135   3.436
 1907SOL    HW1 6620   3.340   0.218   3.395
 1907SOL    HW2 6621   3.335   0.055   3.395
 1908SOL     OW 6622   4.232   0.912   5.020
 1908SOL    HW1 6623   4.264   0.943   4.931
 1908SOL    HW2 6624   4.227   0.989   5.083
 1909SOL     OW 6625   1.248   4.160   2.666
 1909SOL    HW1 6626   1.286   4.209   2.744
 1909SOL    HW2 6627   1.250   4.061   2.684
 1910SOL     OW 6628   0.227   2.667   6.893
 1910SOL    HW1 6629   0.301   2.732   6.906
 1910SOL    HW2 6630   0.141   2.708   6.924
 1911SOL     OW 6631   6.058   2.764   5.685
 1911SOL    HW1 6632   5.989   2.764   5.612
 1911SOL    HW2 6633   6.090   2.671   5.701
 1912SOL     OW 6634   3.638   0.030   1.082
 1912SOL    HW1 6635   3.569   0.005   1.150
 1912SOL    HW2 6636   3.652   6.980   1.019
 1913SOL     OW 6637   1.193   5.831   5.631
 1913SOL    HW1 6638   1.192   5.886   5.547
 1913SOL    HW2 6639   1.182   5.891   5.710
 1914SOL     OW 6640   3.540   2.313   6.998
 1914SOL    HW1 6641   3.640   2.319   7.009
 1914SOL    HW2 6642   3.509   2.387   6.938
 1915SOL     OW 6643   3.717   1.666   5.193
 1915SOL    HW1 6644   3.742   1.726   5.117
 1915SOL    HW2 6645   3.665   1.588   5.159
 1916SOL     OW 6646   3.673   6.171   1.162
 1916SOL    HW1 6647   3.728   6.138   1.239
 1916SOL    HW2 6648   3.621   6.094   1.123
 1917SOL     OW 6649   3.381   3.023   4.161
 1917SOL    HW1 6650   3.362   3.065   4.072
 1917SOL    HW2 6651   3.478   3.000   4.167
 1918SOL     OW 6652   0.745   1.172   6.969
 1918SOL    HW1 6653   0.810   1.179   0.017
 1918SOL    HW2 6654   0.793   1.182   6.882
 1919SOL     OW 6655   2.351   0.377   1.663
 1919SOL    HW1 6656   2.335   0.354   1.759
 1919SOL    HW2 6657   2.401   0.463   1.657
 1920SOL     OW 6658   1.349   5.396   2.856
 1920SOL    HW1 6659   1.324   5.419   2.950
 1920SOL    HW2 6660   1.391   5.475   2.812
 1921SOL     OW 6661   1.473   4.435   0.174
 1921SOL    HW1 6662   1.550   4.462   0.231
 1921SOL    HW2 6663   1.470   4.335   0.167
 1922SOL     OW 6664   3.152   4.327   0.834
 1922SOL    HW1 6665   3.240   4.282   0.852
 1922SOL    HW2 6666   3.077   4.263   0.851
 1923SOL     OW 6667   3.405   1.142   6.164
 1923SOL    HW1 6668   3.312   1.143   6.127
 1923SOL    HW2 6669   3.470   1.129   6.089
 1924SOL     OW 6670   4.917   5.075   1.815
 1924SOL    HW1 6671   4.990   5.123   1.866
 1924SOL    HW2 6672   4.920   4.978   1.837
 1925SOL     OW 6673   2.503   3.725   0.950
 1925SOL    HW1 6674   2.535   3.696   0.860
 1925SOL    HW2 6675   2.518   3.824   0.960
 1926SOL     OW 6676   1.289   6.813   2.918
 1926SOL    HW1 6677   1.258   6.850   2.831
 1926SOL    HW2 6678   1.233   6.851   2.992
 1927SOL     OW 6679   3.160   4.889   6.547
 1927SOL    HW1 6680   3.259   4.873   6.542
 1927SOL    HW2 6681   3.136   4.967   6.490
 1928SOL     OW 6682   0.066   3.549   5.703
 1928SOL    HW1 6683   0.052   3.548   5.604
 1928SOL    HW2 6684   0.044   3.640   5.739
 1929SOL     OW 6685   0.892   6.061   1.769
 1929SOL    HW1 6686   0.938   6.045   1.681
 1929SOL    HW2 6687   0.828   5.987   1.787
 1930SOL     OW 6688   3.645   4.005   6.921
 1930SOL    HW1 6689   3.741   4.000   6.896
 1930SOL    HW2 6690   3.623   4.098   6.951
 1931SOL     OW 6691   6.956   2.994   2.402
 1931SOL    HW1 6692   6.975   3.092   2.410
 1931SOL    HW2 6693   0.009   2.948   2.362
 1932SOL     OW 6694   4.991   3.500   3.326
 1932SOL    HW1 6695   4.965   3.444   3.248
 1932SOL    HW2 6696   4.985   3.445   3.410
 1933SOL     OW 6697   2.585   4.568   0.894
 1933SOL    HW1 6698   2.635   4.482   0.907
 1933SOL    HW2 6699   2.512   4.555   0.827
 1934SOL     OW 6700   0.919   0.303   4.938
 1934SOL    HW1 6701   0.928   0.258   5.027
 1934SOL    HW2 6702   0.906   0.402   4.952
 1935SOL     OW 6703   3.724   6.667   4.557
 1935SOL    HW1 6704   3.669   6.749   4.541
 1935SOL    HW2 6705   3.664   6.588   4.566
 1936SOL     OW 6706   6.344   3.810   4.097
 1936SOL    HW1 6707   6.372   3.813   4.193
 1936SOL    HW2 6708   6.414   3.764   4.043
 1937SOL     OW 6709   4.901   0.280   0.748
 1937SOL    HW1 6710   4.948   0.194   0.725
 1937SOL    HW2 6711   4.953   0.357   0.714
 1938SOL     OW 6712   2.643   0.846   1.857
 1938SOL    HW1 6713   2.738   0.845   1.886
 1938SOL    HW2 6714   2.635   0.896   1.770
 1939SOL     OW 6715   0.435   0.016   4.685
 1939SOL    HW1 6716   0.346   0.025   4.640
 1939SOL    HW2 6717   0.501   0.077   4.641
 1940SOL     OW 6718   4.671   4.596   0.031
 1940SOL    HW1 6719   4.736   4.522   0.016
 1940SOL    HW2 6720   4.643   4.634   6.970
 1941SOL     OW 6721   0.278   4.614   3.141
 1941SOL    HW1 6722   0.308   4.581   3.230
 1941SOL    HW2 6723   0.178   4.616   3.138
 1942SOL     OW 6724   5.256   0.385   1.559
 1942SOL    HW1 6725   5.309   0.341   1.486
 1942SOL    HW2 6726   5.287   0.479   1.570
 1943SOL     OW 6727   2.464   6.480   2.152
 1943SOL    HW1 6728   2.378   6.507   2.110
 1943SOL    HW2 6729   2.525   6.442   2.083
 1944SOL     OW 6730   5.711   2.424   0.634
 1944SOL    HW1 6731   5.684   2.421   0.730
 1944SOL    HW2 6732   5.630   2.421   0.576
 1945SOL     OW 6733   3.454   5.484   1.849
 1945SOL    HW1 6734   3.362   5.449   1.832
 1945SOL    HW2 6735   3.500   5.501   1.762
 1946SOL     OW 6736   6.703   0.095   1.388
 1946SOL    HW1 6737   6.674   0.189   1.408
 1946SOL    HW2 6738   6.719   0.046   1.473
 1947SOL     OW 6739   4.204   6.880   4.900
 1947SOL    HW1 6740   4.255   6.965   4.915
 1947SOL    HW2 6741   4.216   6.850   4.805
 1948SOL     OW 6742   5.866   5.697   3.741
 1948SOL    HW1 6743   5.880   5.616   3.799
 1948SOL    HW2 6744   5.771   5.700   3.711
 1949SOL     OW 6745   3.567   4.397   6.505
 1949SOL    HW1 6746   3.478   4.442   6.501
 1949SOL    HW2 6747   3.567   4.320   6.440
 1950SOL     OW 6748   4.013   4.311   0.912
 1950SOL    HW1 6749   4.059   4.300   0.999
 1950SOL    HW2 6750   3.999   4.408   0.893
 1951SOL     OW 6751   5.920   4.280   6.735
 1951SOL    HW1 6752   5.882   4.189   6.717
 1951SOL    HW2 6753   5.874   4.319   6.815
 1952SOL     OW 6754   4.326   2.442   0.336
 1952SOL    HW1 6755   4.417   2.411   0.363
 1952SOL    HW2 6756   4.265   2.440   0.416
 1953SOL     OW 6757   5.704   1.834   0.171
 1953SOL    HW1 6758   5.678   1.929   0.155
 1953SOL    HW2 6759   5.791   1.832   0.220
 1954SOL     OW 6760   5.527   1.268   3.704
 1954SOL    HW1 6761   5.513   1.339   3.773
 1954SOL    HW2 6762   5.443   1.255   3.653
 1955SOL     OW 6763   0.944   1.275   2.420
 1955SOL    HW1 6764   1.036   1.265   2.458
 1955SOL    HW2 6765   0.948   1.334   2.340
 1956SOL     OW 6766   4.882   6.600   2.572
 1956SOL    HW1 6767   4.885   6.637   2.480
 1956SOL    HW2 6768   4.835   6.512   2.572
 1957SOL     OW 6769   6.080   5.126   4.376
 1957SOL    HW1 6770   6.009   5.178   4.329
 1957SOL    HW2 6771   6.153   5.103   4.312
 1958SOL     OW 6772   5.043   2.105   2.765
 1958SOL    HW1 6773   5.043   2.191   2.715
 1958SOL    HW2 6774   5.073   2.031   2.705
 1959SOL     OW 6775   0.552   1.203   4.801
 1959SOL    HW1 6776   0.575   1.143   4.878
 1959SOL    HW2 6777   0.555   1.151   4.716
 1960SOL     OW 6778   6.400   4.432   2.146
 1960SOL    HW1 6779   6.382   4.366   2.219
 1960SOL    HW2 6780   6.404   4.384   2.059
 1961SOL     OW 6781   5.904   4.347   4.182
 1961SOL    HW1 6782   5.887   4.386   4.092
 1961SOL    HW2 6783   5.832   4.281   4.204
 1962SOL     OW 6784   2.245   6.779   3.734
 1962SOL    HW1 6785   2.162   6.726   3.713
 1962SOL    HW2 6786   2.219   6.862   3.784
 1963SOL     OW 6787   0.729   1.530   2.017
 1963SOL    HW1 6788   0.710   1.602   2.084
 1963SOL    HW2 6789   0.689   1.444   2.050
 1964SOL     OW 6790   4.574   4.056   0.652
 1964SOL    HW1 6791   4.571   4.142   0.600
 1964SOL    HW2 6792   4.645   3.997   0.613
 1965SOL     OW 6793   0.983   3.389   4.725
 1965SOL    HW1 6794   0.966   3.390   4.627
 1965SOL    HW2 6795   1.081   3.398   4.743
 1966SOL     OW 6796   6.690   6.575   0.495
 1966SOL    HW1 6797   6.622   6.631   0.447
 1966SOL    HW2 6798   6.781   6.613   0.480
 1967SOL     OW 6799   5.683   2.413   5.497
 1967SOL    HW1 6800   5.666   2.440   5.592
 1967SOL    HW2 6801   5.639   2.478   5.436
 1968SOL     OW 6802   3.131   6.929   6.713
 1968SOL    HW1 6803   3.072   7.007   6.735
 1968SOL    HW2 6804   3.094   6.847   6.756
 1969SOL     OW 6805   1.469   1.671   2.109
 1969SOL    HW1 6806   1.537   1.633   2.046
 1969SOL    HW2 6807   1.492   1.767   2.128
 1970SOL     OW 6808   2.123   6.821   5.972
 1970SOL    HW1 6809   2.116   6.739   6.028
 1970SOL    HW2 6810   2.033   6.842   5.932
 1971SOL     OW 6811   6.997   0.263   5.699
 1971SOL    HW1 6812   6.986   0.270   5.600
 1971SOL    HW2 6813   6.988   0.167   5.726
 1972SOL     OW 6814   5.206   2.291   2.421
 1972SOL    HW1 6815   5.256   2.208   2.445
 1972SOL    HW2 6816   5.227   2.317   2.327
 1973SOL     OW 6817   2.911   2.534   0.138
 1973SOL    HW1 6818   2.855   2.591   0.079
 1973SOL    HW2 6819   2.855   2.459   0.175
 1974SOL     OW 6820   5.904   6.482   4.544
 1974SOL    HW1 6821   5.926   6.577   4.522
 1974SOL    HW2 6822   5.812   6.460   4.511
 1975SOL     OW 6823   2.451   1.630   3.868
 1975SOL    HW1 6824   2.407   1.544   3.841
 1975SOL    HW2 6825   2.550   1.623   3.853
 1976SOL     OW 6826   0.261   6.783   6.590
 1976SOL    HW1 6827   0.356   6.756   6.606
 1976SOL    HW2 6828   0.200   6.716   6.633
 1977SOL     OW 6829   0.664   3.742   4.378
 1977SOL    HW1 6830   0.680   3.839   4.396
 1977SOL    HW2 6831   0.620   3.701   4.458
 1978SOL     OW 6832   1.731   0.268   3.303
 1978SOL    HW1 6833   1.788   0.348   3.285
 1978SOL    HW2 6834   1.696   0.232   3.216
 1979SOL     OW 6835   6.185   4.561   6.182
 1979SOL    HW1 6836   6.146   4.619   6.253
 1979SOL    HW2 6837   6.118   4.493   6.153
 1980SOL     OW 6838   2.823   0.596   4.854
 1980SOL    HW1 6839   2.874   0.529   4.799
 1980SOL    HW2 6840   2.841   0.580   4.951
 1981SOL     OW 6841   6.527   1.852   2.600
 1981SOL    HW1 6842   6.535   1.845   2.700
 1981SOL    HW2 6843   6.616   1.876   2.561
 1982SOL     OW 6844   0.372   4.509   5.109
 1982SOL    HW1 6845   0.294   4.565   5.084
 1982SOL    HW2 6846   0.435   4.502   5.032
 1983SOL     OW 6847   0.309   1.489   3.029
 1983SOL    HW1 6848   0.387   1.542   3.061
 1983SOL    HW2 6849   0.286   1.518   2.936
 1984SOL     OW 6850   6.223   1.807   4.996
 1984SOL    HW1 6851   6.224   1.854   5.084
 1984SOL    HW2 6852   6.315   1.775   4.973
 1985SOL     OW 6853   1.358   6.297   2.405
 1985SOL    HW1 6854   1.355   6.200   2.381
 1985SOL    HW2 6855   1.439   6.315   2.461
 1986SOL     OW 6856   1.697   0.966   0.033
 1986SOL    HW1 6857   1.649   1.046   7.022
 1986SOL    HW2 6858   1.700   0.894   6.990
 1987SOL     OW 6859   1.898   2.548   2.367
 1987SOL    HW1 6860   1.871   2.491   2.444
 1987SOL    HW2 6861   1.842   2.524   2.287
 1988SOL     OW 6862   5.653   4.310   0.682
 1988SOL    HW1 6863   5.678   4.254   0.761
 1988SOL    HW2 6864   5.727   4.376   0.664
 1989SOL     OW 6865   2.619   5.939   4.528
 1989SOL    HW1 6866   2.520   5.938   4.539
 1989SOL    HW2 6867   2.646   5.868   4.463
 1990SOL     OW 6868   3.555   6.590   0.633
 1990SOL    HW1 6869   3.505   6.667   0.594
 1990SOL    HW2 6870   3.603   6.541   0.561
 1991SOL     OW 6871   3.977   4.439   6.747
 1991SOL    HW1 6872   3.900   4.378   6.726
 1991SOL    HW2 6873   4.043   4.436   6.672
 1992SOL     OW 6874   0.775   0.780   0.736
 1992SOL    HW1 6875   0.786   0.841   0.657
 1992SOL    HW2 6876   0.746   0.833   0.816
 1993SOL     OW 6877   3.625   3.140   4.922
 1993SOL    HW1 6878   3.587   3.048   4.930
 1993SOL    HW2 6879   3.709   3.137   4.867
 1994SOL     OW 6880   0.384   1.138   1.008
 1994SOL    HW1 6881   0.465   1.196   0.999
 1994SOL    HW2 6882   0.325   1.151   0.928
 1995SOL     OW 6883   5.164   2.302   3.112
 1995SOL    HW1 6884   5.162   2.203   3.121
 1995SOL    HW2 6885   5.223   2.341   3.182
 1996SOL     OW 6886   2.434   3.245   0.296
 1996SOL    HW1 6887   2.355   3.298   0.328
 1996SOL    HW2 6888   2.479   3.203   0.375
 1997SOL     OW 6889   4.156   1.536   4.528
 1997SOL    HW1 6890   4.136   1.448   4.485
 1997SOL    HW2 6891   4.223   1.586   4.473
 1998SOL     OW 6892   2.329   4.373   6.625
 1998SOL    HW1 6893   2.264   4.338   6.558
 1998SOL    HW2 6894   2.319   4.323   6.711
 1999SOL     OW 6895   2.832   6.952   0.855
 1999SOL    HW1 6896   2.796   6.996   0.937
 1999SOL    HW2 6897   2.857   6.857   0.877
 2000SOL     OW 6898   4.600   2.300   5.122
 2000SOL    HW1 6899   4.593   2.271   5.027
 2000SOL    HW2 6900   4.697   2.313   5.146
 2001SOL     OW 6901   3.133   1.486   1.802
 2001SOL    HW1 6902   3.088   1.401   1.829
 2001SOL    HW2 6903   3.231   1.470   1.794
 2002SOL     OW 6904   0.888   4.839   6.567
 2002SOL    HW1 6905   0.846   4.909   6.625
 2002SOL    HW2 6906   0.970   4.876   6.523
 2003SOL     OW 6907   6.142   5.848   2.395
 2003SOL    HW1 6908   6.045   5.839   2.370
 2003SOL    HW2 6909   6.150   5.852   2.494
 2004SOL     OW 6910   5.463   0.561   5.746
 2004SOL    HW1 6911   5.485   0.643   5.798
 2004SOL    HW2 6912   5.547   0.523   5.707
 2005SOL     OW 6913   1.157   5.152   0.308
 2005SOL    HW1 6914   1.070   5.186   0.274
 2005SOL    HW2 6915   1.168   5.178   0.404
 2006SOL     OW 6916   4.945   6.535   4.175
 2006SOL    HW1 6917   4.915   6.445   4.205
 2006SOL    HW2 6918   5.025   6.563   4.228
 2007SOL     OW 6919   4.133   4.681   0.908
 2007SOL    HW1 6920   4.226   4.649   0.922
 2007SOL    HW2 6921   4.083   4.615   0.852
 2008SOL     OW 6922   2.582   5.220   4.065
 2008SOL    HW1 6923   2.538   5.296   4.016
 2008SOL    HW2 6924   2.514   5.148   4.080
 2009SOL     OW 6925   5.759   0.768   2.514
 2009SOL    HW1 6926   5.786   0.724   2.599
 2009SOL    HW2 6927   5.734   0.863   2.531
 2010SOL     OW 6928   1.997   2.085   0.678
 2010SOL    HW1 6929   1.966   2.141   0.601
 2010SOL    HW2 6930   2.082   2.122   0.715
 2011SOL     OW 6931   6.801   6.922   4.892
 2011SOL    HW1 6932   6.862   7.000   4.906
 2011SOL    HW2 6933   6.713   6.955   4.857
 2012SOL     OW 6934   1.765   3.587   1.660
 2012SOL    HW1 6935   1.858   3.550   1.672
 2012SOL    HW2 6936   1.699   3.513   1.675
 2013SOL     OW 6937   6.219   2.229   3.519
 2013SOL    HW1 6938   6.170   2.185   3.443
 2013SOL    HW2 6939   6.298   2.174   3.544
 2014SOL     OW 6940   2.556   4.890   3.460
 2014SOL    HW1 6941   2.490   4.814   3.463
 2014SOL    HW2 6942   2.510   4.972   3.428
 2015SOL     OW 6943   1.937   0.411   0.215
 2015SOL    HW1 6944   1.909   0.496   0.172
 2015SOL    HW2 6945   1.907   0.409   0.311
 2016SOL     OW 6946   1.001   6.347   5.058
 2016SOL    HW1 6947   0.944   6.315   4.982
 2016SOL    HW2 6948   1.026   6.443   5.042
 2017SOL     OW 6949   3.175   7.005   4.079
 2017SOL    HW1 6950   3.110   6.933   4.058
 2017SOL    HW2 6951   3.176   0.045   4.005
 2018SOL     OW 6952   5.686   6.593   5.413
 2018SOL    HW1 6953   5.714   6.634   5.326
 2018SOL    HW2 6954   5.694   6.661   5.486
 2019SOL     OW 6955   5.432   2.942   6.961
 2019SOL    HW1 6956   5.390   2.858   6.925
 2019SOL    HW2 6957   5.519   2.958   6.914
 2020SOL     OW 6958   1.212   6.063   4.922
 2020SOL    HW1 6959   1.229   6.096   5.015
 2020SOL    HW2 6960   1.150   6.126   4.876
 2021SOL     OW 6961   1.304   5.996   3.709
 2021SOL    HW1 6962   1.324   5.901   3.733
 2021SOL    HW2 6963   1.388   6.050   3.714
 2022SOL     OW 6964   1.746   3.861   3.281
 2022SOL    HW1 6965   1.741   3.942   3.338
 2022SOL    HW2 6966   1.659   3.847   3.235
 2023SOL     OW 6967   6.274   0.829   5.961
 2023SOL    HW1 6968   6.239   0.899   5.899
 2023SOL    HW2 6969   6.321   0.873   6.038
 2024SOL     OW 6970   0.452   6.613   4.132
 2024SOL    HW1 6971   0.474   6.607   4.230
 2024SOL    HW2 6972   0.536   6.633   4.081
 2025SOL     OW 6973   2.703   1.926   3.398
 2025SOL    HW1 6974   2.741   1.834   3.407
 2025SOL    HW2 6975   2.638   1.928   3.322
 2026SOL     OW 6976   0.640   2.578   5.812
 2026SOL    HW1 6977   0.699   2.646   5.854
 2026SOL    HW2 6978   0.687   2.537   5.734
 2027SOL     OW 6979   0.590   1.038   0.420
 2027SOL    HW1 6980   0.666   1.102   0.415
 2027SOL    HW2 6981   0.623   0.945   0.401
 2028SOL     OW 6982   3.174   6.886   5.054
 2028SOL    HW1 6983   3.186   6.801   5.104
 2028SOL    HW2 6984   3.095   6.879   4.993
 2029SOL     OW 6985   6.388   0.515   0.417
 2029SOL    HW1 6986   6.463   0.472   0.367
 2029SOL    HW2 6987   6.393   0.489   0.514
 2030SOL     OW 6988   2.507   1.114   2.556
 2030SOL    HW1 6989   2.554   1.130   2.469
 2030SOL    HW2 6990   2.411   1.141   2.547
 2031SOL     OW 6991   6.386   5.801   1.080
 2031SOL    HW1 6992   6.407   5.785   1.177
 2031SOL    HW2 6993   6.287   5.814   1.070
 2032SOL     OW 6994   4.779   0.100   2.189
 2032SOL    HW1 6995   4.758   0.044   2.269
 2032SOL    HW2 6996   4.725   0.069   2.111
 2033SOL     OW 6997   3.138   4.200   6.463
 2033SOL    HW1 6998   3.038   4.196   6.471
 2033SOL    HW2 6999   3.172   4.117   6.419
 2034SOL     OW 7000   3.073   5.837   5.321
 2034SOL    HW1 7001   3.171   5.818   5.330
 2034SOL    HW2 7002   3.040   5.882   5.404
 2035SOL     OW 7003   0.449   0.655   3.116
 2035SOL    HW1 7004   0.416   0.683   3.026
 2035SOL    HW2 7005   0.461   0.556   3.118
 2036SOL     OW 7006   1.588   4.397   3.018
 2036SOL    HW1 7007   1.676   4.382   2.975
 2036SOL    HW2 7008   1.564   4.494   3.013
 2037SOL     OW 7009   6.501   2.782   5.417
 2037SOL    HW1 7010   6.575   2.714   5.413
 2037SOL    HW2 7011   6.530   2.859   5.474
 2038SOL     OW 7012   1.418   2.622   0.126
 2038SOL    HW1 7013   1.411   2.631   0.226
 2038SOL    HW2 7014   1.480   2.547   0.104
 2039SOL     OW 7015   0.435   5.533   3.253
 2039SOL    HW1 7016   0.506   5.603   3.251
 2039SOL    HW2 7017   0.346   5.577   3.264
 2040SOL     OW 7018   3.303   3.397   4.788
 2040SOL    HW1 7019   3.330   3.315   4.738
 2040SOL    HW2 7020   3.214   3.383   4.830
 2041SOL     OW 7021   0.596   5.769   5.392
 2041SOL    HW1 7022   0.659   5.839   5.359
 2041SOL    HW2 7023   0.618   5.681   5.349
 2042SOL     OW 7024   4.936   5.482   0.211
 2042SOL    HW1 7025   4.952   5.546   0.136
 2042SOL    HW2 7026   5.021   5.471   0.264
 2043SOL     OW 7027   6.848   3.496   3.888
 2043SOL    HW1 7028   6.830   3.417   3.829
 2043SOL    HW2 7029   6.838   3.468   3.984
 2044SOL     OW 7030   6.329   6.889   1.713
 2044SOL    HW1 7031   6.398   6.817   1.698
 2044SOL    HW2 7032   6.239   6.854   1.688
 2045SOL     OW 7033   2.316   5.099   4.079
 2045SOL    HW1 7034   2.335   5.139   4.168
 2045SOL    HW2 7035   2.300   5.001   4.090
 2046SOL     OW 7036   6.674   2.265   4.449
 2046SOL    HW1 7037   6.575   2.282   4.448
 2046SOL    HW2 7038   6.702   2.233   4.539
 2047SOL     OW 7039   6.240   1.685   0.055
 2047SOL    HW1 7040   6.154   1.729   0.030
 2047SOL    HW2 7041   6.292   1.744   0.117
 2048SOL     OW 7042   1.716   6.511   6.097
 2048SOL    HW1 7043   1.620   6.516   6.123
 2048SOL    HW2 7044   1.730   6.559   6.010
 2049SOL     OW 7045   5.961   1.208   5.392
 2049SOL    HW1 7046   5.962   1.295   5.441
 2049SOL    HW2 7047   5.957   1.132   5.458
 2050SOL     OW 7048   6.800   2.924   4.274
 2050SOL    HW1 7049   6.784   2.984   4.352
 2050SOL    HW2 7050   6.834   2.979   4.197
 2051SOL     OW 7051   1.044   5.504   0.382
 2051SOL    HW1 7052   1.135   5.539   0.360
 2051SOL    HW2 7053   1.007   5.455   0.303
 2052SOL     OW 7054   1.531   3.807   0.893
 2052SOL    HW1 7055   1.547   3.878   0.825
 2052SOL    HW2 7056   1.615   3.791   0.944
 2053SOL     OW 7057   5.906   6.759   4.473
 2053SOL    HW1 7058   5.894   6.749   4.375
 2053SOL    HW2 7059   5.818   6.779   4.516
 2054SOL     OW 7060   3.447   4.041   3.087
 2054SOL    HW1 7061   3.397   4.030   3.173
 2054SOL    HW2 7062   3.533   4.088   3.104
 2055SOL     OW 7063   6.088   3.345   3.030
 2055SOL    HW1 7064   5.995   3.345   3.068
 2055SOL    HW2 7065   6.113   3.439   3.004
 2056SOL     OW 7066   3.523   6.058   2.893
 2056SOL    HW1 7067   3.492   6.000   2.968
 2056SOL    HW2 7068   3.601   6.015   2.847
 2057SOL     OW 7069   5.274   4.203   5.224
 2057SOL    HW1 7070   5.285   4.244   5.314
 2057SOL    HW2 7071   5.212   4.259   5.169
 2058SOL     OW 7072   0.432   1.760   3.130
 2058SOL    HW1 7073   0.437   1.723   3.223
 2058SOL    HW2 7074   0.521   1.748   3.085
 2059SOL     OW 7075   1.688   5.745   6.232
 2059SOL    HW1 7076   1.698   5.817   6.301
 2059SOL    HW2 7077   1.765   5.682   6.239
 2060SOL     OW 7078   0.445   4.476   1.675
 2060SOL    HW1 7079   0.477   4.550   1.616
 2060SOL    HW2 7080   0.495   4.478   1.761
 2061SOL     OW 7081   0.899   2.059   3.541
 2061SOL    HW1 7082   0.816   2.061   3.596
 2061SOL    HW2 7083   0.877   2.035   3.446
 2062SOL     OW 7084   6.470   6.411   3.926
 2062SOL    HW1 7085   6.371   6.424   3.921
 2062SOL    HW2 7086   6.507   6.400   3.834
 2063SOL     OW 7087   1.982   6.841   6.701
 2063SOL    HW1 7088   2.001   6.932   6.662
 2063SOL    HW2 7089   1.895   6.807   6.666
 2064SOL     OW 7090   1.047   2.353   5.199
 2064SOL    HW1 7091   1.096   2.396   5.276
 2064SOL    HW2 7092   1.064   2.254   5.201
 2065SOL     OW 7093   6.440   2.354   5.128
 2065SOL    HW1 7094   6.397   2.344   5.218
 2065SOL    HW2 7095   6.490   2.441   5.126
 2066SOL     OW 7096   0.665   4.732   4.010
 2066SOL    HW1 7097   0.624   4.645   4.041
 2066SOL    HW2 7098   0.716   4.773   4.085
 2067SOL     OW 7099   6.511   4.841   1.030
 2067SOL    HW1 7100   6.482   4.748   1.006
 2067SOL    HW2 7101   6.507   4.852   1.129
 2068SOL     OW 7102   1.991   0.605   4.508
 2068SOL    HW1 7103   1.938   0.547   4.446
 2068SOL    HW2 7104   2.040   0.547   4.574
 2069SOL     OW 7105   0.085   2.417   4.166
 2069SOL    HW1 7106   0.021   2.472   4.111
 2069SOL    HW2 7107   0.130   2.351   4.107
 2070SOL     OW 7108   0.764   1.143   1.409
 2070SOL    HW1 7109   0.753   1.050   1.442
 2070SOL    HW2 7110   0.711   1.206   1.467
 2071SOL     OW 7111   6.576   6.717   6.006
 2071SOL    HW1 7112   6.525   6.757   5.929
 2071SOL    HW2 7113   6.512   6.671   6.068
 2072SOL     OW 7114   4.107   6.311   4.055
 2072SOL    HW1 7115   4.190   6.335   4.106
 2072SOL    HW2 7116   4.072   6.223   4.088
 2073SOL     OW 7117   4.034   0.008   5.185
 2073SOL    HW1 7118   3.968   0.082   5.174
 2073SOL    HW2 7119   4.015   6.962   5.120
 2074SOL     OW 7120   1.959   2.627   6.926
 2074SOL    HW1 7121   2.034   2.679   6.885
 2074SOL    HW2 7122   1.878   2.632   6.868
 2075SOL     OW 7123   6.589   3.472   2.908
 2075SOL    HW1 7124   6.562   3.385   2.950
 2075SOL    HW2 7125   6.605   3.539   2.980
 2076SOL     OW 7126   6.285   0.047   6.718
 2076SOL    HW1 7127   6.375   0.036   6.677
 2076SOL    HW2 7128   6.266   0.145   6.731
 2077SOL     OW 7129   5.992   2.846   3.085
 2077SOL    HW1 7130   6.065   2.905   3.052
 2077SOL    HW2 7131   5.962   2.785   3.011
 2078SOL     OW 7132   1.638   6.142   6.045
 2078SOL    HW1 7133   1.572   6.200   5.996
 2078SOL    HW2 7134   1.603   6.049   6.049
 2079SOL     OW 7135   5.342   2.442   3.253
 2079SOL    HW1 7136   5.426   2.391   3.236
 2079SOL    HW2 7137   5.354   2.537   3.224
 2080SOL     OW 7138   1.638   6.898   4.637
 2080SOL    HW1 7139   1.620   6.862   4.546
 2080SOL    HW2 7140   1.553   6.897   4.690
 2081SOL     OW 7141   1.277   5.292   4.164
 2081SOL    HW1 7142   1.352   5.238   4.126
 2081SOL    HW2 7143   1.246   5.359   4.096
 2082SOL     OW 7144   0.607   0.235   2.752
 2082SOL    HW1 7145   0.525   0.273   2.795
 2082SOL    HW2 7146   0.596   0.136   2.743
 2083SOL     OW 7147   6.394   4.940   5.796
 2083SOL    HW1 7148   6.316   4.926   5.735
 2083SOL    HW2 7149   6.466   4.874   5.774
 2084SOL     OW 7150   0.983   3.901   3.130
 2084SOL    HW1 7151   0.911   3.929   3.066
 2084SOL    HW2 7152   0.943   3.842   3.201
 2085SOL     OW 7153   4.732   0.331   6.918
 2085SOL    HW1 7154   4.803   0.261   6.905
 2085SOL    HW2 7155   4.661   0.296   6.979
 2086SOL     OW 7156   4.307   5.982   5.803
 2086SOL    HW1 7157   4.327   6.043   5.879
 2086SOL    HW2 7158   4.250   6.029   5.736
 2087SOL     OW 7159   4.852   0.965   1.672
 2087SOL    HW1 7160   4.938   0.914   1.666
 2087SOL    HW2 7161   4.782   0.920   1.616
 2088SOL     OW 7162   1.785   5.878   0.534
 2088SOL    HW1 7163   1.846   5.826   0.594
 2088SOL    HW2 7164   1.715   5.817   0.497
 2089SOL     OW 7165   5.069   2.304   6.445
 2089SOL    HW1 7166   5.110   2.357   6.371
 2089SOL    HW2 7167   5.141   2.271   6.506
 2090SOL     OW 7168   4.307   3.557   5.503
 2090SOL    HW1 7169   4.271   3.640   5.459
 2090SOL    HW2 7170   4.385   3.523   5.452
 2091SOL     OW 7171   6.979   5.461   0.870
 2091SOL    HW1 7172   6.932   5.521   0.935
 2091SOL    HW2 7173   6.934   5.466   0.781
 2092SOL     OW 7174   4.678   3.595   6.986
 2092SOL    HW1 7175   4.747   3.668   6.993
 2092SOL    HW2 7176   4.587   3.634   7.000
 2093SOL     OW 7177   2.777   2.408   1.509
 2093SOL    HW1 7178   2.856   2.363   1.468
 2093SOL    HW2 7179   2.805   2.456   1.592
 2094SOL     OW 7180   5.636   1.962   3.421
 2094SOL    HW1 7181   5.551   2.005   3.452
 2094SOL    HW2 7182   5.710   1.986   3.484
 2095SOL     OW 7183   6.021   6.801   5.107
 2095SOL    HW1 7184   5.958   6.794   5.030
 2095SOL    HW2 7185   6.109   6.837   5.075
 2096SOL     OW 7186   4.701   4.101   3.031
 2096SOL    HW1 7187   4.670   4.145   2.947
 2096SOL    HW2 7188   4.722   4.006   3.013
 2097SOL     OW 7189   2.816   3.399   6.492
 2097SOL    HW1 7190   2.727   3.406   6.538
 2097SOL    HW2 7191   2.856   3.310   6.512
 2098SOL     OW 7192   3.680   6.197   1.926
 2098SOL    HW1 7193   3.639   6.255   1.997
 2098SOL    HW2 7194   3.721   6.117   1.969
 2099SOL     OW 7195   3.469   2.735   6.379
 2099SOL    HW1 7196   3.407   2.749   6.302
 2099SOL    HW2 7197   3.481   2.821   6.429
 2100SOL     OW 7198   5.607   2.180   6.527
 2100SOL    HW1 7199   5.660   2.259   6.495
 2100SOL    HW2 7200   5.658   2.096   6.508
 2101SOL     OW 7201   1.354   0.042   1.495
 2101SOL    HW1 7202   1.261   0.041   1.459
 2101SOL    HW2 7203   1.418   0.073   1.424
 2102SOL     OW 7204   5.060   4.892   2.761
 2102SOL    HW1 7205   5.112   4.909   2.845
 2102SOL    HW2 7206   4.963   4.878   2.784
 2103SOL     OW 7207   3.440   4.014   6.628
 2103SOL    HW1 7208   3.501   3.940   6.601
 2103SOL    HW2 7209   3.487   4.075   6.693
 2104SOL     OW 7210   1.688   4.507   1.246
 2104SOL    HW1 7211   1.720   4.520   1.340
 2104SOL    HW2 7212   1.677   4.596   1.202
 2105SOL     OW 7213   5.442   5.023   4.931
 2105SOL    HW1 7214   5.485   5.111   4.952
 2105SOL    HW2 7215   5.484   4.951   4.986
 2106SOL     OW 7216   4.886   4.256   1.194
 2106SOL    HW1 7217   4.817   4.237   1.125
 2106SOL    HW2 7218   4.964   4.195   1.183
 2107SOL     OW 7219   5.832   2.788   5.446
 2107SOL    HW1 7220   5.782   2.767   5.362
 2107SOL    HW2 7221   5.805   2.878   5.480
 2108SOL     OW 7222   6.686   6.022   4.769
 2108SOL    HW1 7223   6.776   6.035   4.811
 2108SOL    HW2 7224   6.644   6.110   4.751
 2109SOL     OW 7225   4.380   5.974   2.271
 2109SOL    HW1 7226   4.444   5.964   2.194
 2109SOL    HW2 7227   4.352   5.883   2.303
 2110SOL     OW 7228   2.417   1.968   0.244
 2110SOL    HW1 7229   2.445   1.889   0.298
 2110SOL    HW2 7230   2.472   1.974   0.161
 2111SOL     OW 7231   1.989   2.569   6.498
 2111SOL    HW1 7232   1.937   2.595   6.579
 2111SOL    HW2 7233   1.930   2.576   6.417
 2112SOL     OW 7234   5.158   3.122   0.255
 2112SOL    HW1 7235   5.144   3.113   0.353
 2112SOL    HW2 7236   5.164   3.219   0.230
 2113SOL     OW 7237   2.605   1.720   4.475
 2113SOL    HW1 7238   2.674   1.679   4.416
 2113SOL    HW2 7239   2.582   1.811   4.442
 2114SOL     OW 7240   2.023   2.010   6.393
 2114SOL    HW1 7241   2.103   2.069   6.393
 2114SOL    HW2 7242   1.941   2.065   6.410
 2115SOL     OW 7243   1.547   4.095   3.156
 2115SOL    HW1 7244   1.641   4.113   3.128
 2115SOL    HW2 7245   1.492   4.178   3.148
 2116SOL     OW 7246   0.966   4.857   3.046
 2116SOL    HW1 7247   0.870   4.846   3.020
 2116SOL    HW2 7248   0.971   4.887   3.142
 2117SOL     OW 7249   6.910   4.585   2.023
 2117SOL    HW1 7250   6.854   4.544   1.951
 2117SOL    HW2 7251   6.917   4.683   2.008
 2118SOL     OW 7252   6.279   2.665   2.943
 2118SOL    HW1 7253   6.229   2.673   2.857
 2118SOL    HW2 7254   6.273   2.752   2.993
 2119SOL     OW 7255   1.299   0.675   0.788
 2119SOL    HW1 7256   1.228   0.680   0.858
 2119SOL    HW2 7257   1.288   0.750   0.723
 2120SOL     OW 7258   0.286   4.813   3.384
 2120SOL    HW1 7259   0.255   4.902   3.418
 2120SOL    HW2 7260   0.368   4.785   3.433
 2121SOL     OW 7261   1.532   3.850   6.380
 2121SOL    HW1 7262   1.568   3.783   6.315
 2121SOL    HW2 7263   1.605   3.912   6.407
 2122SOL     OW 7264   5.626   4.454   6.009
 2122SOL    HW1 7265   5.536   4.424   5.980
 2122SOL    HW2 7266   5.621   4.549   6.040
 2123SOL     OW 7267   6.849   5.173   2.368
 2123SOL    HW1 7268   6.765   5.132   2.405
 2123SOL    HW2 7269   6.863   5.263   2.408
 2124SOL     OW 7270   3.133   2.147   1.232
 2124SOL    HW1 7271   3.137   2.209   1.154
 2124SOL    HW2 7272   3.208   2.082   1.227
 2125SOL     OW 7273   1.955   0.710   2.707
 2125SOL    HW1 7274   1.901   0.646   2.653
 2125SOL    HW2 7275   1.903   0.794   2.721
 2126SOL     OW 7276   3.861   2.110   6.472
 2126SOL    HW1 7277   3.784   2.082   6.414
 2126SOL    HW2 7278   3.924   2.166   6.418
 2127SOL     OW 7279   0.968   2.106   5.358
 2127SOL    HW1 7280   1.016   2.179   5.406
 2127SOL    HW2 7281   0.869   2.116   5.372
 2128SOL     OW 7282   6.559   3.380   4.281
 2128SOL    HW1 7283   6.646   3.332   4.292
 2128SOL    HW2 7284   6.488   3.315   4.255
 2129SOL     OW 7285   4.664   2.863   5.489
 2129SOL    HW1 7286   4.575   2.895   5.455
 2129SOL    HW2 7287   4.737   2.916   5.447
 2130SOL     OW 7288   3.658   0.459   2.854
 2130SOL    HW1 7289   3.607   0.393   2.909
 2130SOL    HW2 7290   3.676   0.420   2.764
 2131SOL     OW 7291   4.570   1.635   6.967
 2131SOL    HW1 7292   4.578   1.537   6.949
 2131SOL    HW2 7293   4.500   1.651   0.010
 2132SOL     OW 7294   3.606   0.808   0.490
 2132SOL    HW1 7295   3.643   0.736   0.548
 2132SOL    HW2 7296   3.515   0.834   0.522
 2133SOL     OW 7297   3.247   3.350   1.028
 2133SOL    HW1 7298   3.252   3.309   0.937
 2133SOL    HW2 7299   3.266   3.448   1.022
 2134SOL     OW 7300   0.796   0.697   5.958
 2134SOL    HW1 7301   0.843   0.735   5.878
 2134SOL    HW2 7302   0.721   0.639   5.928
 2135SOL     OW 7303   1.735   2.869   5.280
 2135SOL    HW1 7304   1.693   2.789   5.238
 2135SOL    HW2 7305   1.696   2.952   5.240
 2136SOL     OW 7306   0.652   4.348   4.229
 2136SOL    HW1 7307   0.570   4.332   4.285
 2136SOL    HW2 7308   0.717   4.403   4.281
 2137SOL     OW 7309   0.979   5.580   4.649
 2137SOL    HW1 7310   1.079   5.591   4.646
 2137SOL    HW2 7311   0.957   5.488   4.682
 2138SOL     OW 7312   6.993   0.926   2.563
 2138SOL    HW1 7313   6.909   0.974   2.590
 2138SOL    HW2 7314   7.019   0.956   2.471
 2139SOL     OW 7315   3.462   0.962   2.689
 2139SOL    HW1 7316   3.426   0.882   2.640
 2139SOL    HW2 7317   3.560   0.952   2.701
 2140SOL     OW 7318   3.776   6.288   3.940
 2140SOL    HW1 7319   3.816   6.342   4.013
 2140SOL    HW2 7320   3.682   6.262   3.964
 2141SOL     OW 7321   6.072   4.412   2.039
 2141SOL    HW1 7322   6.146   4.362   2.084
 2141SOL    HW2 7323   6.089   4.510   2.047
 2142SOL     OW 7324   1.509   2.084   3.233
 2142SOL    HW1 7325   1.555   2.091   3.321
 2142SOL    HW2 7326   1.576   2.094   3.159
 2143SOL     OW 7327   3.028   4.439   1.436
 2143SOL    HW1 7328   2.983   4.438   1.346
 2143SOL    HW2 7329   2.958   4.446   1.507
 2144SOL     OW 7330   1.221   5.737   4.108
 2144SOL    HW1 7331   1.234   5.725   4.206
 2144SOL    HW2 7332   1.211   5.647   4.065
 2145SOL     OW 7333   4.477   5.742   4.190
 2145SOL    HW1 7334   4.383   5.730   4.157
 2145SOL    HW2 7335   4.496   5.840   4.198
 2146SOL     OW 7336   2.868   3.994   1.135
 2146SOL    HW1 7337   2.893   3.995   1.038
 2146SOL    HW2 7338   2.771   3.974   1.144
 2147SOL     OW 7339   6.715   1.573   6.063
 2147SOL    HW1 7340   6.632   1.551   6.012
 2147SOL    HW2 7341   6.759   1.652   6.021
 2148SOL     OW 7342   5.295   2.007   5.566
 2148SOL    HW1 7343   5.369   2.067   5.538
 2148SOL    HW2 7344   5.308   1.979   5.661
 2149SOL     OW 7345   3.535   2.370   1.318
 2149SOL    HW1 7346   3.460   2.431   1.344
 2149SOL    HW2 7347   3.622   2.411   1.344
 2150SOL     OW 7348   3.152   1.911   2.522
 2150SOL    HW1 7349   3.074   1.850   2.509
 2150SOL    HW2 7350   3.161   1.971   2.443
 2151SOL     OW 7351   1.770   0.927   5.189
 2151SOL    HW1 7352   1.812   1.006   5.234
 2151SOL    HW2 7353   1.794   0.926   5.092
 2152SOL     OW 7354   3.938   6.371   1.760
 2152SOL    HW1 7355   4.024   6.392   1.712
 2152SOL    HW2 7356   3.959   6.323   1.845
 2153SOL     OW 7357   3.403   0.596   3.331
 2153SOL    HW1 7358   3.460   0.629   3.256
 2153SOL    HW2 7359   3.460   0.549   3.399
 2154SOL     OW 7360   4.905   7.004   4.891
 2154SOL    HW1 7361   4.841   6.933   4.918
 2154SOL    HW2 7362   4.977   7.013   4.961
 2155SOL     OW 7363   1.897   5.883   0.266
 2155SOL    HW1 7364   1.830   5.878   0.339
 2155SOL    HW2 7365   1.931   5.977   0.258
 2156SOL     OW 7366   3.097   1.131   4.692
 2156SOL    HW1 7367   3.051   1.178   4.768
 2156SOL    HW2 7368   3.031   1.117   4.617
 2157SOL     OW 7369   6.358   1.185   3.357
 2157SOL    HW1 7370   6.264   1.219   3.354
 2157SOL    HW2 7371   6.360   1.098   3.407
 2158SOL     OW 7372   4.266   5.984   0.924
 2158SOL    HW1 7373   4.292   5.924   1.000
 2158SOL    HW2 7374   4.191   6.044   0.953
 2159SOL     OW 7375   1.813   6.312   5.502
 2159SOL    HW1 7376   1.900   6.363   5.505
 2159SOL    HW2 7377   1.751   6.357   5.438
 2160SOL     OW 7378   4.328   3.942   0.644
 2160SOL    HW1 7379   4.285   4.032   0.640
 2160SOL    HW2 7380   4.426   3.952   0.659
 2161SOL     OW 7381   5.302   4.061   3.233
 2161SOL    HW1 7382   5.216   4.066   3.283
 2161SOL    HW2 7383   5.305   3.976   3.181
 2162SOL     OW 7384   2.703   0.871   1.093
 2162SOL    HW1 7385   2.764   0.807   1.139
 2162SOL    HW2 7386   2.757   0.943   1.050
 2163SOL     OW 7387   0.857   4.308   6.623
 2163SOL    HW1 7388   0.912   4.245   6.567
 2163SOL    HW2 7389   0.889   4.401   6.608
 2164SOL     OW 7390   1.171   3.042   6.861
 2164SOL    HW1 7391   1.219   2.972   6.809
 2164SOL    HW2 7392   1.188   3.132   6.821
 2165SOL     OW 7393   0.637   2.348   2.983
 2165SOL    HW1 7394   0.604   2.388   2.898
 2165SOL    HW2 7395   0.674   2.420   3.042
 2166SOL     OW 7396   1.392   2.246   4.539
 2166SOL    HW1 7397   1.371   2.325   4.481
 2166SOL    HW2 7398   1.417   2.277   4.631
 2167SOL     OW 7399   1.762   1.383   3.848
 2167SOL    HW1 7400   1.838   1.346   3.902
 2167SOL    HW2 7401   1.751   1.480   3.868
 2168SOL     OW 7402   0.635   1.784   4.079
 2168SOL    HW1 7403   0.589   1.784   3.990
 2168SOL    HW2 7404   0.707   1.714   4.080
 2169SOL     OW 7405   5.526   2.063   6.001
 2169SOL    HW1 7406   5.449   2.104   6.050
 2169SOL    HW2 7407   5.610   2.074   6.054
 2170SOL     OW 7408   6.498   5.315   5.447
 2170SOL    HW1 7409   6.477   5.360   5.360
 2170SOL    HW2 7410   6.538   5.382   5.509
 2171SOL     OW 7411   0.116   3.889   1.652
 2171SOL    HW1 7412   0.184   3.892   1.725
 2171SOL    HW2 7413   0.095   3.983   1.622
 2172SOL     OW 7414   3.092   2.532   0.394
 2172SOL    HW1 7415   3.087   2.584   0.309
 2172SOL    HW2 7416   3.017   2.467   0.398
 2173SOL     OW 7417   3.786   0.369   4.639
 2173SOL    HW1 7418   3.814   0.445   4.581
 2173SOL    HW2 7419   3.765   0.402   4.731
 2174SOL     OW 7420   5.773   5.373   5.065
 2174SOL    HW1 7421   5.820   5.287   5.084
 2174SOL    HW2 7422   5.825   5.449   5.105
 2175SOL     OW 7423   2.356   2.710   4.570
 2175SOL    HW1 7424   2.299   2.790   4.590
 2175SOL    HW2 7425   2.393   2.718   4.478
 2176SOL     OW 7426   1.066   2.637   0.168
 2176SOL    HW1 7427   1.120   2.554   0.154
 2176SOL    HW2 7428   1.121   2.717   0.142
 2177SOL     OW 7429   6.256   1.458   3.542
 2177SOL    HW1 7430   6.190   1.402   3.491
 2177SOL    HW2 7431   6.309   1.399   3.603
 2178SOL     OW 7432   1.184   3.340   0.337
 2178SOL    HW1 7433   1.208   3.254   0.292
 2178SOL    HW2 7434   1.185   3.327   0.436
 2179SOL     OW 7435   1.837   5.367   4.682
 2179SOL    HW1 7436   1.762   5.381   4.617
 2179SOL    HW2 7437   1.884   5.453   4.697
 2180SOL     OW 7438   2.362   2.877   1.711
 2180SOL    HW1 7439   2.270   2.891   1.673
 2180SOL    HW2 7440   2.428   2.871   1.636
 2181SOL     OW 7441   4.580   4.969   5.457
 2181SOL    HW1 7442   4.513   5.021   5.510
 2181SOL    HW2 7443   4.546   4.954   5.364
 2182SOL     OW 7444   0.659   3.334   4.435
 2182SOL    HW1 7445   0.600   3.373   4.505
 2182SOL    HW2 7446   0.637   3.238   4.421
 2183SOL     OW 7447   2.990   3.948   5.547
 2183SOL    HW1 7448   2.893   3.967   5.565
 2183SOL    HW2 7449   3.043   4.032   5.556
 2184SOL     OW 7450   4.566   2.036   6.585
 2184SOL    HW1 7451   4.580   2.072   6.678
 2184SOL    HW2 7452   4.583   1.938   6.585
 2185SOL     OW 7453   1.542   2.084   0.687
 2185SOL    HW1 7454   1.546   2.107   0.589
 2185SOL    HW2 7455   1.609   2.014   0.708
 2186SOL     OW 7456   0.460   5.410   2.196
 2186SOL    HW1 7457   0.458   5.310   2.191
 2186SOL    HW2 7458   0.530   5.439   2.261
 2187SOL     OW 7459   6.266   1.544   2.756
 2187SOL    HW1 7460   6.307   1.552   2.846
 2187SOL    HW2 7461   6.172   1.579   2.759
 2188SOL     OW 7462   6.092   6.241   4.330
 2188SOL    HW1 7463   6.025   6.182   4.375
 2188SOL    HW2 7464   6.116   6.202   4.241
 2189SOL     OW 7465   1.805   6.951   0.286
 2189SOL    HW1 7466   1.803   6.974   0.383
 2189SOL    HW2 7467   1.898   6.964   0.251
 2190SOL     OW 7468   0.399   2.718   1.860
 2190SOL    HW1 7469   0.445   2.663   1.790
 2190SOL    HW2 7470   0.368   2.659   1.935
 2191SOL     OW 7471   2.931   1.954   6.552
 2191SOL    HW1 7472   3.002   1.896   6.590
 2191SOL    HW2 7473   2.923   2.038   6.607
 2192SOL     OW 7474   3.939   0.903   2.910
 2192SOL    HW1 7475   3.860   0.953   2.876
 2192SOL    HW2 7476   3.982   0.853   2.834
 2193SOL     OW 7477   6.594   5.814   5.854
 2193SOL    HW1 7478   6.672   5.758   5.829
 2193SOL    HW2 7479   6.611   5.909   5.829
 2194SOL     OW 7480   2.248   4.762   6.697
 2194SOL    HW1 7481   2.205   4.743   6.609
 2194SOL    HW2 7482   2.320   4.694   6.715
 2195SOL     OW 7483   6.858   0.336   3.592
 2195SOL    HW1 7484   6.821   0.405   3.530
 2195SOL    HW2 7485   6.788   0.310   3.659
 2196SOL     OW 7486   3.332   0.584   4.784
 2196SOL    HW1 7487   3.394   0.564   4.707
 2196SOL    HW2 7488   3.336   0.681   4.806
 2197SOL     OW 7489   3.049   3.601   0.885
 2197SOL    HW1 7490   3.018   3.516   0.929
 2197SOL    HW2 7491   3.149   3.600   0.876
 2198SOL     OW 7492   6.467   1.245   0.401
 2198SOL    HW1 7493   6.518   1.190   0.467
 2198SOL    HW2 7494   6.411   1.184   0.344
 2199SOL     OW 7495   5.283   1.272   3.191
 2199SOL    HW1 7496   5.264   1.263   3.093
 2199SOL    HW2 7497   5.325   1.188   3.225
 2200SOL     OW 7498   3.129   0.264   4.718
 2200SOL    HW1 7499   3.174   0.176   4.734
 2200SOL    HW2 7500   3.111   0.308   4.806
 2201SOL     OW 7501   6.088   2.115   3.321
 2201SOL    HW1 7502   6.116   2.178   3.248
 2201SOL    HW2 7503   6.017   2.054   3.287
 2202SOL     OW 7504   2.833   5.020   2.512
 2202SOL    HW1 7505   2.744   5.060   2.536
 2202SOL    HW2 7506   2.838   5.007   2.413
 2203SOL     OW 7507   2.492   2.727   1.405
 2203SOL    HW1 7508   2.436   2.665   1.459
 2203SOL    HW2 7509   2.461   2.725   1.310
 2204SOL     OW 7510   4.506   0.860   0.036
 2204SOL    HW1 7511   4.507   0.785   0.102
 2204SOL    HW2 7512   4.414   0.900   0.034
 2205SOL     OW 7513   1.073   6.995   6.014
 2205SOL    HW1 7514   1.046   0.055   6.055
 2205SOL    HW2 7515   1.136   7.012   5.938
 2206SOL     OW 7516   2.854   4.357   6.378
 2206SOL    HW1 7517   2.817   4.394   6.464
 2206SOL    HW2 7518   2.808   4.402   6.301
 2207SOL     OW 7519   3.190   3.865   6.736
 2207SOL    HW1 7520   3.274   3.913   6.711
 2207SOL    HW2 7521   3.124   3.872   6.661
 2208SOL     OW 7522   1.468   6.360   2.690
 2208SOL    HW1 7523   1.559   6.400   2.676
 2208SOL    HW2 7524   1.398   6.427   2.664
 2209SOL     OW 7525   1.522   5.995   5.725
 2209SOL    HW1 7526   1.596   6.058   5.701
 2209SOL    HW2 7527   1.562   5.908   5.755
 2210SOL     OW 7528   6.797   5.024   4.124
 2210SOL    HW1 7529   6.860   5.010   4.048
 2210SOL    HW2 7530   6.712   5.064   4.090
 2211SOL     OW 7531   5.376   0.349   7.025
 2211SOL    HW1 7532   5.286   0.313   6.999
 2211SOL    HW2 7533   5.419   0.391   6.945
 2212SOL     OW 7534   1.928   6.261   6.931
 2212SOL    HW1 7535   1.870   6.179   6.930
 2212SOL    HW2 7536   1.889   6.328   6.994
 2213SOL     OW 7537   3.763   2.939   5.157
 2213SOL    HW1 7538   3.791   2.978   5.070
 2213SOL    HW2 7539   3.735   3.013   5.219
 2214SOL     OW 7540   4.083   2.993   5.532
 2214SOL    HW1 7541   4.078   2.991   5.433
 2214SOL    HW2 7542   4.032   2.915   5.570
 2215SOL     OW 7543   6.642   1.844   6.867
 2215SOL    HW1 7544   6.589   1.760   6.884
 2215SOL    HW2 7545   6.706   1.859   6.943
 2216SOL     OW 7546   1.683   0.390   6.177
 2216SOL    HW1 7547   1.766   0.367   6.125
 2216SOL    HW2 7548   1.688   0.485   6.207
 2217SOL     OW 7549   3.981   6.612   1.492
 2217SOL    HW1 7550   3.942   6.666   1.417
 2217SOL    HW2 7551   3.939   6.638   1.578
 2218SOL     OW 7552   0.602   6.772   0.860
 2218SOL    HW1 7553   0.625   6.802   0.767
 2218SOL    HW2 7554   0.503   6.771   0.871
 2219SOL     OW 7555   6.335   2.308   2.081
 2219SOL    HW1 7556   6.402   2.280   2.012
 2219SOL    HW2 7557   6.379   2.310   2.171
 2220SOL     OW 7558   1.262   0.237   3.879
 2220SOL    HW1 7559   1.262   0.215   3.781
 2220SOL    HW2 7560   1.322   0.173   3.927
 2221SOL     OW 7561   6.078   0.676   5.000
 2221SOL    HW1 7562   6.148   0.669   4.929
 2221SOL    HW2 7563   6.031   0.764   4.992
 2222SOL     OW 7564   4.372   0.167   0.818
 2222SOL    HW1 7565   4.385   0.174   0.719
 2222SOL    HW2 7566   4.309   0.092   0.838
 2223SOL     OW 7567   6.049   0.842   4.324
 2223SOL    HW1 7568   6.039   0.941   4.311
 2223SOL    HW2 7569   6.146   0.820   4.336
 2224SOL     OW 7570   1.966   4.209   1.383
 2224SOL    HW1 7571   2.012   4.196   1.295
 2224SOL    HW2 7572   2.034   4.232   1.453
 2225SOL     OW 7573   6.227   5.966   3.055
 2225SOL    HW1 7574   6.322   5.979   3.027
 2225SOL    HW2 7575   6.199   5.871   3.037
 2226SOL     OW 7576   4.156   5.059   0.711
 2226SOL    HW1 7577   4.090   4.999   0.666
 2226SOL    HW2 7578   4.130   5.154   0.697
 2227SOL     OW 7579   5.771   4.047   0.566
 2227SOL    HW1 7580   5.780   3.989   0.646
 2227SOL    HW2 7581   5.855   4.101   0.553
 2228SOL     OW 7582   2.394   5.144   1.193
 2228SOL    HW1 7583   2.436   5.120   1.105
 2228SOL    HW2 7584   2.389   5.062   1.251
 2229SOL     OW 7585   4.356   1.630   4.381
 2229SOL    HW1 7586   4.431   1.693   4.398
 2229SOL    HW2 7587   4.347   1.615   4.282
 2230SOL     OW 7588   6.175   5.743   5.497
 2230SOL    HW1 7589   6.146   5.815   5.435
 2230SOL    HW2 7590   6.175   5.655   5.450
 2231SOL     OW 7591   0.557   0.834   2.086
 2231SOL    HW1 7592   0.516   0.745   2.065
 2231SOL    HW2 7593   0.484   0.899   2.108
 2232SOL     OW 7594   0.746   2.964   4.734
 2232SOL    HW1 7595   0.842   2.990   4.735
 2232SOL    HW2 7596   0.726   2.908   4.815
 2233SOL     OW 7597   2.624   4.532   1.499
 2233SOL    HW1 7598   2.650   4.619   1.457
 2233SOL    HW2 7599   2.706   4.482   1.525
 2234SOL     OW 7600   4.180   2.135   1.765
 2234SOL    HW1 7601   4.167   2.060   1.700
 2234SOL    HW2 7602   4.117   2.124   1.842
 2235SOL     OW 7603   2.073   0.833   1.173
 2235SOL    HW1 7604   2.115   0.892   1.104
 2235SOL    HW2 7605   1.979   0.811   1.146
 2236SOL     OW 7606   1.027   4.122   6.492
 2236SOL    HW1 7607   0.970   4.139   6.412
 2236SOL    HW2 7608   1.056   4.027   6.493
 2237SOL     OW 7609   5.740   5.154   3.667
 2237SOL    HW1 7610   5.684   5.091   3.613
 2237SOL    HW2 7611   5.682   5.197   3.737
 2238SOL     OW 7612   5.190   4.647   1.350
 2238SOL    HW1 7613   5.151   4.565   1.308
 2238SOL    HW2 7614   5.213   4.714   1.280
 2239SOL     OW 7615   2.959   5.121   3.483
 2239SOL    HW1 7616   2.989   5.064   3.406
 2239SOL    HW2 7617   2.860   5.134   3.478
 2240SOL     OW 7618   5.042   6.085   3.770
 2240SOL    HW1 7619   4.994   5.998   3.764
 2240SOL    HW2 7620   5.134   6.070   3.807
 2241SOL     OW 7621   0.372   0.211   2.591
 2241SOL    HW1 7622   0.471   0.211   2.604
 2241SOL    HW2 7623   0.333   0.289   2.641
 2242SOL     OW 7624   5.291   1.716   3.055
 2242SOL    HW1 7625   5.209   1.759   3.093
 2242SOL    HW2 7626   5.272   1.619   3.037
 2243SOL     OW 7627   2.881   6.588   5.398
 2243SOL    HW1 7628   2.863   6.492   5.416
 2243SOL    HW2 7629   2.809   6.624   5.338
 2244SOL     OW 7630   2.261   6.620   2.038
 2244SOL    HW1 7631   2.265   6.576   1.948
 2244SOL    HW2 7632   2.170   6.658   2.053
 2245SOL     OW 7633   0.670   2.029   2.245
 2245SOL    HW1 7634   0.752   1.990   2.287
 2245SOL    HW2 7635   0.695   2.107   2.187
 2246SOL     OW 7636   1.121   1.148   6.120
 2246SOL    HW1 7637   1.204   1.184   6.162
 2246SOL    HW2 7638   1.057   1.224   6.104
 2247SOL     OW 7639   2.885   3.001   5.373
 2247SOL    HW1 7640   2.920   3.091   5.347
 2247SOL    HW2 7641   2.785   3.000   5.360
 2248SOL     OW 7642   3.752   4.071   6.247
 2248SOL    HW1 7643   3.789   4.005   6.181
 2248SOL    HW2 7644   3.794   4.160   6.231
 2249SOL     OW 7645   5.919   6.228   2.483
 2249SOL    HW1 7646   5.991   6.265   2.542
 2249SOL    HW2 7647   5.840   6.202   2.539
 2250SOL     OW 7648   4.282   3.518   0.227
 2250SOL    HW1 7649   4.371   3.480   0.251
 2250SOL    HW2 7650   4.245   3.470   0.148
 2251SOL     OW 7651   4.758   0.806   0.048
 2251SOL    HW1 7652   4.805   0.893   0.064
 2251SOL    HW2 7653   4.661   0.822   0.036
 2252SOL     OW 7654   5.399   2.316   2.944
 2252SOL    HW1 7655   5.318   2.318   3.001
 2252SOL    HW2 7656   5.380   2.360   2.856
 2253SOL     OW 7657   1.236   3.957   6.241
 2253SOL    HW1 7658   1.331   3.963   6.272
 2253SOL    HW2 7659   1.183   3.904   6.307
 2254SOL     OW 7660   3.133   3.507   5.092
 2254SOL    HW1 7661   3.055   3.564   5.065
 2254SOL    HW2 7662   3.215   3.564   5.097
 2255SOL     OW 7663   4.835   2.416   6.413
 2255SOL    HW1 7664   4.778   2.334   6.416
 2255SOL    HW2 7665   4.930   2.391   6.428
 2256SOL     OW 7666   4.949   6.030   1.653
 2256SOL    HW1 7667   4.889   5.957   1.685
 2256SOL    HW2 7668   4.953   6.029   1.553
 2257SOL     OW 7669   0.102   1.990   4.295
 2257SOL    HW1 7670   0.141   1.960   4.208
 2257SOL    HW2 7671   0.167   2.050   4.342
 2258SOL     OW 7672   1.245   5.587   6.069
 2258SOL    HW1 7673   1.241   5.529   6.151
 2258SOL    HW2 7674   1.310   5.548   6.004
 2259SOL     OW 7675   5.073   4.249   6.398
 2259SOL    HW1 7676   5.026   4.189   6.462
 2259SOL    HW2 7677   5.010   4.277   6.325
 2260SOL     OW 7678   5.714   4.411   3.133
 2260SOL    HW1 7679   5.683   4.334   3.078
 2260SOL    HW2 7680   5.752   4.378   3.219
 2261SOL     OW 7681   6.966   6.151   0.639
 2261SOL    HW1 7682   6.938   6.078   0.575
 2261SOL    HW2 7683   6.888   6.178   0.695
 2262SOL     OW 7684   5.406   1.556   2.113
 2262SOL    HW1 7685   5.448   1.646   2.107
 2262SOL    HW2 7686   5.339   1.556   2.188
 2263SOL     OW 7687   2.919   5.803   6.592
 2263SOL    HW1 7688   2.914   5.832   6.688
 2263SOL    HW2 7689   2.854   5.856   6.538
 2264SOL     OW 7690   3.407   3.391   0.765
 2264SOL    HW1 7691   3.395   3.296   0.792
 2264SOL    HW2 7692   3.480   3.397   0.697
 2265SOL     OW 7693   0.736   0.773   4.209
 2265SOL    HW1 7694   0.656   0.714   4.211
 2265SOL    HW2 7695   0.815   0.724   4.245
 2266SOL     OW 7696   6.489   2.046   1.361
 2266SOL    HW1 7697   6.560   2.109   1.331
 2266SOL    HW2 7698   6.461   1.988   1.285
 2267SOL     OW 7699   5.407   2.620   4.902
 2267SOL    HW1 7700   5.373   2.614   4.808
 2267SOL    HW2 7701   5.506   2.603   4.903
 2268SOL     OW 7702   6.786   3.921   6.244
 2268SOL    HW1 7703   6.717   3.861   6.284
 2268SOL    HW2 7704   6.837   3.966   6.317
 2269SOL     OW 7705   5.926   6.024   4.484
 2269SOL    HW1 7706   5.892   5.956   4.550
 2269SOL    HW2 7707   5.903   6.116   4.517
 2270SOL     OW 7708   3.662   2.323   6.185
 2270SOL    HW1 7709   3.565   2.347   6.188
 2270SOL    HW2 7710   3.708   2.359   6.265
 2271SOL     OW 7711   6.338   3.865   0.610
 2271SOL    HW1 7712   6.244   3.836   0.589
 2271SOL    HW2 7713   6.382   3.898   0.527
 2272SOL     OW 7714   6.035   1.596   5.341
 2272SOL    HW1 7715   6.031   1.633   5.248
 2272SOL    HW2 7716   6.024   1.671   5.406
 2273SOL     OW 7717   1.567   0.476   2.340
 2273SOL    HW1 7718   1.594   0.571   2.356
 2273SOL    HW2 7719   1.528   0.467   2.249
 2274SOL     OW 7720   1.264   2.117   5.765
 2274SOL    HW1 7721   1.313   2.203   5.771
 2274SOL    HW2 7722   1.318   2.044   5.806
 2275SOL     OW 7723   5.639   0.756   4.076
 2275SOL    HW1 7724   5.684   0.687   4.132
 2275SOL    HW2 7725   5.587   0.711   4.003
 2276SOL     OW 7726   3.198   4.938   1.338
 2276SOL    HW1 7727   3.108   4.902   1.363
 2276SOL    HW2 7728   3.225   4.900   1.250
 2277SOL     OW 7729   3.576   3.290   5.510
 2277SOL    HW1 7730   3.655   3.290   5.572
 2277SOL    HW2 7731   3.527   3.377   5.517
 2278SOL     OW 7732   6.583   5.535   3.739
 2278SOL    HW1 7733   6.545   5.477   3.668
 2278SOL    HW2 7734   6.648   5.483   3.794
 2279SOL     OW 7735   4.439   6.105   4.762
 2279SOL    HW1 7736   4.452   6.200   4.789
 2279SOL    HW2 7737   4.500   6.082   4.686
 2280SOL     OW 7738   0.242   5.951   4.619
 2280SOL    HW1 7739   0.157   5.904   4.598
 2280SOL    HW2 7740   0.229   6.009   4.700
 2281SOL     OW 7741   3.490   1.520   1.295
 2281SOL    HW1 7742   3.438   1.440   1.265
 2281SOL    HW2 7743   3.582   1.517   1.255
 2282SOL     OW 7744   4.503   6.596   5.158
 2282SOL    HW1 7745   4.443   6.523   5.126
 2282SOL    HW2 7746   4.514   6.665   5.086
 2283SOL     OW 7747   6.548   4.498   1.854
 2283SOL    HW1 7748   6.518   4.406   1.877
 2283SOL    HW2 7749   6.646   4.497   1.831
 2284SOL     OW 7750   2.367   2.386   0.337
 2284SOL    HW1 7751   2.329   2.454   0.274
 2284SOL    HW2 7752   2.315   2.302   0.330
 2285SOL     OW 7753   2.082   2.248   0.914
 2285SOL    HW1 7754   2.022   2.180   0.872
 2285SOL    HW2 7755   2.072   2.335   0.866
 2286SOL     OW 7756   0.742   0.287   4.740
 2286SOL    HW1 7757   0.746   0.380   4.703
 2286SOL    HW2 7758   0.800   0.282   4.822
 2287SOL     OW 7759   1.862   1.704   2.597
 2287SOL    HW1 7760   1.885   1.795   2.562
 2287SOL    HW2 7761   1.802   1.713   2.677
 2288SOL     OW 7762   5.851   5.258   4.305
 2288SOL    HW1 7763   5.768   5.215   4.270
 2288SOL    HW2 7764   5.879   5.332   4.244
 2289SOL     OW 7765   6.685   4.634   2.442
 2289SOL    HW1 7766   6.725   4.570   2.508
 2289SOL    HW2 7767   6.758   4.676   2.388
 2290SOL     OW 7768   1.578   3.611   2.172
 2290SOL    HW1 7769   1.538   3.644   2.087
 2290SOL    HW2 7770   1.660   3.558   2.152
 2291SOL     OW 7771   2.436   2.594   6.623
 2291SOL    HW1 7772   2.380   2.582   6.705
 2291SOL    HW2 7773   2.409   2.526   6.555
 2292SOL     OW 7774   5.992   2.719   3.735
 2292SOL    HW1 7775   6.040   2.707   3.822
 2292SOL    HW2 7776   6.057   2.709   3.660
 2293SOL     OW 7777   5.667   6.689   1.423
 2293SOL    HW1 7778   5.699   6.678   1.329
 2293SOL    HW2 7779   5.676   6.602   1.472
 2294SOL     OW 7780   3.789   0.810   6.475
 2294SOL    HW1 7781   3.797   0.893   6.530
 2294SOL    HW2 7782   3.863   0.746   6.499
 2295SOL     OW 7783   0.399   1.896   2.794
 2295SOL    HW1 7784   0.453   1.977   2.817
 2295SOL    HW2 7785   0.381   1.844   2.878
 2296SOL     OW 7786   3.532   6.149   2.504
 2296SOL    HW1 7787   3.469   6.139   2.581
 2296SOL    HW2 7788   3.480   6.157   2.419
 2297SOL     OW 7789   5.202   4.645   5.386
 2297SOL    HW1 7790   5.237   4.738   5.374
 2297SOL    HW2 7791   5.206   4.619   5.482
 2298SOL     OW 7792   3.729   4.037   1.903
 2298SOL    HW1 7793   3.662   4.108   1.882
 2298SOL    HW2 7794   3.807   4.045   1.840
 2299SOL     OW 7795   4.602   4.423   5.218
 2299SOL    HW1 7796   4.627   4.395   5.311
 2299SOL    HW2 7797   4.614   4.346   5.156
 2300SOL     OW 7798   2.294   5.898   2.828
 2300SOL    HW1 7799   2.313   5.983   2.878
 2300SOL    HW2 7800   2.244   5.920   2.744
 2301SOL     OW 7801   3.562   2.990   3.156
 2301SOL    HW1 7802   3.465   2.966   3.158
 2301SOL    HW2 7803   3.589   3.026   3.245
 2302SOL     OW 7804   3.851   0.429   1.271
 2302SOL    HW1 7805   3.935   0.479   1.250
 2302SOL    HW2 7806   3.867   0.368   1.349
 2303SOL     OW 7807   2.543   3.411   0.007
 2303SOL    HW1 7808   2.570   3.317   0.027
 2303SOL    HW2 7809   2.457   3.431   0.055
 2304SOL     OW 7810   5.574   6.687   3.910
 2304SOL    HW1 7811   5.508   6.666   3.838
 2304SOL    HW2 7812   5.614   6.602   3.944
 2305SOL     OW 7813   2.329   0.299   3.074
 2305SOL    HW1 7814   2.326   0.296   3.174
 2305SOL    HW2 7815   2.383   0.377   3.044
 2306SOL     OW 7816   2.300   5.356   1.929
 2306SOL    HW1 7817   2.390   5.396   1.912
 2306SOL    HW2 7818   2.303   5.302   2.014
 2307SOL     OW 7819   0.158   2.876   4.321
 2307SOL    HW1 7820   0.251   2.869   4.358
 2307SOL    HW2 7821   0.098   2.812   4.368
 2308SOL     OW 7822   2.197   4.807   1.819
 2308SOL    HW1 7823   2.145   4.882   1.778
 2308SOL    HW2 7824   2.211   4.735   1.751
 2309SOL     OW 7825   1.906   0.833   5.708
 2309SOL    HW1 7826   1.951   0.762   5.762
 2309SOL    HW2 7827   1.807   0.823   5.717
 2310SOL     OW 7828   5.825   5.436   0.816
 2310SOL    HW1 7829   5.803   5.417   0.911
 2310SOL    HW2 7830   5.904   5.498   0.812
 2311SOL     OW 7831   2.133   0.436   1.444
 2311SOL    HW1 7832   2.060   0.487   1.489
 2311SOL    HW2 7833   2.218   0.444   1.497
 2312SOL     OW 7834   4.677   6.023   3.534
 2312SOL    HW1 7835   4.764   6.072   3.541
 2312SOL    HW2 7836   4.606   6.077   3.578
 2313SOL     OW 7837   5.472   5.545   1.908
 2313SOL    HW1 7838   5.467   5.463   1.966
 2313SOL    HW2 7839   5.385   5.594   1.914
 2314SOL     OW 7840   5.368   5.981   3.624
 2314SOL    HW1 7841   5.359   6.078   3.602
 2314SOL    HW2 7842   5.363   5.968   3.723
 2315SOL     OW 7843   5.318   2.724   6.836
 2315SOL    HW1 7844   5.231   2.675   6.844
 2315SOL    HW2 7845   5.375   2.678   6.769
 2316SOL     OW 7846   4.467   1.766   3.868
 2316SOL    HW1 7847   4.566   1.772   3.851
 2316SOL    HW2 7848   4.427   1.858   3.865
 2317SOL     OW 7849   0.475   6.523   3.338
 2317SOL    HW1 7850   0.519   6.518   3.427
 2317SOL    HW2 7851   0.520   6.460   3.275
 2318SOL     OW 7852   0.757   2.421   3.648
 2318SOL    HW1 7853   0.850   2.401   3.619
 2318SOL    HW2 7854   0.703   2.449   3.568
 2319SOL     OW 7855   1.730   4.964   3.596
 2319SOL    HW1 7856   1.829   4.971   3.589
 2319SOL    HW2 7857   1.690   4.962   3.504
 2320SOL     OW 7858   0.751   2.696   4.171
 2320SOL    HW1 7859   0.709   2.782   4.142
 2320SOL    HW2 7860   0.817   2.666   4.102
 2321SOL     OW 7861   2.732   6.959   6.478
 2321SOL    HW1 7862   2.663   6.989   6.413
 2321SOL    HW2 7863   2.815   7.014   6.467
 2322SOL     OW 7864   2.887   1.763   5.281
 2322SOL    HW1 7865   2.804   1.817   5.287
 2322SOL    HW2 7866   2.908   1.744   5.185
 2323SOL     OW 7867   2.330   4.944   2.041
 2323SOL    HW1 7868   2.305   4.899   1.956
 2323SOL    HW2 7869   2.428   4.964   2.041
 2324SOL     OW 7870   6.333   6.636   1.997
 2324SOL    HW1 7871   6.387   6.554   1.979
 2324SOL    HW2 7872   6.261   6.643   1.927
 2325SOL     OW 7873   1.389   4.505   2.263
 2325SOL    HW1 7874   1.352   4.575   2.202
 2325SOL    HW2 7875   1.368   4.415   2.226
 2326SOL     OW 7876   3.358   5.148   5.605
 2326SOL    HW1 7877   3.359   5.122   5.701
 2326SOL    HW2 7878   3.303   5.083   5.553
 2327SOL     OW 7879   6.383   3.511   5.113
 2327SOL    HW1 7880   6.441   3.590   5.096
 2327SOL    HW2 7881   6.287   3.539   5.117
 2328SOL     OW 7882   3.340   2.151   3.408
 2328SOL    HW1 7883   3.259   2.208   3.395
 2328SOL    HW2 7884   3.414   2.206   3.446
 2329SOL     OW 7885   1.592   3.903   4.980
 2329SOL    HW1 7886   1.519   3.938   4.920
 2329SOL    HW2 7887   1.675   3.888   4.926
 2330SOL     OW 7888   1.121   3.644   2.177
 2330SOL    HW1 7889   1.081   3.592   2.101
 2330SOL    HW2 7890   1.050   3.664   2.245
 2331SOL     OW 7891   6.400   3.612   0.700
 2331SOL    HW1 7892   6.321   3.570   0.745
 2331SOL    HW2 7893   6.378   3.706   0.675
 2332SOL     OW 7894   4.536   2.084   5.726
 2332SOL    HW1 7895   4.458   2.071   5.666
 2332SOL    HW2 7896   4.606   2.015   5.706
 2333SOL     OW 7897   0.084   6.071   3.187
 2333SOL    HW1 7898   0.031   6.140   3.237
 2333SOL    HW2 7899   0.156   6.116   3.134
 2334SOL     OW 7900   2.451   0.383   0.196
 2334SOL    HW1 7901   2.432   0.327   0.277
 2334SOL    HW2 7902   2.545   0.417   0.200
 2335SOL     OW 7903   5.688   1.117   3.550
 2335SOL    HW1 7904   5.629   1.178   3.603
 2335SOL    HW2 7905   5.633   1.041   3.515
 2336SOL     OW 7906   4.160   1.957   5.000
 2336SOL    HW1 7907   4.098   1.882   4.976
 2336SOL    HW2 7908   4.152   1.977   5.097
 2337SOL     OW 7909   4.897   0.684   3.659
 2337SOL    HW1 7910   4.940   0.718   3.743
 2337SOL    HW2 7911   4.962   0.688   3.584
 2338SOL     OW 7912   1.067   0.972   6.808
 2338SOL    HW1 7913   1.146   0.933   6.760
 2338SOL    HW2 7914   1.094   0.992   6.903
 2339SOL     OW 7915   3.793   3.897   5.107
 2339SOL    HW1 7916   3.752   3.827   5.049
 2339SOL    HW2 7917   3.775   3.875   5.203
 2340SOL     OW 7918   5.233   5.417   6.339
 2340SOL    HW1 7919   5.276   5.450   6.423
 2340SOL    HW2 7920   5.170   5.343   6.360
 2341SOL     OW 7921   5.326   4.512   1.536
 2341SOL    HW1 7922   5.273   4.552   1.461
 2341SOL    HW2 7923   5.335   4.579   1.610
 2342SOL     OW 7924   0.358   6.172   5.263
 2342SOL    HW1 7925   0.317   6.221   5.186
 2342SOL    HW2 7926   0.457   6.185   5.262
 2343SOL     OW 7927   1.879   6.746   2.369
 2343SOL    HW1 7928   1.953   6.804   2.404
 2343SOL    HW2 7929   1.791   6.781   2.401
 2344SOL     OW 7930   1.674   1.082   1.044
 2344SOL    HW1 7931   1.659   1.146   1.119
 2344SOL    HW2 7932   1.736   1.123   0.977
 2345SOL     OW 7933   1.955   5.265   5.544
 2345SOL    HW1 7934   1.887   5.250   5.616
 2345SOL    HW2 7935   2.000   5.353   5.560
 2346SOL     OW 7936   4.873   3.245   4.622
 2346SOL    HW1 7937   4.913   3.311   4.685
 2346SOL    HW2 7938   4.853   3.290   4.535
 2347SOL     OW 7939   2.327   3.682   1.725
 2347SOL    HW1 7940   2.254   3.737   1.764
 2347SOL    HW2 7941   2.331   3.593   1.771
 2348SOL     OW 7942   3.473   6.082   3.682
 2348SOL    HW1 7943   3.517   5.994   3.700
 2348SOL    HW2 7944   3.386   6.066   3.635
 2349SOL     OW 7945   0.635   5.154   6.255
 2349SOL    HW1 7946   0.670   5.245   6.279
 2349SOL    HW2 7947   0.588   5.115   6.334
 2350SOL     OW 7948   5.393   6.530   6.585
 2350SOL    HW1 7949   5.358   6.600   6.647
 2350SOL    HW2 7950   5.493   6.535   6.582
 2351SOL     OW 7951   3.721   4.876   2.743
 2351SOL    HW1 7952   3.672   4.946   2.796
 2351SOL    HW2 7953   3.659   4.800   2.723
 2352SOL     OW 7954   1.351   3.603   2.367
 2352SOL    HW1 7955   1.438   3.612   2.318
 2352SOL    HW2 7956   1.275   3.615   2.304
 2353SOL     OW 7957   2.860   4.832   4.950
 2353SOL    HW1 7958   2.833   4.742   4.985
 2353SOL    HW2 7959   2.793   4.863   4.882
 2354SOL     OW 7960   3.332   2.084   6.648
 2354SOL    HW1 7961   3.294   2.069   6.557
 2354SOL    HW2 7962   3.432   2.084   6.643
 2355SOL     OW 7963   1.140   5.185   6.760
 2355SOL    HW1 7964   1.051   5.198   6.716
 2355SOL    HW2 7965   1.209   5.238   6.712
 2356SOL     OW 7966   2.539   4.368   0.534
 2356SOL    HW1 7967   2.534   4.316   0.449
 2356SOL    HW2 7968   2.574   4.309   0.608
 2357SOL     OW 7969   3.984   5.480   3.848
 2357SOL    HW1 7970   4.029   5.394   3.875
 2357SOL    HW2 7971   3.981   5.542   3.926
 2358SOL     OW 7972   2.660   5.455   4.844
 2358SOL    HW1 7973   2.746   5.499   4.869
 2358SOL    HW2 7974   2.584   5.517   4.863
 2359SOL     OW 7975   0.294   0.974   6.054
 2359SOL    HW1 7976   0.219   1.029   6.090
 2359SOL    HW2 7977   0.344   0.932   6.130
 2360SOL     OW 7978   4.781   5.808   5.906
 2360SOL    HW1 7979   4.694   5.799   5.953
 2360SOL    HW2 7980   4.837   5.878   5.950
 2361SOL     OW 7981   2.869   0.154   4.846
 2361SOL    HW1 7982   2.932   0.094   4.796
 2361SOL    HW2 7983   2.922   0.226   4.891
 2362SOL     OW 7984   3.513   6.667   5.863
 2362SOL    HW1 7985   3.568   6.587   5.886
 2362SOL    HW2 7986   3.417   6.648   5.885
 2363SOL     OW 7987   4.932   2.681   5.279
 2363SOL    HW1 7988   5.021   2.697   5.321
 2363SOL    HW2 7989   4.922   2.740   5.198
 2364SOL     OW 7990   0.376   2.559   2.965
 2364SOL    HW1 7991   0.296   2.614   2.991
 2364SOL    HW2 7992   0.417   2.598   2.883
 2365SOL     OW 7993   5.825   2.724   6.204
 2365SOL    HW1 7994   5.858   2.748   6.112
 2365SOL    HW2 7995   5.899   2.736   6.270
 2366SOL     OW 7996   1.227   4.018   5.556
 2366SOL    HW1 7997   1.134   4.020   5.520
 2366SOL    HW2 7998   1.226   3.993   5.653
 2367SOL     OW 7999   2.313   3.636   6.432
 2367SOL    HW1 8000   2.270   3.634   6.523
 2367SOL    HW2 8001   2.365   3.721   6.422
 2368SOL     OW 8002   4.896   0.639   3.953
 2368SOL    HW1 8003   4.965   0.708   3.929
 2368SOL    HW2 8004   4.912   0.607   4.046
 2369SOL     OW 8005   2.227   2.949   4.383
 2369SOL    HW1 8006   2.218   2.974   4.479
 2369SOL    HW2 8007   2.165   2.873   4.362
 2370SOL     OW 8008   4.546   4.011   6.899
 2370SOL    HW1 8009   4.607   4.088   6.916
 2370SOL    HW2 8010   4.489   4.031   6.820
 2371SOL     OW 8011   1.378   6.473   1.750
 2371SOL    HW1 8012   1.410   6.480   1.844
 2371SOL    HW2 8013   1.278   6.464   1.749
 2372SOL     OW 8014   1.249   2.135   0.842
 2372SOL    HW1 8015   1.227   2.132   0.940
 2372SOL    HW2 8016   1.273   2.044   0.810
 2373SOL     OW 8017   5.719   0.372   6.633
 2373SOL    HW1 8018   5.754   0.439   6.567
 2373SOL    HW2 8019   5.642   0.411   6.682
 2374SOL     OW 8020   6.261   0.219   3.776
 2374SOL    HW1 8021   6.284   0.131   3.734
 2374SOL    HW2 8022   6.340   0.252   3.828
 2375SOL     OW 8023   1.855   6.811   3.915
 2375SOL    HW1 8024   1.783   6.872   3.882
 2375SOL    HW2 8025   1.943   6.860   3.915
 2376SOL     OW 8026   6.459   2.653   4.388
 2376SOL    HW1 8027   6.488   2.687   4.478
 2376SOL    HW2 8028   6.392   2.716   4.348
 2377SOL     OW 8029   3.434   4.110   3.725
 2377SOL    HW1 8030   3.341   4.140   3.705
 2377SOL    HW2 8031   3.436   4.010   3.729
 2378SOL     OW 8032   5.443   1.579   6.823
 2378SOL    HW1 8033   5.495   1.646   6.877
 2378SOL    HW2 8034   5.457   1.488   6.860
 2379SOL     OW 8035   7.020   2.007   6.931
 2379SOL    HW1 8036   0.040   1.994   7.018
 2379SOL    HW2 8037   6.925   1.977   6.939
 2380SOL     OW 8038   6.932   0.010   5.813
 2380SOL    HW1 8039   6.838   0.002   5.780
 2380SOL    HW2 8040   6.943   6.983   5.896
 2381SOL     OW 8041   2.329   4.308   4.209
 2381SOL    HW1 8042   2.277   4.223   4.203
 2381SOL    HW2 8043   2.369   4.329   4.120
 2382SOL     OW 8044   2.343   4.760   2.516
 2382SOL    HW1 8045   2.436   4.746   2.551
 2382SOL    HW2 8046   2.294   4.823   2.576
 2383SOL     OW 8047   5.136   6.293   6.888
 2383SOL    HW1 8048   5.172   6.200   6.897
 2383SOL    HW2 8049   5.122   6.314   6.791
 2384SOL     OW 8050   1.157   0.532   2.268
 2384SOL    HW1 8051   1.182   0.520   2.364
 2384SOL    HW2 8052   1.062   0.562   2.262
 2385SOL     OW 8053   6.186   0.272   1.057
 2385SOL    HW1 8054   6.093   0.289   1.024
 2385SOL    HW2 8055   6.234   0.215   0.990
 2386SOL     OW 8056   4.023   4.829   4.114
 2386SOL    HW1 8057   3.953   4.806   4.047
 2386SOL    HW2 8058   4.043   4.927   4.110
 2387SOL     OW 8059   6.810   2.429   4.650
 2387SOL    HW1 8060   6.751   2.432   4.569
 2387SOL    HW2 8061   6.789   2.347   4.704
 2388SOL     OW 8062   1.342   1.981   5.006
 2388SOL    HW1 8063   1.294   1.901   5.042
 2388SOL    HW2 8064   1.400   1.953   4.929
 2389SOL     OW 8065   5.162   4.079   3.768
 2389SOL    HW1 8066   5.176   4.002   3.830
 2389SOL    HW2 8067   5.249   4.105   3.726
 2390SOL     OW 8068   3.501   3.549   4.463
 2390SOL    HW1 8069   3.451   3.573   4.379
 2390SOL    HW2 8070   3.531   3.632   4.509
 2391SOL     OW 8071   3.595   4.315   5.714
 2391SOL    HW1 8072   3.530   4.346   5.782
 2391SOL    HW2 8073   3.626   4.222   5.736
 2392SOL     OW 8074   3.240   6.032   5.860
 2392SOL    HW1 8075   3.154   6.074   5.889
 2392SOL    HW2 8076   3.305   6.032   5.935
 2393SOL     OW 8077   3.573   5.303   1.224
 2393SOL    HW1 8078   3.629   5.250   1.160
 2393SOL    HW2 8079   3.496   5.247   1.254
 2394SOL     OW 8080   1.548   3.503   5.070
 2394SOL    HW1 8081   1.484   3.574   5.103
 2394SOL    HW2 8082   1.637   3.544   5.052
 2395SOL     OW 8083   6.580   2.120   6.988
 2395SOL    HW1 8084   6.628   2.158   6.909
 2395SOL    HW2 8085   6.527   2.040   6.960
 2396SOL     OW 8086   5.261   5.509   0.968
 2396SOL    HW1 8087   5.276   5.411   0.956
 2396SOL    HW2 8088   5.212   5.525   1.054
 2397SOL     OW 8089   6.708   4.943   0.631
 2397SOL    HW1 8090   6.654   5.022   0.601
 2397SOL    HW2 8091   6.675   4.860   0.585
 2398SOL     OW 8092   2.820   4.618   5.931
 2398SOL    HW1 8093   2.830   4.565   5.847
 2398SOL    HW2 8094   2.805   4.714   5.907
 2399SOL     OW 8095   4.487   1.899   2.393
 2399SOL    HW1 8096   4.518   1.974   2.335
 2399SOL    HW2 8097   4.419   1.933   2.458
 2400SOL     OW 8098   3.988   4.538   0.747
 2400SOL    HW1 8099   4.023   4.495   0.664
 2400SOL    HW2 8100   3.889   4.527   0.752
 2401SOL     OW 8101   3.784   0.572   5.578
 2401SOL    HW1 8102   3.854   0.514   5.538
 2401SOL    HW2 8103   3.750   0.531   5.663
 2402SOL     OW 8104   7.009   2.301   4.478
 2402SOL    HW1 8105   6.979   2.283   4.384
 2402SOL    HW2 8106   6.931   2.334   4.531
 2403SOL     OW 8107   2.890   2.728   6.791
 2403SOL    HW1 8108   2.868   2.632   6.808
 2403SOL    HW2 8109   2.979   2.735   6.747
 2404SOL     OW 8110   5.491   1.191   2.545
 2404SOL    HW1 8111   5.484   1.182   2.644
 2404SOL    HW2 8112   5.487   1.288   2.519
 2405SOL     OW 8113   3.902   3.470   4.948
 2405SOL    HW1 8114   3.989   3.513   4.921
 2405SOL    HW2 8115   3.827   3.514   4.899
 2406SOL     OW 8116   1.894   0.430   3.690
 2406SOL    HW1 8117   1.970   0.370   3.714
 2406SOL    HW2 8118   1.919   0.489   3.614
 2407SOL     OW 8119   4.399   1.896   3.214
 2407SOL    HW1 8120   4.454   1.970   3.176
 2407SOL    HW2 8121   4.303   1.909   3.188
 2408SOL     OW 8122   3.831   5.159   2.664
 2408SOL    HW1 8123   3.769   5.215   2.718
 2408SOL    HW2 8124   3.902   5.216   2.624
 2409SOL     OW 8125   2.248   2.894   1.966
 2409SOL    HW1 8126   2.149   2.907   1.953
 2409SOL    HW2 8127   2.296   2.920   1.882
 2410SOL     OW 8128   6.659   2.558   5.728
 2410SOL    HW1 8129   6.628   2.563   5.823
 2410SOL    HW2 8130   6.632   2.642   5.680
 2411SOL     OW 8131   3.391   4.313   5.540
 2411SOL    HW1 8132   3.463   4.296   5.606
 2411SOL    HW2 8133   3.430   4.321   5.448
 2412SOL     OW 8134   2.824   4.174   6.929
 2412SOL    HW1 8135   2.915   4.132   6.922
 2412SOL    HW2 8136   2.763   4.113   6.979
 2413SOL     OW 8137   6.533   3.123   6.886
 2413SOL    HW1 8138   6.569   3.156   6.972
 2413SOL    HW2 8139   6.590   3.049   6.851
 2414SOL     OW 8140   6.000   3.936   2.696
 2414SOL    HW1 8141   6.051   3.996   2.633
 2414SOL    HW2 8142   5.929   3.888   2.645
 2415SOL     OW 8143   1.508   0.388   0.997
 2415SOL    HW1 8144   1.433   0.322   0.995
 2415SOL    HW2 8145   1.554   0.388   0.908
 2416SOL     OW 8146   3.020   1.317   4.879
 2416SOL    HW1 8147   2.935   1.298   4.930
 2416SOL    HW2 8148   3.089   1.352   4.942
 2417SOL     OW 8149   4.580   2.729   0.328
 2417SOL    HW1 8150   4.565   2.695   0.235
 2417SOL    HW2 8151   4.678   2.747   0.341
 2418SOL     OW 8152   3.175   3.455   4.368
 2418SOL    HW1 8153   3.086   3.413   4.384
 2418SOL    HW2 8154   3.243   3.385   4.349
 2419SOL     OW 8155   0.259   6.624   4.477
 2419SOL    HW1 8156   0.176   6.588   4.519
 2419SOL    HW2 8157   0.307   6.550   4.429
 2420SOL     OW 8158   3.922   7.024   2.427
 2420SOL    HW1 8159   3.898   0.094   2.430
 2420SOL    HW2 8160   4.011   7.009   2.470
 2421SOL     OW 8161   3.021   0.609   4.404
 2421SOL    HW1 8162   2.954   0.678   4.377
 2421SOL    HW2 8163   3.082   0.648   4.473
 2422SOL     OW 8164   5.499   0.524   1.359
 2422SOL    HW1 8165   5.465   0.430   1.355
 2422SOL    HW2 8166   5.513   0.558   1.266
 2423SOL     OW 8167   1.024   6.200   3.386
 2423SOL    HW1 8168   1.024   6.236   3.293
 2423SOL    HW2 8169   1.090   6.125   3.393
 2424SOL     OW 8170   5.420   5.536   6.186
 2424SOL    HW1 8171   5.353   5.591   6.137
 2424SOL    HW2 8172   5.376   5.487   6.261
 2425SOL     OW 8173   6.331   0.043   4.526
 2425SOL    HW1 8174   6.235   0.069   4.515
 2425SOL    HW2 8175   6.374   0.036   4.437
 2426SOL     OW 8176   0.816   4.492   4.353
 2426SOL    HW1 8177   0.797   4.485   4.451
 2426SOL    HW2 8178   0.915   4.483   4.338
 2427SOL     OW 8179   6.596   5.523   6.985
 2427SOL    HW1 8180   6.553   5.432   6.983
 2427SOL    HW2 8181   6.676   5.521   0.018
 2428SOL     OW 8182   1.305   6.803   3.383
 2428SOL    HW1 8183   1.392   6.754   3.383
 2428SOL    HW2 8184   1.247   6.770   3.457
 2429SOL     OW 8185   6.763   5.573   3.292
 2429SOL    HW1 8186   6.835   5.618   3.240
 2429SOL    HW2 8187   6.802   5.530   3.373
 2430SOL     OW 8188   5.928   2.316   0.837
 2430SOL    HW1 8189   5.967   2.359   0.755
 2430SOL    HW2 8190   5.934   2.217   0.829
 2431SOL     OW 8191   4.144   0.431   1.915
 2431SOL    HW1 8192   4.209   0.498   1.953
 2431SOL    HW2 8193   4.062   0.428   1.972
 2432SOL     OW 8194   4.009   6.418   3.017
 2432SOL    HW1 8195   4.077   6.456   2.955
 2432SOL    HW2 8196   3.941   6.366   2.964
 2433SOL     OW 8197   2.933   6.579   0.666
 2433SOL    HW1 8198   2.940   6.482   0.643
 2433SOL    HW2 8199   3.022   6.623   0.650
 2434SOL     OW 8200   5.009   1.662   3.509
 2434SOL    HW1 8201   5.096   1.674   3.461
 2434SOL    HW2 8202   5.025   1.670   3.608
 2435SOL     OW 8203   4.700   5.707   7.005
 2435SOL    HW1 8204   4.633   5.634   6.994
 2435SOL    HW2 8205   4.792   5.668   7.010
 2436SOL     OW 8206   2.270   0.444   0.745
 2436SOL    HW1 8207   2.280   0.419   0.842
 2436SOL    HW2 8208   2.175   0.469   0.727
 2437SOL     OW 8209   5.536   5.453   1.081
 2437SOL    HW1 8210   5.521   5.388   1.007
 2437SOL    HW2 8211   5.610   5.516   1.056
 2438SOL     OW 8212   4.230   0.725   5.626
 2438SOL    HW1 8213   4.264   0.641   5.670
 2438SOL    HW2 8214   4.236   0.801   5.691
 2439SOL     OW 8215   1.253   4.095   6.946
 2439SOL    HW1 8216   1.240   4.030   6.871
 2439SOL    HW2 8217   1.334   4.069   6.998
 2440SOL     OW 8218   3.421   6.330   5.041
 2440SOL    HW1 8219   3.367   6.259   4.995
 2440SOL    HW2 8220   3.487   6.369   4.976
 2441SOL     OW 8221   6.704   1.329   0.068
 2441SOL    HW1 8222   6.628   1.268   0.049
 2441SOL    HW2 8223   6.730   1.376   7.011
 2442SOL     OW 8224   6.115   6.061   3.639
 2442SOL    HW1 8225   6.201   6.108   3.658
 2442SOL    HW2 8226   6.116   5.971   3.683
 2443SOL     OW 8227   2.948   0.082   6.770
 2443SOL    HW1 8228   2.918   0.158   6.712
 2443SOL    HW2 8229   2.898   0.084   6.856
 2444SOL     OW 8230   3.793   4.066   6.517
 2444SOL    HW1 8231   3.758   4.074   6.423
 2444SOL    HW2 8232   3.755   3.984   6.559
 2445SOL     OW 8233   0.064   0.903   2.262
 2445SOL    HW1 8234   7.002   0.947   2.280
 2445SOL    HW2 8235   0.112   0.952   2.190
 2446SOL     OW 8236   0.504   3.211   4.114
 2446SOL    HW1 8237   0.438   3.246   4.048
 2446SOL    HW2 8238   0.487   3.252   4.204
 2447SOL     OW 8239   3.111   1.069   1.158
 2447SOL    HW1 8240   3.155   1.023   1.235
 2447SOL    HW2 8241   3.178   1.084   1.085
 2448SOL     OW 8242   6.970   0.589   4.027
 2448SOL    HW1 8243   7.010   0.613   3.939
 2448SOL    HW2 8244   7.000   0.496   4.053
 2449SOL     OW 8245   6.401   4.589   2.709
 2449SOL    HW1 8246   6.308   4.552   2.714
 2449SOL    HW2 8247   6.397   4.689   2.716
 2450SOL     OW 8248   3.241   5.262   5.291
 2450SOL    HW1 8249   3.160   5.291   5.343
 2450SOL    HW2 8250   3.230   5.166   5.263
 2451SOL     OW 8251   0.790   0.237   3.747
 2451SOL    HW1 8252   0.873   0.189   3.775
 2451SOL    HW2 8253   0.757   0.293   3.823
 2452SOL     OW 8254   2.658   2.471   3.241
 2452SOL    HW1 8255   2.716   2.462   3.160
 2452SOL    HW2 8256   2.662   2.386   3.294
 2453SOL     OW 8257   5.960   3.450   0.863
 2453SOL    HW1 8258   6.051   3.485   0.885
 2453SOL    HW2 8259   5.905   3.446   0.946
 2454SOL     OW 8260   3.269   0.811   0.284
 2454SOL    HW1 8261   3.292   0.735   0.223
 2454SOL    HW2 8262   3.173   0.836   0.271
 2455SOL     OW 8263   4.770   0.635   1.010
 2455SOL    HW1 8264   4.750   0.727   1.045
 2455SOL    HW2 8265   4.695   0.573   1.035
 2456SOL     OW 8266   5.652   1.668   0.527
 2456SOL    HW1 8267   5.645   1.751   0.583
 2456SOL    HW2 8268   5.637   1.588   0.585
 2457SOL     OW 8269   0.109   6.219   6.486
 2457SOL    HW1 8270   0.197   6.256   6.518
 2457SOL    HW2 8271   0.070   6.280   6.418
 2458SOL     OW 8272   2.313   5.902   4.257
 2458SOL    HW1 8273   2.297   5.811   4.296
 2458SOL    HW2 8274   2.270   5.908   4.167
 2459SOL     OW 8275   2.966   5.884   5.828
 2459SOL    HW1 8276   2.999   5.797   5.866
 2459SOL    HW2 8277   2.968   5.954   5.899
 2460SOL     OW 8278   1.938   1.221   1.890
 2460SOL    HW1 8279   1.976   1.300   1.841
 2460SOL    HW2 8280   1.853   1.192   1.845
 2461SOL     OW 8281   4.711   0.472   3.064
 2461SOL    HW1 8282   4.667   0.388   3.032
 2461SOL    HW2 8283   4.679   0.549   3.010
 2462SOL     OW 8284   1.979   5.735   0.672
 2462SOL    HW1 8285   2.018   5.652   0.630
 2462SOL    HW2 8286   1.932   5.710   0.757
 2463SOL     OW 8287   6.705   2.308   5.394
 2463SOL    HW1 8288   6.765   2.257   5.455
 2463SOL    HW2 8289   6.714   2.406   5.413
 2464SOL     OW 8290   1.946   4.158   2.076
 2464SOL    HW1 8291   1.909   4.144   1.984
 2464SOL    HW2 8292   1.888   4.112   2.143
 2465SOL     OW 8293   0.449   0.459   1.631
 2465SOL    HW1 8294   0.410   0.534   1.683
 2465SOL    HW2 8295   0.394   0.376   1.645
 2466SOL     OW 8296   2.544   1.957   2.573
 2466SOL    HW1 8297   2.491   1.887   2.526
 2466SOL    HW2 8298   2.642   1.937   2.564
 2467SOL     OW 8299   5.311   1.113   4.802
 2467SOL    HW1 8300   5.342   1.019   4.785
 2467SOL    HW2 8301   5.315   1.165   4.717
 2468SOL     OW 8302   4.943   6.243   2.254
 2468SOL    HW1 8303   5.016   6.288   2.306
 2468SOL    HW2 8304   4.861   6.235   2.310
 2469SOL     OW 8305   3.815   3.973   5.481
 2469SOL    HW1 8306   3.742   4.033   5.448
 2469SOL    HW2 8307   3.778   3.912   5.551
 2470SOL     OW 8308   3.684   4.808   6.462
 2470SOL    HW1 8309   3.778   4.843   6.462
 2470SOL    HW2 8310   3.673   4.740   6.535
 2471SOL     OW 8311   2.935   5.744   0.900
 2471SOL    HW1 8312   3.033   5.726   0.892
 2471SOL    HW2 8313   2.912   5.765   0.995
 2472SOL     OW 8314   5.359   2.598   4.612
 2472SOL    HW1 8315   5.445   2.548   4.615
 2472SOL    HW2 8316   5.372   2.684   4.562
 2473SOL     OW 8317   2.204   4.046   4.753
 2473SOL    HW1 8318   2.151   4.123   4.788
 2473SOL    HW2 8319   2.266   4.013   4.824
 2474SOL     OW 8320   0.209   6.330   1.058
 2474SOL    HW1 8321   0.176   6.339   0.964
 2474SOL    HW2 8322   0.290   6.272   1.060
 2475SOL     OW 8323   4.583   1.669   1.609
 2475SOL    HW1 8324   4.488   1.659   1.637
 2475SOL    HW2 8325   4.593   1.751   1.554
 2476SOL     OW 8326   0.209   1.898   3.591
 2476SOL    HW1 8327   0.175   1.820   3.538
 2476SOL    HW2 8328   0.230   1.974   3.529
 2477SOL     OW 8329   5.010   1.576   2.514
 2477SOL    HW1 8330   4.936   1.514   2.489
 2477SOL    HW2 8331   5.058   1.540   2.594
 2478SOL     OW 8332   6.089   1.323   2.231
 2478SOL    HW1 8333   6.147   1.245   2.204
 2478SOL    HW2 8334   5.993   1.295   2.228
 2479SOL     OW 8335   1.851   3.539   1.024
 2479SOL    HW1 8336   1.835   3.516   1.120
 2479SOL    HW2 8337   1.853   3.638   1.013
 2480SOL     OW 8338   6.052   4.107   0.650
 2480SOL    HW1 8339   6.073   4.025   0.596
 2480SOL    HW2 8340   6.137   4.155   0.671
 2481SOL     OW 8341   2.389   0.724   0.010
 2481SOL    HW1 8342   2.359   0.637   0.050
 2481SOL    HW2 8343   2.317   0.792   0.021
 2482SOL     OW 8344   4.635   2.797   5.751
 2482SOL    HW1 8345   4.611   2.879   5.803
 2482SOL    HW2 8346   4.659   2.822   5.657
 2483SOL     OW 8347   2.138   2.070   6.892
 2483SOL    HW1 8348   2.046   2.041   6.866
 2483SOL    HW2 8349   2.141   2.089   6.990
 2484SOL     OW 8350   2.809   0.638   0.248
 2484SOL    HW1 8351   2.753   0.694   0.187
 2484SOL    HW2 8352   2.793   0.541   0.229
 2485SOL     OW 8353   5.760   3.546   1.735
 2485SOL    HW1 8354   5.716   3.598   1.662
 2485SOL    HW2 8355   5.843   3.592   1.764
 2486SOL     OW 8356   2.026   4.498   4.482
 2486SOL    HW1 8357   2.084   4.567   4.439
 2486SOL    HW2 8358   2.082   4.437   4.539
 2487SOL     OW 8359   3.890   6.033   0.377
 2487SOL    HW1 8360   3.836   5.954   0.405
 2487SOL    HW2 8361   3.854   6.067   0.290
 2488SOL     OW 8362   2.042   4.535   2.286
 2488SOL    HW1 8363   2.093   4.453   2.312
 2488SOL    HW2 8364   2.076   4.569   2.198
 2489SOL     OW 8365   1.311   6.013   3.008
 2489SOL    HW1 8366   1.307   5.914   2.998
 2489SOL    HW2 8367   1.352   6.037   3.096
 2490SOL     OW 8368   6.399   5.070   1.714
 2490SOL    HW1 8369   6.456   5.136   1.665
 2490SOL    HW2 8370   6.433   4.977   1.696
 2491SOL     OW 8371   2.682   5.293   1.011
 2491SOL    HW1 8372   2.613   5.292   0.938
 2491SOL    HW2 8373   2.709   5.199   1.032
 2492SOL     OW 8374   4.250   2.571   0.104
 2492SOL    HW1 8375   4.273   2.516   0.185
 2492SOL    HW2 8376   4.334   2.599   0.058
 2493SOL     OW 8377   6.595   0.760   2.216
 2493SOL    HW1 8378   6.635   0.697   2.282
 2493SOL    HW2 8379   6.559   0.840   2.263
 2494SOL     OW 8380   5.920   4.320   1.830
 2494SOL    HW1 8381   5.973   4.362   1.905
 2494SOL    HW2 8382   5.846   4.381   1.803
 2495SOL     OW 8383   4.979   0.375   4.546
 2495SOL    HW1 8384   4.904   0.435   4.517
 2495SOL    HW2 8385   4.950   0.280   4.538
 2496SOL     OW 8386   0.342   4.093   6.225
 2496SOL    HW1 8387   0.373   4.065   6.134
 2496SOL    HW2 8388   0.420   4.092   6.288
 2497SOL     OW 8389   6.994   1.175   0.760
 2497SOL    HW1 8390   6.928   1.232   0.711
 2497SOL    HW2 8391   6.971   1.174   0.857
 2498SOL     OW 8392   3.794   2.162   4.212
 2498SOL    HW1 8393   3.859   2.130   4.143
 2498SOL    HW2 8394   3.831   2.145   4.303
 2499SOL     OW 8395   5.335   2.592   4.259
 2499SOL    HW1 8396   5.381   2.504   4.273
 2499SOL    HW2 8397   5.238   2.577   4.243
 2500SOL     OW 8398   4.333   2.671   6.703
 2500SOL    HW1 8399   4.428   2.654   6.725
 2500SOL    HW2 8400   4.280   2.587   6.715
 2501SOL     OW 8401   6.600   6.089   0.262
 2501SOL    HW1 8402   6.601   6.149   0.342
 2501SOL    HW2 8403   6.591   6.143   0.179
 2502SOL     OW 8404   2.381   5.924   3.260
 2502SOL    HW1 8405   2.390   5.975   3.346
 2502SOL    HW2 8406   2.369   5.987   3.184
 2503SOL     OW 8407   3.681   5.458   5.027
 2503SOL    HW1 8408   3.766   5.435   4.979
 2503SOL    HW2 8409   3.603   5.425   4.973
 2504SOL     OW 8410   2.588   5.109   5.029
 2504SOL    HW1 8411   2.565   5.026   5.079
 2504SOL    HW2 8412   2.509   5.170   5.027
 2505SOL     OW 8413   1.738   5.888   4.114
 2505SOL    HW1 8414   1.819   5.870   4.058
 2505SOL    HW2 8415   1.738   5.984   4.141
 2506SOL     OW 8416   5.793   3.565   6.496
 2506SOL    HW1 8417   5.695   3.549   6.485
 2506SOL    HW2 8418   5.842   3.478   6.491
 2507SOL     OW 8419   1.349   4.177   1.232
 2507SOL    HW1 8420   1.367   4.257   1.175
 2507SOL    HW2 8421   1.351   4.203   1.328
 2508SOL     OW 8422   3.010   1.279   1.947
 2508SOL    HW1 8423   2.944   1.234   1.888
 2508SOL    HW2 8424   2.964   1.315   2.028
 2509SOL     OW 8425   6.007   2.440   2.656
 2509SOL    HW1 8426   5.927   2.451   2.597
 2509SOL    HW2 8427   6.017   2.344   2.682
 2510SOL     OW 8428   3.335   4.314   1.326
 2510SOL    HW1 8429   3.349   4.362   1.239
 2510SOL    HW2 8430   3.306   4.220   1.307
 2511SOL     OW 8431   2.732   1.585   3.888
 2511SOL    HW1 8432   2.791   1.635   3.951
 2511SOL    HW2 8433   2.700   1.501   3.931
 2512SOL     OW 8434   4.904   5.224   4.918
 2512SOL    HW1 8435   4.831   5.183   4.862
 2512SOL    HW2 8436   4.868   5.246   5.008
 2513SOL     OW 8437   1.653   3.103   5.141
 2513SOL    HW1 8438   1.584   3.077   5.074
 2513SOL    HW2 8439   1.623   3.184   5.192
 2514SOL     OW 8440   6.417   3.534   4.074
 2514SOL    HW1 8441   6.325   3.494   4.080
 2514SOL    HW2 8442   6.473   3.500   4.149
 2515SOL     OW 8443   1.427   6.519   0.328
 2515SOL    HW1 8444   1.511   6.476   0.364
 2515SOL    HW2 8445   1.381   6.567   0.402
 2516SOL     OW 8446   5.727   0.274   3.601
 2516SOL    HW1 8447   5.764   0.308   3.687
 2516SOL    HW2 8448   5.774   0.318   3.525
 2517SOL     OW 8449   1.149   5.883   6.098
 2517SOL    HW1 8450   1.192   5.793   6.099
 2517SOL    HW2 8451   1.179   5.935   6.178
 2518SOL     OW 8452   2.353   3.566   6.782
 2518SOL    HW1 8453   2.414   3.486   6.787
 2518SOL    HW2 8454   2.266   3.544   6.826
 2519SOL     OW 8455   4.730   6.224   3.916
 2519SOL    HW1 8456   4.691   6.308   3.878
 2519SOL    HW2 8457   4.695   6.145   3.866
 2520SOL     OW 8458   1.228   3.117   0.181
 2520SOL    HW1 8459   1.143   3.100   0.132
 2520SOL    HW2 8460   1.294   3.158   0.118
 2521SOL     OW 8461   1.190   6.368   5.809
 2521SOL    HW1 8462   1.144   6.308   5.744
 2521SOL    HW2 8463   1.140   6.454   5.816
 2522SOL     OW 8464   6.877   2.794   5.878
 2522SOL    HW1 8465   6.878   2.819   5.781
 2522SOL    HW2 8466   6.865   2.876   5.934
 2523SOL     OW 8467   6.854   2.977   1.513
 2523SOL    HW1 8468   6.792   2.901   1.492
 2523SOL    HW2 8469   6.857   2.991   1.612
 2524SOL     OW 8470   0.823   5.160   4.924
 2524SOL    HW1 8471   0.855   5.178   4.831
 2524SOL    HW2 8472   0.876   5.085   4.964
 2525SOL     OW 8473   0.750   3.017   4.191
 2525SOL    HW1 8474   0.833   3.061   4.223
 2525SOL    HW2 8475   0.674   3.042   4.250
 2526SOL     OW 8476   1.784   4.319   5.371
 2526SOL    HW1 8477   1.855   4.294   5.305
 2526SOL    HW2 8478   1.763   4.240   5.429
 2527SOL     OW 8479   5.273   6.471   5.018
 2527SOL    HW1 8480   5.211   6.493   5.093
 2527SOL    HW2 8481   5.282   6.372   5.010
 2528SOL     OW 8482   6.082   4.338   0.917
 2528SOL    HW1 8483   6.118   4.394   0.991
 2528SOL    HW2 8484   6.125   4.365   0.831
 2529SOL     OW 8485   0.095   6.063   6.726
 2529SOL    HW1 8486   0.113   6.119   6.645
 2529SOL    HW2 8487   0.170   6.074   6.791
 2530SOL     OW 8488   1.291   6.351   4.677
 2530SOL    HW1 8489   1.257   6.424   4.735
 2530SOL    HW2 8490   1.216   6.316   4.620
 2531SOL     OW 8491   5.451   5.929   4.289
 2531SOL    HW1 8492   5.375   5.991   4.306
 2531SOL    HW2 8493   5.434   5.842   4.335
 2532SOL     OW 8494   0.905   5.944   1.119
 2532SOL    HW1 8495   1.002   5.962   1.107
 2532SOL    HW2 8496   0.852   6.023   1.089
 2533SOL     OW 8497   3.800   0.182   3.248
 2533SOL    HW1 8498   3.787   0.261   3.187
 2533SOL    HW2 8499   3.895   0.151   3.242
 2534SOL     OW 8500   2.458   0.842   2.956
 2534SOL    HW1 8501   2.535   0.786   2.925
 2534SOL    HW2 8502   2.423   0.896   2.879
 2535SOL     OW 8503   2.659   2.799   6.650
 2535SOL    HW1 8504   2.747   2.774   6.692
 2535SOL    HW2 8505   2.599   2.719   6.648
 2536SOL     OW 8506   6.851   2.479   3.817
 2536SOL    HW1 8507   6.907   2.424   3.756
 2536SOL    HW2 8508   6.754   2.463   3.797
 2537SOL     OW 8509   5.088   6.283   6.621
 2537SOL    HW1 8510   5.137   6.267   6.535
 2537SOL    HW2 8511   5.028   6.363   6.610
 2538SOL     OW 8512   1.355   4.105   4.421
 2538SOL    HW1 8513   1.338   4.107   4.323
 2538SOL    HW2 8514   1.439   4.156   4.442
 2539SOL     OW 8515   5.249   0.285   5.786
 2539SOL    HW1 8516   5.279   0.361   5.727
 2539SOL    HW2 8517   5.220   0.321   5.874
 2540SOL     OW 8518   4.463   1.151   2.260
 2540SOL    HW1 8519   4.466   1.231   2.200
 2540SOL    HW2 8520   4.368   1.127   2.279
 2541SOL     OW 8521   1.631   6.477   5.400
 2541SOL    HW1 8522   1.648   6.529   5.483
 2541SOL    HW2 8523   1.641   6.537   5.320
 2542SOL     OW 8524   4.925   1.753   5.561
 2542SOL    HW1 8525   4.968   1.800   5.485
 2542SOL    HW2 8526   4.878   1.671   5.527
 2543SOL     OW 8527   1.721   1.717   2.835
 2543SOL    HW1 8528   1.771   1.758   2.911
 2543SOL    HW2 8529   1.680   1.630   2.863
 2544SOL     OW 8530   6.804   5.137   1.743
 2544SOL    HW1 8531   6.822   5.140   1.644
 2544SOL    HW2 8532   6.787   5.043   1.770
 2545SOL     OW 8533   1.798   0.958   0.733
 2545SOL    HW1 8534   1.801   0.875   0.789
 2545SOL    HW2 8535   1.756   0.936   0.644
 2546SOL     OW 8536   0.158   2.694   2.613
 2546SOL    HW1 8537   0.094   2.669   2.686
 2546SOL    HW2 8538   0.109   2.698   2.526
 2547SOL     OW 8539   6.102   5.023   6.886
 2547SOL    HW1 8540   6.156   5.097   6.846
 2547SOL    HW2 8541   6.137   4.935   6.854
 2548SOL     OW 8542   2.939   6.882   5.326
 2548SOL    HW1 8543   2.975   6.809   5.267
 2548SOL    HW2 8544   2.943   6.854   5.421
 2549SOL     OW 8545   1.992   1.224   1.575
 2549SOL    HW1 8546   2.028   1.140   1.616
 2549SOL    HW2 8547   2.067   1.284   1.549
 2550SOL     OW 8548   6.756   0.677   6.394
 2550SOL    HW1 8549   6.683   0.694   6.328
 2550SOL    HW2 8550   6.845   0.687   6.348
 2551SOL     OW 8551   2.503   5.782   7.018
 2551SOL    HW1 8552   2.438   5.857   7.008
 2551SOL    HW2 8553   2.455   5.695   7.006
 2552SOL     OW 8554   1.259   6.046   5.853
 2552SOL    HW1 8555   1.350   6.036   5.813
 2552SOL    HW2 8556   1.257   6.000   5.943
 2553SOL     OW 8557   3.665   3.410   0.018
 2553SOL    HW1 8558   3.650   3.405   6.946
 2553SOL    HW2 8559   3.760   3.434   0.036
 2554SOL     OW 8560   1.703   5.741   6.630
 2554SOL    HW1 8561   1.607   5.764   6.645
 2554SOL    HW2 8562   1.730   5.768   6.537
 2555SOL     OW 8563   6.657   6.075   5.807
 2555SOL    HW1 8564   6.596   6.096   5.731
 2555SOL    HW2 8565   6.639   6.139   5.882
 2556SOL     OW 8566   4.134   5.989   0.464
 2556SOL    HW1 8567   4.043   6.005   0.427
 2556SOL    HW2 8568   4.174   6.077   0.492
 2557SOL     OW 8569   2.517   2.356   6.433
 2557SOL    HW1 8570   2.447   2.416   6.394
 2557SOL    HW2 8571   2.511   2.266   6.389
 2558SOL     OW 8572   4.090   3.330   6.186
 2558SOL    HW1 8573   4.169   3.331   6.124
 2558SOL    HW2 8574   4.030   3.407   6.164
 2559SOL     OW 8575   6.496   3.045   4.409
 2559SOL    HW1 8576   6.506   2.956   4.453
 2559SOL    HW2 8577   6.584   3.092   4.407
 2560SOL     OW 8578   5.167   3.533   4.137
 2560SOL    HW1 8579   5.231   3.564   4.208
 2560SOL    HW2 8580   5.137   3.440   4.158
 2561SOL     OW 8581   3.363   0.264   4.106
 2561SOL    HW1 8582   3.370   0.337   4.038
 2561SOL    HW2 8583   3.267   0.254   4.134
 2562SOL     OW 8584   1.818   5.772   2.414
 2562SOL    HW1 8585   1.740   5.834   2.415
 2562SOL    HW2 8586   1.831   5.737   2.321
 2563SOL     OW 8587   4.261   1.518   6.790
 2563SOL    HW1 8588   4.311   1.441   6.829
 2563SOL    HW2 8589   4.169   1.488   6.763
 2564SOL     OW 8590   0.988   6.727   6.456
 2564SOL    HW1 8591   1.012   6.804   6.397
 2564SOL    HW2 8592   0.915   6.674   6.413
 2565SOL     OW 8593   6.912   0.629   0.224
 2565SOL    HW1 8594   6.851   0.703   0.253
 2565SOL    HW2 8595   6.864   0.571   0.158
 2566SOL     OW 8596   1.950   0.197   0.894
 2566SOL    HW1 8597   1.933   0.295   0.903
 2566SOL    HW2 8598   1.922   0.167   0.803
 2567SOL     OW 8599   1.274   1.510   1.965
 2567SOL    HW1 8600   1.178   1.537   1.960
 2567SOL    HW2 8601   1.323   1.572   2.026
 2568SOL     OW 8602   3.085   0.508   6.889
 2568SOL    HW1 8603   3.046   0.420   6.914
 2568SOL    HW2 8604   3.012   0.577   6.883
 2569SOL     OW 8605   2.927   0.632   1.708
 2569SOL    HW1 8606   3.007   0.575   1.693
 2569SOL    HW2 8607   2.854   0.603   1.646
 2570SOL     OW 8608   5.922   0.728   6.792
 2570SOL    HW1 8609   6.013   0.746   6.755
 2570SOL    HW2 8610   5.888   0.810   6.838
 2571SOL     OW 8611   2.500   3.602   5.364
 2571SOL    HW1 8612   2.454   3.690   5.365
 2571SOL    HW2 8613   2.566   3.598   5.439
 2572SOL     OW 8614   2.257   6.315   0.959
 2572SOL    HW1 8615   2.291   6.235   0.911
 2572SOL    HW2 8616   2.272   6.305   1.057
 2573SOL     OW 8617   6.226   2.062   2.753
 2573SOL    HW1 8618   6.275   2.086   2.837
 2573SOL    HW2 8619   6.292   2.053   2.678
 2574SOL     OW 8620   0.170   3.086   0.470
 2574SOL    HW1 8621   0.126   3.039   0.393
 2574SOL    HW2 8622   0.104   3.145   0.516
 2575SOL     OW 8623   5.241   4.598   6.922
 2575SOL    HW1 8624   5.240   4.575   7.020
 2575SOL    HW2 8625   5.304   4.537   6.874
 2576SOL     OW 8626   4.160   0.161   4.458
 2576SOL    HW1 8627   4.061   0.168   4.476
 2576SOL    HW2 8628   4.209   0.150   4.545
 2577SOL     OW 8629   4.168   6.134   2.203
 2577SOL    HW1 8630   4.110   6.056   2.227
 2577SOL    HW2 8631   4.262   6.115   2.230
 2578SOL     OW 8632   4.878   2.896   5.087
 2578SOL    HW1 8633   4.948   2.839   5.044
 2578SOL    HW2 8634   4.840   2.959   5.019
 2579SOL     OW 8635   1.052   0.744   3.518
 2579SOL    HW1 8636   0.998   0.816   3.561
 2579SOL    HW2 8637   1.059   0.666   3.580
 2580SOL     OW 8638   2.258   2.676   6.868
 2580SOL    HW1 8639   2.306   2.604   6.918
 2580SOL    HW2 8640   2.290   2.766   6.898
 2581SOL     OW 8641   6.775   4.009   1.081
 2581SOL    HW1 8642   6.843   3.949   1.040
 2581SOL    HW2 8643   6.719   4.050   1.009
 2582SOL     OW 8644   1.209   4.531   2.463
 2582SOL    HW1 8645   1.279   4.518   2.394
 2582SOL    HW2 8646   1.165   4.444   2.483
 2583SOL     OW 8647   0.491   1.668   1.274
 2583SOL    HW1 8648   0.441   1.588   1.307
 2583SOL    HW2 8649   0.445   1.705   1.194
 2584SOL     OW 8650   4.071   5.715   0.313
 2584SOL    HW1 8651   4.109   5.781   0.249
 2584SOL    HW2 8652   4.137   5.698   0.387
 2585SOL     OW 8653   4.050   1.333   6.734
 2585SOL    HW1 8654   4.087   1.263   6.795
 2585SOL    HW2 8655   3.987   1.392   6.785
 2586SOL     OW 8656   3.814   1.622   3.553
 2586SOL    HW1 8657   3.864   1.553   3.605
 2586SOL    HW2 8658   3.728   1.584   3.520
 2587SOL     OW 8659   6.944   1.257   3.557
 2587SOL    HW1 8660   6.848   1.229   3.558
 2587SOL    HW2 8661   7.002   1.177   3.577
 2588SOL     OW 8662   4.870   6.862   6.719
 2588SOL    HW1 8663   4.957   6.851   6.766
 2588SOL    HW2 8664   4.797   6.825   6.776
 2589SOL     OW 8665   0.443   5.985   5.968
 2589SOL    HW1 8666   0.458   6.019   5.875
 2589SOL    HW2 8667   0.345   5.974   5.984
 2590SOL     OW 8668   3.030   6.058   1.794
 2590SOL    HW1 8669   2.972   6.084   1.871
 2590SOL    HW2 8670   3.111   6.010   1.828
 2591SOL     OW 8671   6.907   5.777   1.818
 2591SOL    HW1 8672   6.987   5.739   1.772
 2591SOL    HW2 8673   6.839   5.805   1.750
 2592SOL     OW 8674   3.337   6.822   1.422
 2592SOL    HW1 8675   3.254   6.847   1.472
 2592SOL    HW2 8676   3.415   6.819   1.485
 2593SOL     OW 8677   2.826   5.946   1.625
 2593SOL    HW1 8678   2.787   6.018   1.567
 2593SOL    HW2 8679   2.914   5.976   1.661
 2594SOL     OW 8680   6.971   5.677   5.995
 2594SOL    HW1 8681   6.968   5.773   6.024
 2594SOL    HW2 8682   0.040   5.647   5.989
 2595SOL     OW 8683   5.960   1.175   4.870
 2595SOL    HW1 8684   5.991   1.195   4.963
 2595SOL    HW2 8685   5.871   1.218   4.855
 2596SOL     OW 8686   3.807   2.126   1.707
 2596SOL    HW1 8687   3.730   2.165   1.759
 2596SOL    HW2 8688   3.877   2.196   1.695
 2597SOL     OW 8689   2.000   3.814   6.482
 2597SOL    HW1 8690   2.083   3.868   6.494
 2597SOL    HW2 8691   1.968   3.782   6.571
 2598SOL     OW 8692   5.884   0.680   4.444
 2598SOL    HW1 8693   5.960   0.739   4.419
 2598SOL    HW2 8694   5.918   0.600   4.494
 2599SOL     OW 8695   2.624   0.700   0.669
 2599SOL    HW1 8696   2.713   0.684   0.627
 2599SOL    HW2 8697   2.634   0.704   0.768
 2600SOL     OW 8698   4.883   3.370   4.375
 2600SOL    HW1 8699   4.914   3.466   4.377
 2600SOL    HW2 8700   4.894   3.334   4.283
 2601SOL     OW 8701   2.415   1.927   6.559
 2601SOL    HW1 8702   2.402   2.024   6.578
 2601SOL    HW2 8703   2.339   1.875   6.599
 2602SOL     OW 8704   6.648   4.645   3.863
 2602SOL    HW1 8705   6.693   4.656   3.774
 2602SOL    HW2 8706   6.716   4.625   3.933
 2603SOL     OW 8707   2.269   2.021   2.341
 2603SOL    HW1 8708   2.361   2.054   2.320
 2603SOL    HW2 8709   2.240   2.055   2.430
 2604SOL     OW 8710   5.078   1.319   3.368
 2604SOL    HW1 8711   5.064   1.244   3.433
 2604SOL    HW2 8712   5.172   1.315   3.334
 2605SOL     OW 8713   2.291   4.120   2.897
 2605SOL    HW1 8714   2.272   4.078   2.809
 2605SOL    HW2 8715   2.258   4.061   2.970
 2606SOL     OW 8716   6.776   4.718   0.990
 2606SOL    HW1 8717   6.696   4.762   1.031
 2606SOL    HW2 8718   6.847   4.705   1.059
 2607SOL     OW 8719   0.094   1.340   6.601
 2607SOL    HW1 8720   0.041   1.258   6.622
 2607SOL    HW2 8721   0.033   1.411   6.567
 2608SOL     OW 8722   4.495   5.059   1.894
 2608SOL    HW1 8723   4.481   5.042   1.991
 2608SOL    HW2 8724   4.476   5.156   1.874
 2609SOL     OW 8725   0.102   1.706   2.023
 2609SOL    HW1 8726   0.082   1.659   1.938
 2609SOL    HW2 8727   0.135   1.799   2.003
 2610SOL     OW 8728   0.210   5.135   4.222
 2610SOL    HW1 8729   0.273   5.106   4.150
 2610SOL    HW2 8730   0.255   5.126   4.311
 2611SOL     OW 8731   4.386   6.207   0.790
 2611SOL    HW1 8732   4.481   6.192   0.762
 2611SOL    HW2 8733   4.352   6.126   0.837
 2612SOL     OW 8734   6.569   0.282   5.591
 2612SOL    HW1 8735   6.586   0.367   5.542
 2612SOL    HW2 8736   6.582   0.204   5.528
 2613SOL     OW 8737   2.472   6.401   0.676
 2613SOL    HW1 8738   2.378   6.434   0.679
 2613SOL    HW2 8739   2.472   6.303   0.656
 2614SOL     OW 8740   6.562   0.541   6.109
 2614SOL    HW1 8741   6.523   0.544   6.201
 2614SOL    HW2 8742   6.557   0.633   6.068
 2615SOL     OW 8743   6.943   3.260   3.110
 2615SOL    HW1 8744   6.961   3.357   3.127
 2615SOL    HW2 8745   7.004   3.227   3.039
 2616SOL     OW 8746   4.024   3.541   4.623
 2616SOL    HW1 8747   3.956   3.517   4.554
 2616SOL    HW2 8748   4.030   3.640   4.630
 2617SOL     OW 8749   3.787   6.574   0.942
 2617SOL    HW1 8750   3.695   6.546   0.969
 2617SOL    HW2 8751   3.829   6.502   0.886
 2618SOL     OW 8752   0.189   6.989   4.565
 2618SOL    HW1 8753   0.101   0.003   4.541
 2618SOL    HW2 8754   0.228   6.944   4.485
 2619SOL     OW 8755   4.022   1.549   3.091
 2619SOL    HW1 8756   4.051   1.603   3.171
 2619SOL    HW2 8757   3.942   1.494   3.116
 2620SOL     OW 8758   6.572   6.754   2.607
 2620SOL    HW1 8759   6.640   6.690   2.571
 2620SOL    HW2 8760   6.536   6.720   2.693
 2621SOL     OW 8761   1.137   5.973   2.759
 2621SOL    HW1 8762   1.131   6.071   2.745
 2621SOL    HW2 8763   1.171   5.954   2.851
 2622SOL     OW 8764   2.314   2.611   5.699
 2622SOL    HW1 8765   2.398   2.593   5.750
 2622SOL    HW2 8766   2.335   2.614   5.601
 2623SOL     OW 8767   2.360   1.427   5.247
 2623SOL    HW1 8768   2.292   1.500   5.255
 2623SOL    HW2 8769   2.446   1.465   5.213
 2624SOL     OW 8770   7.025   2.291   5.511
 2624SOL    HW1 8771   6.963   2.213   5.521
 2624SOL    HW2 8772   6.991   2.368   5.565
 2625SOL     OW 8773   2.652   1.884   5.605
 2625SOL    HW1 8774   2.553   1.870   5.592
 2625SOL    HW2 8775   2.681   1.963   5.551
 2626SOL     OW 8776   0.639   0.015   5.387
 2626SOL    HW1 8777   0.598   0.017   5.296
 2626SOL    HW2 8778   0.711   0.085   5.392
 2627SOL     OW 8779   1.642   1.768   5.463
 2627SOL    HW1 8780   1.706   1.747   5.390
 2627SOL    HW2 8781   1.549   1.749   5.432
 2628SOL     OW 8782   2.194   4.792   5.986
 2628SOL    HW1 8783   2.254   4.714   6.001
 2628SOL    HW2 8784   2.245   4.877   6.000
 2629SOL     OW 8785   2.809   3.479   1.689
 2629SOL    HW1 8786   2.856   3.453   1.605
 2629SOL    HW2 8787   2.870   3.534   1.746
 2630SOL     OW 8788   2.797   1.973   2.847
 2630SOL    HW1 8789   2.853   2.055   2.838
 2630SOL    HW2 8790   2.796   1.923   2.760
 2631SOL     OW 8791   5.326   0.207   5.338
 2631SOL    HW1 8792   5.421   0.237   5.342
 2631SOL    HW2 8793   5.266   0.282   5.367
 2632SOL     OW 8794   3.784   2.010   6.021
 2632SOL    HW1 8795   3.823   2.101   6.023
 2632SOL    HW2 8796   3.685   2.015   6.037
 2633SOL     OW 8797   6.813   0.900   4.466
 2633SOL    HW1 8798   6.783   0.849   4.546
 2633SOL    HW2 8799   6.815   0.998   4.487
 2634SOL     OW 8800   1.165   4.072   2.934
 2634SOL    HW1 8801   1.245   4.015   2.918
 2634SOL    HW2 8802   1.122   4.047   3.021
 2635SOL     OW 8803   6.288   6.117   5.716
 2635SOL    HW1 8804   6.330   6.057   5.648
 2635SOL    HW2 8805   6.188   6.113   5.707
 2636SOL     OW 8806   4.913   0.112   5.313
 2636SOL    HW1 8807   4.947   0.164   5.391
 2636SOL    HW2 8808   4.813   0.109   5.315
 2637SOL     OW 8809   5.108   2.098   3.773
 2637SOL    HW1 8810   5.179   2.139   3.830
 2637SOL    HW2 8811   5.150   2.043   3.701
 2638SOL     OW 8812   6.474   0.526   3.426
 2638SOL    HW1 8813   6.488   0.593   3.353
 2638SOL    HW2 8814   6.410   0.563   3.493
 2639SOL     OW 8815   0.823   6.551   1.233
 2639SOL    HW1 8816   0.913   6.560   1.191
 2639SOL    HW2 8817   0.753   6.583   1.169
 2640SOL     OW 8818   0.324   5.671   4.787
 2640SOL    HW1 8819   0.344   5.650   4.882
 2640SOL    HW2 8820   0.226   5.691   4.776
 2641SOL     OW 8821   4.904   3.222   2.141
 2641SOL    HW1 8822   4.835   3.155   2.111
 2641SOL    HW2 8823   4.885   3.249   2.235
 2642SOL     OW 8824   4.075   6.641   4.308
 2642SOL    HW1 8825   4.159   6.656   4.361
 2642SOL    HW2 8826   4.031   6.556   4.339
 2643SOL     OW 8827   0.310   3.819   2.803
 2643SOL    HW1 8828   0.358   3.804   2.717
 2643SOL    HW2 8829   0.211   3.817   2.787
 2644SOL     OW 8830   6.262   5.613   5.952
 2644SOL    HW1 8831   6.167   5.606   5.982
 2644SOL    HW2 8832   6.288   5.530   5.904
 2645SOL     OW 8833   4.457   5.305   4.698
 2645SOL    HW1 8834   4.443   5.227   4.759
 2645SOL    HW2 8835   4.493   5.382   4.751
 2646SOL     OW 8836   6.128   0.356   6.582
 2646SOL    HW1 8837   6.167   0.386   6.669
 2646SOL    HW2 8838   6.201   0.351   6.513
 2647SOL     OW 8839   6.299   0.303   1.732
 2647SOL    HW1 8840   6.345   0.237   1.673
 2647SOL    HW2 8841   6.239   0.255   1.796
 2648SOL     OW 8842   0.527   0.269   4.072
 2648SOL    HW1 8843   0.585   0.229   4.143
 2648SOL    HW2 8844   0.454   0.204   4.049
 2649SOL     OW 8845   5.876   2.868   6.998
 2649SOL    HW1 8846   5.961   2.882   0.021
 2649SOL    HW2 8847   5.804   2.841   0.036
 2650SOL     OW 8848   0.634   4.212   4.570
 2650SOL    HW1 8849   0.540   4.241   4.555
 2650SOL    HW2 8850   0.641   4.168   4.660
 2651SOL     OW 8851   0.797   1.209   0.469
 2651SOL    HW1 8852   0.858   1.261   0.411
 2651SOL    HW2 8853   0.791   1.253   0.559
 2652SOL     OW 8854   3.811   3.905   4.150
 2652SOL    HW1 8855   3.819   3.904   4.050
 2652SOL    HW2 8856   3.746   3.976   4.177
 2653SOL     OW 8857   5.066   6.326   5.464
 2653SOL    HW1 8858   5.108   6.238   5.441
 2653SOL    HW2 8859   5.089   6.393   5.393
 2654SOL     OW 8860   4.953   5.566   1.374
 2654SOL    HW1 8861   4.997   5.510   1.444
 2654SOL    HW2 8862   4.919   5.507   1.301
 2655SOL     OW 8863   4.195   5.800   4.102
 2655SOL    HW1 8864   4.137   5.840   4.031
 2655SOL    HW2 8865   4.156   5.818   4.192
 2656SOL     OW 8866   3.458   5.136   4.304
 2656SOL    HW1 8867   3.362   5.108   4.308
 2656SOL    HW2 8868   3.512   5.078   4.364
 2657SOL     OW 8869   1.251   4.152   6.061
 2657SOL    HW1 8870   1.227   4.074   6.119
 2657SOL    HW2 8871   1.272   4.232   6.118
 2658SOL     OW 8872   4.983   4.527   0.300
 2658SOL    HW1 8873   4.963   4.599   0.234
 2658SOL    HW2 8874   4.904   4.513   0.359
 2659SOL     OW 8875   5.617   3.174   4.332
 2659SOL    HW1 8876   5.614   3.078   4.359
 2659SOL    HW2 8877   5.525   3.212   4.338
 2660SOL     OW 8878   1.256   0.911   1.079
 2660SOL    HW1 8879   1.321   0.964   1.025
 2660SOL    HW2 8880   1.167   0.910   1.033
 2661SOL     OW 8881   2.587   6.942   1.037
 2661SOL    HW1 8882   2.537   6.865   1.077
 2661SOL    HW2 8883   2.582   6.936   0.937
 2662SOL     OW 8884   4.679   6.487   5.316
 2662SOL    HW1 8885   4.751   6.501   5.248
 2662SOL    HW2 8886   4.592   6.522   5.280
 2663SOL     OW 8887   2.944   3.625   0.078
 2663SOL    HW1 8888   3.035   3.650   0.046
 2663SOL    HW2 8889   2.908   3.550   0.024
 2664SOL     OW 8890   4.008   4.033   5.051
 2664SOL    HW1 8891   3.922   3.985   5.069
 2664SOL    HW2 8892   4.084   3.976   5.083
 2665SOL     OW 8893   2.583   2.747   5.249
 2665SOL    HW1 8894   2.584   2.680   5.175
 2665SOL    HW2 8895   2.569   2.838   5.210
 2666SOL     OW 8896   5.725   4.259   0.964
 2666SOL    HW1 8897   5.681   4.173   0.989
 2666SOL    HW2 8898   5.819   4.242   0.936
 2667SOL     OW 8899   1.043   6.848   3.910
 2667SOL    HW1 8900   1.111   6.801   3.967
 2667SOL    HW2 8901   1.028   6.795   3.826
 2668SOL     OW 8902   0.132   3.318   4.663
 2668SOL    HW1 8903   0.168   3.341   4.573
 2668SOL    HW2 8904   0.132   3.399   4.721
 2669SOL     OW 8905   2.735   4.362   5.325
 2669SOL    HW1 8906   2.799   4.428   5.286
 2669SOL    HW2 8907   2.777   4.271   5.324
 2670SOL     OW 8908   6.322   3.099   6.391
 2670SOL    HW1 8909   6.260   3.052   6.328
 2670SOL    HW2 8910   6.290   3.193   6.404
 2671SOL     OW 8911   3.766   5.296   6.081
 2671SOL    HW1 8912   3.715   5.242   6.148
 2671SOL    HW2 8913   3.703   5.359   6.035
 2672SOL     OW 8914   1.087   5.096   0.713
 2672SOL    HW1 8915   1.086   5.193   0.687
 2672SOL    HW2 8916   1.180   5.069   0.738
 2673SOL     OW 8917   6.071   0.757   4.046
 2673SOL    HW1 8918   6.003   0.709   4.101
 2673SOL    HW2 8919   6.160   0.756   4.092
 2674SOL     OW 8920   1.416   4.559   3.962
 2674SOL    HW1 8921   1.424   4.580   3.864
 2674SOL    HW2 8922   1.333   4.602   3.998
 2675SOL     OW 8923   6.298   5.327   3.378
 2675SOL    HW1 8924   6.385   5.326   3.426
 2675SOL    HW2 8925   6.289   5.245   3.322
 2676SOL     OW 8926   4.200   2.089   0.787
 2676SOL    HW1 8927   4.164   2.109   0.696
 2676SOL    HW2 8928   4.266   2.014   0.782
 2677SOL     OW 8929   3.100   3.402   0.277
 2677SOL    HW1 8930   3.140   3.405   0.185
 2677SOL    HW2 8931   3.170   3.426   0.344
 2678SOL     OW 8932   0.312   2.579   1.138
 2678SOL    HW1 8933   0.243   2.577   1.210
 2678SOL    HW2 8934   0.388   2.638   1.167
 2679SOL     OW 8935   3.658   4.468   1.107
 2679SOL    HW1 8936   3.621   4.529   1.177
 2679SOL    HW2 8937   3.700   4.522   1.035
 2680SOL     OW 8938   1.054   1.290   0.747
 2680SOL    HW1 8939   1.105   1.289   0.833
 2680SOL    HW2 8940   0.967   1.337   0.761
 2681SOL     OW 8941   1.054   2.885   4.194
 2681SOL    HW1 8942   1.000   2.850   4.270
 2681SOL    HW2 8943   1.032   2.833   4.111
 2682SOL     OW 8944   5.121   4.402   2.377
 2682SOL    HW1 8945   5.049   4.349   2.421
 2682SOL    HW2 8946   5.084   4.448   2.296
 2683SOL     OW 8947   2.771   5.056   1.370
 2683SOL    HW1 8948   2.822   5.116   1.309
 2683SOL    HW2 8949   2.798   4.961   1.354
 2684SOL     OW 8950   4.121   5.368   1.095
 2684SOL    HW1 8951   4.051   5.414   1.150
 2684SOL    HW2 8952   4.167   5.436   1.037
 2685SOL     OW 8953   6.370   6.300   6.218
 2685SOL    HW1 8954   6.285   6.255   6.190
 2685SOL    HW2 8955   6.357   6.342   6.308
 2686SOL     OW 8956   1.633   1.724   5.755
 2686SOL    HW1 8957   1.699   1.730   5.830
 2686SOL    HW2 8958   1.678   1.688   5.674
 2687SOL     OW 8959   4.637   4.341   2.408
 2687SOL    HW1 8960   4.640   4.306   2.502
 2687SOL    HW2 8961   4.562   4.406   2.399
 2688SOL     OW 8962   4.025   4.386   0.047
 2688SOL    HW1 8963   4.047   4.334   6.991
 2688SOL    HW2 8964   3.948   4.343   0.094
 2689SOL     OW 8965   1.428   3.944   3.575
 2689SOL    HW1 8966   1.479   4.000   3.511
 2689SOL    HW2 8967   1.459   3.849   3.568
 2690SOL     OW 8968   3.572   3.583   3.661
 2690SOL    HW1 8969   3.649   3.622   3.710
 2690SOL    HW2 8970   3.588   3.485   3.645
 2691SOL     OW 8971   1.544   5.488   2.068
 2691SOL    HW1 8972   1.451   5.493   2.033
 2691SOL    HW2 8973   1.583   5.398   2.047
 2692SOL     OW 8974   3.256   5.450   2.860
 2692SOL    HW1 8975   3.275   5.521   2.793
 2692SOL    HW2 8976   3.278   5.360   2.820
 2693SOL     OW 8977   2.096   5.449   2.619
 2693SOL    HW1 8978   2.046   5.373   2.578
 2693SOL    HW2 8979   2.147   5.417   2.699
 2694SOL     OW 8980   4.221   6.561   2.909
 2694SOL    HW1 8981   4.177   6.635   2.858
 2694SOL    HW2 8982   4.296   6.598   2.963
 2695SOL     OW 8983   5.047   0.424   2.355
 2695SOL    HW1 8984   5.036   0.482   2.436
 2695SOL    HW2 8985   4.962   0.373   2.339
 2696SOL     OW 8986   3.734   3.648   5.257
 2696SOL    HW1 8987   3.732   3.559   5.212
 2696SOL    HW2 8988   3.816   3.656   5.314
 2697SOL     OW 8989   3.050   1.626   2.664
 2697SOL    HW1 8990   2.974   1.641   2.727
 2697SOL    HW2 8991   3.130   1.677   2.694
 2698SOL     OW 8992   2.429   6.476   0.187
 2698SOL    HW1 8993   2.362   6.406   0.213
 2698SOL    HW2 8994   2.517   6.432   0.168
 2699SOL     OW 8995   2.527   6.787   0.766
 2699SOL    HW1 8996   2.510   6.711   0.828
 2699SOL    HW2 8997   2.588   6.757   0.693
 2700SOL     OW 8998   2.524   3.796   0.328
 2700SOL    HW1 8999   2.576   3.728   0.277
 2700SOL    HW2 9000   2.426   3.783   0.312
 2701SOL     OW 9001   5.709   1.092   6.304
 2701SOL    HW1 9002   5.636   1.130   6.247
 2701SOL    HW2 9003   5.671   1.023   6.365
 2702SOL     OW 9004   0.732   3.188   3.524
 2702SOL    HW1 9005   0.719   3.288   3.523
 2702SOL    HW2 9006   0.677   3.148   3.597
 2703SOL     OW 9007   1.531   0.412   1.459
 2703SOL    HW1 9008   1.509   0.354   1.538
 2703SOL    HW2 9009   1.447   0.445   1.417
 2704SOL     OW 9010   6.986   6.384   1.652
 2704SOL    HW1 9011   0.032   6.434   1.604
 2704SOL    HW2 9012   6.987   6.289   1.624
 2705SOL     OW 9013   6.978   5.441   4.433
 2705SOL    HW1 9014   6.915   5.436   4.511
 2705SOL    HW2 9015   6.957   5.369   4.368
 2706SOL     OW 9016   0.431   6.561   1.878
 2706SOL    HW1 9017   0.472   6.507   1.804
 2706SOL    HW2 9018   0.490   6.638   1.900
 2707SOL     OW 9019   3.660   6.970   4.244
 2707SOL    HW1 9020   3.634   0.027   4.196
 2707SOL    HW2 9021   3.758   6.955   4.236
 2708SOL     OW 9022   0.278   2.194   6.843
 2708SOL    HW1 9023   0.222   2.272   6.870
 2708SOL    HW2 9024   0.228   2.138   6.777
 2709SOL     OW 9025   6.316   6.876   0.190
 2709SOL    HW1 9026   6.363   6.922   0.115
 2709SOL    HW2 9027   6.252   6.808   0.154
 2710SOL     OW 9028   0.841   3.721   3.588
 2710SOL    HW1 9029   0.920   3.733   3.648
 2710SOL    HW2 9030   0.759   3.757   3.632
 2711SOL     OW 9031   2.410   1.221   3.929
 2711SOL    HW1 9032   2.371   1.308   3.898
 2711SOL    HW2 9033   2.409   1.156   3.853
 2712SOL     OW 9034   2.835   4.390   0.795
 2712SOL    HW1 9035   2.873   4.379   0.703
 2712SOL    HW2 9036   2.755   4.331   0.805
 2713SOL     OW 9037   2.416   2.161   4.532
 2713SOL    HW1 9038   2.516   2.164   4.527
 2713SOL    HW2 9039   2.380   2.122   4.447
 2714SOL     OW 9040   4.012   2.500   0.485
 2714SOL    HW1 9041   3.933   2.521   0.543
 2714SOL    HW2 9042   4.090   2.474   0.543
 2715SOL     OW 9043   5.500   1.885   1.208
 2715SOL    HW1 9044   5.469   1.790   1.205
 2715SOL    HW2 9045   5.593   1.889   1.243
 2716SOL     OW 9046   5.159   4.309   2.659
 2716SOL    HW1 9047   5.122   4.394   2.621
 2716SOL    HW2 9048   5.214   4.330   2.741
 2717SOL     OW 9049   1.015   6.185   2.465
 2717SOL    HW1 9050   1.035   6.144   2.554
 2717SOL    HW2 9051   0.972   6.117   2.406
 2718SOL     OW 9052   2.417   1.915   5.398
 2718SOL    HW1 9053   2.347   1.985   5.381
 2718SOL    HW2 9054   2.503   1.942   5.355
 2719SOL     OW 9055   6.679   5.735   0.612
 2719SOL    HW1 9056   6.716   5.753   0.520
 2719SOL    HW2 9057   6.639   5.819   0.648
 2720SOL     OW 9058   1.854   6.380   2.139
 2720SOL    HW1 9059   1.901   6.410   2.222
 2720SOL    HW2 9060   1.755   6.384   2.154
 2721SOL     OW 9061   2.589   0.164   3.775
 2721SOL    HW1 9062   2.625   0.091   3.834
 2721SOL    HW2 9063   2.613   0.144   3.680
 2722SOL     OW 9064   6.637   5.323   1.413
 2722SOL    HW1 9065   6.716   5.283   1.461
 2722SOL    HW2 9066   6.601   5.256   1.348
 2723SOL     OW 9067   0.789   6.659   6.272
 2723SOL    HW1 9068   0.824   6.604   6.196
 2723SOL    HW2 9069   0.690   6.663   6.268
 2724SOL     OW 9070   2.070   6.412   0.162
 2724SOL    HW1 9071   1.975   6.441   0.151
 2724SOL    HW2 9072   2.100   6.433   0.255
 2725SOL     OW 9073   5.230   5.466   4.351
 2725SOL    HW1 9074   5.210   5.461   4.253
 2725SOL    HW2 9075   5.202   5.555   4.386
 2726SOL     OW 9076   6.805   2.566   1.282
 2726SOL    HW1 9077   6.709   2.589   1.293
 2726SOL    HW2 9078   6.845   2.625   1.211
 2727SOL     OW 9079   0.159   5.240   3.123
 2727SOL    HW1 9080   0.060   5.258   3.120
 2727SOL    HW2 9081   0.203   5.283   3.044
 2728SOL     OW 9082   4.583   6.252   5.743
 2728SOL    HW1 9083   4.654   6.253   5.673
 2728SOL    HW2 9084   4.590   6.334   5.800
 2729SOL     OW 9085   6.746   6.076   1.012
 2729SOL    HW1 9086   6.830   6.125   0.989
 2729SOL    HW2 9087   6.687   6.136   1.066
 2730SOL     OW 9088   1.607   5.583   1.384
 2730SOL    HW1 9089   1.512   5.560   1.363
 2730SOL    HW2 9090   1.609   5.641   1.466
 2731SOL     OW 9091   4.112   3.437   2.945
 2731SOL    HW1 9092   4.127   3.377   2.867
 2731SOL    HW2 9093   4.059   3.388   3.015
 2732SOL     OW 9094   5.476   2.211   1.799
 2732SOL    HW1 9095   5.484   2.302   1.759
 2732SOL    HW2 9096   5.565   2.165   1.793
 2733SOL     OW 9097   6.947   0.006   4.498
 2733SOL    HW1 9098   6.887   6.953   4.493
 2733SOL    HW2 9099   6.928   0.067   4.422
 2734SOL     OW 9100   2.378   6.516   1.805
 2734SOL    HW1 9101   2.398   6.612   1.786
 2734SOL    HW2 9102   2.461   6.461   1.789
 2735SOL     OW 9103   1.453   3.230   3.005
 2735SOL    HW1 9104   1.377   3.236   3.070
 2735SOL    HW2 9105   1.475   3.321   2.969
 2736SOL     OW 9106   4.906   6.793   5.226
 2736SOL    HW1 9107   5.002   6.804   5.249
 2736SOL    HW2 9108   4.852   6.785   5.310
 2737SOL     OW 9109   3.405   3.817   5.448
 2737SOL    HW1 9110   3.353   3.890   5.403
 2737SOL    HW2 9111   3.440   3.753   5.380
 2738SOL     OW 9112   5.091   5.566   2.836
 2738SOL    HW1 9113   5.116   5.633   2.906
 2738SOL    HW2 9114   5.029   5.608   2.770
 2739SOL     OW 9115   0.079   5.035   1.065
 2739SOL    HW1 9116   0.035   5.096   0.999
 2739SOL    HW2 9117   0.120   5.089   1.138
 2740SOL     OW 9118   6.741   3.905   2.126
 2740SOL    HW1 9119   6.686   3.973   2.175
 2740SOL    HW2 9120   6.746   3.821   2.179
 2741SOL     OW 9121   6.353   0.255   5.120
 2741SOL    HW1 9122   6.317   0.208   5.201
 2741SOL    HW2 9123   6.289   0.326   5.091
 2742SOL     OW 9124   2.120   5.366   6.368
 2742SOL    HW1 9125   2.145   5.434   6.437
 2742SOL    HW2 9126   2.101   5.279   6.412
 2743SOL     OW 9127   6.992   4.976   2.243
 2743SOL    HW1 9128   6.984   5.003   2.147
 2743SOL    HW2 9129   6.931   5.034   2.299
 2744SOL     OW 9130   5.288   1.678   6.329
 2744SOL    HW1 9131   5.215   1.742   6.305
 2744SOL    HW2 9132   5.310   1.688   6.426
 2745SOL     OW 9133   6.932   6.784   6.076
 2745SOL    HW1 9134   6.986   6.768   6.158
 2745SOL    HW2 9135   6.868   6.859   6.091
 2746SOL     OW 9136   2.404   2.027   3.950
 2746SOL    HW1 9137   2.468   2.020   3.873
 2746SOL    HW2 9138   2.338   2.099   3.932
 2747SOL     OW 9139   5.961   4.157   6.386
 2747SOL    HW1 9140   5.953   4.080   6.322
 2747SOL    HW2 9141   5.873   4.171   6.432
 2748SOL     OW 9142   5.638   1.397   1.226
 2748SOL    HW1 9143   5.696   1.475   1.204
 2748SOL    HW2 9144   5.684   1.338   1.293
 2749SOL     OW 9145   6.874   5.200   2.698
 2749SOL    HW1 9146   6.815   5.129   2.739
 2749SOL    HW2 9147   6.958   5.158   2.665
 2750SOL     OW 9148   0.855   5.203   1.107
 2750SOL    HW1 9149   0.765   5.239   1.081
 2750SOL    HW2 9150   0.856   5.182   1.205
 2751SOL     OW 9151   0.836   6.012   1.441
 2751SOL    HW1 9152   0.805   6.106   1.432
 2751SOL    HW2 9153   0.767   5.950   1.403
 2752SOL     OW 9154   4.142   5.161   5.940
 2752SOL    HW1 9155   4.078   5.172   5.865
 2752SOL    HW2 9156   4.095   5.123   6.020
 2753SOL     OW 9157   0.744   6.366   5.223
 2753SOL    HW1 9158   0.703   6.307   5.153
 2753SOL    HW2 9159   0.779   6.309   5.298
 2754SOL     OW 9160   0.346   0.987   3.139
 2754SOL    HW1 9161   0.364   0.928   3.218
 2754SOL    HW2 9162   0.433   1.007   3.092
 2755SOL     OW 9163   2.045   6.893   3.327
 2755SOL    HW1 9164   2.021   6.988   3.348
 2755SOL    HW2 9165   2.144   6.884   3.322
 2756SOL     OW 9166   5.689   4.555   6.473
 2756SOL    HW1 9167   5.702   4.511   6.563
 2756SOL    HW2 9168   5.682   4.654   6.485
 2757SOL     OW 9169   2.129   0.415   6.446
 2757SOL    HW1 9170   2.059   0.369   6.391
 2757SOL    HW2 9171   2.151   0.358   6.525
 2758SOL     OW 9172   4.829   6.619   3.213
 2758SOL    HW1 9173   4.753   6.680   3.236
 2758SOL    HW2 9174   4.820   6.534   3.265
 2759SOL     OW 9175   4.907   5.405   5.419
 2759SOL    HW1 9176   4.956   5.321   5.400
 2759SOL    HW2 9177   4.965   5.466   5.473
 2760SOL     OW 9178   0.192   6.265   2.620
 2760SOL    HW1 9179   0.097   6.286   2.601
 2760SOL    HW2 9180   0.215   6.295   2.713
 2761SOL     OW 9181   1.729   4.447   4.809
 2761SOL    HW1 9182   1.741   4.464   4.907
 2761SOL    HW2 9183   1.635   4.418   4.791
 2762SOL     OW 9184   2.164   0.168   6.578
 2762SOL    HW1 9185   2.249   0.142   6.534
 2762SOL    HW2 9186   2.094   0.099   6.559
 2763SOL     OW 9187   4.839   2.347   4.773
 2763SOL    HW1 9188   4.892   2.335   4.857
 2763SOL    HW2 9189   4.880   2.418   4.717
 2764SOL     OW 9190   6.366   1.256   1.468
 2764SOL    HW1 9191   6.359   1.266   1.567
 2764SOL    HW2 9192   6.400   1.164   1.446
 2765SOL     OW 9193   6.467   6.730   0.393
 2765SOL    HW1 9194   6.441   6.766   0.483
 2765SOL    HW2 9195   6.436   6.793   0.322
 2766SOL     OW 9196   4.843   2.787   0.329
 2766SOL    HW1 9197   4.857   2.886   0.319
 2766SOL    HW2 9198   4.922   2.746   0.375
 2767SOL     OW 9199   6.232   5.109   0.081
 2767SOL    HW1 9200   6.281   5.034   0.124
 2767SOL    HW2 9201   6.170   5.073   0.011
 2768SOL     OW 9202   4.560   0.460   1.010
 2768SOL    HW1 9203   4.609   0.374   0.991
 2768SOL    HW2 9204   4.477   0.464   0.954
 2769SOL     OW 9205   1.769   4.571   6.360
 2769SOL    HW1 9206   1.830   4.499   6.327
 2769SOL    HW2 9207   1.814   4.660   6.350
 2770SOL     OW 9208   4.310   5.442   6.162
 2770SOL    HW1 9209   4.317   5.536   6.195
 2770SOL    HW2 9210   4.214   5.417   6.154
 2771SOL     OW 9211   6.078   1.074   4.015
 2771SOL    HW1 9212   6.087   0.978   4.041
 2771SOL    HW2 9213   6.064   1.081   3.917
 2772SOL     OW 9214   3.936   1.591   0.747
 2772SOL    HW1 9215   3.903   1.616   0.838
 2772SOL    HW2 9216   4.028   1.630   0.734
 2773SOL     OW 9217   6.164   2.163   4.922
 2773SOL    HW1 9218   6.116   2.083   4.957
 2773SOL    HW2 9219   6.184   2.150   4.824
 2774SOL     OW 9220   5.271   2.604   2.998
 2774SOL    HW1 9221   5.226   2.516   3.015
 2774SOL    HW2 9222   5.228   2.649   2.921
 2775SOL     OW 9223   6.904   3.791   5.537
 2775SOL    HW1 9224   6.844   3.752   5.467
 2775SOL    HW2 9225   6.911   3.890   5.522
 2776SOL     OW 9226   4.622   4.372   6.236
 2776SOL    HW1 9227   4.550   4.427   6.192
 2776SOL    HW2 9228   4.582   4.287   6.270
 2777SOL     OW 9229   2.670   1.996   1.469
 2777SOL    HW1 9230   2.691   2.024   1.563
 2777SOL    HW2 9231   2.573   1.974   1.462
 2778SOL     OW 9232   1.898   6.836   5.458
 2778SOL    HW1 9233   1.865   6.814   5.550
 2778SOL    HW2 9234   1.820   6.841   5.396
 2779SOL     OW 9235   5.212   6.383   2.353
 2779SOL    HW1 9236   5.199   6.326   2.434
 2779SOL    HW2 9237   5.285   6.345   2.296
 2780SOL     OW 9238   0.532   6.690   6.689
 2780SOL    HW1 9239   0.605   6.757   6.703
 2780SOL    HW2 9240   0.559   6.626   6.618
 2781SOL     OW 9241   6.206   0.471   2.268
 2781SOL    HW1 9242   6.229   0.400   2.335
 2781SOL    HW2 9243   6.115   0.507   2.287
 2782SOL     OW 9244   4.784   1.187   5.160
 2782SOL    HW1 9245   4.829   1.267   5.201
 2782SOL    HW2 9246   4.692   1.179   5.197
 2783SOL     OW 9247   4.820   4.070   2.768
 2783SOL    HW1 9248   4.882   4.080   2.847
 2783SOL    HW2 9249   4.851   3.994   2.711
 2784SOL     OW 9250   3.543   1.424   2.340
 2784SOL    HW1 9251   3.615   1.485   2.307
 2784SOL    HW2 9252   3.457   1.446   2.293
 2785SOL     OW 9253   5.673   2.366   0.928
 2785SOL    HW1 9254   5.619   2.285   0.949
 2785SOL    HW2 9255   5.761   2.338   0.889
 2786SOL     OW 9256   4.755   7.023   2.441
 2786SOL    HW1 9257   4.845   0.032   2.466
 2786SOL    HW2 9258   4.716   6.971   2.517
 2787SOL     OW 9259   5.557   6.566   5.932
 2787SOL    HW1 9260   5.639   6.621   5.951
 2787SOL    HW2 9261   5.487   6.586   6.000
 2788SOL     OW 9262   2.169   6.101   6.141
 2788SOL    HW1 9263   2.147   6.010   6.178
 2788SOL    HW2 9264   2.225   6.091   6.059
 2789SOL     OW 9265   1.406   2.223   3.993
 2789SOL    HW1 9266   1.345   2.151   4.027
 2789SOL    HW2 9267   1.496   2.212   4.036
 2790SOL     OW 9268   3.539   5.921   2.189
 2790SOL    HW1 9269   3.447   5.952   2.213
 2790SOL    HW2 9270   3.546   5.822   2.204
 2791SOL     OW 9271   0.593   2.633   2.507
 2791SOL    HW1 9272   0.630   2.573   2.436
 2791SOL    HW2 9273   0.667   2.662   2.568
 2792SOL     OW 9274   1.872   0.697   3.857
 2792SOL    HW1 9275   1.930   0.747   3.921
 2792SOL    HW2 9276   1.914   0.610   3.833
 2793SOL     OW 9277   5.136   3.708   1.496
 2793SOL    HW1 9278   5.085   3.761   1.428
 2793SOL    HW2 9279   5.234   3.730   1.488
 2794SOL     OW 9280   6.598   1.589   6.453
 2794SOL    HW1 9281   6.532   1.658   6.480
 2794SOL    HW2 9282   6.672   1.585   6.520
 2795SOL     OW 9283   0.750   3.451   0.952
 2795SOL    HW1 9284   0.680   3.452   1.024
 2795SOL    HW2 9285   0.831   3.499   0.985
 2796SOL     OW 9286   0.219   6.407   2.886
 2796SOL    HW1 9287   0.188   6.473   2.818
 2796SOL    HW2 9288   0.317   6.391   2.876
 2797SOL     OW 9289   5.182   5.353   5.234
 2797SOL    HW1 9290   5.168   5.338   5.136
 2797SOL    HW2 9291   5.272   5.394   5.249
 2798SOL     OW 9292   6.659   5.400   2.745
 2798SOL    HW1 9293   6.592   5.363   2.680
 2798SOL    HW2 9294   6.739   5.339   2.749
 2799SOL     OW 9295   5.970   4.989   5.752
 2799SOL    HW1 9296   5.915   5.052   5.806
 2799SOL    HW2 9297   5.924   4.969   5.666
 2800SOL     OW 9298   4.554   6.271   6.240
 2800SOL    HW1 9299   4.645   6.243   6.270
 2800SOL    HW2 9300   4.487   6.248   6.310
 2801SOL     OW 9301   6.605   5.161   5.703
 2801SOL    HW1 9302   6.516   5.117   5.685
 2801SOL    HW2 9303   6.604   5.253   5.664
 2802SOL     OW 9304   5.553   6.236   5.261
 2802SOL    HW1 9305   5.588   6.204   5.349
 2802SOL    HW2 9306   5.630   6.262   5.203
 2803SOL     OW 9307   4.267   5.305   6.560
 2803SOL    HW1 9308   4.184   5.338   6.516
 2803SOL    HW2 9309   4.318   5.247   6.496
 2804SOL     OW 9310   0.709   4.425   5.198
 2804SOL    HW1 9311   0.719   4.523   5.216
 2804SOL    HW2 9312   0.716   4.407   5.100
 2805SOL     OW 9313   5.750   3.275   2.779
 2805SOL    HW1 9314   5.779   3.348   2.717
 2805SOL    HW2 9315   5.794   3.189   2.751
 2806SOL     OW 9316   1.338   4.290   5.718
 2806SOL    HW1 9317   1.352   4.299   5.619
 2806SOL    HW2 9318   1.399   4.218   5.753
 2807SOL     OW 9319   3.613   6.704   4.287
 2807SOL    HW1 9320   3.618   6.797   4.252
 2807SOL    HW2 9321   3.687   6.689   4.353
 2808SOL     OW 9322   6.253   5.505   2.073
 2808SOL    HW1 9323   6.270   5.573   2.144
 2808SOL    HW2 9324   6.332   5.444   2.066
 2809SOL     OW 9325   5.376   2.627   1.179
 2809SOL    HW1 9326   5.468   2.594   1.155
 2809SOL    HW2 9327   5.378   2.669   1.269
 2810SOL     OW 9328   2.344   5.631   2.751
 2810SOL    HW1 9329   2.314   5.561   2.817
 2810SOL    HW2 9330   2.339   5.721   2.794
 2811SOL     OW 9331   1.623   2.024   4.211
 2811SOL    HW1 9332   1.630   1.982   4.120
 2811SOL    HW2 9333   1.540   1.992   4.255
 2812SOL     OW 9334   5.661   3.312   0.090
 2812SOL    HW1 9335   5.726   3.266   0.028
 2812SOL    HW2 9336   5.568   3.289   0.064
 2813SOL     OW 9337   1.114   0.283   6.426
 2813SOL    HW1 9338   1.201   0.320   6.459
 2813SOL    HW2 9339   1.057   0.356   6.390
 2814SOL     OW 9340   3.568   3.976   4.966
 2814SOL    HW1 9341   3.497   3.906   4.967
 2814SOL    HW2 9342   3.610   3.982   5.056
 2815SOL     OW 9343   0.071   5.558   6.268
 2815SOL    HW1 9344   0.057   5.648   6.308
 2815SOL    HW2 9345   7.019   5.500   6.288
 2816SOL     OW 9346   6.454   5.947   3.507
 2816SOL    HW1 9347   6.539   5.914   3.465
 2816SOL    HW2 9348   6.399   5.869   3.536
 2817SOL     OW 9349   2.761   7.006   1.562
 2817SOL    HW1 9350   2.805   7.021   1.474
 2817SOL    HW2 9351   2.822   6.955   1.622
 2818SOL     OW 9352   0.135   0.724   2.500
 2818SOL    HW1 9353   0.183   0.741   2.414
 2818SOL    HW2 9354   0.063   0.792   2.513
 2819SOL     OW 9355   2.431   0.650   1.651
 2819SOL    HW1 9356   2.341   0.648   1.694
 2819SOL    HW2 9357   2.435   0.724   1.584
 2820SOL     OW 9358   1.432   2.269   3.728
 2820SOL    HW1 9359   1.472   2.194   3.675
 2820SOL    HW2 9360   1.408   2.236   3.819
 2821SOL     OW 9361   3.829   4.741   6.017
 2821SOL    HW1 9362   3.856   4.686   5.938
 2821SOL    HW2 9363   3.798   4.831   5.986
 2822SOL     OW 9364   3.990   1.551   0.121
 2822SOL    HW1 9365   3.907   1.568   0.068
 2822SOL    HW2 9366   4.064   1.610   0.087
 2823SOL     OW 9367   5.200   0.939   1.253
 2823SOL    HW1 9368   5.209   0.882   1.335
 2823SOL    HW2 9369   5.104   0.963   1.239
 2824SOL     OW 9370   1.891   1.935   4.634
 2824SOL    HW1 9371   1.855   1.871   4.566
 2824SOL    HW2 9372   1.954   1.887   4.694
 2825SOL     OW 9373   5.000   6.016   6.676
 2825SOL    HW1 9374   5.062   6.094   6.678
 2825SOL    HW2 9375   4.929   6.031   6.607
 2826SOL     OW 9376   4.543   2.128   6.863
 2826SOL    HW1 9377   4.611   2.081   6.920
 2826SOL    HW2 9378   4.471   2.166   6.922
 2827SOL     OW 9379   0.575   1.176   6.626
 2827SOL    HW1 9380   0.605   1.269   6.649
 2827SOL    HW2 9381   0.553   1.127   6.710
 2828SOL     OW 9382   2.603   2.304   0.486
 2828SOL    HW1 9383   2.586   2.212   0.519
 2828SOL    HW2 9384   2.528   2.332   0.425
 2829SOL     OW 9385   3.388   3.067   3.865
 2829SOL    HW1 9386   3.436   2.981   3.852
 2829SOL    HW2 9387   3.324   3.082   3.789
 2830SOL     OW 9388   2.926   3.949   5.031
 2830SOL    HW1 9389   2.941   3.968   4.934
 2830SOL    HW2 9390   2.874   3.864   5.040
 2831SOL     OW 9391   0.517   3.515   2.833
 2831SOL    HW1 9392   0.552   3.471   2.916
 2831SOL    HW2 9393   0.443   3.461   2.794
 2832SOL     OW 9394   0.723   2.971   2.050
 2832SOL    HW1 9395   0.739   2.990   1.954
 2832SOL    HW2 9396   0.665   3.042   2.090
 2833SOL     OW 9397   2.841   1.506   2.548
 2833SOL    HW1 9398   2.931   1.546   2.565
 2833SOL    HW2 9399   2.830   1.423   2.603
 2834SOL     OW 9400   3.932   6.246   5.743
 2834SOL    HW1 9401   3.975   6.335   5.754
 2834SOL    HW2 9402   3.991   6.187   5.688
 2835SOL     OW 9403   0.280   6.591   1.091
 2835SOL    HW1 9404   0.317   6.587   1.184
 2835SOL    HW2 9405   0.249   6.499   1.064
 2836SOL     OW 9406   0.560   6.830   1.911
 2836SOL    HW1 9407   0.540   6.854   1.817
 2836SOL    HW2 9408   0.528   6.903   1.972
 2837SOL     OW 9409   4.640   4.261   2.649
 2837SOL    HW1 9410   4.602   4.314   2.725
 2837SOL    HW2 9411   4.693   4.184   2.686
 2838SOL     OW 9412   3.961   3.893   0.755
 2838SOL    HW1 9413   3.973   3.835   0.674
 2838SOL    HW2 9414   3.865   3.890   0.784
 2839SOL     OW 9415   0.091   2.247   3.407
 2839SOL    HW1 9416   0.031   2.183   3.358
 2839SOL    HW2 9417   0.186   2.225   3.389
 2840SOL     OW 9418   2.058   0.501   1.981
 2840SOL    HW1 9419   2.107   0.468   2.062
 2840SOL    HW2 9420   2.012   0.425   1.936
 2841SOL     OW 9421   6.210   1.823   6.353
 2841SOL    HW1 9422   6.136   1.766   6.319
 2841SOL    HW2 9423   6.272   1.847   6.278
 2842SOL     OW 9424   0.266   4.825   4.240
 2842SOL    HW1 9425   0.342   4.890   4.242
 2842SOL    HW2 9426   0.259   4.783   4.150
 2843SOL     OW 9427   2.452   2.422   3.033
 2843SOL    HW1 9428   2.369   2.373   3.062
 2843SOL    HW2 9429   2.519   2.420   3.107
 2844SOL     OW 9430   6.286   5.358   0.210
 2844SOL    HW1 9431   6.249   5.439   0.166
 2844SOL    HW2 9432   6.278   5.280   0.148
 2845SOL     OW 9433   5.352   3.206   2.157
 2845SOL    HW1 9434   5.362   3.165   2.248
 2845SOL    HW2 9435   5.269   3.261   2.154
 2846SOL     OW 9436   4.236   0.647   0.661
 2846SOL    HW1 9437   4.211   0.686   0.572
 2846SOL    HW2 9438   4.171   0.575   0.684
 2847SOL     OW 9439   5.493   4.260   2.750
 2847SOL    HW1 9440   5.440   4.195   2.697
 2847SOL    HW2 9441   5.433   4.308   2.815
 2848SOL     OW 9442   2.414   2.324   4.997
 2848SOL    HW1 9443   2.341   2.292   5.057
 2848SOL    HW2 9444   2.381   2.332   4.903
 2849SOL     OW 9445   3.722   0.611   0.639
 2849SOL    HW1 9446   3.723   0.513   0.617
 2849SOL    HW2 9447   3.764   0.625   0.728
 2850SOL     OW 9448   1.938   0.579   2.962
 2850SOL    HW1 9449   1.893   0.493   2.939
 2850SOL    HW2 9450   1.947   0.636   2.880
 2851SOL     OW 9451   5.275   2.115   6.118
 2851SOL    HW1 9452   5.221   2.040   6.079
 2851SOL    HW2 9453   5.310   2.087   6.208
 2852SOL     OW 9454   6.951   4.307   6.742
 2852SOL    HW1 9455   6.959   4.270   6.834
 2852SOL    HW2 9456   6.860   4.287   6.705
 2853SOL     OW 9457   1.453   1.918   5.854
 2853SOL    HW1 9458   1.503   1.839   5.817
 2853SOL    HW2 9459   1.486   1.938   5.946
 2854SOL     OW 9460   4.687   0.975   5.794
 2854SOL    HW1 9461   4.609   0.923   5.828
 2854SOL    HW2 9462   4.768   0.918   5.796
 2855SOL     OW 9463   2.062   1.774   5.700
 2855SOL    HW1 9464   2.074   1.873   5.696
 2855SOL    HW2 9465   2.131   1.729   5.643
 2856SOL     OW 9466   0.675   3.474   5.157
 2856SOL    HW1 9467   0.662   3.555   5.100
 2856SOL    HW2 9468   0.771   3.466   5.183
 2857SOL     OW 9469   1.167   2.503   1.170
 2857SOL    HW1 9470   1.248   2.487   1.226
 2857SOL    HW2 9471   1.188   2.488   1.074
 2858SOL     OW 9472   4.264   5.083   2.127
 2858SOL    HW1 9473   4.308   5.005   2.172
 2858SOL    HW2 9474   4.199   5.125   2.190
 2859SOL     OW 9475   6.588   6.817   6.774
 2859SOL    HW1 9476   6.653   6.873   6.826
 2859SOL    HW2 9477   6.533   6.876   6.716
 2860SOL     OW 9478   1.830   1.467   2.429
 2860SOL    HW1 9479   1.901   1.465   2.359
 2860SOL    HW2 9480   1.850   1.541   2.494
 2861SOL     OW 9481   2.856   5.464   5.829
 2861SOL    HW1 9482   2.828   5.371   5.854
 2861SOL    HW2 9483   2.852   5.474   5.730
 2862SOL     OW 9484   4.638   1.775   1.212
 2862SOL    HW1 9485   4.591   1.687   1.212
 2862SOL    HW2 9486   4.667   1.797   1.305
 2863SOL     OW 9487   4.460   1.604   6.610
 2863SOL    HW1 9488   4.404   1.587   6.691
 2863SOL    HW2 9489   4.550   1.563   6.623
 2864SOL     OW 9490   4.944   2.371   1.081
 2864SOL    HW1 9491   5.033   2.367   1.127
 2864SOL    HW2 9492   4.956   2.394   0.985
 2865SOL     OW 9493   4.285   6.341   4.312
 2865SOL    HW1 9494   4.194   6.358   4.348
 2865SOL    HW2 9495   4.321   6.256   4.350
 2866SOL     OW 9496   5.510   4.954   6.380
 2866SOL    HW1 9497   5.422   4.946   6.333
 2866SOL    HW2 9498   5.562   5.030   6.340
 2867SOL     OW 9499   5.958   6.024   3.099
 2867SOL    HW1 9500   6.045   6.003   3.144
 2867SOL    HW2 9501   5.976   6.055   3.006
 2868SOL     OW 9502   1.905   1.047   5.884
 2868SOL    HW1 9503   1.916   0.981   5.810
 2868SOL    HW2 9504   1.807   1.062   5.901
 2869SOL     OW 9505   6.862   1.141   3.093
 2869SOL    HW1 9506   6.842   1.193   3.010
 2869SOL    HW2 9507   6.875   1.204   3.169
 2870SOL     OW 9508   0.659   1.598   5.596
 2870SOL    HW1 9509   0.625   1.592   5.690
 2870SOL    HW2 9510   0.582   1.602   5.533
 2871SOL     OW 9511   5.808   0.925   6.936
 2871SOL    HW1 9512   5.842   0.941   0.002
 2871SOL    HW2 9513   5.710   0.944   6.933
 2872SOL     OW 9514   2.542   2.338   1.737
 2872SOL    HW1 9515   2.545   2.343   1.637
 2872SOL    HW2 9516   2.552   2.243   1.767
 2873SOL     OW 9517   6.485   6.067   2.048
 2873SOL    HW1 9518   6.397   6.054   2.093
 2873SOL    HW2 9519   6.539   6.134   2.098
 2874SOL     OW 9520   4.229   6.509   2.409
 2874SOL    HW1 9521   4.163   6.435   2.408
 2874SOL    HW2 9522   4.186   6.592   2.444
 2875SOL     OW 9523   5.292   6.862   1.182
 2875SOL    HW1 9524   5.218   6.840   1.119
 2875SOL    HW2 9525   5.253   6.888   1.271
 2876SOL     OW 9526   2.183   0.594   2.792
 2876SOL    HW1 9527   2.156   0.497   2.793
 2876SOL    HW2 9528   2.118   0.647   2.739
 2877SOL     OW 9529   2.907   1.286   5.417
 2877SOL    HW1 9530   2.938   1.365   5.471
 2877SOL    HW2 9531   2.974   1.213   5.423
 2878SOL     OW 9532   3.530   4.276   5.202
 2878SOL    HW1 9533   3.488   4.198   5.155
 2878SOL    HW2 9534   3.511   4.359   5.150
 2879SOL     OW 9535   4.959   5.258   6.368
 2879SOL    HW1 9536   4.923   5.256   6.275
 2879SOL    HW2 9537   4.986   5.166   6.396
 2880SOL     OW 9538   0.238   2.243   2.470
 2880SOL    HW1 9539   0.194   2.156   2.492
 2880SOL    HW2 9540   0.336   2.235   2.487
 2881SOL     OW 9541   4.243   5.676   6.926
 2881SOL    HW1 9542   4.194   5.611   6.867
 2881SOL    HW2 9543   4.318   5.716   6.874
 2882SOL     OW 9544   0.015   5.646   1.556
 2882SOL    HW1 9545   0.054   5.624   1.467
 2882SOL    HW2 9546   0.001   5.561   1.608
 2883SOL     OW 9547   5.848   0.047   4.089
 2883SOL    HW1 9548   5.806   0.005   4.008
 2883SOL    HW2 9549   5.935   0.090   4.064
 2884SOL     OW 9550   0.684   6.822   2.991
 2884SOL    HW1 9551   0.691   6.726   2.965
 2884SOL    HW2 9552   0.593   6.840   3.029
 2885SOL     OW 9553   1.694   3.688   3.759
 2885SOL    HW1 9554   1.649   3.614   3.710
 2885SOL    HW2 9555   1.793   3.684   3.743
 2886SOL     OW 9556   1.319   3.107   6.406
 2886SOL    HW1 9557   1.290   3.130   6.313
 2886SOL    HW2 9558   1.294   3.012   6.426
 2887SOL     OW 9559   0.822   6.610   5.645
 2887SOL    HW1 9560   0.878   6.675   5.595
 2887SOL    HW2 9561   0.767   6.556   5.581
 2888SOL     OW 9562   6.974   4.027   6.401
 2888SOL    HW1 9563   7.010   4.050   6.492
 2888SOL    HW2 9564   6.992   4.103   6.338
 2889SOL     OW 9565   3.005   5.970   2.469
 2889SOL    HW1 9566   3.024   6.035   2.395
 2889SOL    HW2 9567   2.924   5.916   2.446
 2890SOL     OW 9568   1.599   6.144   0.530
 2890SOL    HW1 9569   1.552   6.157   0.617
 2890SOL    HW2 9570   1.654   6.060   0.534
 2891SOL     OW 9571   0.747   4.557   3.244
 2891SOL    HW1 9572   0.797   4.572   3.330
 2891SOL    HW2 9573   0.791   4.485   3.192
 2892SOL     OW 9574   6.454   2.948   0.856
 2892SOL    HW1 9575   6.530   3.008   0.882
 2892SOL    HW2 9576   6.426   2.969   0.763
 2893SOL     OW 9577   0.721   5.213   4.434
 2893SOL    HW1 9578   0.640   5.167   4.469
 2893SOL    HW2 9579   0.697   5.307   4.408
 2894SOL     OW 9580   0.231   3.101   2.076
 2894SOL    HW1 9581   0.272   3.060   1.995
 2894SOL    HW2 9582   0.195   3.029   2.136
 2895SOL     OW 9583   5.018   1.152   5.500
 2895SOL    HW1 9584   5.117   1.141   5.497
 2895SOL    HW2 9585   4.975   1.063   5.484
 2896SOL     OW 9586   4.302   6.624   5.635
 2896SOL    HW1 9587   4.310   6.717   5.671
 2896SOL    HW2 9588   4.296   6.627   5.536
 2897SOL     OW 9589   4.037   5.100   2.824
 2897SOL    HW1 9590   4.127   5.094   2.781
 2897SOL    HW2 9591   3.966   5.104   2.754
 2898SOL     OW 9592   4.639   4.386   4.615
 2898SOL    HW1 9593   4.552   4.355   4.578
 2898SOL    HW2 9594   4.700   4.411   4.539
 2899SOL     OW 9595   0.695   1.746   0.547
 2899SOL    HW1 9596   0.685   1.801   0.464
 2899SOL    HW2 9597   0.605   1.724   0.584
 2900SOL     OW 9598   2.761   4.503   6.599
 2900SOL    HW1 9599   2.778   4.464   6.690
 2900SOL    HW2 9600   2.828   4.574   6.580
 2901SOL     OW 9601   2.543   4.843   2.940
 2901SOL    HW1 9602   2.575   4.798   2.857
 2901SOL    HW2 9603   2.590   4.806   3.020
 2902SOL     OW 9604   5.916   5.545   3.249
 2902SOL    HW1 9605   5.967   5.505   3.325
 2902SOL    HW2 9606   5.974   5.611   3.202
 2903SOL     OW 9607   4.259   6.848   0.637
 2903SOL    HW1 9608   4.252   6.749   0.634
 2903SOL    HW2 9609   4.356   6.875   0.636
 2904SOL     OW 9610   2.913   5.029   4.268
 2904SOL    HW1 9611   2.840   5.092   4.296
 2904SOL    HW2 9612   2.877   4.936   4.264
 2905SOL     OW 9613   1.439   3.583   4.646
 2905SOL    HW1 9614   1.516   3.630   4.690
 2905SOL    HW2 9615   1.432   3.614   4.551
 2906SOL     OW 9616   4.636   4.901   2.419
 2906SOL    HW1 9617   4.592   4.836   2.481
 2906SOL    HW2 9618   4.734   4.906   2.441
 2907SOL     OW 9619   0.337   1.820   3.819
 2907SOL    HW1 9620   0.365   1.724   3.807
 2907SOL    HW2 9621   0.290   1.852   3.737
 2908SOL     OW 9622   5.197   6.429   3.231
 2908SOL    HW1 9623   5.122   6.393   3.174
 2908SOL    HW2 9624   5.271   6.459   3.172
 2909SOL     OW 9625   1.458   5.721   3.747
 2909SOL    HW1 9626   1.545   5.681   3.719
 2909SOL    HW2 9627   1.451   5.718   3.847
 2910SOL     OW 9628   5.718   0.980   4.383
 2910SOL    HW1 9629   5.804   0.929   4.392
 2910SOL    HW2 9630   5.698   0.994   4.286
 2911SOL     OW 9631   1.700   5.897   3.360
 2911SOL    HW1 9632   1.781   5.954   3.374
 2911SOL    HW2 9633   1.717   5.806   3.398
 2912SOL     OW 9634   5.648   6.669   0.460
 2912SOL    HW1 9635   5.572   6.624   0.415
 2912SOL    HW2 9636   5.733   6.647   0.412
 2913SOL     OW 9637   3.401   5.120   2.044
 2913SOL    HW1 9638   3.489   5.104   1.999
 2913SOL    HW2 9639   3.370   5.036   2.088
 2914SOL     OW 9640   6.938   6.076   6.346
 2914SOL    HW1 9641   7.019   6.100   6.399
 2914SOL    HW2 9642   6.923   6.146   6.276
 2915SOL     OW 9643   3.735   1.903   3.848
 2915SOL    HW1 9644   3.813   1.878   3.791
 2915SOL    HW2 9645   3.676   1.823   3.861
 2916SOL     OW 9646   1.424   5.443   0.345
 2916SOL    HW1 9647   1.364   5.400   0.279
 2916SOL    HW2 9648   1.510   5.392   0.351
 2917SOL     OW 9649   2.364   0.340   3.540
 2917SOL    HW1 9650   2.292   0.288   3.495
 2917SOL    HW2 9651   2.436   0.278   3.570
 2918SOL     OW 9652   6.336   4.621   5.176
 2918SOL    HW1 9653   6.347   4.528   5.211
 2918SOL    HW2 9654   6.273   4.671   5.234
 2919SOL     OW 9655   5.364   0.485   2.126
 2919SOL    HW1 9656   5.332   0.562   2.182
 2919SOL    HW2 9657   5.458   0.502   2.097
 2920SOL     OW 9658   3.183   1.343   1.012
 2920SOL    HW1 9659   3.215   1.316   1.103
 2920SOL    HW2 9660   3.261   1.355   0.951
 2921SOL     OW 9661   0.685   6.579   4.697
 2921SOL    HW1 9662   0.771   6.631   4.705
 2921SOL    HW2 9663   0.611   6.641   4.670
 2922SOL     OW 9664   4.409   6.953   1.441
 2922SOL    HW1 9665   4.441   6.962   1.535
 2922SOL    HW2 9666   4.313   6.982   1.436
 2923SOL     OW 9667   6.035   5.187   3.211
 2923SOL    HW1 9668   6.058   5.273   3.166
 2923SOL    HW2 9669   6.117   5.131   3.219
 2924SOL     OW 9670   6.459   2.270   5.742
 2924SOL    HW1 9671   6.496   2.339   5.680
 2924SOL    HW2 9672   6.415   2.315   5.819
 2925SOL     OW 9673   5.202   2.414   1.242
 2925SOL    HW1 9674   5.238   2.507   1.236
 2925SOL    HW2 9675   5.269   2.357   1.290
 2926SOL     OW 9676   5.995   1.616   6.279
 2926SOL    HW1 9677   5.975   1.654   6.189
 2926SOL    HW2 9678   5.914   1.572   6.316
 2927SOL     OW 9679   1.493   4.071   1.608
 2927SOL    HW1 9680   1.510   3.990   1.665
 2927SOL    HW2 9681   1.522   4.052   1.514
 2928SOL     OW 9682   0.507   0.713   0.062
 2928SOL    HW1 9683   0.598   0.753   0.071
 2928SOL    HW2 9684   0.438   0.785   0.068
 2929SOL     OW 9685   1.303   2.396   6.388
 2929SOL    HW1 9686   1.203   2.407   6.389
 2929SOL    HW2 9687   1.343   2.465   6.328
 2930SOL     OW 9688   5.461   6.475   5.410
 2930SOL    HW1 9689   5.558   6.502   5.408
 2930SOL    HW2 9690   5.448   6.395   5.351
 2931SOL     OW 9691   5.511   4.998   0.189
 2931SOL    HW1 9692   5.599   5.028   0.226
 2931SOL    HW2 9693   5.446   4.986   0.264
 2932SOL     OW 9694   0.894   5.999   2.182
 2932SOL    HW1 9695   0.967   5.944   2.142
 2932SOL    HW2 9696   0.867   6.070   2.117
 2933SOL     OW 9697   0.917   5.809   2.399
 2933SOL    HW1 9698   0.878   5.833   2.488
 2933SOL    HW2 9699   0.879   5.869   2.329
 2934SOL     OW 9700   4.905   1.355   6.810
 2934SOL    HW1 9701   4.891   1.449   6.840
 2934SOL    HW2 9702   4.974   1.352   6.738
 2935SOL     OW 9703   0.194   2.646   6.606
 2935SOL    HW1 9704   0.198   2.740   6.570
 2935SOL    HW2 9705   0.218   2.646   6.703
 2936SOL     OW 9706   4.603   6.420   0.567
 2936SOL    HW1 9707   4.601   6.463   0.477
 2936SOL    HW2 9708   4.596   6.321   0.556
 2937SOL     OW 9709   5.681   4.428   1.759
 2937SOL    HW1 9710   5.613   4.358   1.736
 2937SOL    HW2 9711   5.637   4.500   1.811
 2938SOL     OW 9712   4.550   5.069   6.639
 2938SOL    HW1 9713   4.616   5.103   6.706
 2938SOL    HW2 9714   4.467   5.040   6.685
 2939SOL     OW 9715   2.599   0.922   2.251
 2939SOL    HW1 9716   2.561   0.885   2.335
 2939SOL    HW2 9717   2.670   0.861   2.216
 2940SOL     OW 9718   5.778   4.746   5.524
 2940SOL    HW1 9719   5.686   4.715   5.499
 2940SOL    HW2 9720   5.781   4.846   5.522
 2941SOL     OW 9721   1.729   2.179   4.382
 2941SOL    HW1 9722   1.686   2.128   4.307
 2941SOL    HW2 9723   1.726   2.124   4.466
 2942SOL     OW 9724   3.890   2.374   0.743
 2942SOL    HW1 9725   3.857   2.287   0.780
 2942SOL    HW2 9726   3.822   2.410   0.679
 2943SOL     OW 9727   5.493   4.138   3.797
 2943SOL    HW1 9728   5.455   4.109   3.710
 2943SOL    HW2 9729   5.517   4.057   3.852
 2944SOL     OW 9730   2.887   6.083   4.321
 2944SOL    HW1 9731   2.796   6.119   4.299
 2944SOL    HW2 9732   2.925   6.039   4.240
 2945SOL     OW 9733   3.501   3.430   2.645
 2945SOL    HW1 9734   3.574   3.446   2.712
 2945SOL    HW2 9735   3.533   3.455   2.554
 2946SOL     OW 9736   1.652   5.077   5.807
 2946SOL    HW1 9737   1.679   5.011   5.737
 2946SOL    HW2 9738   1.734   5.117   5.849
 2947SOL     OW 9739   6.931   4.949   1.307
 2947SOL    HW1 9740   6.958   4.960   1.211
 2947SOL    HW2 9741   7.003   4.899   1.356
 2948SOL     OW 9742   0.276   3.784   4.404
 2948SOL    HW1 9743   0.338   3.722   4.453
 2948SOL    HW2 9744   0.325   3.867   4.379
 2949SOL     OW 9745   1.848   5.249   0.660
 2949SOL    HW1 9746   1.838   5.349   0.666
 2949SOL    HW2 9747   1.777   5.212   0.601
 2950SOL     OW 9748   5.290   5.210   4.321
 2950SOL    HW1 9749   5.382   5.244   4.300
 2950SOL    HW2 9750   5.228   5.288   4.328
 2951SOL     OW 9751   5.191   1.275   2.480
 2951SOL    HW1 9752   5.279   1.317   2.498
 2951SOL    HW2 9753   5.151   1.315   2.397
 2952SOL     OW 9754   6.772   5.193   4.802
 2952SOL    HW1 9755   6.823   5.117   4.843
 2952SOL    HW2 9756   6.674   5.180   4.819
 2953SOL     OW 9757   5.756   4.069   2.417
 2953SOL    HW1 9758   5.754   4.010   2.497
 2953SOL    HW2 9759   5.850   4.099   2.399
 2954SOL     OW 9760   1.159   5.012   2.010
 2954SOL    HW1 9761   1.162   5.058   2.099
 2954SOL    HW2 9762   1.105   4.928   2.019
 2955SOL     OW 9763   0.629   4.135   1.788
 2955SOL    HW1 9764   0.544   4.118   1.739
 2955SOL    HW2 9765   0.682   4.204   1.739
 2956SOL     OW 9766   5.539   6.025   2.901
 2956SOL    HW1 9767   5.490   5.937   2.894
 2956SOL    HW2 9768   5.505   6.075   2.981
 2957SOL     OW 9769   5.348   4.131   1.367
 2957SOL    HW1 9770   5.408   4.210   1.357
 2957SOL    HW2 9771   5.263   4.159   1.412
 2958SOL     OW 9772   2.241   4.129   3.411
 2958SOL    HW1 9773   2.217   4.225   3.394
 2958SOL    HW2 9774   2.255   4.083   3.324
 2959SOL     OW 9775   4.849   3.616   1.004
 2959SOL    HW1 9776   4.871   3.584   1.096
 2959SOL    HW2 9777   4.754   3.648   1.003
 2960SOL     OW 9778   3.025   0.891   0.597
 2960SOL    HW1 9779   3.020   0.956   0.522
 2960SOL    HW2 9780   2.976   0.807   0.572
 2961SOL     OW 9781   5.819   4.858   3.096
 2961SOL    HW1 9782   5.738   4.816   3.055
 2961SOL    HW2 9783   5.900   4.802   3.076
 2962SOL     OW 9784   4.311   6.901   2.905
 2962SOL    HW1 9785   4.355   6.875   2.819
 2962SOL    HW2 9786   4.330   6.832   2.974
 2963SOL     OW 9787   2.002   0.982   6.128
 2963SOL    HW1 9788   1.971   1.023   6.043
 2963SOL    HW2 9789   2.045   1.052   6.185
 2964SOL     OW 9790   0.087   1.303   4.665
 2964SOL    HW1 9791   0.083   1.271   4.571
 2964SOL    HW2 9792   0.180   1.334   4.686
 2965SOL     OW 9793   0.572   0.740   4.472
 2965SOL    HW1 9794   0.661   0.761   4.514
 2965SOL    HW2 9795   0.499   0.758   4.538
 2966SOL     OW 9796   4.267   4.912   3.614
 2966SOL    HW1 9797   4.267   4.882   3.710
 2966SOL    HW2 9798   4.214   4.848   3.559
 2967SOL     OW 9799   6.539   0.822   4.860
 2967SOL    HW1 9800   6.439   0.816   4.869
 2967SOL    HW2 9801   6.581   0.778   4.939
 2968SOL     OW 9802   1.015   2.727   0.882
 2968SOL    HW1 9803   1.070   2.745   0.801
 2968SOL    HW2 9804   0.952   2.803   0.898
 2969SOL     OW 9805   5.334   2.964   4.641
 2969SOL    HW1 9806   5.348   2.893   4.573
 2969SOL    HW2 9807   5.398   2.952   4.716
 2970SOL     OW 9808   2.837   2.577   5.298
 2970SOL    HW1 9809   2.814   2.487   5.260
 2970SOL    HW2 9810   2.757   2.637   5.294
 2971SOL     OW 9811   5.403   4.191   0.174
 2971SOL    HW1 9812   5.451   4.161   0.257
 2971SOL    HW2 9813   5.373   4.111   0.122
 2972SOL     OW 9814   6.991   4.894   6.187
 2972SOL    HW1 9815   0.056   4.898   6.146
 2972SOL    HW2 9816   6.966   4.799   6.204
 2973SOL     OW 9817   5.211   5.924   2.379
 2973SOL    HW1 9818   5.294   5.919   2.435
 2973SOL    HW2 9819   5.135   5.881   2.427
 2974SOL     OW 9820   1.051   4.364   3.646
 2974SOL    HW1 9821   1.148   4.380   3.668
 2974SOL    HW2 9822   1.008   4.313   3.721
 2975SOL     OW 9823   5.392   3.604   4.002
 2975SOL    HW1 9824   5.399   3.608   3.902
 2975SOL    HW2 9825   5.303   3.568   4.028
 2976SOL     OW 9826   3.751   2.141   3.028
 2976SOL    HW1 9827   3.675   2.164   3.090
 2976SOL    HW2 9828   3.775   2.045   3.040
 2977SOL     OW 9829   1.803   0.294   2.964
 2977SOL    HW1 9830   1.713   0.274   3.004
 2977SOL    HW2 9831   1.815   0.239   2.881
 2978SOL     OW 9832   4.101   5.290   0.035
 2978SOL    HW1 9833   4.108   5.260   6.967
 2978SOL    HW2 9834   4.011   5.330   0.051
 2979SOL     OW 9835   3.769   1.322   3.781
 2979SOL    HW1 9836   3.782   1.247   3.715
 2979SOL    HW2 9837   3.850   1.380   3.783
 2980SOL     OW 9838   1.221   5.181   5.044
 2980SOL    HW1 9839   1.307   5.144   5.080
 2980SOL    HW2 9840   1.206   5.273   5.081
 2981SOL     OW 9841   2.713   1.247   6.066
 2981SOL    HW1 9842   2.724   1.149   6.049
 2981SOL    HW2 9843   2.786   1.297   6.020
 2982SOL     OW 9844   2.882   5.530   1.952
 2982SOL    HW1 9845   2.935   5.612   1.975
 2982SOL    HW2 9846   2.935   5.449   1.975
 2983SOL     OW 9847   6.345   2.181   2.997
 2983SOL    HW1 9848   6.261   2.224   3.031
 2983SOL    HW2 9849   6.424   2.236   3.024
 2984SOL     OW 9850   5.989   4.413   0.124
 2984SOL    HW1 9851   5.917   4.376   0.065
 2984SOL    HW2 9852   6.052   4.468   0.069
 2985SOL     OW 9853   1.869   2.730   4.918
 2985SOL    HW1 9854   1.888   2.729   4.820
 2985SOL    HW2 9855   1.949   2.765   4.967
 2986SOL     OW 9856   3.661   4.163   3.183
 2986SOL    HW1 9857   3.640   4.259   3.169
 2986SOL    HW2 9858   3.707   4.151   3.271
 2987SOL     OW 9859   0.869   1.582   4.094
 2987SOL    HW1 9860   0.859   1.537   4.183
 2987SOL    HW2 9861   0.837   1.520   4.022
 2988SOL     OW 9862   1.971   6.217   2.680
 2988SOL    HW1 9863   1.948   6.251   2.588
 2988SOL    HW2 9864   1.963   6.117   2.681
 2989SOL     OW 9865   5.349   5.568   5.666
 2989SOL    HW1 9866   5.415   5.609   5.602
 2989SOL    HW2 9867   5.396   5.502   5.724
 2990SOL     OW 9868   3.570   2.106   4.704
 2990SOL    HW1 9869   3.509   2.099   4.624
 2990SOL    HW2 9870   3.517   2.090   4.787
 2991SOL     OW 9871   6.700   3.742   5.367
 2991SOL    HW1 9872   6.654   3.792   5.294
 2991SOL    HW2 9873   6.635   3.725   5.442
 2992SOL     OW 9874   1.247   5.410   4.422
 2992SOL    HW1 9875   1.149   5.424   4.436
 2992SOL    HW2 9876   1.261   5.355   4.340
 2993SOL     OW 9877   0.709   4.844   1.155
 2993SOL    HW1 9878   0.659   4.908   1.097
 2993SOL    HW2 9879   0.720   4.757   1.107
 2994SOL     OW 9880   3.709   6.487   6.762
 2994SOL    HW1 9881   3.752   6.573   6.792
 2994SOL    HW2 9882   3.611   6.502   6.747
 2995SOL     OW 9883   2.994   1.269   6.698
 2995SOL    HW1 9884   2.917   1.248   6.639
 2995SOL    HW2 9885   3.057   1.331   6.651
 2996SOL     OW 9886   1.051   1.274   4.941
 2996SOL    HW1 9887   1.017   1.350   4.995
 2996SOL    HW2 9888   1.143   1.250   4.971
 2997SOL     OW 9889   5.556   0.363   2.918
 2997SOL    HW1 9890   5.565   0.331   2.823
 2997SOL    HW2 9891   5.548   0.283   2.978
 2998SOL     OW 9892   5.044   6.879   3.580
 2998SOL    HW1 9893   4.949   6.909   3.590
 2998SOL    HW2 9894   5.046   6.785   3.546
 2999SOL     OW 9895   2.104   5.153   5.080
 2999SOL    HW1 9896   2.135   5.098   5.003
 2999SOL    HW2 9897   2.004   5.155   5.082
 3000SOL     OW 9898   3.139   3.975   6.321
 3000SOL    HW1 9899   3.122   3.879   6.300
 3000SOL    HW2 9900   3.208   4.011   6.258
 3001SOL     OW 9901   0.094   0.568   6.126
 3001SOL    HW1 9902   0.013   0.538   6.176
 3001SOL    HW2 9903   0.153   0.490   6.108
 3002SOL     OW 9904   3.167   1.776   6.998
 3002SOL    HW1 9905   3.224   1.821   0.040
 3002SOL    HW2 9906   3.158   1.836   6.919
 3003SOL     OW 9907   1.584   6.993   0.828
 3003SOL    HW1 9908   1.648   0.013   0.889
 3003SOL    HW2 9909   1.535   0.033   0.773
 3004SOL     OW 9910   0.608   3.738   2.718
 3004SOL    HW1 9911   0.561   3.759   2.632
 3004SOL    HW2 9912   0.573   3.652   2.755
 3005SOL     OW 9913   1.702   2.637   6.867
 3005SOL    HW1 9914   1.680   2.589   6.951
 3005SOL    HW2 9915   1.666   2.587   6.789
 3006SOL     OW 9916   5.320   1.544   4.434
 3006SOL    HW1 9917   5.271   1.503   4.357
 3006SOL    HW2 9918   5.289   1.502   4.519
 3007SOL     OW 9919   5.296   4.040   0.920
 3007SOL    HW1 9920   5.276   4.031   0.822
 3007SOL    HW2 9921   5.287   4.136   0.947
 3008SOL     OW 9922   3.529   2.068   6.132
 3008SOL    HW1 9923   3.541   2.166   6.148
 3008SOL    HW2 9924   3.476   2.054   6.049
 3009SOL     OW 9925   6.698   2.363   2.948
 3009SOL    HW1 9926   6.622   2.426   2.931
 3009SOL    HW2 9927   6.780   2.416   2.970
 3010SOL     OW 9928   3.055   5.957   3.285
 3010SOL    HW1 9929   3.064   5.857   3.280
 3010SOL    HW2 9930   3.049   5.985   3.381
 3011SOL     OW 9931   6.015   1.799   2.763
 3011SOL    HW1 9932   6.057   1.803   2.672
 3011SOL    HW2 9933   6.067   1.857   2.826
 3012SOL     OW 9934   1.933   3.539   6.348
 3012SOL    HW1 9935   2.001   3.475   6.313
 3012SOL    HW2 9936   1.978   3.623   6.378
 3013SOL     OW 9937   5.347   5.948   3.892
 3013SOL    HW1 9938   5.393   5.989   3.971
 3013SOL    HW2 9939   5.373   5.852   3.885
 3014SOL     OW 9940   5.014   2.698   4.950
 3014SOL    HW1 9941   5.031   2.600   4.947
 3014SOL    HW2 9942   4.965   2.726   4.867
 3015SOL     OW 9943   2.926   2.086   0.180
 3015SOL    HW1 9944   2.993   2.091   0.254
 3015SOL    HW2 9945   2.848   2.145   0.202
 3016SOL     OW 9946   2.886   6.287   4.015
 3016SOL    HW1 9947   2.818   6.268   4.086
 3016SOL    HW2 9948   2.944   6.207   4.003
 3017SOL     OW 9949   5.956   5.666   2.078
 3017SOL    HW1 9950   5.970   5.610   2.159
 3017SOL    HW2 9951   5.887   5.623   2.019
 3018SOL     OW 9952   2.576   6.999   5.818
 3018SOL    HW1 9953   2.562   6.920   5.759
 3018SOL    HW2 9954   2.576   0.056   5.762
 3019SOL     OW 9955   0.532   6.708   6.973
 3019SOL    HW1 9956   0.496   6.712   6.880
 3019SOL    HW2 9957   0.535   6.612   7.003
 3020SOL     OW 9958   3.959   2.457   1.342
 3020SOL    HW1 9959   3.971   2.402   1.425
 3020SOL    HW2 9960   3.990   2.404   1.263
 3021SOL     OW 9961   2.987   0.108   5.977
 3021SOL    HW1 9962   3.005   0.183   5.914
 3021SOL    HW2 9963   3.010   0.021   5.934
 3022SOL     OW 9964   4.037   5.199   5.095
 3022SOL    HW1 9965   4.109   5.248   5.143
 3022SOL    HW2 9966   4.069   5.171   5.005
 3023SOL     OW 9967   3.948   6.709   3.264
 3023SOL    HW1 9968   4.001   6.788   3.231
 3023SOL    HW2 9969   3.868   6.741   3.313
 3024SOL     OW 9970   4.848   6.505   5.111
 3024SOL    HW1 9971   4.903   6.588   5.114
 3024SOL    HW2 9972   4.817   6.488   5.017
 3025SOL     OW 9973   4.345   6.455   0.902
 3025SOL    HW1 9974   4.430   6.475   0.950
 3025SOL    HW2 9975   4.358   6.374   0.845
 3026SOL     OW 9976   1.491   0.748   6.035
 3026SOL    HW1 9977   1.523   0.841   6.019
 3026SOL    HW2 9978   1.391   0.746   6.030
 3027SOL     OW 9979   4.426   1.254   3.045
 3027SOL    HW1 9980   4.504   1.193   3.031
 3027SOL    HW2 9981   4.376   1.265   2.959
 3028SOL     OW 9982   1.720   3.749   5.909
 3028SOL    HW1 9983   1.676   3.799   5.983
 3028SOL    HW2 9984   1.655   3.685   5.868
 3029SOL     OW 9985   0.395   2.691   5.035
 3029SOL    HW1 9986   0.473   2.687   5.097
 3029SOL    HW2 9987   0.385   2.603   4.988
 3030SOL     OW 9988   0.571   3.369   0.310
 3030SOL    HW1 9989   0.529   3.279   0.307
 3030SOL    HW2 9990   0.664   3.362   0.346
 3031SOL     OW 9991   0.142   4.860   1.422
 3031SOL    HW1 9992   0.182   4.771   1.403
 3031SOL    HW2 9993   0.214   4.926   1.442
 3032SOL     OW 9994   2.720   6.679   1.410
 3032SOL    HW1 9995   2.677   6.596   1.372
 3032SOL    HW2 9996   2.650   6.750   1.421
 3033SOL     OW 9997   5.483   1.413   1.655
 3033SOL    HW1 9998   5.426   1.365   1.589
 3033SOL    HW2 9999   5.439   1.412   1.745
 3034SOL     OW10000   1.200   6.846   2.660
 3034SOL    HW110001   1.114   6.826   2.612
 3034SOL    HW210002   1.237   6.932   2.627
 3035SOL     OW10003   0.310   2.836   5.988
 3035SOL    HW110004   0.341   2.793   5.903
 3035SOL    HW210005   0.335   2.778   6.065
 3036SOL     OW10006   2.157   1.373   5.990
 3036SOL    HW110007   2.246   1.419   5.990
 3036SOL    HW210008   2.154   1.305   6.063
 3037SOL     OW10009   6.113   5.509   6.271
 3037SOL    HW110010   6.180   5.438   6.254
 3037SOL    HW210011   6.158   5.590   6.307
 3038SOL     OW10012   5.212   5.734   5.904
 3038SOL    HW110013   5.155   5.693   5.974
 3038SOL    HW210014   5.251   5.663   5.846
 3039SOL     OW10015   0.281   3.571   0.906
 3039SOL    HW110016   0.307   3.564   1.002
 3039SOL    HW210017   0.304   3.487   0.858
 3040SOL     OW10018   3.402   4.088   5.909
 3040SOL    HW110019   3.342   4.045   5.842
 3040SOL    HW210020   3.360   4.081   6.000
 3041SOL     OW10021   2.132   3.221   5.365
 3041SOL    HW110022   2.210   3.283   5.369
 3041SOL    HW210023   2.123   3.184   5.273
 3042SOL     OW10024   5.460   5.555   3.029
 3042SOL    HW110025   5.524   5.559   3.107
 3042SOL    HW210026   5.483   5.627   2.964
 3043SOL     OW10027   2.892   4.154   1.638
 3043SOL    HW110028   2.912   4.123   1.545
 3043SOL    HW210029   2.977   4.182   1.683
 3044SOL     OW10030   3.455   4.710   5.804
 3044SOL    HW110031   3.450   4.685   5.900
 3044SOL    HW210032   3.503   4.797   5.794
 3045SOL     OW10033   4.744   6.877   3.100
 3045SOL    HW110034   4.838   6.842   3.100
 3045SOL    HW210035   4.683   6.809   3.058
 3046SOL     OW10036   2.719   0.839   5.789
 3046SOL    HW110037   2.682   0.751   5.762
 3046SOL    HW210038   2.800   0.859   5.733
 3047SOL     OW10039   5.922   0.784   1.633
 3047SOL    HW110040   5.856   0.708   1.628
 3047SOL    HW210041   5.922   0.822   1.725
 3048SOL     OW10042   4.058   2.092   1.493
 3048SOL    HW110043   4.015   2.022   1.549
 3048SOL    HW210044   4.139   2.055   1.448
 3049SOL     OW10045   1.126   0.097   2.906
 3049SOL    HW110046   1.042   0.116   2.957
 3049SOL    HW210047   1.113   0.122   2.809
 3050SOL     OW10048   3.138   1.662   2.010
 3050SOL    HW110049   3.197   1.739   1.988
 3050SOL    HW210050   3.126   1.605   1.928
 3051SOL     OW10051   2.168   5.536   6.134
 3051SOL    HW110052   2.256   5.503   6.098
 3051SOL    HW210053   2.130   5.469   6.198
 3052SOL     OW10054   4.835   5.754   1.745
 3052SOL    HW110055   4.743   5.754   1.785
 3052SOL    HW210056   4.880   5.667   1.766
 3053SOL     OW10057   6.975   2.278   0.814
 3053SOL    HW110058   6.876   2.265   0.821
 3053SOL    HW210059   7.009   2.323   0.896
 3054SOL     OW10060   6.435   2.317   0.974
 3054SOL    HW110061   6.432   2.376   0.893
 3054SOL    HW210062   6.444   2.374   1.056
 3055SOL     OW10063   5.082   0.028   5.098
 3055SOL    HW110064   5.012   0.035   5.169
 3055SOL    HW210065   5.168   7.025   5.138
 3056SOL     OW10066   6.150   0.786   5.607
 3056SOL    HW110067   6.097   0.765   5.525
 3056SOL    HW210068   6.243   0.751   5.596
 3057SOL     OW10069   4.352   5.522   3.330
 3057SOL    HW110070   4.256   5.504   3.348
 3057SOL    HW210071   4.363   5.560   3.238
 3058SOL     OW10072   0.236   4.547   1.328
 3058SOL    HW110073   0.309   4.610   1.301
 3058SOL    HW210074   0.273   4.478   1.390
 3059SOL     OW10075   2.856   2.276   4.066
 3059SOL    HW110076   2.837   2.307   3.973
 3059SOL    HW210077   2.769   2.261   4.114
 3060SOL     OW10078   1.416   5.052   0.335
 3060SOL    HW110079   1.317   5.046   0.324
 3060SOL    HW210080   1.460   4.975   0.288
 3061SOL     OW10081   6.824   5.690   5.737
 3061SOL    HW110082   6.770   5.606   5.738
 3061SOL    HW210083   6.891   5.688   5.811
 3062SOL     OW10084   2.546   0.690   0.943
 3062SOL    HW110085   2.571   0.767   1.002
 3062SOL    HW210086   2.457   0.707   0.903
 3063SOL     OW10087   1.657   5.363   2.328
 3063SOL    HW110088   1.693   5.454   2.307
 3063SOL    HW210089   1.586   5.371   2.398
 3064SOL     OW10090   4.855   3.461   1.274
 3064SOL    HW110091   4.792   3.500   1.342
 3064SOL    HW210092   4.944   3.446   1.317
 3065SOL     OW10093   1.752   1.813   6.307
 3065SOL    HW110094   1.686   1.885   6.328
 3065SOL    HW210095   1.829   1.852   6.258
 3066SOL     OW10096   5.078   4.863   0.445
 3066SOL    HW110097   5.050   4.937   0.385
 3066SOL    HW210098   5.009   4.849   0.516
 3067SOL     OW10099   4.422   0.513   6.025
 3067SOL    HW110100   4.354   0.459   6.073
 3067SOL    HW210101   4.430   0.603   6.068
 3068SOL     OW10102   6.918   6.644   0.860
 3068SOL    HW110103   6.961   6.674   0.945
 3068SOL    HW210104   6.973   6.574   0.816
 3069SOL     OW10105   6.947   6.515   1.878
 3069SOL    HW110106   6.958   6.458   1.960
 3069SOL    HW210107   6.951   6.457   1.797
 3070SOL     OW10108   3.091   1.300   0.009
 3070SOL    HW110109   3.126   1.265   0.096
 3070SOL    HW210110   3.158   1.282   6.963
 3071SOL     OW10111   6.918   6.577   3.724
 3071SOL    HW110112   7.014   6.575   3.694
 3071SOL    HW210113   6.876   6.488   3.705
 3072SOL     OW10114   2.578   5.931   5.998
 3072SOL    HW110115   2.629   5.996   6.055
 3072SOL    HW210116   2.621   5.841   6.003
 3073SOL     OW10117   6.599   3.625   4.439
 3073SOL    HW110118   6.623   3.616   4.536
 3073SOL    HW210119   6.554   3.541   4.408
 3074SOL     OW10120   6.315   3.743   1.628
 3074SOL    HW110121   6.329   3.785   1.538
 3074SOL    HW210122   6.364   3.656   1.632
 3075SOL     OW10123   2.382   5.333   1.568
 3075SOL    HW110124   2.421   5.376   1.487
 3075SOL    HW210125   2.454   5.321   1.637
 3076SOL     OW10126   5.930   0.860   3.311
 3076SOL    HW110127   6.000   0.794   3.282
 3076SOL    HW210128   5.840   0.827   3.283
 3077SOL     OW10129   6.078   4.562   1.444
 3077SOL    HW110130   6.100   4.640   1.503
 3077SOL    HW210131   5.980   4.543   1.449
 3078SOL     OW10132   0.149   3.123   2.840
 3078SOL    HW110133   0.192   3.033   2.851
 3078SOL    HW210134   0.050   3.113   2.840
 3079SOL     OW10135   2.633   2.401   2.701
 3079SOL    HW110136   2.589   2.485   2.733
 3079SOL    HW210137   2.563   2.329   2.691
 3080SOL     OW10138   5.345   5.235   2.189
 3080SOL    HW110139   5.351   5.227   2.089
 3080SOL    HW210140   5.251   5.219   2.217
 3081SOL     OW10141   1.254   2.789   5.693
 3081SOL    HW110142   1.176   2.852   5.697
 3081SOL    HW210143   1.292   2.788   5.601
 3082SOL     OW10144   1.903   5.626   4.085
 3082SOL    HW110145   1.917   5.694   4.013
 3082SOL    HW210146   1.829   5.565   4.060
 3083SOL     OW10147   3.074   6.103   3.836
 3083SOL    HW110148   3.163   6.059   3.841
 3083SOL    HW210149   3.074   6.171   3.762
 3084SOL     OW10150   6.673   4.063   4.580
 3084SOL    HW110151   6.737   4.140   4.570
 3084SOL    HW210152   6.653   4.025   4.489
 3085SOL     OW10153   5.693   4.028   0.210
 3085SOL    HW110154   5.654   4.085   0.283
 3085SOL    HW210155   5.760   4.082   0.158
 3086SOL     OW10156   5.353   1.343   1.255
 3086SOL    HW110157   5.453   1.344   1.262
 3086SOL    HW210158   5.321   1.434   1.230
 3087SOL     OW10159   1.610   6.000   3.796
 3087SOL    HW110160   1.691   6.051   3.767
 3087SOL    HW210161   1.617   5.905   3.766
 3088SOL     OW10162   2.175   4.987   4.867
 3088SOL    HW110163   2.109   4.973   4.794
 3088SOL    HW210164   2.196   4.900   4.911
 3089SOL     OW10165   3.086   1.982   5.468
 3089SOL    HW110166   3.129   1.915   5.408
 3089SOL    HW210167   3.053   2.060   5.414
 3090SOL     OW10168   2.375   1.606   1.750
 3090SOL    HW110169   2.473   1.608   1.732
 3090SOL    HW210170   2.352   1.522   1.800
 3091SOL     OW10171   1.755   0.952   1.421
 3091SOL    HW110172   1.710   0.924   1.506
 3091SOL    HW210173   1.727   1.045   1.397
 3092SOL     OW10174   5.621   1.446   0.669
 3092SOL    HW110175   5.600   1.432   0.766
 3092SOL    HW210176   5.613   1.358   0.621
 3093SOL     OW10177   5.688   6.060   6.507
 3093SOL    HW110178   5.609   6.096   6.457
 3093SOL    HW210179   5.684   5.960   6.509
 3094SOL     OW10180   2.493   0.465   4.334
 3094SOL    HW110181   2.530   0.379   4.370
 3094SOL    HW210182   2.493   0.534   4.407
 3095SOL     OW10183   2.178   4.636   5.741
 3095SOL    HW110184   2.153   4.696   5.817
 3095SOL    HW210185   2.096   4.607   5.693
 3096SOL     OW10186   0.916   5.152   5.276
 3096SOL    HW110187   0.983   5.092   5.233
 3096SOL    HW210188   0.907   5.236   5.222
 3097SOL     OW10189   5.673   2.959   6.790
 3097SOL    HW110190   5.737   2.963   6.713
 3097SOL    HW210191   5.712   2.903   6.864
 3098SOL     OW10192   2.029   2.255   1.379
 3098SOL    HW110193   1.962   2.182   1.393
 3098SOL    HW210194   1.984   2.344   1.385
 3099SOL     OW10195   0.846   6.904   4.069
 3099SOL    HW110196   0.916   6.853   4.020
 3099SOL    HW210197   0.890   6.971   4.129
 3100SOL     OW10198   0.095   0.060   3.640
 3100SOL    HW110199   0.146   7.001   3.641
 3100SOL    HW210200   0.020   0.054   3.573
 3101SOL     OW10201   6.287   5.954   6.839
 3101SOL    HW110202   6.259   5.988   6.749
 3101SOL    HW210203   6.291   6.030   6.904
 3102SOL     OW10204   6.380   5.708   1.915
 3102SOL    HW110205   6.294   5.748   1.946
 3102SOL    HW210206   6.436   5.684   1.995
 3103SOL     OW10207   4.263   0.964   1.916
 3103SOL    HW110208   4.256   0.979   1.818
 3103SOL    HW210209   4.359   0.949   1.941
 3104SOL     OW10210   4.985   0.636   5.538
 3104SOL    HW110211   4.960   0.609   5.445
 3104SOL    HW210212   4.958   0.731   5.554
 3105SOL     OW10213   6.026   4.154   1.363
 3105SOL    HW110214   6.076   4.239   1.378
 3105SOL    HW210215   5.929   4.168   1.381
 3106SOL     OW10216   5.165   0.252   3.766
 3106SOL    HW110217   5.231   0.316   3.728
 3106SOL    HW210218   5.213   0.179   3.815
 3107SOL     OW10219   4.234   1.139   5.193
 3107SOL    HW110220   4.299   1.209   5.225
 3107SOL    HW210221   4.158   1.132   5.258
 3108SOL     OW10222   1.607   5.705   4.244
 3108SOL    HW110223   1.665   5.770   4.194
 3108SOL    HW210224   1.635   5.702   4.340
 3109SOL     OW10225   5.286   6.288   3.756
 3109SOL    HW110226   5.259   6.317   3.848
 3109SOL    HW210227   5.208   6.294   3.695
 3110SOL     OW10228   1.173   3.048   3.070
 3110SOL    HW110229   1.140   3.072   2.979
 3110SOL    HW210230   1.167   3.127   3.130
 3111SOL     OW10231   0.005   4.592   3.141
 3111SOL    HW110232   6.981   4.652   3.202
 3111SOL    HW210233   7.006   4.497   3.157
 3112SOL     OW10234   3.934   2.901   6.942
 3112SOL    HW110235   3.989   2.909   6.859
 3112SOL    HW210236   3.840   2.878   6.918
 3113SOL     OW10237   2.663   4.742   3.833
 3113SOL    HW110238   2.568   4.716   3.818
 3113SOL    HW210239   2.678   4.836   3.802
 3114SOL     OW10240   3.843   2.078   0.822
 3114SOL    HW110241   3.861   2.004   0.758
 3114SOL    HW210242   3.920   2.086   0.886
 3115SOL     OW10243   4.376   4.688   6.325
 3115SOL    HW110244   4.307   4.669   6.396
 3115SOL    HW210245   4.371   4.784   6.299
 3116SOL     OW10246   6.520   2.711   0.666
 3116SOL    HW110247   6.444   2.649   0.647
 3116SOL    HW210248   6.501   2.801   0.627
 3117SOL     OW10249   4.744   3.719   5.380
 3117SOL    HW110250   4.703   3.670   5.303
 3117SOL    HW210251   4.844   3.715   5.372
 3118SOL     OW10252   0.320   5.752   2.551
 3118SOL    HW110253   0.302   5.850   2.541
 3118SOL    HW210254   0.394   5.725   2.490
 3119SOL     OW10255   2.373   2.933   6.938
 3119SOL    HW110256   2.376   3.017   6.992
 3119SOL    HW210257   2.456   2.879   6.954
 3120SOL     OW10258   2.896   0.213   6.199
 3120SOL    HW110259   2.942   0.174   6.119
 3120SOL    HW210260   2.807   0.251   6.171
 3121SOL     OW10261   6.950   1.207   4.067
 3121SOL    HW110262   6.920   1.284   4.124
 3121SOL    HW210263   6.893   1.128   4.087
 3122SOL     OW10264   3.740   5.094   6.660
 3122SOL    HW110265   3.781   5.162   6.720
 3122SOL    HW210266   3.654   5.062   6.701
 3123SOL     OW10267   1.987   2.027   3.164
 3123SOL    HW110268   2.054   1.953   3.158
 3123SOL    HW210269   2.029   2.113   3.135
 3124SOL     OW10270   4.937   6.300   4.554
 3124SOL    HW110271   4.968   6.205   4.557
 3124SOL    HW210272   4.875   6.317   4.630
 3125SOL     OW10273   1.207   2.976   4.880
 3125SOL    HW110274   1.200   2.973   4.780
 3125SOL    HW210275   1.165   2.894   4.919
 3126SOL     OW10276   6.164   4.035   5.541
 3126SOL    HW110277   6.133   3.990   5.625
 3126SOL    HW210278   6.171   4.134   5.556
 3127SOL     OW10279   1.668   2.601   5.970
 3127SOL    HW110280   1.594   2.555   5.920
 3127SOL    HW210281   1.732   2.642   5.904
 3128SOL     OW10282   2.836   0.303   6.593
 3128SOL    HW110283   2.911   0.366   6.574
 3128SOL    HW210284   2.808   0.259   6.508
 3129SOL     OW10285   6.552   3.485   7.009
 3129SOL    HW110286   6.550   3.519   6.915
 3129SOL    HW210287   6.595   3.395   7.012
 3130SOL     OW10288   2.055   4.438   1.742
 3130SOL    HW110289   2.093   4.368   1.802
 3130SOL    HW210290   1.958   4.418   1.726
 3131SOL     OW10291   0.123   3.026   1.694
 3131SOL    HW110292   0.124   3.126   1.688
 3131SOL    HW210293   0.131   2.987   1.602
 3132SOL     OW10294   4.063   5.593   6.729
 3132SOL    HW110295   4.011   5.510   6.746
 3132SOL    HW210296   4.076   5.605   6.630
 3133SOL     OW10297   3.096   1.200   3.212
 3133SOL    HW110298   3.182   1.188   3.163
 3133SOL    HW210299   3.112   1.193   3.311
 3134SOL     OW10300   4.554   3.686   1.666
 3134SOL    HW110301   4.586   3.704   1.573
 3134SOL    HW210302   4.467   3.732   1.681
 3135SOL     OW10303   4.581   0.367   5.596
 3135SOL    HW110304   4.661   0.380   5.538
 3135SOL    HW210305   4.610   0.345   5.689
 3136SOL     OW10306   5.336   0.667   2.320
 3136SOL    HW110307   5.402   0.726   2.272
 3136SOL    HW210308   5.251   0.717   2.335
 3137SOL     OW10309   6.399   0.612   2.123
 3137SOL    HW110310   6.332   0.585   2.193
 3137SOL    HW210311   6.468   0.671   2.165
 3138SOL     OW10312   6.529   4.816   3.464
 3138SOL    HW110313   6.431   4.799   3.471
 3138SOL    HW210314   6.545   4.904   3.420
 3139SOL     OW10315   4.765   5.668   0.628
 3139SOL    HW110316   4.717   5.735   0.570
 3139SOL    HW210317   4.830   5.617   0.572
 3140SOL     OW10318   6.577   0.029   0.322
 3140SOL    HW110319   6.490   7.017   0.351
 3140SOL    HW210320   6.622   6.993   0.258
 3141SOL     OW10321   0.891   6.922   6.884
 3141SOL    HW110322   0.891   7.012   6.842
 3141SOL    HW210323   0.846   6.856   6.823
 3142SOL     OW10324   3.362   0.127   2.292
 3142SOL    HW110325   3.380   0.030   2.280
 3142SOL    HW210326   3.345   0.146   2.389
 3143SOL     OW10327   6.582   1.842   0.576
 3143SOL    HW110328   6.568   1.914   0.644
 3143SOL    HW210329   6.619   1.882   0.492
 3144SOL     OW10330   3.908   3.652   1.132
 3144SOL    HW110331   3.815   3.686   1.121
 3144SOL    HW210332   3.908   3.552   1.124
 3145SOL     OW10333   2.462   6.125   1.767
 3145SOL    HW110334   2.514   6.048   1.802
 3145SOL    HW210335   2.366   6.116   1.794
 3146SOL     OW10336   1.446   1.351   4.625
 3146SOL    HW110337   1.473   1.309   4.538
 3146SOL    HW210338   1.429   1.448   4.612
 3147SOL     OW10339   3.136   5.647   1.137
 3147SOL    HW110340   3.063   5.706   1.172
 3147SOL    HW210341   3.162   5.582   1.209
 3148SOL     OW10342   6.165   6.994   3.593
 3148SOL    HW110343   6.106   6.979   3.673
 3148SOL    HW210344   6.108   7.013   3.513
 3149SOL     OW10345   3.406   0.456   5.483
 3149SOL    HW110346   3.446   0.547   5.486
 3149SOL    HW210347   3.323   0.456   5.428
 3150SOL     OW10348   6.208   5.597   4.723
 3150SOL    HW110349   6.218   5.616   4.626
 3150SOL    HW210350   6.296   5.566   4.760
 3151SOL     OW10351   6.786   0.725   4.997
 3151SOL    HW110352   6.769   0.823   4.999
 3151SOL    HW210353   6.870   0.707   4.946
 3152SOL     OW10354   1.092   5.328   1.095
 3152SOL    HW110355   1.077   5.414   1.144
 3152SOL    HW210356   1.004   5.281   1.083
 3153SOL     OW10357   6.316   5.451   0.638
 3153SOL    HW110358   6.357   5.386   0.703
 3153SOL    HW210359   6.382   5.471   0.565
 3154SOL     OW10360   0.363   1.708   6.777
 3154SOL    HW110361   0.429   1.661   6.718
 3154SOL    HW210362   0.345   1.652   6.858
 3155SOL     OW10363   6.439   3.898   0.359
 3155SOL    HW110364   6.533   3.895   0.326
 3155SOL    HW210365   6.385   3.826   0.316
 3156SOL     OW10366   3.575   2.962   2.867
 3156SOL    HW110367   3.609   2.898   2.935
 3156SOL    HW210368   3.586   3.056   2.900
 3157SOL     OW10369   2.654   1.924   5.244
 3157SOL    HW110370   2.677   1.981   5.323
 3157SOL    HW210371   2.607   1.979   5.175
 3158SOL     OW10372   3.211   1.523   3.452
 3158SOL    HW110373   3.199   1.425   3.464
 3158SOL    HW210374   3.251   1.542   3.362
 3159SOL     OW10375   6.431   0.773   0.293
 3159SOL    HW110376   6.422   0.718   0.376
 3159SOL    HW210377   6.367   0.738   0.224
 3160SOL     OW10378   0.557   5.893   5.689
 3160SOL    HW110379   0.644   5.933   5.719
 3160SOL    HW210380   0.566   5.862   5.595
 3161SOL     OW10381   2.474   2.593   2.817
 3161SOL    HW110382   2.455   2.556   2.908
 3161SOL    HW210383   2.410   2.667   2.797
 3162SOL     OW10384   1.344   6.415   1.364
 3162SOL    HW110385   1.382   6.442   1.452
 3162SOL    HW210386   1.359   6.317   1.349
 3163SOL     OW10387   4.836   2.858   6.321
 3163SOL    HW110388   4.761   2.920   6.296
 3163SOL    HW210389   4.804   2.796   6.392
 3164SOL     OW10390   4.234   5.505   1.411
 3164SOL    HW110391   4.215   5.600   1.437
 3164SOL    HW210392   4.168   5.475   1.342
 3165SOL     OW10393   1.151   6.858   0.854
 3165SOL    HW110394   1.056   6.837   0.834
 3165SOL    HW210395   1.162   6.877   0.952
 3166SOL     OW10396   4.199   1.941   4.170
 3166SOL    HW110397   4.294   1.935   4.200
 3166SOL    HW210398   4.139   1.903   4.240
 3167SOL     OW10399   6.695   4.485   0.607
 3167SOL    HW110400   6.620   4.426   0.638
 3167SOL    HW210401   6.749   4.514   0.685
 3168SOL     OW10402   5.018   2.838   7.020
 3168SOL    HW110403   5.017   2.920   6.965
 3168SOL    HW210404   5.097   2.841   0.056
 3169SOL     OW10405   1.865   4.100   3.920
 3169SOL    HW110406   1.958   4.064   3.930
 3169SOL    HW210407   1.837   4.095   3.824
 3170SOL     OW10408   4.560   6.106   1.362
 3170SOL    HW110409   4.543   6.144   1.271
 3170SOL    HW210410   4.611   6.171   1.417
 3171SOL     OW10411   0.124   0.616   2.159
 3171SOL    HW110412   0.124   0.710   2.124
 3171SOL    HW210413   0.030   0.584   2.168
 3172SOL     OW10414   0.026   5.556   0.468
 3172SOL    HW110415   6.998   5.586   0.389
 3172SOL    HW210416   0.112   5.518   0.436
 3173SOL     OW10417   2.851   2.043   0.622
 3173SOL    HW110418   2.850   1.944   0.639
 3173SOL    HW210419   2.940   2.080   0.651
 3174SOL     OW10420   3.304   2.384   0.462
 3174SOL    HW110421   3.223   2.440   0.449
 3174SOL    HW210422   3.334   2.391   0.558
 3175SOL     OW10423   6.061   1.127   1.608
 3175SOL    HW110424   6.151   1.084   1.615
 3175SOL    HW210425   6.007   1.106   1.689
 3176SOL     OW10426   1.517   4.081   5.817
 3176SOL    HW110427   1.591   4.074   5.884
 3176SOL    HW210428   1.544   4.034   5.733
 3177SOL     OW10429   5.251   3.908   3.969
 3177SOL    HW110430   5.310   3.827   3.966
 3177SOL    HW210431   5.199   3.907   4.055
 3178SOL     OW10432   6.296   2.125   0.701
 3178SOL    HW110433   6.389   2.129   0.665
 3178SOL    HW210434   6.299   2.095   0.797
 3179SOL     OW10435   0.711   3.321   1.970
 3179SOL    HW110436   0.691   3.404   1.917
 3179SOL    HW210437   0.630   3.296   2.023
 3180SOL     OW10438   4.905   0.997   6.516
 3180SOL    HW110439   4.844   1.074   6.499
 3180SOL    HW210440   4.870   0.916   6.470
 3181SOL     OW10441   7.009   2.316   3.649
 3181SOL    HW110442   0.058   2.310   3.714
 3181SOL    HW210443   0.017   2.301   3.556
 3182SOL     OW10444   2.966   0.049   6.414
 3182SOL    HW110445   3.052   0.082   6.455
 3182SOL    HW210446   2.947   0.102   6.332
 3183SOL     OW10447   4.569   4.046   1.665
 3183SOL    HW110448   4.519   3.974   1.617
 3183SOL    HW210449   4.507   4.095   1.726
 3184SOL     OW10450   0.849   3.915   2.798
 3184SOL    HW110451   0.785   3.855   2.750
 3184SOL    HW210452   0.942   3.878   2.788
 3185SOL     OW10453   5.435   6.107   6.851
 3185SOL    HW110454   5.486   6.028   6.815
 3185SOL    HW210455   5.411   6.168   6.776
 3186SOL     OW10456   3.497   1.792   1.726
 3186SOL    HW110457   3.471   1.873   1.675
 3186SOL    HW210458   3.568   1.742   1.676
 3187SOL     OW10459   4.653   4.434   0.904
 3187SOL    HW110460   4.559   4.406   0.882
 3187SOL    HW210461   4.713   4.354   0.900
 3188SOL     OW10462   2.219   0.564   4.279
 3188SOL    HW110463   2.209   0.645   4.336
 3188SOL    HW210464   2.299   0.512   4.309
 3189SOL     OW10465   1.493   1.390   1.576
 3189SOL    HW110466   1.417   1.347   1.527
 3189SOL    HW210467   1.479   1.380   1.675
 3190SOL     OW10468   0.427   5.802   0.494
 3190SOL    HW110469   0.371   5.776   0.415
 3190SOL    HW210470   0.372   5.855   0.558
 3191SOL     OW10471   5.107   5.672   1.189
 3191SOL    HW110472   5.075   5.650   1.281
 3191SOL    HW210473   5.078   5.764   1.164
 3192SOL     OW10474   0.333   2.424   1.532
 3192SOL    HW110475   0.390   2.452   1.610
 3192SOL    HW210476   0.247   2.387   1.565
 3193SOL     OW10477   3.695   1.146   6.840
 3193SOL    HW110478   3.620   1.093   6.880
 3193SOL    HW210479   3.660   1.234   6.807
 3194SOL     OW10480   2.106   2.284   6.326
 3194SOL    HW110481   2.012   2.273   6.360
 3194SOL    HW210482   2.108   2.359   6.260
 3195SOL     OW10483   3.122   1.578   3.162
 3195SOL    HW110484   3.064   1.503   3.130
 3195SOL    HW210485   3.138   1.642   3.087
 3196SOL     OW10486   0.590   0.756   6.513
 3196SOL    HW110487   0.681   0.724   6.538
 3196SOL    HW210488   0.548   0.690   6.450
 3197SOL     OW10489   2.615   6.644   3.489
 3197SOL    HW110490   2.638   6.593   3.571
 3197SOL    HW210491   2.697   6.658   3.434
 3198SOL     OW10492   6.258   3.195   4.755
 3198SOL    HW110493   6.194   3.225   4.826
 3198SOL    HW210494   6.319   3.125   4.793
 3199SOL     OW10495   5.026   3.907   2.301
 3199SOL    HW110496   4.954   3.974   2.284
 3199SOL    HW210497   5.108   3.932   2.249
 3200SOL     OW10498   6.063   3.074   1.702
 3200SOL    HW110499   6.090   3.111   1.791
 3200SOL    HW210500   6.098   2.981   1.693
 3201SOL     OW10501   5.775   4.806   4.242
 3201SOL    HW110502   5.833   4.784   4.320
 3201SOL    HW210503   5.688   4.843   4.275
 3202SOL     OW10504   0.534   4.848   1.918
 3202SOL    HW110505   0.567   4.942   1.915
 3202SOL    HW210506   0.608   4.786   1.890
 3203SOL     OW10507   6.263   2.273   0.241
 3203SOL    HW110508   6.259   2.347   0.174
 3203SOL    HW210509   6.238   2.308   0.331
 3204SOL     OW10510   4.578   6.612   2.694
 3204SOL    HW110511   4.545   6.521   2.668
 3204SOL    HW210512   4.504   6.678   2.684
 3205SOL     OW10513   6.497   2.847   6.373
 3205SOL    HW110514   6.544   2.852   6.285
 3205SOL    HW210515   6.417   2.907   6.371
 3206SOL     OW10516   1.256   6.149   6.275
 3206SOL    HW110517   1.309   6.210   6.334
 3206SOL    HW210518   1.167   6.130   6.318
 3207SOL     OW10519   0.830   0.407   6.048
 3207SOL    HW110520   0.800   0.354   5.969
 3207SOL    HW210521   0.870   0.493   6.018
 3208SOL     OW10522   5.029   5.616   6.084
 3208SOL    HW110523   4.929   5.624   6.090
 3208SOL    HW210524   5.053   5.533   6.034
 3209SOL     OW10525   4.588   6.180   3.264
 3209SOL    HW110526   4.602   6.110   3.334
 3209SOL    HW210527   4.508   6.236   3.289
 3210SOL     OW10528   1.028   4.822   1.524
 3210SOL    HW110529   0.929   4.834   1.514
 3210SOL    HW210530   1.055   4.844   1.618
 3211SOL     OW10531   1.784   3.805   1.024
 3211SOL    HW110532   1.806   3.864   1.102
 3211SOL    HW210533   1.778   3.860   0.941
 3212SOL     OW10534   3.392   0.761   1.238
 3212SOL    HW110535   3.482   0.790   1.272
 3212SOL    HW210536   3.393   0.758   1.138
 3213SOL     OW10537   1.078   5.765   1.337
 3213SOL    HW110538   1.169   5.806   1.341
 3213SOL    HW210539   1.010   5.835   1.315
 3214SOL     OW10540   4.718   5.111   0.677
 3214SOL    HW110541   4.811   5.142   0.695
 3214SOL    HW210542   4.718   5.052   0.595
 3215SOL     OW10543   6.908   2.558   0.659
 3215SOL    HW110544   6.844   2.575   0.734
 3215SOL    HW210545   6.917   2.640   0.604
 3216SOL     OW10546   6.227   5.138   0.528
 3216SOL    HW110547   6.209   5.206   0.457
 3216SOL    HW210548   6.158   5.146   0.600
 3217SOL     OW10549   6.986   5.595   2.300
 3217SOL    HW110550   0.057   5.582   2.284
 3217SOL    HW210551   6.940   5.614   2.214
 3218SOL     OW10552   4.618   2.022   3.679
 3218SOL    HW110553   4.588   2.094   3.742
 3218SOL    HW210554   4.656   2.064   3.596
 3219SOL     OW10555   0.154   2.331   3.898
 3219SOL    HW110556   0.139   2.420   3.854
 3219SOL    HW210557   0.248   2.327   3.933
 3220SOL     OW10558   6.608   5.405   6.436
 3220SOL    HW110559   6.581   5.501   6.433
 3220SOL    HW210560   6.556   5.354   6.368
 3221SOL     OW10561   3.763   0.611   1.729
 3221SOL    HW110562   3.763   0.536   1.795
 3221SOL    HW210563   3.856   0.631   1.702
 3222SOL     OW10564   3.621   1.876   2.357
 3222SOL    HW110565   3.624   1.800   2.422
 3222SOL    HW210566   3.599   1.840   2.266
 3223SOL     OW10567   2.138   6.528   6.123
 3223SOL    HW110568   2.097   6.586   6.194
 3223SOL    HW210569   2.191   6.456   6.166
 3224SOL     OW10570   4.553   3.884   6.231
 3224SOL    HW110571   4.511   3.822   6.298
 3224SOL    HW210572   4.482   3.939   6.188
 3225SOL     OW10573   5.055   2.638   6.596
 3225SOL    HW110574   5.082   2.542   6.607
 3225SOL    HW210575   5.040   2.658   6.499
 3226SOL     OW10576   2.096   1.279   3.386
 3226SOL    HW110577   2.175   1.305   3.330
 3226SOL    HW210578   2.041   1.360   3.404
 3227SOL     OW10579   3.516   2.804   0.278
 3227SOL    HW110580   3.596   2.745   0.279
 3227SOL    HW210581   3.437   2.753   0.312
 3228SOL     OW10582   6.753   4.414   2.674
 3228SOL    HW110583   6.853   4.419   2.678
 3228SOL    HW210584   6.715   4.437   2.764
 3229SOL     OW10585   4.030   6.714   5.033
 3229SOL    HW110586   3.938   6.723   4.995
 3229SOL    HW210587   4.096   6.755   4.970
 3230SOL     OW10588   2.111   3.498   5.065
 3230SOL    HW110589   2.109   3.524   4.968
 3230SOL    HW210590   2.134   3.401   5.074
 3231SOL     OW10591   2.431   1.128   1.144
 3231SOL    HW110592   2.528   1.136   1.168
 3231SOL    HW210593   2.403   1.210   1.094
 3232SOL     OW10594   5.155   5.324   4.920
 3232SOL    HW110595   5.064   5.283   4.917
 3232SOL    HW210596   5.148   5.422   4.904
 3233SOL     OW10597   0.805   2.903   1.454
 3233SOL    HW110598   0.723   2.928   1.402
 3233SOL    HW210599   0.848   2.985   1.490
 3234SOL     OW10600   6.790   1.872   0.046
 3234SOL    HW110601   6.722   1.820   0.098
 3234SOL    HW210602   6.830   1.943   0.104
 3235SOL     OW10603   5.678   0.866   1.833
 3235SOL    HW110604   5.587   0.908   1.835
 3235SOL    HW210605   5.669   0.767   1.823
 3236SOL     OW10606   1.689   3.016   0.713
 3236SOL    HW110607   1.743   2.997   0.795
 3236SOL    HW210608   1.675   3.115   0.704
 3237SOL     OW10609   5.161   1.671   4.216
 3237SOL    HW110610   5.141   1.744   4.150
 3237SOL    HW210611   5.236   1.615   4.181
 3238SOL     OW10612   6.634   5.270   0.668
 3238SOL    HW110613   6.713   5.319   0.631
 3238SOL    HW210614   6.661   5.222   0.752
 3239SOL     OW10615   6.675   1.678   1.885
 3239SOL    HW110616   6.735   1.674   1.965
 3239SOL    HW210617   6.705   1.751   1.824
 3240SOL     OW10618   0.096   0.362   6.604
 3240SOL    HW110619   0.153   0.339   6.525
 3240SOL    HW210620   7.026   0.359   6.577
 3241SOL     OW10621   4.574   2.181   5.387
 3241SOL    HW110622   4.499   2.213   5.445
 3241SOL    HW210623   4.576   2.234   5.303
 3242SOL     OW10624   3.597   4.555   0.112
 3242SOL    HW110625   3.637   4.557   0.021
 3242SOL    HW210626   3.536   4.633   0.124
 3243SOL     OW10627   4.349   4.636   0.371
 3243SOL    HW110628   4.307   4.726   0.380
 3243SOL    HW210629   4.347   4.607   0.275
 3244SOL     OW10630   5.006   5.175   0.673
 3244SOL    HW110631   5.037   5.270   0.662
 3244SOL    HW210632   5.001   5.132   0.583
 3245SOL     OW10633   5.052   3.310   5.072
 3245SOL    HW110634   4.979   3.335   5.136
 3245SOL    HW210635   5.046   3.368   4.991
 3246SOL     OW10636   5.598   0.231   2.619
 3246SOL    HW110637   5.586   0.176   2.536
 3246SOL    HW210638   5.538   0.311   2.616
 3247SOL     OW10639   5.932   5.035   2.426
 3247SOL    HW110640   5.910   5.090   2.507
 3247SOL    HW210641   5.861   5.046   2.357
 3248SOL     OW10642   6.667   3.462   0.965
 3248SOL    HW110643   6.760   3.433   0.989
 3248SOL    HW210644   6.632   3.404   0.892
 3249SOL     OW10645   4.066   3.259   4.281
 3249SOL    HW110646   3.995   3.190   4.266
 3249SOL    HW210647   4.143   3.242   4.219
 3250SOL     OW10648   5.924   6.819   1.979
 3250SOL    HW110649   5.843   6.786   2.028
 3250SOL    HW210650   6.001   6.822   2.042
 3251SOL     OW10651   3.158   1.262   3.481
 3251SOL    HW110652   3.235   1.243   3.542
 3251SOL    HW210653   3.086   1.309   3.533
 3252SOL     OW10654   2.297   1.743   2.929
 3252SOL    HW110655   2.247   1.757   2.844
 3252SOL    HW210656   2.393   1.722   2.908
 3253SOL     OW10657   5.246   3.982   2.170
 3253SOL    HW110658   5.305   3.973   2.090
 3253SOL    HW210659   5.281   4.056   2.228
 3254SOL     OW10660   5.512   5.288   5.089
 3254SOL    HW110661   5.611   5.301   5.078
 3254SOL    HW210662   5.469   5.376   5.107
 3255SOL     OW10663   5.749   5.748   0.539
 3255SOL    HW110664   5.685   5.675   0.513
 3255SOL    HW210665   5.709   5.837   0.514
 3256SOL     OW10666   2.761   1.028   7.006
 3256SOL    HW110667   2.789   0.967   6.931
 3256SOL    HW210668   2.802   1.118   6.993
 3257SOL     OW10669   1.646   1.339   2.059
 3257SOL    HW110670   1.574   1.331   1.991
 3257SOL    HW210671   1.735   1.347   2.013
 3258SOL     OW10672   4.268   4.628   1.846
 3258SOL    HW110673   4.299   4.600   1.937
 3258SOL    HW210674   4.291   4.557   1.779
 3259SOL     OW10675   4.744   5.408   3.926
 3259SOL    HW110676   4.662   5.391   3.981
 3259SOL    HW210677   4.768   5.505   3.932
 3260SOL     OW10678   2.227   1.834   0.793
 3260SOL    HW110679   2.145   1.825   0.736
 3260SOL    HW210680   2.271   1.922   0.774
 3261SOL     OW10681   5.109   6.788   0.941
 3261SOL    HW110682   5.104   6.766   0.844
 3261SOL    HW210683   5.072   6.880   0.957
 3262SOL     OW10684   3.405   2.073   2.918
 3262SOL    HW110685   3.337   2.086   2.847
 3262SOL    HW210686   3.492   2.113   2.889
 3263SOL     OW10687   2.635   0.803   3.826
 3263SOL    HW110688   2.543   0.812   3.788
 3263SOL    HW210689   2.647   0.868   3.901
 3264SOL     OW10690   1.704   4.257   1.317
 3264SOL    HW110691   1.717   4.326   1.246
 3264SOL    HW210692   1.791   4.238   1.362
 3265SOL     OW10693   5.440   0.542   6.494
 3265SOL    HW110694   5.392   0.621   6.530
 3265SOL    HW210695   5.509   0.572   6.428
 3266SOL     OW10696   1.755   3.729   0.659
 3266SOL    HW110697   1.825   3.794   0.690
 3266SOL    HW210698   1.781   3.692   0.570
 3267SOL     OW10699   3.687   0.171   0.422
 3267SOL    HW110700   3.594   0.135   0.424
 3267SOL    HW210701   3.746   0.115   0.480
 3268SOL     OW10702   1.051   3.489   1.002
 3268SOL    HW110703   1.096   3.408   1.038
 3268SOL    HW210704   1.120   3.557   0.976
 3269SOL     OW10705   4.299   5.723   2.393
 3269SOL    HW110706   4.230   5.659   2.359
 3269SOL    HW210707   4.389   5.679   2.392
 3270SOL     OW10708   0.696   4.365   6.125
 3270SOL    HW110709   0.710   4.351   6.027
 3270SOL    HW210710   0.753   4.441   6.156
 3271SOL     OW10711   5.998   3.913   3.002
 3271SOL    HW110712   6.062   3.857   3.056
 3271SOL    HW210713   6.027   3.913   2.906
 3272SOL     OW10714   3.391   4.579   6.043
 3272SOL    HW110715   3.383   4.511   6.115
 3272SOL    HW210716   3.328   4.655   6.063
 3273SOL     OW10717   0.579   6.442   0.815
 3273SOL    HW110718   0.655   6.435   0.880
 3273SOL    HW210719   0.506   6.496   0.855
 3274SOL     OW10720   4.332   0.829   1.149
 3274SOL    HW110721   4.350   0.888   1.227
 3274SOL    HW210722   4.387   0.746   1.157
 3275SOL     OW10723   6.731   1.541   6.826
 3275SOL    HW110724   6.650   1.578   6.873
 3275SOL    HW210725   6.813   1.569   6.876
 3276SOL     OW10726   2.207   5.838   0.390
 3276SOL    HW110727   2.120   5.871   0.355
 3276SOL    HW210728   2.191   5.759   0.450
 3277SOL     OW10729   4.145   6.810   0.122
 3277SOL    HW110730   4.207   6.783   0.195
 3277SOL    HW210731   4.127   6.732   0.063
 3278SOL     OW10732   1.076   0.951   5.936
 3278SOL    HW110733   1.146   0.885   5.961
 3278SOL    HW210734   1.085   1.033   5.994
 3279SOL     OW10735   5.470   0.742   6.853
 3279SOL    HW110736   5.375   0.727   6.882
 3279SOL    HW210737   5.490   0.839   6.852
 3280SOL     OW10738   3.879   5.438   4.553
 3280SOL    HW110739   3.799   5.477   4.508
 3280SOL    HW210740   3.855   5.349   4.592
 3281SOL     OW10741   1.976   5.819   1.628
 3281SOL    HW110742   1.959   5.918   1.630
 3281SOL    HW210743   1.893   5.770   1.655
 3282SOL     OW10744   0.134   4.783   5.651
 3282SOL    HW110745   0.234   4.777   5.644
 3282SOL    HW210746   0.096   4.692   5.668
 3283SOL     OW10747   4.029   1.253   0.753
 3283SOL    HW110748   4.105   1.309   0.721
 3283SOL    HW210749   3.974   1.223   0.676
 3284SOL     OW10750   0.036   5.206   0.012
 3284SOL    HW110751   0.034   5.303   7.014
 3284SOL    HW210752   0.032   5.197   0.111
 3285SOL     OW10753   5.038   3.002   3.487
 3285SOL    HW110754   5.088   3.089   3.482
 3285SOL    HW210755   4.944   3.021   3.518
 3286SOL     OW10756   4.128   3.222   2.365
 3286SOL    HW110757   4.075   3.140   2.387
 3286SOL    HW210758   4.222   3.197   2.344
 3287SOL     OW10759   1.126   0.256   6.895
 3287SOL    HW110760   1.144   0.320   6.969
 3287SOL    HW210761   1.028   0.237   6.890
 3288SOL     OW10762   0.746   5.414   6.292
 3288SOL    HW110763   0.722   5.453   6.203
 3288SOL    HW210764   0.674   5.434   6.358
 3289SOL     OW10765   2.552   6.742   5.679
 3289SOL    HW110766   2.465   6.721   5.723
 3289SOL    HW210767   2.628   6.706   5.733
 3290SOL     OW10768   0.610   0.162   2.262
 3290SOL    HW110769   0.691   0.139   2.315
 3290SOL    HW210770   0.590   0.259   2.272
 3291SOL     OW10771   2.233   0.129   1.256
 3291SOL    HW110772   2.296   0.205   1.271
 3291SOL    HW210773   2.149   0.164   1.213
 3292SOL     OW10774   0.804   0.891   1.069
 3292SOL    HW110775   0.728   0.839   1.029
 3292SOL    HW210776   0.849   0.835   1.139
 3293SOL     OW10777   0.326   3.559   2.482
 3293SOL    HW110778   0.292   3.556   2.388
 3293SOL    HW210779   0.358   3.469   2.509
 3294SOL     OW10780   6.426   1.805   6.535
 3294SOL    HW110781   6.461   1.898   6.521
 3294SOL    HW210782   6.334   1.799   6.497
 3295SOL     OW10783   1.310   2.886   2.127
 3295SOL    HW110784   1.392   2.943   2.125
 3295SOL    HW210785   1.335   2.791   2.108
 3296SOL     OW10786   1.495   6.817   2.131
 3296SOL    HW110787   1.458   6.902   2.169
 3296SOL    HW210788   1.592   6.831   2.109
 3297SOL     OW10789   3.191   0.785   4.573
 3297SOL    HW110790   3.246   0.708   4.541
 3297SOL    HW210791   3.229   0.818   4.660
 3298SOL     OW10792   5.801   1.526   5.130
 3298SOL    HW110793   5.782   1.604   5.191
 3298SOL    HW210794   5.883   1.546   5.076
 3299SOL     OW10795   2.729   5.221   3.281
 3299SOL    HW110796   2.642   5.203   3.325
 3299SOL    HW210797   2.740   5.320   3.267
 3300SOL     OW10798   6.963   0.616   5.436
 3300SOL    HW110799   6.884   0.673   5.462
 3300SOL    HW210800   6.968   0.612   5.336
 3301SOL     OW10801   1.899   3.253   3.596
 3301SOL    HW110802   1.969   3.311   3.556
 3301SOL    HW210803   1.928   3.222   3.687
 3302SOL     OW10804   6.941   4.468   5.247
 3302SOL    HW110805   6.950   4.567   5.261
 3302SOL    HW210806   6.844   4.443   5.248
 3303SOL     OW10807   3.420   3.673   1.400
 3303SOL    HW110808   3.366   3.710   1.476
 3303SOL    HW210809   3.362   3.612   1.345
 3304SOL     OW10810   0.730   5.967   4.442
 3304SOL    HW110811   0.789   5.929   4.513
 3304SOL    HW210812   0.689   5.892   4.390
 3305SOL     OW10813   2.029   1.558   2.850
 3305SOL    HW110814   2.002   1.599   2.937
 3305SOL    HW210815   1.995   1.614   2.775
 3306SOL     OW10816   1.819   5.478   5.086
 3306SOL    HW110817   1.754   5.543   5.125
 3306SOL    HW210818   1.893   5.461   5.152
 3307SOL     OW10819   0.126   5.924   0.139
 3307SOL    HW110820   0.031   5.922   0.108
 3307SOL    HW210821   0.182   5.973   0.073
 3308SOL     OW10822   2.861   6.328   0.350
 3308SOL    HW110823   2.920   6.298   0.425
 3308SOL    HW210824   2.801   6.401   0.382
 3309SOL     OW10825   6.842   6.088   2.498
 3309SOL    HW110826   6.886   6.042   2.575
 3309SOL    HW210827   6.909   6.145   2.450
 3310SOL     OW10828   0.065   3.041   5.974
 3310SOL    HW110829   0.155   3.061   6.015
 3310SOL    HW210830   0.076   3.026   5.876
 3311SOL     OW10831   2.281   4.199   1.777
 3311SOL    HW110832   2.260   4.138   1.700
 3311SOL    HW210833   2.372   4.239   1.764
 3312SOL     OW10834   3.907   4.610   5.769
 3312SOL    HW110835   3.994   4.657   5.753
 3312SOL    HW210836   3.869   4.579   5.682
 3313SOL     OW10837   0.231   5.353   3.352
 3313SOL    HW110838   0.216   5.306   3.266
 3313SOL    HW210839   0.324   5.392   3.353
 3314SOL     OW10840   2.962   1.674   3.394
 3314SOL    HW110841   2.986   1.771   3.397
 3314SOL    HW210842   3.036   1.623   3.351
 3315SOL     OW10843   0.005   3.309   5.153
 3315SOL    HW110844   0.088   3.303   5.208
 3315SOL    HW210845   6.961   3.250   5.193
 3316SOL     OW10846   5.182   1.419   6.294
 3316SOL    HW110847   5.248   1.484   6.331
 3316SOL    HW210848   5.089   1.448   6.319
 3317SOL     OW10849   4.417   3.070   1.704
 3317SOL    HW110850   4.430   3.167   1.684
 3317SOL    HW210851   4.483   3.042   1.774
 3318SOL     OW10852   2.438   1.157   0.732
 3318SOL    HW110853   2.495   1.218   0.677
 3318SOL    HW210854   2.420   1.198   0.821
 3319SOL     OW10855   6.379   1.091   3.979
 3319SOL    HW110856   6.290   1.094   4.023
 3319SOL    HW210857   6.389   1.005   3.928
 3320SOL     OW10858   5.493   0.244   4.640
 3320SOL    HW110859   5.398   0.273   4.630
 3320SOL    HW210860   5.501   0.147   4.618
 3321SOL     OW10861   4.544   1.750   0.493
 3321SOL    HW110862   4.493   1.689   0.433
 3321SOL    HW210863   4.633   1.709   0.514
 3322SOL     OW10864   5.685   3.365   0.641
 3322SOL    HW110865   5.589   3.371   0.614
 3322SOL    HW210866   5.734   3.447   0.609
 3323SOL     OW10867   2.928   3.000   0.208
 3323SOL    HW110868   3.024   3.022   0.189
 3323SOL    HW210869   2.896   2.933   0.140
 3324SOL     OW10870   2.985   5.284   0.010
 3324SOL    HW110871   2.968   5.266   6.940
 3324SOL    HW210872   3.019   5.377   0.021
 3325SOL     OW10873   1.645   3.207   6.930
 3325SOL    HW110874   1.686   3.135   6.874
 3325SOL    HW210875   1.650   3.181   0.000
 3326SOL     OW10876   4.866   2.220   2.203
 3326SOL    HW110877   4.965   2.220   2.215
 3326SOL    HW210878   4.839   2.299   2.148
 3327SOL     OW10879   2.642   5.917   1.822
 3327SOL    HW110880   2.716   5.938   1.759
 3327SOL    HW210881   2.605   5.826   1.802
 3328SOL     OW10882   4.303   1.442   1.051
 3328SOL    HW110883   4.387   1.471   1.097
 3328SOL    HW210884   4.312   1.347   1.022
 3329SOL     OW10885   4.998   6.780   4.534
 3329SOL    HW110886   4.991   6.879   4.525
 3329SOL    HW210887   5.058   6.744   4.462
 3330SOL     OW10888   6.270   4.780   1.300
 3330SOL    HW110889   6.328   4.711   1.257
 3330SOL    HW210890   6.248   4.752   1.394
 3331SOL     OW10891   1.680   3.260   1.036
 3331SOL    HW110892   1.630   3.286   1.119
 3331SOL    HW210893   1.719   3.342   0.994
 3332SOL     OW10894   6.589   4.844   0.131
 3332SOL    HW110895   6.646   4.833   0.050
 3332SOL    HW210896   6.585   4.941   0.156
 3333SOL     OW10897   3.677   3.688   6.854
 3333SOL    HW110898   3.623   3.747   6.914
 3333SOL    HW210899   3.773   3.716   6.859
 3334SOL     OW10900   2.562   4.031   1.039
 3334SOL    HW110901   2.489   4.077   0.988
 3334SOL    HW210902   2.577   4.077   1.126
 3335SOL     OW10903   5.183   6.521   5.316
 3335SOL    HW110904   5.280   6.520   5.338
 3335SOL    HW210905   5.150   6.616   5.315
 3336SOL     OW10906   2.064   6.483   4.038
 3336SOL    HW110907   2.134   6.412   4.045
 3336SOL    HW210908   2.105   6.572   4.056
 3337SOL     OW10909   3.015   3.706   1.819
 3337SOL    HW110910   3.077   3.771   1.863
 3337SOL    HW210911   2.954   3.754   1.757
 3338SOL     OW10912   5.598   3.160   2.522
 3338SOL    HW110913   5.510   3.127   2.487
 3338SOL    HW210914   5.653   3.083   2.555
 3339SOL     OW10915   0.679   0.338   6.415
 3339SOL    HW110916   0.657   0.356   6.319
 3339SOL    HW210917   0.668   0.240   6.434
 3340SOL     OW10918   3.729   1.629   3.220
 3340SOL    HW110919   3.740   1.545   3.168
 3340SOL    HW210920   3.741   1.610   3.318
 3341SOL     OW10921   0.652   5.054   3.127
 3341SOL    HW110922   0.736   5.061   3.181
 3341SOL    HW210923   0.671   5.004   3.042
 3342SOL     OW10924   1.589   6.295   3.707
 3342SOL    HW110925   1.585   6.202   3.743
 3342SOL    HW210926   1.674   6.338   3.738
 3343SOL     OW10927   5.165   3.414   0.148
 3343SOL    HW110928   5.152   3.492   0.210
 3343SOL    HW210929   5.127   3.436   0.058
 3344SOL     OW10930   5.599   3.312   3.663
 3344SOL    HW110931   5.534   3.236   3.656
 3344SOL    HW210932   5.662   3.295   3.738
 3345SOL     OW10933   1.801   3.026   5.775
 3345SOL    HW110934   1.866   3.081   5.827
 3345SOL    HW210935   1.845   2.988   5.694
 3346SOL     OW10936   1.374   1.580   0.070
 3346SOL    HW110937   1.288   1.548   0.112
 3346SOL    HW210938   1.356   1.662   0.017
 3347SOL     OW10939   0.824   2.950   5.600
 3347SOL    HW110940   0.781   3.036   5.627
 3347SOL    HW210941   0.884   2.919   5.673
 3348SOL     OW10942   3.430   3.929   4.364
 3348SOL    HW110943   3.369   3.995   4.320
 3348SOL    HW210944   3.390   3.837   4.359
 3349SOL     OW10945   1.628   5.419   3.253
 3349SOL    HW110946   1.608   5.423   3.351
 3349SOL    HW210947   1.580   5.342   3.212
 3350SOL     OW10948   0.562   2.340   5.909
 3350SOL    HW110949   0.608   2.420   5.872
 3350SOL    HW210950   0.614   2.258   5.884
 3351SOL     OW10951   4.655   0.731   2.944
 3351SOL    HW110952   4.720   0.806   2.953
 3351SOL    HW210953   4.658   0.695   2.851
 3352SOL     OW10954   6.658   2.884   0.058
 3352SOL    HW110955   6.734   2.830   0.094
 3352SOL    HW210956   6.681   2.918   6.994
 3353SOL     OW10957   2.611   5.681   1.533
 3353SOL    HW110958   2.542   5.677   1.606
 3353SOL    HW210959   2.673   5.603   1.542
 3354SOL     OW10960   5.031   2.597   5.560
 3354SOL    HW110961   5.116   2.578   5.608
 3354SOL    HW210962   5.048   2.597   5.461
 3355SOL     OW10963   2.507   1.835   5.998
 3355SOL    HW110964   2.550   1.903   5.940
 3355SOL    HW210965   2.575   1.796   6.060
 3356SOL     OW10966   0.528   5.042   5.630
 3356SOL    HW110967   0.481   5.087   5.554
 3356SOL    HW210968   0.619   5.015   5.601
 3357SOL     OW10969   2.144   3.758   1.908
 3357SOL    HW110970   2.144   3.815   1.990
 3357SOL    HW210971   2.168   3.664   1.933
 3358SOL     OW10972   5.004   1.638   1.010
 3358SOL    HW110973   4.971   1.549   0.978
 3358SOL    HW210974   5.026   1.632   1.107
 3359SOL     OW10975   0.065   6.847   2.652
 3359SOL    HW110976   0.015   6.847   2.739
 3359SOL    HW210977   0.144   6.908   2.659
 3360SOL     OW10978   1.735   1.517   0.320
 3360SOL    HW110979   1.653   1.464   0.299
 3360SOL    HW210980   1.728   1.553   0.414
 3361SOL     OW10981   0.662   4.984   4.257
 3361SOL    HW110982   0.733   4.913   4.253
 3361SOL    HW210983   0.701   5.067   4.297
 3362SOL     OW10984   3.555   1.472   2.779
 3362SOL    HW110985   3.586   1.559   2.815
 3362SOL    HW210986   3.463   1.453   2.812
 3363SOL     OW10987   6.548   0.234   2.150
 3363SOL    HW110988   6.453   0.247   2.178
 3363SOL    HW210989   6.568   0.295   2.073
 3364SOL     OW10990   1.214   4.903   3.903
 3364SOL    HW110991   1.195   4.995   3.867
 3364SOL    HW210992   1.295   4.907   3.962
 3365SOL     OW10993   6.886   2.068   5.051
 3365SOL    HW110994   6.883   2.050   4.953
 3365SOL    HW210995   6.847   1.990   5.101
 3366SOL     OW10996   5.962   5.527   5.186
 3366SOL    HW110997   5.976   5.503   5.282
 3366SOL    HW210998   5.951   5.626   5.178
 3367SOL     OW10999   3.927   3.008   2.457
 3367SOL    HW111000   3.898   2.934   2.397
 3367SOL    HW211001   3.877   3.001   2.544
 3368SOL     OW11002   0.868   5.681   6.358
 3368SOL    HW111003   0.943   5.717   6.414
 3368SOL    HW211004   0.872   5.581   6.358
 3369SOL     OW11005   3.584   1.956   0.521
 3369SOL    HW111006   3.590   1.875   0.580
 3369SOL    HW211007   3.488   1.981   0.511
 3370SOL     OW11008   0.190   5.962   0.639
 3370SOL    HW111009   0.131   5.882   0.642
 3370SOL    HW211010   0.177   6.010   0.553
 3371SOL     OW11011   2.356   2.608   1.836
 3371SOL    HW111012   2.377   2.705   1.839
 3371SOL    HW211013   2.415   2.560   1.901
 3372SOL     OW11014   0.103   2.083   1.391
 3372SOL    HW111015   0.145   2.152   1.450
 3372SOL    HW211016   0.024   2.043   1.438
 3373SOL     OW11017   0.300   1.518   3.806
 3373SOL    HW111018   0.207   1.485   3.823
 3373SOL    HW211019   0.354   1.509   3.889
 3374SOL     OW11020   1.500   6.158   4.552
 3374SOL    HW111021   1.437   6.127   4.481
 3374SOL    HW211022   1.456   6.229   4.607
 3375SOL     OW11023   0.409   4.714   6.788
 3375SOL    HW111024   0.386   4.655   6.865
 3375SOL    HW211025   0.347   4.696   6.712
 3376SOL     OW11026   4.136   3.729   4.227
 3376SOL    HW111027   4.143   3.810   4.286
 3376SOL    HW211028   4.163   3.648   4.278
 3377SOL     OW11029   0.059   5.812   6.363
 3377SOL    HW111030   7.016   5.855   6.420
 3377SOL    HW211031   0.131   5.878   6.342
 3378SOL     OW11032   0.617   1.320   1.125
 3378SOL    HW111033   0.698   1.270   1.154
 3378SOL    HW211034   0.556   1.333   1.203
 3379SOL     OW11035   0.376   0.341   6.019
 3379SOL    HW111036   0.310   0.350   5.944
 3379SOL    HW211037   0.334   0.290   6.094
 3380SOL     OW11038   5.816   6.267   4.751
 3380SOL    HW111039   5.836   6.227   4.840
 3380SOL    HW211040   5.849   6.361   4.748
 3381SOL     OW11041   0.700   2.632   1.533
 3381SOL    HW111042   0.649   2.649   1.449
 3381SOL    HW211043   0.731   2.718   1.571
 3382SOL     OW11044   0.982   2.486   0.540
 3382SOL    HW111045   1.028   2.466   0.453
 3382SOL    HW211046   1.012   2.422   0.610
 3383SOL     OW11047   4.550   5.838   1.428
 3383SOL    HW111048   4.562   5.935   1.408
 3383SOL    HW211049   4.640   5.797   1.446
 3384SOL     OW11050   2.718   3.159   6.310
 3384SOL    HW111051   2.661   3.211   6.374
 3384SOL    HW211052   2.746   3.074   6.353
 3385SOL     OW11053   6.834   3.274   4.711
 3385SOL    HW111054   6.901   3.318   4.651
 3385SOL    HW211055   6.878   3.248   4.797
 3386SOL     OW11056   5.395   4.338   6.887
 3386SOL    HW111057   5.455   4.362   6.963
 3386SOL    HW211058   5.301   4.328   6.920
 3387SOL     OW11059   2.501   0.402   2.544
 3387SOL    HW111060   2.528   0.411   2.448
 3387SOL    HW211061   2.472   0.491   2.579
 3388SOL     OW11062   5.357   2.745   1.741
 3388SOL    HW111063   5.359   2.843   1.759
 3388SOL    HW211064   5.310   2.698   1.815
 3389SOL     OW11065   5.664   5.189   6.594
 3389SOL    HW111066   5.572   5.189   6.632
 3389SOL    HW211067   5.730   5.164   6.664
 3390SOL     OW11068   6.124   6.339   6.447
 3390SOL    HW111069   6.087   6.361   6.537
 3390SOL    HW211070   6.083   6.399   6.379
 3391SOL     OW11071   4.749   2.736   4.762
 3391SOL    HW111072   4.662   2.687   4.755
 3391SOL    HW211073   4.735   2.821   4.813
 3392SOL     OW11074   2.783   0.598   3.959
 3392SOL    HW111075   2.722   0.654   3.903
 3392SOL    HW211076   2.867   0.580   3.907
 3393SOL     OW11077   0.444   6.212   0.668
 3393SOL    HW111078   0.387   6.245   0.593
 3393SOL    HW211079   0.539   6.238   0.652
 3394SOL     OW11080   5.584   3.347   1.440
 3394SOL    HW111081   5.531   3.270   1.476
 3394SOL    HW211082   5.667   3.360   1.494
 3395SOL     OW11083   5.268   3.354   3.052
 3395SOL    HW111084   5.311   3.335   2.964
 3395SOL    HW211085   5.213   3.437   3.046
 3396SOL     OW11086   5.315   1.656   3.338
 3396SOL    HW111087   5.236   1.646   3.277
 3396SOL    HW211088   5.390   1.699   3.289
 3397SOL     OW11089   2.943   6.370   5.814
 3397SOL    HW111090   2.969   6.378   5.718
 3397SOL    HW211091   3.017   6.327   5.865
 3398SOL     OW11092   1.225   6.566   4.856
 3398SOL    HW111093   1.268   6.531   4.939
 3398SOL    HW211094   1.151   6.629   4.880
 3399SOL     OW11095   5.397   4.086   3.537
 3399SOL    HW111096   5.345   4.000   3.529
 3399SOL    HW211097   5.414   4.123   3.445
 3400SOL     OW11098   4.294   3.323   6.001
 3400SOL    HW111099   4.296   3.270   5.916
 3400SOL    HW211100   4.354   3.402   5.992
 3401SOL     OW11101   0.535   2.753   1.171
 3401SOL    HW111102   0.585   2.748   1.084
 3401SOL    HW211103   0.566   2.832   1.223
 3402SOL     OW11104   4.533   5.503   6.987
 3402SOL    HW111105   4.466   5.491   0.034
 3402SOL    HW211106   4.502   5.455   6.905
 3403SOL     OW11107   3.141   5.513   5.715
 3403SOL    HW111108   3.080   5.504   5.636
 3403SOL    HW211109   3.177   5.606   5.719
 3404SOL     OW11110   5.068   1.480   0.072
 3404SOL    HW111111   5.109   1.510   7.013
 3404SOL    HW211112   5.139   1.444   0.132
 3405SOL     OW11113   6.671   4.175   6.014
 3405SOL    HW111114   6.765   4.164   6.047
 3405SOL    HW211115   6.654   4.272   5.995
 3406SOL     OW11116   0.733   3.764   1.752
 3406SOL    HW111117   0.698   3.824   1.825
 3406SOL    HW211118   0.784   3.818   1.686
 3407SOL     OW11119   1.524   4.713   6.433
 3407SOL    HW111120   1.608   4.700   6.382
 3407SOL    HW211121   1.451   4.658   6.392
 3408SOL     OW11122   4.964   3.632   4.429
 3408SOL    HW111123   4.905   3.701   4.388
 3408SOL    HW211124   4.989   3.661   4.522
 3409SOL     OW11125   3.444   6.181   6.634
 3409SOL    HW111126   3.461   6.271   6.594
 3409SOL    HW211127   3.518   6.119   6.608
 3410SOL     OW11128   6.794   6.860   1.085
 3410SOL    HW111129   6.734   6.937   1.106
 3410SOL    HW211130   6.818   6.862   0.988
 3411SOL     OW11131   0.393   3.409   1.944
 3411SOL    HW111132   0.413   3.312   1.936
 3411SOL    HW211133   0.477   3.462   1.930
 3412SOL     OW11134   4.496   2.750   0.759
 3412SOL    HW111135   4.487   2.719   0.854
 3412SOL    HW211136   4.593   2.750   0.734
 3413SOL     OW11137   6.063   1.487   0.835
 3413SOL    HW111138   5.971   1.526   0.846
 3413SOL    HW211139   6.081   1.473   0.738
 3414SOL     OW11140   3.521   1.490   6.499
 3414SOL    HW111141   3.440   1.444   6.461
 3414SOL    HW211142   3.522   1.585   6.468
 3415SOL     OW11143   1.753   3.937   4.146
 3415SOL    HW111144   1.751   4.037   4.147
 3415SOL    HW211145   1.848   3.906   4.146
 3416SOL     OW11146   6.647   6.025   0.622
 3416SOL    HW111147   6.675   6.119   0.643
 3416SOL    HW211148   6.720   5.979   0.572
 3417SOL     OW11149   0.321   6.842   2.935
 3417SOL    HW111150   0.364   6.754   2.955
 3417SOL    HW211151   0.281   6.840   2.844
 3418SOL     OW11152   3.264   6.051   3.519
 3418SOL    HW111153   3.213   6.133   3.490
 3418SOL    HW211154   3.200   5.975   3.530
 3419SOL     OW11155   2.784   6.344   5.497
 3419SOL    HW111156   2.792   6.287   5.578
 3419SOL    HW211157   2.691   6.379   5.488
 3420SOL     OW11158   5.899   3.554   3.957
 3420SOL    HW111159   5.974   3.614   3.928
 3420SOL    HW211160   5.868   3.581   4.048
 3421SOL     OW11161   4.561   1.629   5.213
 3421SOL    HW111162   4.523   1.601   5.125
 3421SOL    HW211163   4.568   1.729   5.217
 3422SOL     OW11164   2.626   0.380   0.646
 3422SOL    HW111165   2.551   0.316   0.632
 3422SOL    HW211166   2.591   0.468   0.676
 3423SOL     OW11167   0.607   4.579   6.413
 3423SOL    HW111168   0.603   4.676   6.433
 3423SOL    HW211169   0.679   4.562   6.344
 3424SOL     OW11170   2.708   6.464   1.033
 3424SOL    HW111171   2.635   6.532   1.021
 3424SOL    HW211172   2.668   6.373   1.042
 3425SOL     OW11173   5.098   5.212   2.301
 3425SOL    HW111174   5.071   5.306   2.324
 3425SOL    HW211175   5.098   5.157   2.384
 3426SOL     OW11176   4.284   3.114   0.586
 3426SOL    HW111177   4.354   3.078   0.525
 3426SOL    HW211178   4.225   3.040   0.617
 3427SOL     OW11179   7.020   1.448   0.553
 3427SOL    HW111180   7.020   1.382   0.478
 3427SOL    HW211181   6.945   1.426   0.616
 3428SOL     OW11182   2.228   5.859   0.126
 3428SOL    HW111183   2.229   5.842   0.225
 3428SOL    HW211184   2.240   5.957   0.109
 3429SOL     OW11185   0.649   1.777   0.903
 3429SOL    HW111186   0.633   1.678   0.910
 3429SOL    HW211187   0.693   1.797   0.816
 3430SOL     OW11188   1.461   6.266   5.377
 3430SOL    HW111189   1.538   6.329   5.372
 3430SOL    HW211190   1.443   6.243   5.473
 3431SOL     OW11191   1.690   0.209   1.767
 3431SOL    HW111192   1.781   0.243   1.790
 3431SOL    HW211193   1.698   0.144   1.690
 3432SOL     OW11194   1.886   3.027   6.280
 3432SOL    HW111195   1.973   2.990   6.248
 3432SOL    HW211196   1.828   3.048   6.201
 3433SOL     OW11197   1.346   6.846   5.074
 3433SOL    HW111198   1.293   6.929   5.059
 3433SOL    HW211199   1.388   6.849   5.165
 3434SOL     OW11200   4.655   1.180   1.828
 3434SOL    HW111201   4.614   1.199   1.917
 3434SOL    HW211202   4.666   1.081   1.816
 3435SOL     OW11203   1.452   1.465   1.239
 3435SOL    HW111204   1.512   1.403   1.290
 3435SOL    HW211205   1.503   1.547   1.212
 3436SOL     OW11206   3.803   6.756   6.877
 3436SOL    HW111207   3.732   6.807   6.924
 3436SOL    HW211208   3.846   6.691   6.941
 3437SOL     OW11209   2.385   0.158   5.595
 3437SOL    HW111210   2.346   0.250   5.598
 3437SOL    HW211211   2.323   0.097   5.546
 3438SOL     OW11212   1.647   3.136   0.170
 3438SOL    HW111213   1.588   3.060   0.198
 3438SOL    HW211214   1.658   3.200   0.246
 3439SOL     OW11215   2.083   6.170   4.561
 3439SOL    HW111216   2.094   6.104   4.486
 3439SOL    HW211217   2.169   6.219   4.575
 3440SOL     OW11218   2.968   3.357   0.977
 3440SOL    HW111219   3.059   3.351   1.020
 3440SOL    HW211220   2.906   3.292   1.021
 3441SOL     OW11221   5.938   5.204   5.563
 3441SOL    HW111222   5.945   5.134   5.493
 3441SOL    HW211223   6.020   5.204   5.620
 3442SOL     OW11224   2.156   4.692   2.055
 3442SOL    HW111225   2.079   4.745   2.091
 3442SOL    HW211226   2.185   4.730   1.967
 3443SOL     OW11227   3.769   6.177   1.610
 3443SOL    HW111228   3.674   6.190   1.638
 3443SOL    HW211229   3.828   6.236   1.665
 3444SOL     OW11230   5.561   5.525   6.764
 3444SOL    HW111231   5.476   5.549   6.809
 3444SOL    HW211232   5.542   5.485   6.674
 3445SOL     OW11233   6.191   5.396   3.069
 3445SOL    HW111234   6.159   5.364   2.980
 3445SOL    HW211235   6.290   5.410   3.066
 3446SOL     OW11236   6.525   1.468   1.760
 3446SOL    HW111237   6.427   1.453   1.765
 3446SOL    HW211238   6.548   1.556   1.801
 3447SOL     OW11239   5.385   5.263   0.935
 3447SOL    HW111240   5.380   5.261   0.835
 3447SOL    HW211241   5.467   5.213   0.965
 3448SOL     OW11242   3.694   0.554   6.919
 3448SOL    HW111243   3.654   0.645   6.905
 3448SOL    HW211244   3.672   0.522   7.011
 3449SOL     OW11245   5.546   5.729   4.897
 3449SOL    HW111246   5.564   5.820   4.935
 3449SOL    HW211247   5.476   5.736   4.825
 3450SOL     OW11248   6.978   2.787   6.919
 3450SOL    HW111249   6.931   2.874   6.903
 3450SOL    HW211250   6.935   2.715   6.865
 3451SOL     OW11251   2.476   6.113   0.675
 3451SOL    HW111252   2.467   6.084   0.580
 3451SOL    HW211253   2.536   6.050   0.724
 3452SOL     OW11254   5.896   0.853   6.246
 3452SOL    HW111255   5.846   0.937   6.266
 3452SOL    HW211256   5.924   0.810   6.332
 3453SOL     OW11257   6.656   5.975   6.936
 3453SOL    HW111258   6.613   5.887   6.956
 3453SOL    HW211259   6.668   5.984   6.837
 3454SOL     OW11260   1.051   2.771   4.945
 3454SOL    HW111261   0.960   2.734   4.926
 3454SOL    HW211262   1.109   2.699   4.982
 3455SOL     OW11263   2.575   1.955   4.339
 3455SOL    HW111264   2.674   1.967   4.326
 3455SOL    HW211265   2.527   2.035   4.304
 3456SOL     OW11266   5.439   5.208   1.930
 3456SOL    HW111267   5.512   5.148   1.896
 3456SOL    HW211268   5.350   5.172   1.902
 3457SOL     OW11269   2.723   5.491   3.170
 3457SOL    HW111270   2.662   5.506   3.092
 3457SOL    HW211271   2.818   5.495   3.141
 3458SOL     OW11272   4.540   0.915   2.199
 3458SOL    HW111273   4.525   1.012   2.219
 3458SOL    HW211274   4.453   0.871   2.182
 3459SOL     OW11275   5.665   3.633   2.756
 3459SOL    HW111276   5.655   3.551   2.699
 3459SOL    HW211277   5.675   3.606   2.851
 3460SOL     OW11278   2.657   2.697   0.315
 3460SOL    HW111279   2.745   2.732   0.346
 3460SOL    HW211280   2.599   2.676   0.394
 3461SOL     OW11281   4.902   4.533   5.304
 3461SOL    HW111282   4.920   4.449   5.356
 3461SOL    HW211283   4.989   4.579   5.285
 3462SOL     OW11284   0.148   4.608   3.516
 3462SOL    HW111285   0.204   4.680   3.476
 3462SOL    HW211286   0.160   4.523   3.465
 3463SOL     OW11287   1.281   4.230   2.204
 3463SOL    HW111288   1.354   4.198   2.144
 3463SOL    HW211289   1.193   4.216   2.159
 3464SOL     OW11290   6.745   4.249   5.712
 3464SOL    HW111291   6.808   4.326   5.702
 3464SOL    HW211292   6.652   4.284   5.725
 3465SOL     OW11293   1.613   1.997   2.092
 3465SOL    HW111294   1.648   1.934   2.162
 3465SOL    HW211295   1.537   2.051   2.131
 3466SOL     OW11296   0.039   4.747   6.877
 3466SOL    HW111297   0.075   4.830   6.834
 3466SOL    HW211298   0.114   4.698   6.923
 3467SOL     OW11299   2.156   2.725   0.286
 3467SOL    HW111300   2.123   2.772   0.368
 3467SOL    HW211301   2.228   2.780   0.242
 3468SOL     OW11302   4.642   6.684   2.942
 3468SOL    HW111303   4.622   6.644   2.852
 3468SOL    HW211304   4.683   6.615   3.001
 3469SOL     OW11305   5.298   0.671   2.695
 3469SOL    HW111306   5.315   0.757   2.646
 3469SOL    HW211307   5.364   0.661   2.769
 3470SOL     OW11308   6.149   3.995   1.147
 3470SOL    HW111309   6.087   3.954   1.080
 3470SOL    HW211310   6.096   4.029   1.225
 3471SOL     OW11311   4.090   5.093   4.182
 3471SOL    HW111312   3.994   5.105   4.208
 3471SOL    HW211313   4.144   5.168   4.219
 3472SOL     OW11314   2.853   1.041   2.127
 3472SOL    HW111315   2.828   1.027   2.031
 3472SOL    HW211316   2.770   1.044   2.183
 3473SOL     OW11317   0.342   2.235   0.945
 3473SOL    HW111318   0.342   2.233   1.045
 3473SOL    HW211319   0.391   2.317   0.914
 3474SOL     OW11320   1.441   5.376   2.522
 3474SOL    HW111321   1.342   5.365   2.532
 3474SOL    HW211322   1.486   5.345   2.606
 3475SOL     OW11323   0.668   5.358   4.040
 3475SOL    HW111324   0.740   5.305   4.085
 3475SOL    HW211325   0.649   5.319   3.950
 3476SOL     OW11326   3.107   1.901   3.365
 3476SOL    HW111327   3.096   2.000   3.368
 3476SOL    HW211328   3.138   1.873   3.274
 3477SOL     OW11329   2.745   5.036   0.949
 3477SOL    HW111330   2.785   4.944   0.956
 3477SOL    HW211331   2.654   5.029   0.909
 3478SOL     OW11332   2.324   5.998   4.962
 3478SOL    HW111333   2.248   5.943   4.928
 3478SOL    HW211334   2.316   6.092   4.928
 3479SOL     OW11335   1.663   0.809   3.061
 3479SOL    HW111336   1.609   0.784   2.981
 3479SOL    HW211337   1.606   0.802   3.143
 3480SOL     OW11338   0.396   6.677   5.287
 3480SOL    HW111339   0.396   6.694   5.386
 3480SOL    HW211340   0.457   6.743   5.242
 3481SOL     OW11341   4.564   0.045   0.323
 3481SOL    HW111342   4.609   0.003   0.245
 3481SOL    HW211343   4.465   0.048   0.306
 3482SOL     OW11344   5.957   1.488   1.721
 3482SOL    HW111345   5.883   1.439   1.766
 3482SOL    HW211346   5.967   1.579   1.761
 3483SOL     OW11347   4.919   1.506   1.348
 3483SOL    HW111348   4.995   1.441   1.342
 3483SOL    HW211349   4.904   1.532   1.443
 3484SOL     OW11350   2.126   3.542   0.927
 3484SOL    HW111351   2.216   3.544   0.971
 3484SOL    HW211352   2.055   3.532   0.997
 3485SOL     OW11353   1.902   0.946   4.043
 3485SOL    HW111354   1.875   0.992   3.959
 3485SOL    HW211355   1.993   0.977   4.071
 3486SOL     OW11356   2.956   1.320   3.027
 3486SOL    HW111357   3.018   1.283   3.097
 3486SOL    HW211358   2.957   1.260   2.947
 3487SOL     OW11359   5.616   2.469   5.743
 3487SOL    HW111360   5.624   2.397   5.811
 3487SOL    HW211361   5.652   2.554   5.780
 3488SOL     OW11362   5.963   1.514   4.738
 3488SOL    HW111363   5.912   1.435   4.773
 3488SOL    HW211364   5.903   1.569   4.680
 3489SOL     OW11365   2.771   6.883   0.587
 3489SOL    HW111366   2.788   6.902   0.683
 3489SOL    HW211367   2.856   6.853   0.543
 3490SOL     OW11368   4.126   4.691   0.112
 3490SOL    HW111369   4.065   4.616   0.088
 3490SOL    HW211370   4.215   4.676   0.069
 3491SOL     OW11371   5.711   3.166   5.297
 3491SOL    HW111372   5.624   3.117   5.295
 3491SOL    HW211373   5.695   3.261   5.327
 3492SOL     OW11374   0.637   5.828   1.374
 3492SOL    HW111375   0.650   5.766   1.452
 3492SOL    HW211376   0.658   5.780   1.289
 3493SOL     OW11377   5.320   4.413   6.350
 3493SOL    HW111378   5.236   4.369   6.383
 3493SOL    HW211379   5.296   4.496   6.300
 3494SOL     OW11380   3.957   0.987   1.721
 3494SOL    HW111381   4.032   0.924   1.703
 3494SOL    HW211382   3.905   0.956   1.800
 3495SOL     OW11383   4.684   5.130   2.269
 3495SOL    HW111384   4.610   5.192   2.243
 3495SOL    HW211385   4.645   5.046   2.308
 3496SOL     OW11386   6.967   4.099   0.417
 3496SOL    HW111387   6.887   4.134   0.466
 3496SOL    HW211388   6.938   4.050   0.335
 3497SOL     OW11389   3.133   0.680   3.317
 3497SOL    HW111390   3.119   0.724   3.228
 3497SOL    HW211391   3.231   0.663   3.331
 3498SOL     OW11392   2.283   2.338   1.064
 3498SOL    HW111393   2.342   2.407   1.023
 3498SOL    HW211394   2.216   2.306   0.997
 3499SOL     OW11395   4.728   2.930   4.058
 3499SOL    HW111396   4.762   2.863   3.992
 3499SOL    HW211397   4.638   2.901   4.092
 3500SOL     OW11398   1.595   3.327   5.271
 3500SOL    HW111399   1.562   3.398   5.209
 3500SOL    HW211400   1.623   3.369   5.357
 3501SOL     OW11401   1.701   5.267   4.238
 3501SOL    HW111402   1.681   5.305   4.148
 3501SOL    HW211403   1.650   5.182   4.250
 3502SOL     OW11404   6.292   2.762   2.399
 3502SOL    HW111405   6.242   2.713   2.327
 3502SOL    HW211406   6.321   2.851   2.364
 3503SOL     OW11407   6.606   6.463   4.872
 3503SOL    HW111408   6.652   6.436   4.956
 3503SOL    HW211409   6.639   6.406   4.796
 3504SOL     OW11410   1.930   1.978   1.392
 3504SOL    HW111411   1.925   1.948   1.297
 3504SOL    HW211412   1.932   1.899   1.453
 3505SOL     OW11413   5.219   4.857   4.657
 3505SOL    HW111414   5.275   4.930   4.617
 3505SOL    HW211415   5.277   4.780   4.682
 3506SOL     OW11416   4.877   5.501   6.379
 3506SOL    HW111417   4.941   5.567   6.417
 3506SOL    HW211418   4.917   5.409   6.385
 3507SOL     OW11419   2.228   0.737   0.339
 3507SOL    HW111420   2.306   0.700   0.390
 3507SOL    HW211421   2.242   0.723   0.241
 3508SOL     OW11422   3.257   2.267   5.962
 3508SOL    HW111423   3.355   2.272   5.940
 3508SOL    HW211424   3.205   2.308   5.887
 3509SOL     OW11425   5.784   6.736   5.620
 3509SOL    HW111426   5.858   6.802   5.624
 3509SOL    HW211427   5.790   6.675   5.699
 3510SOL     OW11428   1.663   2.341   1.549
 3510SOL    HW111429   1.582   2.400   1.555
 3510SOL    HW211430   1.738   2.391   1.505
 3511SOL     OW11431   2.109   4.609   0.883
 3511SOL    HW111432   2.197   4.623   0.838
 3511SOL    HW211433   2.061   4.534   0.838
 3512SOL     OW11434   0.379   4.846   0.562
 3512SOL    HW111435   0.374   4.748   0.545
 3512SOL    HW211436   0.288   4.886   0.551
 3513SOL     OW11437   6.058   3.583   0.443
 3513SOL    HW111438   6.070   3.484   0.436
 3513SOL    HW211439   5.999   3.603   0.521
 3514SOL     OW11440   0.382   1.609   2.156
 3514SOL    HW111441   0.292   1.624   2.115
 3514SOL    HW211442   0.372   1.545   2.232
 3515SOL     OW11443   4.146   6.225   3.159
 3515SOL    HW111444   4.087   6.209   3.238
 3515SOL    HW211445   4.109   6.301   3.105
 3516SOL     OW11446   4.719   6.762   0.889
 3516SOL    HW111447   4.708   6.673   0.845
 3516SOL    HW211448   4.659   6.768   0.969
 3517SOL     OW11449   0.702   2.033   0.740
 3517SOL    HW111450   0.697   2.104   0.809
 3517SOL    HW211451   0.771   2.058   0.671
 3518SOL     OW11452   5.847   3.984   4.984
 3518SOL    HW111453   5.911   3.930   4.930
 3518SOL    HW211454   5.798   4.047   4.923
 3519SOL     OW11455   1.088   0.748   6.345
 3519SOL    HW111456   1.108   0.720   6.439
 3519SOL    HW211457   0.993   0.726   6.323
 3520SOL     OW11458   3.060   5.553   0.042
 3520SOL    HW111459   2.986   5.608   0.080
 3520SOL    HW211460   3.085   5.589   6.978
 3521SOL     OW11461   5.485   3.376   0.285
 3521SOL    HW111462   5.471   3.474   0.272
 3521SOL    HW211463   5.557   3.344   0.224
 3522SOL     OW11464   5.817   5.075   1.735
 3522SOL    HW111465   5.902   5.023   1.746
 3522SOL    HW211466   5.822   5.159   1.788
 3523SOL     OW11467   2.860   4.840   5.733
 3523SOL    HW111468   2.958   4.823   5.724
 3523SOL    HW211469   2.810   4.783   5.668
 3524SOL     OW11470   3.420   1.067   1.041
 3524SOL    HW111471   3.508   1.024   1.058
 3524SOL    HW211472   3.388   1.045   0.949
 3525SOL     OW11473   1.022   4.233   2.087
 3525SOL    HW111474   1.054   4.322   2.057
 3525SOL    HW211475   0.993   4.179   2.008
 3526SOL     OW11476   2.688   6.523   3.693
 3526SOL    HW111477   2.672   6.424   3.686
 3526SOL    HW211478   2.786   6.541   3.699
 3527SOL     OW11479   6.072   3.752   6.305
 3527SOL    HW111480   6.029   3.680   6.251
 3527SOL    HW211481   6.027   3.840   6.285
 3528SOL     OW11482   0.883   5.220   3.848
 3528SOL    HW111483   0.791   5.221   3.809
 3528SOL    HW211484   0.888   5.154   3.923
 3529SOL     OW11485   5.172   6.654   6.406
 3529SOL    HW111486   5.138   6.738   6.449
 3529SOL    HW211487   5.212   6.595   6.476
 3530SOL     OW11488   1.267   5.265   3.443
 3530SOL    HW111489   1.193   5.304   3.498
 3530SOL    HW211490   1.355   5.298   3.478
 3531SOL     OW11491   4.720   3.863   1.144
 3531SOL    HW111492   4.688   3.919   1.068
 3531SOL    HW211493   4.647   3.801   1.172
 3532SOL     OW11494   2.351   0.904   0.682
 3532SOL    HW111495   2.257   0.914   0.648
 3532SOL    HW211496   2.391   0.995   0.695
 3533SOL     OW11497   1.691   1.873   2.321
 3533SOL    HW111498   1.767   1.904   2.378
 3533SOL    HW211499   1.618   1.837   2.379
 3534SOL     OW11500   5.502   0.929   5.137
 3534SOL    HW111501   5.511   1.026   5.113
 3534SOL    HW211502   5.457   0.880   5.063
 3535SOL     OW11503   0.791   6.149   0.496
 3535SOL    HW111504   0.741   6.072   0.535
 3535SOL    HW211505   0.751   6.235   0.526
 3536SOL     OW11506   2.071   2.016   4.299
 3536SOL    HW111507   2.061   1.918   4.318
 3536SOL    HW211508   2.029   2.038   4.211
 3537SOL     OW11509   2.457   5.368   0.511
 3537SOL    HW111510   2.417   5.325   0.430
 3537SOL    HW211511   2.414   5.457   0.526
 3538SOL     OW11512   1.473   0.228   5.155
 3538SOL    HW111513   1.526   0.313   5.154
 3538SOL    HW211514   1.462   0.195   5.061
 3539SOL     OW11515   5.536   3.486   6.512
 3539SOL    HW111516   5.535   3.484   6.612
 3539SOL    HW211517   5.448   3.518   6.479
 3540SOL     OW11518   2.078   2.257   5.542
 3540SOL    HW111519   2.097   2.301   5.630
 3540SOL    HW211520   1.982   2.272   5.517
 3541SOL     OW11521   2.358   2.401   6.035
 3541SOL    HW111522   2.351   2.325   6.099
 3541SOL    HW211523   2.389   2.483   6.084
 3542SOL     OW11524   0.397   4.044   1.624
 3542SOL    HW111525   0.360   4.023   1.715
 3542SOL    HW211526   0.321   4.061   1.561
 3543SOL     OW11527   0.868   3.390   5.981
 3543SOL    HW111528   0.925   3.439   6.047
 3543SOL    HW211529   0.880   3.430   5.890
 3544SOL     OW11530   2.111   4.961   6.417
 3544SOL    HW111531   2.042   4.995   6.353
 3544SOL    HW211532   2.199   4.951   6.371
 3545SOL     OW11533   3.792   4.981   0.657
 3545SOL    HW111534   3.704   4.944   0.629
 3545SOL    HW211535   3.864   4.913   0.640
 3546SOL     OW11536   0.030   4.437   2.776
 3546SOL    HW111537   0.078   4.516   2.814
 3546SOL    HW211538   0.021   4.448   2.677
 3547SOL     OW11539   6.016   4.425   4.408
 3547SOL    HW111540   5.966   4.396   4.326
 3547SOL    HW211541   6.048   4.344   4.458
 3548SOL     OW11542   5.235   0.485   5.603
 3548SOL    HW111543   5.321   0.536   5.605
 3548SOL    HW211544   5.160   0.547   5.577
 3549SOL     OW11545   0.306   4.550   6.328
 3549SOL    HW111546   0.255   4.577   6.410
 3549SOL    HW211547   0.398   4.520   6.354
 3550SOL     OW11548   5.904   3.021   4.324
 3550SOL    HW111549   5.839   2.964   4.373
 3550SOL    HW211550   5.886   3.015   4.225
 3551SOL     OW11551   3.792   1.602   3.931
 3551SOL    HW111552   3.866   1.665   3.909
 3551SOL    HW211553   3.824   1.508   3.923
 3552SOL     OW11554   6.002   0.148   1.518
 3552SOL    HW111555   6.032   0.237   1.551
 3552SOL    HW211556   5.904   0.138   1.535
 3553SOL     OW11557   3.854   5.519   0.537
 3553SOL    HW111558   3.839   5.422   0.517
 3553SOL    HW211559   3.951   5.533   0.560
 3554SOL     OW11560   4.694   2.428   0.840
 3554SOL    HW111561   4.761   2.472   0.781
 3554SOL    HW211562   4.705   2.329   0.836
 3555SOL     OW11563   0.834   3.760   5.075
 3555SOL    HW111564   0.899   3.746   5.000
 3555SOL    HW211565   0.741   3.752   5.040
 3556SOL     OW11566   4.169   0.427   3.936
 3556SOL    HW111567   4.110   0.497   3.975
 3556SOL    HW211568   4.114   0.350   3.905
 3557SOL     OW11569   1.101   0.511   3.658
 3557SOL    HW111570   1.198   0.494   3.637
 3557SOL    HW211571   1.045   0.438   3.619
 3558SOL     OW11572   1.361   6.032   2.354
 3558SOL    HW111573   1.379   6.021   2.256
 3558SOL    HW211574   1.281   5.978   2.379
 3559SOL     OW11575   0.806   6.203   5.437
 3559SOL    HW111576   0.730   6.213   5.501
 3559SOL    HW211577   0.851   6.115   5.451
 3560SOL     OW11578   2.445   5.115   2.398
 3560SOL    HW111579   2.466   5.173   2.319
 3560SOL    HW211580   2.489   5.153   2.480
 3561SOL     OW11581   4.584   4.087   5.346
 3561SOL    HW111582   4.663   4.082   5.286
 3561SOL    HW211583   4.535   4.000   5.344
 3562SOL     OW11584   3.702   0.830   2.648
 3562SOL    HW111585   3.764   0.753   2.636
 3562SOL    HW211586   3.742   0.912   2.606
 3563SOL     OW11587   6.162   1.936   0.467
 3563SOL    HW111588   6.078   1.945   0.519
 3563SOL    HW211589   6.235   1.901   0.526
 3564SOL     OW11590   1.198   4.505   2.804
 3564SOL    HW111591   1.141   4.510   2.722
 3564SOL    HW211592   1.193   4.592   2.853
 3565SOL     OW11593   3.101   6.397   4.408
 3565SOL    HW111594   3.077   6.494   4.408
 3565SOL    HW211595   3.053   6.351   4.334
 3566SOL     OW11596   6.418   3.319   6.697
 3566SOL    HW111597   6.433   3.255   6.772
 3566SOL    HW211598   6.349   3.281   6.634
 3567SOL     OW11599   0.383   1.945   6.649
 3567SOL    HW111600   0.356   1.872   6.711
 3567SOL    HW211601   0.483   1.950   6.645
 3568SOL     OW11602   4.839   4.097   4.157
 3568SOL    HW111603   4.914   4.032   4.143
 3568SOL    HW211604   4.794   4.077   4.244
 3569SOL     OW11605   2.364   1.924   6.196
 3569SOL    HW111606   2.341   1.847   6.256
 3569SOL    HW211607   2.435   1.895   6.132
 3570SOL     OW11608   5.252   0.075   5.960
 3570SOL    HW111609   5.269   7.016   5.911
 3570SOL    HW211610   5.224   0.146   5.895
 3571SOL     OW11611   1.020   5.195   5.936
 3571SOL    HW111612   1.049   5.219   5.843
 3571SOL    HW211613   0.992   5.278   5.984
 3572SOL     OW11614   6.011   4.344   2.640
 3572SOL    HW111615   5.981   4.282   2.713
 3572SOL    HW211616   5.987   4.305   2.551
 3573SOL     OW11617   0.273   5.075   3.478
 3573SOL    HW111618   0.222   5.126   3.409
 3573SOL    HW211619   0.371   5.083   3.459
 3574SOL     OW11620   0.432   3.799   1.154
 3574SOL    HW111621   0.501   3.788   1.083
 3574SOL    HW211622   0.438   3.722   1.218
 3575SOL     OW11623   4.787   4.858   2.766
 3575SOL    HW111624   4.718   4.862   2.837
 3575SOL    HW211625   4.805   4.763   2.741
 3576SOL     OW11626   0.072   1.892   5.844
 3576SOL    HW111627   0.084   1.930   5.752
 3576SOL    HW211628   0.162   1.871   5.882
 3577SOL     OW11629   2.065   2.084   5.904
 3577SOL    HW111630   2.138   2.097   5.971
 3577SOL    HW211631   2.014   2.170   5.894
 3578SOL     OW11632   3.345   2.319   0.743
 3578SOL    HW111633   3.417   2.325   0.812
 3578SOL    HW211634   3.345   2.228   0.702
 3579SOL     OW11635   6.748   2.659   4.357
 3579SOL    HW111636   6.759   2.744   4.306
 3579SOL    HW211637   6.652   2.631   4.355
 3580SOL     OW11638   5.479   3.470   1.840
 3580SOL    HW111639   5.400   3.526   1.815
 3580SOL    HW211640   5.560   3.502   1.791
 3581SOL     OW11641   0.603   6.482   3.576
 3581SOL    HW111642   0.598   6.561   3.637
 3581SOL    HW211643   0.684   6.428   3.598
 3582SOL     OW11644   1.073   2.296   5.567
 3582SOL    HW111645   1.165   2.275   5.600
 3582SOL    HW211646   1.057   2.395   5.574
 3583SOL     OW11647   1.041   3.832   6.423
 3583SOL    HW111648   1.023   3.735   6.442
 3583SOL    HW211649   1.007   3.855   6.332
 3584SOL     OW11650   5.983   5.280   6.597
 3584SOL    HW111651   5.925   5.233   6.663
 3584SOL    HW211652   5.947   5.371   6.579
 3585SOL     OW11653   3.839   0.132   4.826
 3585SOL    HW111654   3.782   0.063   4.871
 3585SOL    HW211655   3.788   0.175   4.752
 3586SOL     OW11656   7.005   1.642   4.646
 3586SOL    HW111657   0.059   1.693   4.675
 3586SOL    HW211658   7.018   1.609   4.552
 3587SOL     OW11659   2.701   5.660   6.812
 3587SOL    HW111660   2.764   5.724   6.856
 3587SOL    HW211661   2.689   5.579   6.870
 3588SOL     OW11662   1.616   2.254   5.864
 3588SOL    HW111663   1.603   2.192   5.786
 3588SOL    HW211664   1.703   2.301   5.855
 3589SOL     OW11665   3.718   1.428   4.746
 3589SOL    HW111666   3.812   1.417   4.778
 3589SOL    HW211667   3.696   1.525   4.741
 3590SOL     OW11668   0.954   2.881   6.687
 3590SOL    HW111669   0.978   2.784   6.687
 3590SOL    HW211670   0.985   2.923   6.602
 3591SOL     OW11671   5.018   3.612   6.620
 3591SOL    HW111672   4.987   3.517   6.617
 3591SOL    HW211673   5.110   3.616   6.659
 3592SOL     OW11674   0.054   4.766   1.668
 3592SOL    HW111675   0.079   4.802   1.758
 3592SOL    HW211676   0.095   4.824   1.597
 3593SOL     OW11677   0.695   5.797   4.924
 3593SOL    HW111678   0.793   5.782   4.937
 3593SOL    HW211679   0.666   5.756   4.838
 3594SOL     OW11680   4.410   0.054   3.151
 3594SOL    HW111681   4.429   6.987   3.120
 3594SOL    HW211682   4.399   0.054   3.250
 3595SOL     OW11683   3.614   5.875   0.309
 3595SOL    HW111684   3.694   5.834   0.352
 3595SOL    HW211685   3.614   5.974   0.326
 3596SOL     OW11686   6.228   3.046   3.288
 3596SOL    HW111687   6.316   3.085   3.313
 3596SOL    HW211688   6.158   3.117   3.289
 3597SOL     OW11689   1.708   2.114   4.754
 3597SOL    HW111690   1.648   2.057   4.809
 3597SOL    HW211691   1.758   2.057   4.688
 3598SOL     OW11692   0.988   5.479   6.008
 3598SOL    HW111693   1.082   5.490   6.039
 3598SOL    HW211694   0.962   5.558   5.952
 3599SOL     OW11695   6.701   2.023   6.185
 3599SOL    HW111696   6.788   1.994   6.225
 3599SOL    HW211697   6.708   2.025   6.086
 3600SOL     OW11698   0.855   3.397   1.332
 3600SOL    HW111699   0.844   3.333   1.256
 3600SOL    HW211700   0.940   3.448   1.321
 3601SOL     OW11701   5.391   4.661   6.570
 3601SOL    HW111702   5.399   4.734   6.638
 3601SOL    HW211703   5.477   4.611   6.564
 3602SOL     OW11704   1.723   2.609   0.816
 3602SOL    HW111705   1.741   2.519   0.854
 3602SOL    HW211706   1.625   2.619   0.800
 3603SOL     OW11707   3.148   0.389   3.645
 3603SOL    HW111708   3.087   0.333   3.590
 3603SOL    HW211709   3.193   0.457   3.586
 3604SOL     OW11710   6.737   5.299   3.273
 3604SOL    HW111711   6.740   5.394   3.242
 3604SOL    HW211712   6.765   5.294   3.369
 3605SOL     OW11713   6.699   3.686   4.931
 3605SOL    HW111714   6.757   3.636   4.996
 3605SOL    HW211715   6.699   3.639   4.843
 3606SOL     OW11716   6.965   0.127   4.734
 3606SOL    HW111717   0.022   0.180   4.748
 3606SOL    HW211718   6.976   0.067   4.655
 3607SOL     OW11719   5.742   5.634   1.916
 3607SOL    HW111720   5.649   5.641   1.955
 3607SOL    HW211721   5.738   5.648   1.818
 3608SOL     OW11722   5.771   2.313   3.841
 3608SOL    HW111723   5.859   2.287   3.880
 3608SOL    HW211724   5.761   2.412   3.845
 3609SOL     OW11725   1.414   6.810   4.149
 3609SOL    HW111726   1.448   6.802   4.055
 3609SOL    HW211727   1.323   6.850   4.148
 3610SOL     OW11728   1.499   6.806   5.305
 3610SOL    HW111729   1.591   6.769   5.292
 3610SOL    HW211730   1.444   6.739   5.356
 3611SOL     OW11731   4.452   5.655   5.594
 3611SOL    HW111732   4.427   5.749   5.571
 3611SOL    HW211733   4.380   5.614   5.649
 3612SOL     OW11734   6.492   7.010   0.027
 3612SOL    HW111735   6.586   7.010   7.019
 3612SOL    HW211736   6.451   0.074   0.013
 3613SOL     OW11737   4.616   5.356   1.968
 3613SOL    HW111738   4.550   5.310   2.027
 3613SOL    HW211739   4.707   5.353   2.011
 3614SOL     OW11740   4.210   3.223   1.461
 3614SOL    HW111741   4.175   3.310   1.426
 3614SOL    HW211742   4.147   3.189   1.532
 3615SOL     OW11743   4.953   5.643   7.020
 3615SOL    HW111744   4.976   5.734   6.984
 3615SOL    HW211745   4.995   5.573   6.962
 3616SOL     OW11746   0.825   2.228   6.885
 3616SOL    HW111747   0.803   2.324   6.865
 3616SOL    HW211748   0.884   2.223   6.965
 3617SOL     OW11749   3.886   1.555   6.837
 3617SOL    HW111750   3.826   1.588   6.763
 3617SOL    HW211751   3.831   1.539   6.919
 3618SOL     OW11752   1.889   2.533   5.288
 3618SOL    HW111753   1.975   2.574   5.318
 3618SOL    HW211754   1.834   2.602   5.241
 3619SOL     OW11755   5.899   3.158   4.703
 3619SOL    HW111756   5.913   3.248   4.744
 3619SOL    HW211757   5.933   3.158   4.609
 3620SOL     OW11758   6.208   6.366   5.910
 3620SOL    HW111759   6.134   6.345   5.975
 3620SOL    HW211760   6.235   6.282   5.862
 3621SOL     OW11761   3.454   2.866   5.045
 3621SOL    HW111762   3.533   2.853   5.105
 3621SOL    HW211763   3.371   2.876   5.101
 3622SOL     OW11764   1.815   1.992   5.399
 3622SOL    HW111765   1.745   1.952   5.457
 3622SOL    HW211766   1.883   1.922   5.375
 3623SOL     OW11767   6.252   5.981   4.207
 3623SOL    HW111768   6.314   6.022   4.141
 3623SOL    HW211769   6.216   5.895   4.171
 3624SOL     OW11770   1.613   6.834   1.421
 3624SOL    HW111771   1.520   6.815   1.390
 3624SOL    HW211772   1.649   6.753   1.468
 3625SOL     OW11773   6.274   2.694   6.752
 3625SOL    HW111774   6.183   2.657   6.774
 3625SOL    HW211775   6.265   2.786   6.714
 3626SOL     OW11776   1.106   1.676   5.937
 3626SOL    HW111777   1.161   1.605   5.980
 3626SOL    HW211778   1.166   1.737   5.885
 3627SOL     OW11779   3.455   2.924   2.639
 3627SOL    HW111780   3.506   2.851   2.593
 3627SOL    HW211781   3.501   2.948   2.725
 3628SOL     OW11782   1.724   1.096   1.767
 3628SOL    HW111783   1.726   1.137   1.676
 3628SOL    HW211784   1.632   1.061   1.786
 3629SOL     OW11785   6.984   0.965   5.554
 3629SOL    HW111786   6.976   0.982   5.653
 3629SOL    HW211787   0.019   0.889   5.538
 3630SOL     OW11788   5.062   2.737   3.913
 3630SOL    HW111789   5.120   2.666   3.955
 3630SOL    HW211790   4.967   2.706   3.912
 3631SOL     OW11791   2.125   0.957   3.614
 3631SOL    HW111792   2.203   0.921   3.666
 3631SOL    HW211793   2.148   0.960   3.517
 3632SOL     OW11794   5.554   5.740   1.471
 3632SOL    HW111795   5.543   5.765   1.568
 3632SOL    HW211796   5.466   5.747   1.425
 3633SOL     OW11797   4.243   1.653   5.852
 3633SOL    HW111798   4.187   1.733   5.833
 3633SOL    HW211799   4.326   1.680   5.901
 3634SOL     OW11800   1.615   4.147   4.585
 3634SOL    HW111801   1.597   4.050   4.601
 3634SOL    HW211802   1.613   4.196   4.672
 3635SOL     OW11803   3.724   0.238   0.176
 3635SOL    HW111804   3.717   0.207   0.271
 3635SOL    HW211805   3.779   0.322   0.172
 3636SOL     OW11806   0.274   5.715   0.813
 3636SOL    HW111807   0.359   5.761   0.789
 3636SOL    HW211808   0.200   5.782   0.817
 3637SOL     OW11809   6.998   1.903   2.316
 3637SOL    HW111810   0.039   1.833   2.337
 3637SOL    HW211811   7.004   1.928   2.220
 3638SOL     OW11812   0.883   4.508   3.489
 3638SOL    HW111813   0.958   4.454   3.527
 3638SOL    HW211814   0.891   4.603   3.521
 3639SOL     OW11815   3.292   4.907   0.808
 3639SOL    HW111816   3.239   4.823   0.798
 3639SOL    HW211817   3.251   4.979   0.752
 3640SOL     OW11818   4.508   0.648   0.740
 3640SOL    HW111819   4.558   0.574   0.694
 3640SOL    HW211820   4.409   0.632   0.731
 3641SOL     OW11821   5.259   3.858   2.516
 3641SOL    HW111822   5.184   3.917   2.485
 3641SOL    HW211823   5.292   3.803   2.440
 3642SOL     OW11824   5.533   1.019   6.894
 3642SOL    HW111825   5.479   1.032   6.978
 3642SOL    HW211826   5.477   1.044   6.815
 3643SOL     OW11827   3.267   5.925   4.570
 3643SOL    HW111828   3.197   5.859   4.542
 3643SOL    HW211829   3.236   6.018   4.546
 3644SOL     OW11830   6.949   0.959   1.536
 3644SOL    HW111831   6.929   1.026   1.608
 3644SOL    HW211832   0.018   0.931   1.542
 3645SOL     OW11833   0.353   2.764   3.665
 3645SOL    HW111834   0.312   2.825   3.732
 3645SOL    HW211835   0.445   2.737   3.695
 3646SOL     OW11836   0.961   3.839   6.154
 3646SOL    HW111837   0.868   3.803   6.160
 3646SOL    HW211838   0.961   3.923   6.099
 3647SOL     OW11839   2.661   5.244   5.889
 3647SOL    HW111840   2.717   5.162   5.892
 3647SOL    HW211841   2.623   5.262   5.979
 3648SOL     OW11842   3.943   4.869   1.906
 3648SOL    HW111843   3.845   4.855   1.920
 3648SOL    HW211844   3.966   4.964   1.925
 3649SOL     OW11845   5.120   3.132   1.918
 3649SOL    HW111846   5.083   3.223   1.935
 3649SOL    HW211847   5.184   3.136   1.842
 3650SOL     OW11848   6.699   5.687   1.351
 3650SOL    HW111849   6.634   5.753   1.315
 3650SOL    HW211850   6.661   5.642   1.432
 3651SOL     OW11851   1.042   6.808   4.776
 3651SOL    HW111852   0.944   6.815   4.754
 3651SOL    HW211853   1.093   6.874   4.722
 3652SOL     OW11854   5.421   6.556   3.094
 3652SOL    HW111855   5.357   6.597   3.030
 3652SOL    HW211856   5.469   6.628   3.144
 3653SOL     OW11857   1.064   1.608   3.780
 3653SOL    HW111858   1.129   1.683   3.768
 3653SOL    HW211859   0.971   1.641   3.760
 3654SOL     OW11860   3.117   4.296   0.579
 3654SOL    HW111861   3.044   4.228   0.565
 3654SOL    HW211862   3.147   4.293   0.675
 3655SOL     OW11863   1.991   5.811   4.265
 3655SOL    HW111864   1.939   5.742   4.215
 3655SOL    HW211865   2.061   5.766   4.321
 3656SOL     OW11866   0.418   4.276   1.335
 3656SOL    HW111867   0.413   4.180   1.305
 3656SOL    HW211868   0.362   4.288   1.417
 3657SOL     OW11869   5.523   5.970   5.549
 3657SOL    HW111870   5.565   6.060   5.535
 3657SOL    HW211871   5.443   5.979   5.608
 3658SOL     OW11872   1.942   5.104   6.096
 3658SOL    HW111873   2.035   5.128   6.068
 3658SOL    HW211874   1.917   5.016   6.055
 3659SOL     OW11875   2.151   3.947   6.130
 3659SOL    HW111876   2.245   3.928   6.157
 3659SOL    HW211877   2.116   3.871   6.074
 3660SOL     OW11878   5.455   6.232   3.558
 3660SOL    HW111879   5.414   6.294   3.626
 3660SOL    HW211880   5.551   6.215   3.583
 3661SOL     OW11881   5.739   0.345   5.185
 3661SOL    HW111882   5.687   0.282   5.127
 3661SOL    HW211883   5.782   0.415   5.128
 3662SOL     OW11884   3.412   0.684   3.939
 3662SOL    HW111885   3.385   0.766   3.889
 3662SOL    HW211886   3.379   0.689   4.033
 3663SOL     OW11887   1.976   1.760   0.037
 3663SOL    HW111888   2.059   1.795   0.082
 3663SOL    HW211889   1.960   1.811   6.979
 3664SOL     OW11890   4.898   2.601   1.761
 3664SOL    HW111891   4.961   2.676   1.779
 3664SOL    HW211892   4.804   2.632   1.778
 3665SOL     OW11893   1.595   6.452   4.949
 3665SOL    HW111894   1.579   6.448   4.850
 3665SOL    HW211895   1.507   6.450   4.997
 3666SOL     OW11896   0.859   3.354   3.209
 3666SOL    HW111897   0.880   3.257   3.220
 3666SOL    HW211898   0.854   3.398   3.299
 3667SOL     OW11899   0.978   1.612   3.491
 3667SOL    HW111900   0.979   1.635   3.588
 3667SOL    HW211901   1.035   1.677   3.441
 3668SOL     OW11902   1.497   0.917   0.910
 3668SOL    HW111903   1.564   0.980   0.951
 3668SOL    HW211904   1.506   0.827   0.953
 3669SOL     OW11905   5.262   1.437   3.789
 3669SOL    HW111906   5.196   1.512   3.784
 3669SOL    HW211907   5.334   1.451   3.721
 3670SOL     OW11908   1.827   5.321   7.007
 3670SOL    HW111909   1.913   5.341   0.027
 3670SOL    HW211910   1.753   5.372   0.023
 3671SOL     OW11911   6.912   2.171   4.204
 3671SOL    HW111912   6.956   2.141   4.120
 3671SOL    HW211913   6.922   2.101   4.275
 3672SOL     OW11914   5.099   1.804   1.547
 3672SOL    HW111915   5.145   1.842   1.627
 3672SOL    HW211916   5.041   1.874   1.505
 3673SOL     OW11917   3.720   6.259   6.921
 3673SOL    HW111918   3.631   6.224   6.949
 3673SOL    HW211919   3.709   6.347   6.875
 3674SOL     OW11920   1.536   5.423   6.286
 3674SOL    HW111921   1.571   5.329   6.294
 3674SOL    HW211922   1.540   5.452   6.191
 3675SOL     OW11923   2.187   3.115   4.137
 3675SOL    HW111924   2.179   3.080   4.230
 3675SOL    HW211925   2.104   3.165   4.113
 3676SOL     OW11926   5.598   4.713   3.038
 3676SOL    HW111927   5.656   4.632   3.045
 3676SOL    HW211928   5.512   4.697   3.086
 3677SOL     OW11929   2.407   6.289   3.869
 3677SOL    HW111930   2.370   6.341   3.945
 3677SOL    HW211931   2.441   6.201   3.903
 3678SOL     OW11932   0.090   1.708   4.294
 3678SOL    HW111933   0.079   1.807   4.285
 3678SOL    HW211934   0.186   1.684   4.286
 3679SOL     OW11935   0.430   0.467   3.881
 3679SOL    HW111936   0.459   0.380   3.921
 3679SOL    HW211937   0.462   0.542   3.939
 3680SOL     OW11938   5.246   3.230   3.906
 3680SOL    HW111939   5.332   3.263   3.946
 3680SOL    HW211940   5.250   3.131   3.895
 3681SOL     OW11941   0.125   0.995   6.492
 3681SOL    HW111942   0.091   0.984   6.585
 3681SOL    HW211943   0.225   0.987   6.491
 3682SOL     OW11944   5.378   2.320   6.826
 3682SOL    HW111945   5.444   2.374   6.879
 3682SOL    HW211946   5.286   2.334   6.865
 3683SOL     OW11947   6.824   1.431   3.781
 3683SOL    HW111948   6.813   1.465   3.875
 3683SOL    HW211949   6.921   1.429   3.758
 3684SOL     OW11950   1.308   4.640   0.126
 3684SOL    HW111951   1.374   4.565   0.121
 3684SOL    HW211952   1.337   4.713   0.064
 3685SOL     OW11953   1.528   6.083   6.534
 3685SOL    HW111954   1.561   6.173   6.563
 3685SOL    HW211955   1.451   6.055   6.591
 3686SOL     OW11956   5.054   5.813   4.176
 3686SOL    HW111957   5.084   5.887   4.116
 3686SOL    HW211958   5.033   5.732   4.121
 3687SOL     OW11959   3.441   6.215   4.714
 3687SOL    HW111960   3.414   6.131   4.761
 3687SOL    HW211961   3.481   6.279   4.779
 3688SOL     OW11962   0.538   3.670   6.626
 3688SOL    HW111963   0.636   3.673   6.605
 3688SOL    HW211964   0.486   3.680   6.541
 3689SOL     OW11965   2.164   6.991   5.558
 3689SOL    HW111966   2.240   6.927   5.545
 3689SOL    HW211967   2.077   6.942   5.550
 3690SOL     OW11968   4.464   6.142   0.387
 3690SOL    HW111969   4.562   6.128   0.399
 3690SOL    HW211970   4.427   6.069   0.329
 3691SOL     OW11971   2.417   1.553   6.028
 3691SOL    HW111972   2.441   1.648   6.007
 3691SOL    HW211973   2.470   1.491   5.970
 3692SOL     OW11974   6.790   5.702   5.291
 3692SOL    HW111975   6.791   5.739   5.198
 3692SOL    HW211976   6.696   5.697   5.324
 3693SOL     OW11977   2.149   3.734   3.267
 3693SOL    HW111978   2.133   3.691   3.178
 3693SOL    HW211979   2.194   3.669   3.328
 3694SOL     OW11980   1.286   6.579   2.633
 3694SOL    HW111981   1.254   6.573   2.538
 3694SOL    HW211982   1.249   6.662   2.675
 3695SOL     OW11983   6.061   3.393   1.821
 3695SOL    HW111984   6.002   3.358   1.894
 3695SOL    HW211985   6.059   3.493   1.822
 3696SOL     OW11986   3.912   6.471   4.433
 3696SOL    HW111987   3.873   6.558   4.465
 3696SOL    HW211988   3.919   6.408   4.510
 3697SOL     OW11989   0.091   6.510   2.411
 3697SOL    HW111990   0.164   6.534   2.476
 3697SOL    HW211991   0.028   6.586   2.402
 3698SOL     OW11992   3.262   0.999   4.369
 3698SOL    HW111993   3.246   0.921   4.430
 3698SOL    HW211994   3.199   1.073   4.392
 3699SOL     OW11995   1.557   2.731   4.258
 3699SOL    HW111996   1.468   2.768   4.283
 3699SOL    HW211997   1.545   2.658   4.191
 3700SOL     OW11998   0.872   5.082   4.623
 3700SOL    HW111999   0.909   4.990   4.607
 3700SOL    HW212000   0.807   5.105   4.550
 3701SOL     OW12001   1.537   1.179   4.422
 3701SOL    HW112002   1.595   1.203   4.343
 3701SOL    HW212003   1.464   1.118   4.392
 3702SOL     OW12004   5.661   6.896   3.009
 3702SOL    HW112005   5.664   6.965   2.936
 3702SOL    HW212006   5.753   6.863   3.027
 3703SOL     OW12007   5.581   0.270   5.408
 3703SOL    HW112008   5.612   0.207   5.479
 3703SOL    HW212009   5.653   0.283   5.340
 3704SOL     OW12010   3.664   1.402   0.818
 3704SOL    HW112011   3.648   1.306   0.796
 3704SOL    HW212012   3.725   1.443   0.749
 3705SOL     OW12013   4.748   4.591   4.312
 3705SOL    HW112014   4.653   4.609   4.285
 3705SOL    HW212015   4.792   4.677   4.337
 3706SOL     OW12016   1.349   4.005   0.391
 3706SOL    HW112017   1.310   3.950   0.317
 3706SOL    HW212018   1.320   4.100   0.380
 3707SOL     OW12019   5.268   4.659   3.458
 3707SOL    HW112020   5.309   4.568   3.455
 3707SOL    HW212021   5.341   4.728   3.459
 3708SOL     OW12022   6.719   0.966   6.780
 3708SOL    HW112023   6.763   0.886   6.821
 3708SOL    HW212024   6.725   0.960   6.680
 3709SOL     OW12025   3.658   0.825   1.304
 3709SOL    HW112026   3.753   0.856   1.291
 3709SOL    HW212027   3.639   0.818   1.402
 3710SOL     OW12028   6.274   5.538   5.319
 3710SOL    HW112029   6.366   5.513   5.289
 3710SOL    HW212030   6.239   5.612   5.261
 3711SOL     OW12031   0.829   6.705   4.438
 3711SOL    HW112032   0.891   6.745   4.369
 3711SOL    HW212033   0.877   6.631   4.486
 3712SOL     OW12034   0.390   4.992   5.867
 3712SOL    HW112035   0.413   5.075   5.917
 3712SOL    HW212036   0.408   5.005   5.769
 3713SOL     OW12037   0.829   6.474   6.062
 3713SOL    HW112038   0.905   6.416   6.093
 3713SOL    HW212039   0.771   6.422   5.999
 3714SOL     OW12040   5.701   5.806   5.961
 3714SOL    HW112041   5.655   5.883   6.005
 3714SOL    HW212042   5.741   5.836   5.875
 3715SOL     OW12043   0.672   3.933   1.955
 3715SOL    HW112044   0.761   3.951   1.997
 3715SOL    HW212045   0.648   4.009   1.895
 3716SOL     OW12046   6.196   6.913   4.209
 3716SOL    HW112047   6.158   6.988   4.263
 3716SOL    HW212048   6.265   6.865   4.264
 3717SOL     OW12049   0.087   6.713   6.821
 3717SOL    HW112050   0.054   6.621   6.799
 3717SOL    HW212051   0.029   6.781   6.776
 3718SOL     OW12052   0.826   0.863   6.800
 3718SOL    HW112053   0.791   0.895   6.888
 3718SOL    HW212054   0.913   0.908   6.780
 3719SOL     OW12055   5.096   3.986   1.774
 3719SOL    HW112056   5.045   3.957   1.692
 3719SOL    HW212057   5.188   3.949   1.771
 3720SOL     OW12058   5.994   2.766   6.428
 3720SOL    HW112059   6.052   2.833   6.382
 3720SOL    HW212060   5.942   2.811   6.501
 3721SOL     OW12061   6.266   4.386   1.378
 3721SOL    HW112062   6.200   4.451   1.415
 3721SOL    HW212063   6.348   4.384   1.435
 3722SOL     OW12064   5.969   5.946   0.600
 3722SOL    HW112065   6.010   6.037   0.601
 3722SOL    HW212066   5.874   5.953   0.569
 3723SOL     OW12067   5.955   5.440   1.205
 3723SOL    HW112068   5.930   5.525   1.159
 3723SOL    HW212069   5.904   5.364   1.165
 3724SOL     OW12070   1.891   4.205   4.784
 3724SOL    HW112071   1.967   4.213   4.849
 3724SOL    HW212072   1.824   4.277   4.801
 3725SOL     OW12073   6.862   5.672   0.286
 3725SOL    HW112074   6.815   5.606   0.228
 3725SOL    HW212075   6.859   5.762   0.243
 3726SOL     OW12076   5.831   3.148   0.621
 3726SOL    HW112077   5.774   3.089   0.562
 3726SOL    HW212078   5.785   3.235   0.635
 3727SOL     OW12079   6.597   1.470   4.940
 3727SOL    HW112080   6.638   1.458   4.850
 3727SOL    HW212081   6.664   1.448   5.010
 3728SOL     OW12082   1.443   3.520   6.357
 3728SOL    HW112083   1.531   3.522   6.404
 3728SOL    HW212084   1.458   3.516   6.258
 3729SOL     OW12085   1.394   2.480   4.136
 3729SOL    HW112086   1.367   2.549   4.069
 3729SOL    HW212087   1.419   2.395   4.090
 3730SOL     OW12088   2.726   5.329   5.391
 3730SOL    HW112089   2.647   5.286   5.433
 3730SOL    HW212090   2.712   5.336   5.292
 3731SOL     OW12091   0.435   1.691   0.582
 3731SOL    HW112092   0.383   1.668   0.664
 3731SOL    HW212093   0.451   1.790   0.580
 3732SOL     OW12094   2.849   1.817   0.107
 3732SOL    HW112095   2.905   1.738   0.084
 3732SOL    HW212096   2.907   1.891   0.140
 3733SOL     OW12097   1.712   3.339   3.060
 3733SOL    HW112098   1.681   3.364   3.153
 3733SOL    HW212099   1.679   3.247   3.038
 3734SOL     OW12100   5.222   0.504   1.154
 3734SOL    HW112101   5.224   0.596   1.115
 3734SOL    HW212102   5.144   0.496   1.216
 3735SOL     OW12103   2.552   1.394   2.930
 3735SOL    HW112104   2.616   1.361   2.861
 3735SOL    HW212105   2.460   1.396   2.892
 3736SOL     OW12106   6.858   2.007   1.092
 3736SOL    HW112107   6.920   2.085   1.085
 3736SOL    HW212108   6.910   1.923   1.097
 3737SOL     OW12109   5.644   1.181   4.007
 3737SOL    HW112110   5.649   1.121   3.927
 3737SOL    HW212111   5.611   1.129   4.085
 3738SOL     OW12112   0.170   0.426   2.349
 3738SOL    HW112113   0.264   0.440   2.381
 3738SOL    HW212114   0.148   0.494   2.279
 3739SOL     OW12115   2.045   5.258   0.430
 3739SOL    HW112116   2.077   5.216   0.345
 3739SOL    HW212117   1.955   5.221   0.454
 3740SOL     OW12118   6.355   0.844   0.778
 3740SOL    HW112119   6.429   0.778   0.785
 3740SOL    HW212120   6.294   0.820   0.703
 3741SOL     OW12121   5.612   3.223   6.673
 3741SOL    HW112122   5.624   3.132   6.714
 3741SOL    HW212123   5.540   3.272   6.723
 3742SOL     OW12124   2.625   2.319   6.677
 3742SOL    HW112125   2.549   2.276   6.726
 3742SOL    HW212126   2.593   2.352   6.589
 3743SOL     OW12127   5.391   3.652   0.670
 3743SOL    HW112128   5.396   3.566   0.620
 3743SOL    HW212129   5.473   3.706   0.652
 3744SOL     OW12130   1.519   6.151   2.137
 3744SOL    HW112131   1.588   6.200   2.083
 3744SOL    HW212132   1.444   6.214   2.160
 3745SOL     OW12133   4.232   4.990   1.776
 3745SOL    HW112134   4.273   5.063   1.723
 3745SOL    HW212135   4.250   5.005   1.874
 3746SOL     OW12136   5.501   0.604   3.886
 3746SOL    HW112137   5.550   0.625   3.802
 3746SOL    HW212138   5.477   0.507   3.888
 3747SOL     OW12139   2.497   6.073   5.173
 3747SOL    HW112140   2.500   6.006   5.247
 3747SOL    HW212141   2.439   6.038   5.099
 3748SOL     OW12142   5.673   1.223   1.723
 3748SOL    HW112143   5.611   1.149   1.750
 3748SOL    HW212144   5.625   1.289   1.666
 3749SOL     OW12145   2.092   5.394   3.766
 3749SOL    HW112146   2.135   5.427   3.682
 3749SOL    HW212147   2.152   5.413   3.844
 3750SOL     OW12148   7.020   4.652   1.132
 3750SOL    HW112149   0.076   4.704   1.112
 3750SOL    HW212150   0.017   4.556   1.149
 3751SOL     OW12151   6.259   3.458   1.135
 3751SOL    HW112152   6.351   3.476   1.170
 3751SOL    HW212153   6.192   3.475   1.207
 3752SOL     OW12154   6.087   6.875   0.544
 3752SOL    HW112155   5.987   6.884   0.546
 3752SOL    HW212156   6.116   6.808   0.613
 3753SOL     OW12157   6.713   0.304   3.843
 3753SOL    HW112158   6.632   0.259   3.881
 3753SOL    HW212159   6.733   0.387   3.894
 3754SOL     OW12160   3.490   0.403   0.900
 3754SOL    HW112161   3.582   0.387   0.938
 3754SOL    HW212162   3.493   0.393   0.801
 3755SOL     OW12163   4.739   5.286   4.528
 3755SOL    HW112164   4.792   5.206   4.557
 3755SOL    HW212165   4.778   5.368   4.570
 3756SOL     OW12166   2.337   5.590   6.907
 3756SOL    HW112167   2.355   5.528   6.830
 3756SOL    HW212168   2.253   5.642   6.889
 3757SOL     OW12169   4.633   6.145   6.843
 3757SOL    HW112170   4.699   6.207   6.886
 3757SOL    HW212171   4.569   6.111   6.912
 3758SOL     OW12172   2.405   1.237   4.987
 3758SOL    HW112173   2.452   1.323   5.007
 3758SOL    HW212174   2.311   1.256   4.959
 3759SOL     OW12175   4.811   6.221   6.281
 3759SOL    HW112176   4.813   6.176   6.370
 3759SOL    HW212177   4.885   6.288   6.275
 3760SOL     OW12178   2.025   0.894   4.511
 3760SOL    HW112179   2.014   0.794   4.502
 3760SOL    HW212180   2.088   0.914   4.585
 3761SOL     OW12181   1.383   0.757   4.745
 3761SOL    HW112182   1.415   0.847   4.776
 3761SOL    HW212183   1.395   0.750   4.646
 3762SOL     OW12184   1.235   4.013   1.011
 3762SOL    HW112185   1.256   4.063   1.095
 3762SOL    HW212186   1.191   4.075   0.945
 3763SOL     OW12187   6.859   3.806   0.869
 3763SOL    HW112188   6.901   3.721   0.837
 3763SOL    HW212189   6.767   3.786   0.904
 3764SOL     OW12190   1.793   0.142   2.692
 3764SOL    HW112191   1.874   0.092   2.724
 3764SOL    HW212192   1.810   0.177   2.600
 3765SOL     OW12193   5.058   1.246   0.735
 3765SOL    HW112194   4.968   1.205   0.720
 3765SOL    HW212195   5.109   1.247   0.649
 3766SOL     OW12196   1.774   1.290   4.269
 3766SOL    HW112197   1.854   1.273   4.211
 3766SOL    HW212198   1.802   1.329   4.356
 3767SOL     OW12199   1.965   4.593   6.984
 3767SOL    HW112200   2.043   4.552   0.004
 3767SOL    HW212201   1.926   4.666   0.013
 3768SOL     OW12202   1.599   6.795   4.395
 3768SOL    HW112203   1.517   6.823   4.343
 3768SOL    HW212204   1.678   6.793   4.334
 3769SOL     OW12205   6.458   6.144   5.063
 3769SOL    HW112206   6.450   6.181   4.970
 3769SOL    HW212207   6.554   6.129   5.085
 3770SOL     OW12208   1.628   1.227   6.152
 3770SOL    HW112209   1.664   1.300   6.210
 3770SOL    HW212210   1.608   1.147   6.209
 3771SOL     OW12211   5.412   3.257   0.006
 3771SOL    HW112212   5.393   3.167   6.993
 3771SOL    HW212213   5.329   3.292   0.049
 3772SOL     OW12214   0.342   1.406   6.523
 3772SOL    HW112215   0.248   1.378   6.541
 3772SOL    HW212216   0.358   1.407   6.425
 3773SOL     OW12217   6.191   3.228   5.915
 3773SOL    HW112218   6.276   3.271   5.884
 3773SOL    HW212219   6.207   3.131   5.932
 3774SOL     OW12220   6.915   5.750   0.900
 3774SOL    HW112221   6.816   5.761   0.914
 3774SOL    HW212222   6.963   5.832   0.929
 3775SOL     OW12223   4.215   5.359   2.029
 3775SOL    HW112224   4.202   5.277   2.086
 3775SOL    HW212225   4.253   5.332   1.941
 3776SOL     OW12226   4.429   1.492   0.360
 3776SOL    HW112227   4.331   1.477   0.371
 3776SOL    HW212228   4.465   1.429   0.291
 3777SOL     OW12229   3.558   5.839   3.768
 3777SOL    HW112230   3.621   5.838   3.689
 3777SOL    HW212231   3.609   5.818   3.851
 3778SOL     OW12232   3.207   4.866   2.477
 3778SOL    HW112233   3.177   4.846   2.384
 3778SOL    HW212234   3.129   4.859   2.540
 3779SOL     OW12235   1.485   4.339   0.510
 3779SOL    HW112236   1.418   4.336   0.437
 3779SOL    HW212237   1.439   4.336   0.599
 3780SOL     OW12238   5.846   4.768   4.873
 3780SOL    HW112239   5.900   4.849   4.851
 3780SOL    HW212240   5.896   4.685   4.846
 3781SOL     OW12241   0.924   5.852   4.630
 3781SOL    HW112242   0.992   5.882   4.563
 3781SOL    HW212243   0.932   5.753   4.643
 3782SOL     OW12244   2.532   0.340   3.967
 3782SOL    HW112245   2.542   0.320   3.870
 3782SOL    HW212246   2.466   0.277   4.008
 3783SOL     OW12247   5.651   5.595   3.248
 3783SOL    HW112248   5.749   5.577   3.260
 3783SOL    HW212249   5.636   5.693   3.239
 3784SOL     OW12250   4.721   2.786   3.125
 3784SOL    HW112251   4.634   2.744   3.099
 3784SOL    HW212252   4.782   2.718   3.164
 3785SOL     OW12253   1.925   2.793   6.000
 3785SOL    HW112254   2.003   2.851   5.980
 3785SOL    HW212255   1.856   2.845   6.050
 3786SOL     OW12256   2.167   5.546   3.147
 3786SOL    HW112257   2.121   5.557   3.236
 3786SOL    HW212258   2.138   5.619   3.086
 3787SOL     OW12259   5.750   1.500   2.753
 3787SOL    HW112260   5.746   1.575   2.687
 3787SOL    HW212261   5.817   1.522   2.824
 3788SOL     OW12262   0.566   4.756   4.406
 3788SOL    HW112263   0.604   4.844   4.377
 3788SOL    HW212264   0.628   4.682   4.378
 3789SOL     OW12265   0.066   2.739   4.784
 3789SOL    HW112266   0.025   2.654   4.818
 3789SOL    HW212267   0.101   2.791   4.862
 3790SOL     OW12268   1.216   4.545   5.385
 3790SOL    HW112269   1.146   4.539   5.456
 3790SOL    HW212270   1.267   4.630   5.395
 3791SOL     OW12271   5.164   0.975   6.604
 3791SOL    HW112272   5.227   0.921   6.548
 3791SOL    HW212273   5.074   0.977   6.561
 3792SOL     OW12274   1.186   2.290   4.820
 3792SOL    HW112275   1.154   2.309   4.727
 3792SOL    HW212276   1.115   2.240   4.870
 3793SOL     OW12277   5.077   6.684   2.241
 3793SOL    HW112278   5.071   6.597   2.290
 3793SOL    HW212279   4.986   6.723   2.230
 3794SOL     OW12280   2.425   3.404   0.778
 3794SOL    HW112281   2.463   3.488   0.739
 3794SOL    HW212282   2.499   3.352   0.821
 3795SOL     OW12283   3.929   6.498   6.964
 3795SOL    HW112284   4.024   6.512   6.991
 3795SOL    HW212285   3.919   6.411   6.917
 3796SOL     OW12286   3.218   2.120   2.727
 3796SOL    HW112287   3.185   2.198   2.674
 3796SOL    HW212288   3.214   2.038   2.670
 3797SOL     OW12289   6.829   3.582   1.594
 3797SOL    HW112290   6.810   3.679   1.579
 3797SOL    HW212291   6.813   3.531   1.509
 3798SOL     OW12292   2.764   5.459   2.719
 3798SOL    HW112293   2.842   5.412   2.760
 3798SOL    HW212294   2.797   5.531   2.657
 3799SOL     OW12295   6.731   2.745   3.931
 3799SOL    HW112296   6.823   2.714   3.953
 3799SOL    HW212297   6.664   2.681   3.970
 3800SOL     OW12298   5.993   3.808   3.739
 3800SOL    HW112299   5.978   3.723   3.688
 3800SOL    HW212300   6.070   3.796   3.802
 3801SOL     OW12301   6.000   0.179   2.441
 3801SOL    HW112302   6.091   0.217   2.426
 3801SOL    HW212303   5.961   0.150   2.353
 3802SOL     OW12304   1.350   2.059   2.154
 3802SOL    HW112305   1.332   2.158   2.153
 3802SOL    HW212306   1.283   2.015   2.213
 3803SOL     OW12307   3.357   2.579   1.697
 3803SOL    HW112308   3.361   2.568   1.597
 3803SOL    HW212309   3.404   2.664   1.723
 3804SOL     OW12310   4.664   1.573   4.176
 3804SOL    HW112311   4.650   1.610   4.268
 3804SOL    HW212312   4.752   1.525   4.173
 3805SOL     OW12313   2.728   2.725   1.613
 3805SOL    HW112314   2.740   2.652   1.680
 3805SOL    HW212315   2.672   2.692   1.536
 3806SOL     OW12316   3.069   3.694   6.383
 3806SOL    HW112317   3.003   3.709   6.309
 3806SOL    HW212318   3.111   3.604   6.373
 3807SOL     OW12319   1.215   6.259   2.968
 3807SOL    HW112320   1.272   6.177   2.962
 3807SOL    HW212321   1.269   6.337   2.998
 3808SOL     OW12322   4.692   1.058   0.861
 3808SOL    HW112323   4.721   1.051   0.765
 3808SOL    HW212324   4.652   0.971   0.890
 3809SOL     OW12325   5.136   2.927   1.316
 3809SOL    HW112326   5.116   3.014   1.361
 3809SOL    HW212327   5.143   2.855   1.385
 3810SOL     OW12328   4.524   2.380   3.603
 3810SOL    HW112329   4.430   2.387   3.638
 3810SOL    HW212330   4.539   2.452   3.535
 3811SOL     OW12331   1.125   4.510   4.383
 3811SOL    HW112332   1.148   4.438   4.317
 3811SOL    HW212333   1.154   4.482   4.474
 3812SOL     OW12334   5.114   5.985   4.813
 3812SOL    HW112335   5.164   5.903   4.840
 3812SOL    HW212336   5.092   6.039   4.895
 3813SOL     OW12337   4.573   3.938   0.907
 3813SOL    HW112338   4.564   3.986   0.820
 3813SOL    HW212339   4.564   3.840   0.893
 3814SOL     OW12340   0.186   0.169   6.829
 3814SOL    HW112341   0.203   0.256   6.784
 3814SOL    HW212342   0.272   0.118   6.838
 3815SOL     OW12343   4.588   2.327   0.525
 3815SOL    HW112344   4.627   2.240   0.495
 3815SOL    HW212345   4.526   2.311   0.602
 3816SOL     OW12346   1.050   6.030   0.311
 3816SOL    HW112347   1.143   6.041   0.346
 3816SOL    HW212348   1.029   6.105   0.248
 3817SOL     OW12349   5.054   4.072   2.550
 3817SOL    HW112350   5.082   4.156   2.597
 3817SOL    HW212351   5.011   4.096   2.463
 3818SOL     OW12352   6.368   0.892   6.553
 3818SOL    HW112353   6.303   0.943   6.496
 3818SOL    HW212354   6.446   0.951   6.575
 3819SOL     OW12355   5.147   5.074   1.978
 3819SOL    HW112356   5.183   4.981   1.972
 3819SOL    HW212357   5.079   5.079   2.051
 3820SOL     OW12358   5.174   6.793   3.825
 3820SOL    HW112359   5.120   6.839   3.754
 3820SOL    HW212360   5.246   6.738   3.781
 3821SOL     OW12361   2.236   1.447   1.238
 3821SOL    HW112362   2.243   1.418   1.143
 3821SOL    HW212363   2.140   1.461   1.262
 3822SOL     OW12364   2.038   0.520   1.206
 3822SOL    HW112365   2.032   0.619   1.223
 3822SOL    HW212366   2.075   0.475   1.287
 3823SOL     OW12367   3.514   3.261   5.858
 3823SOL    HW112368   3.605   3.267   5.818
 3823SOL    HW212369   3.453   3.326   5.813
 3824SOL     OW12370   6.572   2.108   0.670
 3824SOL    HW112371   6.587   2.178   0.600
 3824SOL    HW212372   6.641   2.118   0.741
 3825SOL     OW12373   0.648   5.969   0.654
 3825SOL    HW112374   0.702   5.899   0.701
 3825SOL    HW212375   0.564   5.987   0.706
 3826SOL     OW12376   0.986   2.893   6.405
 3826SOL    HW112377   1.075   2.850   6.388
 3826SOL    HW212378   0.990   2.989   6.375
 3827SOL     OW12379   2.078   1.937   1.970
 3827SOL    HW112380   2.091   2.034   1.991
 3827SOL    HW212381   2.166   1.892   1.965
 3828SOL     OW12382   3.935   2.953   2.026
 3828SOL    HW112383   3.893   2.894   2.096
 3828SOL    HW212384   3.920   3.049   2.050
 3829SOL     OW12385   1.631   4.634   3.567
 3829SOL    HW112386   1.680   4.691   3.633
 3829SOL    HW212387   1.654   4.538   3.582
 3830SOL     OW12388   0.644   1.612   4.429
 3830SOL    HW112389   0.683   1.683   4.487
 3830SOL    HW212390   0.548   1.599   4.453
 3831SOL     OW12391   4.670   2.257   1.730
 3831SOL    HW112392   4.683   2.315   1.649
 3831SOL    HW212393   4.727   2.175   1.721
 3832SOL     OW12394   5.732   1.041   2.561
 3832SOL    HW112395   5.797   1.107   2.598
 3832SOL    HW212396   5.642   1.084   2.550
 3833SOL     OW12397   0.707   6.281   5.897
 3833SOL    HW112398   0.769   6.214   5.858
 3833SOL    HW212399   0.617   6.273   5.854
 3834SOL     OW12400   4.812   4.000   2.143
 3834SOL    HW112401   4.821   4.027   2.047
 3834SOL    HW212402   4.728   4.039   2.181
 3835SOL     OW12403   3.623   5.615   4.453
 3835SOL    HW112404   3.557   5.550   4.490
 3835SOL    HW212405   3.624   5.698   4.508
 3836SOL     OW12406   1.752   4.210   6.126
 3836SOL    HW112407   1.757   4.302   6.088
 3836SOL    HW212408   1.674   4.204   6.189
 3837SOL     OW12409   4.724   5.003   6.364
 3837SOL    HW112410   4.667   5.083   6.383
 3837SOL    HW212411   4.675   4.940   6.304
 3838SOL     OW12412   6.991   3.991   4.645
 3838SOL    HW112413   6.972   4.069   4.585
 3838SOL    HW212414   0.004   4.024   4.731
 3839SOL     OW12415   4.642   0.768   3.288
 3839SOL    HW112416   4.647   0.710   3.207
 3839SOL    HW212417   4.573   0.839   3.275
 3840SOL     OW12418   2.212   0.672   5.800
 3840SOL    HW112419   2.252   0.742   5.741
 3840SOL    HW212420   2.195   0.710   5.891
 3841SOL     OW12421   0.227   3.046   5.305
 3841SOL    HW112422   0.221   3.121   5.371
 3841SOL    HW212423   0.246   2.961   5.354
 3842SOL     OW12424   1.778   3.396   6.742
 3842SOL    HW112425   1.785   3.419   6.645
 3842SOL    HW212426   1.772   3.297   6.752
 3843SOL     OW12427   6.276   4.244   2.734
 3843SOL    HW112428   6.226   4.280   2.656
 3843SOL    HW212429   6.247   4.290   2.817
 3844SOL     OW12430   0.928   2.391   6.144
 3844SOL    HW112431   0.843   2.443   6.132
 3844SOL    HW212432   0.945   2.336   6.062
 3845SOL     OW12433   3.814   3.624   4.402
 3845SOL    HW112434   3.870   3.685   4.345
 3845SOL    HW212435   3.739   3.677   4.443
 3846SOL     OW12436   0.706   5.541   3.822
 3846SOL    HW112437   0.701   5.493   3.909
 3846SOL    HW212438   0.622   5.526   3.770
 3847SOL     OW12439   6.318   0.932   4.383
 3847SOL    HW112440   6.406   0.976   4.362
 3847SOL    HW212441   6.318   0.901   4.478
 3848SOL     OW12442   3.339   5.583   3.074
 3848SOL    HW112443   3.304   5.531   2.995
 3848SOL    HW212444   3.420   5.537   3.111
 3849SOL     OW12445   1.433   1.377   5.487
 3849SOL    HW112446   1.388   1.378   5.577
 3849SOL    HW212447   1.531   1.390   5.499
 3850SOL     OW12448   2.618   3.228   0.864
 3850SOL    HW112449   2.637   3.171   0.783
 3850SOL    HW212450   2.673   3.196   0.941
 3851SOL     OW12451   1.819   4.522   2.840
 3851SOL    HW112452   1.874   4.496   2.761
 3851SOL    HW212453   1.756   4.596   2.814
 3852SOL     OW12454   4.345   6.943   3.798
 3852SOL    HW112455   4.327   6.889   3.716
 3852SOL    HW212456   4.327   6.887   3.879
 3853SOL     OW12457   0.912   3.570   3.052
 3853SOL    HW112458   0.910   3.630   3.132
 3853SOL    HW212459   0.912   3.475   3.081
 3854SOL     OW12460   1.422   3.155   2.180
 3854SOL    HW112461   1.413   3.174   2.082
 3854SOL    HW212462   1.504   3.201   2.215
 3855SOL     OW12463   5.393   6.231   6.616
 3855SOL    HW112464   5.420   6.186   6.531
 3855SOL    HW212465   5.372   6.327   6.598
 3856SOL     OW12466   7.005   6.430   5.356
 3856SOL    HW112467   7.005   6.411   5.454
 3856SOL    HW212468   6.911   6.430   5.322
 3857SOL     OW12469   0.567   5.521   6.128
 3857SOL    HW112470   0.579   5.474   6.041
 3857SOL    HW212471   0.561   5.620   6.112
 3858SOL     OW12472   1.619   6.916   5.685
 3858SOL    HW112473   1.622   7.008   5.645
 3858SOL    HW212474   1.566   6.918   5.770
 3859SOL     OW12475   6.540   2.107   3.339
 3859SOL    HW112476   6.489   2.116   3.424
 3859SOL    HW212477   6.545   2.195   3.294
 3860SOL     OW12478   2.305   0.448   5.645
 3860SOL    HW112479   2.210   0.463   5.672
 3860SOL    HW212480   2.358   0.418   5.724
 3861SOL     OW12481   4.534   4.389   3.407
 3861SOL    HW112482   4.611   4.326   3.395
 3861SOL    HW212483   4.450   4.337   3.421
 3862SOL     OW12484   1.308   0.274   4.708
 3862SOL    HW112485   1.274   0.275   4.614
 3862SOL    HW212486   1.298   0.364   4.749
 3863SOL     OW12487   4.087   2.898   5.874
 3863SOL    HW112488   4.112   2.995   5.876
 3863SOL    HW212489   4.123   2.853   5.956
 3864SOL     OW12490   2.540   0.650   5.710
 3864SOL    HW112491   2.481   0.699   5.646
 3864SOL    HW212492   2.487   0.578   5.755
 3865SOL     OW12493   3.469   6.598   0.244
 3865SOL    HW112494   3.443   6.573   0.150
 3865SOL    HW212495   3.453   6.520   0.305
 3866SOL     OW12496   4.095   1.264   1.880
 3866SOL    HW112497   4.101   1.180   1.825
 3866SOL    HW212498   4.061   1.338   1.822
 3867SOL     OW12499   1.368   4.244   3.989
 3867SOL    HW112500   1.419   4.180   3.932
 3867SOL    HW212501   1.388   4.337   3.960
 3868SOL     OW12502   3.462   0.009   0.407
 3868SOL    HW112503   3.460   6.982   0.323
 3868SOL    HW212504   3.372   0.052   0.421
 3869SOL     OW12505   6.437   3.329   5.479
 3869SOL    HW112506   6.416   3.424   5.502
 3869SOL    HW212507   6.474   3.325   5.386
 3870SOL     OW12508   4.488   5.400   0.344
 3870SOL    HW112509   4.468   5.318   0.398
 3870SOL    HW212510   4.431   5.400   0.261
 3871SOL     OW12511   3.992   0.279   2.708
 3871SOL    HW112512   4.048   0.355   2.675
 3871SOL    HW212513   4.046   0.222   2.770
 3872SOL     OW12514   3.793   3.292   2.523
 3872SOL    HW112515   3.760   3.260   2.434
 3872SOL    HW212516   3.867   3.231   2.555
 3873SOL     OW12517   6.554   4.002   1.320
 3873SOL    HW112518   6.650   4.023   1.338
 3873SOL    HW212519   6.524   4.050   1.237
 3874SOL     OW12520   3.850   5.817   6.346
 3874SOL    HW112521   3.822   5.913   6.344
 3874SOL    HW212522   3.792   5.767   6.410
 3875SOL     OW12523   1.537   2.884   1.580
 3875SOL    HW112524   1.460   2.863   1.640
 3875SOL    HW212525   1.623   2.859   1.625
 3876SOL     OW12526   5.962   4.716   0.583
 3876SOL    HW112527   6.012   4.637   0.548
 3876SOL    HW212528   5.910   4.758   0.508
 3877SOL     OW12529   6.872   2.737   0.135
 3877SOL    HW112530   6.925   2.756   0.217
 3877SOL    HW212531   6.933   2.731   0.056
 3878SOL     OW12532   2.351   6.495   5.007
 3878SOL    HW112533   2.257   6.518   5.033
 3878SOL    HW212534   2.351   6.414   4.948
 3879SOL     OW12535   5.235   6.976   1.498
 3879SOL    HW112536   5.248   6.899   1.560
 3879SOL    HW212537   5.221   0.033   1.551
 3880SOL     OW12538   6.254   4.924   3.491
 3880SOL    HW112539   6.249   4.840   3.437
 3880SOL    HW212540   6.225   4.904   3.585
 3881SOL     OW12541   1.162   4.705   1.034
 3881SOL    HW112542   1.108   4.719   1.117
 3881SOL    HW212543   1.118   4.752   0.957
 3882SOL     OW12544   6.484   1.590   4.565
 3882SOL    HW112545   6.498   1.567   4.469
 3882SOL    HW212546   6.386   1.582   4.587
 3883SOL     OW12547   4.643   1.558   3.583
 3883SOL    HW112548   4.710   1.516   3.522
 3883SOL    HW212549   4.567   1.494   3.597
 3884SOL     OW12550   1.036   5.739   3.749
 3884SOL    HW112551   0.972   5.802   3.704
 3884SOL    HW212552   0.994   5.704   3.833
 3885SOL     OW12553   6.274   0.661   3.551
 3885SOL    HW112554   6.254   0.742   3.606
 3885SOL    HW212555   6.214   0.586   3.579
 3886SOL     OW12556   6.493   5.436   5.197
 3886SOL    HW112557   6.537   5.352   5.165
 3886SOL    HW212558   6.451   5.483   5.119
 3887SOL     OW12559   5.803   0.956   5.275
 3887SOL    HW112560   5.777   0.919   5.186
 3887SOL    HW212561   5.792   1.055   5.274
 3888SOL     OW12562   0.862   0.648   6.643
 3888SOL    HW112563   0.807   0.568   6.667
 3888SOL    HW212564   0.833   0.727   6.697
 3889SOL     OW12565   6.881   2.675   6.691
 3889SOL    HW112566   6.938   2.744   6.648
 3889SOL    HW212567   6.785   2.693   6.670
 3890SOL     OW12568   5.826   5.668   2.581
 3890SOL    HW112569   5.762   5.591   2.583
 3890SOL    HW212570   5.918   5.635   2.599
 3891SOL     OW12571   5.420   4.968   4.152
 3891SOL    HW112572   5.354   4.915   4.099
 3891SOL    HW212573   5.401   4.956   4.250
 3892SOL     OW12574   0.275   2.259   2.163
 3892SOL    HW112575   0.269   2.200   2.244
 3892SOL    HW212576   0.281   2.354   2.192
 3893SOL     OW12577   2.786   5.500   1.679
 3893SOL    HW112578   2.823   5.519   1.770
 3893SOL    HW212579   2.759   5.404   1.673
 3894SOL     OW12580   2.712   2.105   0.877
 3894SOL    HW112581   2.761   2.079   0.795
 3894SOL    HW212582   2.775   2.108   0.955
 3895SOL     OW12583   1.561   0.056   5.358
 3895SOL    HW112584   1.541   6.986   5.346
 3895SOL    HW212585   1.531   0.107   5.277
 3896SOL     OW12586   0.236   2.091   6.395
 3896SOL    HW112587   0.230   2.003   6.348
 3896SOL    HW212588   0.202   2.081   6.489
 3897SOL     OW12589   3.528   0.013   1.862
 3897SOL    HW112590   3.470   0.093   1.876
 3897SOL    HW212591   3.593   0.006   1.938
 3898SOL     OW12592   3.445   3.829   3.746
 3898SOL    HW112593   3.415   3.838   3.841
 3898SOL    HW212594   3.478   3.736   3.730
 3899SOL     OW12595   4.684   0.672   4.252
 3899SOL    HW112596   4.625   0.748   4.282
 3899SOL    HW212597   4.711   0.687   4.157
 3900SOL     OW12598   4.978   2.860   2.967
 3900SOL    HW112599   5.036   2.839   3.046
 3900SOL    HW212600   4.882   2.844   2.990
 3901SOL     OW12601   2.764   6.596   5.822
 3901SOL    HW112602   2.829   6.523   5.844
 3901SOL    HW212603   2.771   6.669   5.890
 3902SOL     OW12604   5.971   3.654   1.906
 3902SOL    HW112605   6.029   3.639   1.985
 3902SOL    HW212606   6.013   3.722   1.846
 3903SOL     OW12607   4.923   4.087   6.539
 3903SOL    HW112608   4.971   4.019   6.594
 3903SOL    HW212609   4.860   4.041   6.476
 3904SOL     OW12610   2.257   0.010   6.084
 3904SOL    HW112611   2.281   0.069   6.007
 3904SOL    HW212612   2.210   6.955   6.051
 3905SOL     OW12613   5.632   6.710   6.339
 3905SOL    HW112614   5.637   6.681   6.435
 3905SOL    HW212615   5.723   6.739   6.309
 3906SOL     OW12616   1.752   4.897   5.578
 3906SOL    HW112617   1.846   4.909   5.546
 3906SOL    HW212618   1.736   4.801   5.600
 3907SOL     OW12619   6.306   0.738   4.159
 3907SOL    HW112620   6.368   0.659   4.158
 3907SOL    HW212621   6.352   0.815   4.203
 3908SOL     OW12622   1.586   1.202   6.909
 3908SOL    HW112623   1.514   1.263   6.877
 3908SOL    HW212624   1.675   1.245   6.894
 3909SOL     OW12625   0.196   4.612   6.565
 3909SOL    HW112626   0.217   4.524   6.607
 3909SOL    HW212627   0.101   4.637   6.585
 3910SOL     OW12628   3.441   3.785   1.950
 3910SOL    HW112629   3.518   3.725   1.928
 3910SOL    HW212630   3.356   3.732   1.947
 3911SOL     OW12631   5.237   1.354   0.251
 3911SOL    HW112632   5.302   1.279   0.240
 3911SOL    HW212633   5.197   1.351   0.343
 3912SOL     OW12634   3.749   0.831   6.182
 3912SOL    HW112635   3.771   0.805   6.276
 3912SOL    HW212636   3.699   0.918   6.183
 3913SOL     OW12637   2.728   6.509   6.959
 3913SOL    HW112638   2.767   6.444   6.895
 3913SOL    HW212639   2.633   6.527   6.935
 3914SOL     OW12640   4.924   0.976   1.208
 3914SOL    HW112641   4.907   1.040   1.282
 3914SOL    HW212642   4.847   0.912   1.201
 3915SOL     OW12643   4.579   6.529   0.314
 3915SOL    HW112644   4.586   6.506   0.217
 3915SOL    HW212645   4.617   6.620   0.330
 3916SOL     OW12646   2.250   6.764   2.699
 3916SOL    HW112647   2.242   6.792   2.603
 3916SOL    HW212648   2.233   6.842   2.759
 3917SOL     OW12649   1.232   4.173   1.739
 3917SOL    HW112650   1.318   4.139   1.777
 3917SOL    HW212651   1.244   4.188   1.641
 3918SOL     OW12652   3.747   6.399   1.379
 3918SOL    HW112653   3.656   6.442   1.380
 3918SOL    HW212654   3.769   6.367   1.471
 3919SOL     OW12655   3.323   0.295   6.782
 3919SOL    HW112656   3.344   0.205   6.819
 3919SOL    HW212657   3.236   0.328   6.820
 3920SOL     OW12658   3.133   0.843   6.431
 3920SOL    HW112659   3.047   0.795   6.447
 3920SOL    HW212660   3.145   0.914   6.501
 3921SOL     OW12661   0.120   2.193   0.110
 3921SOL    HW112662   0.113   2.220   0.014
 3921SOL    HW212663   0.216   2.187   0.136
 3922SOL     OW12664   4.419   5.168   1.544
 3922SOL    HW112665   4.507   5.214   1.552
 3922SOL    HW212666   4.383   5.182   1.452
 3923SOL     OW12667   5.900   2.042   0.522
 3923SOL    HW112668   5.816   2.095   0.527
 3923SOL    HW212669   5.908   2.000   0.432
 3924SOL     OW12670   0.626   5.259   2.844
 3924SOL    HW112671   0.628   5.353   2.878
 3924SOL    HW212672   0.595   5.197   2.916
 3925SOL     OW12673   4.320   4.559   1.048
 3925SOL    HW112674   4.399   4.554   1.110
 3925SOL    HW212675   4.249   4.497   1.080
 3926SOL     OW12676   0.306   0.114   4.914
 3926SOL    HW112677   0.359   0.050   4.857
 3926SOL    HW212678   0.348   0.205   4.908
 3927SOL     OW12679   6.982   2.469   4.880
 3927SOL    HW112680   6.926   2.470   4.798
 3927SOL    HW212681   0.046   2.432   4.859
 3928SOL     OW12682   3.260   5.714   3.518
 3928SOL    HW112683   3.280   5.774   3.596
 3928SOL    HW212684   3.164   5.686   3.522
 3929SOL     OW12685   0.018   1.687   6.423
 3929SOL    HW112686   0.037   1.712   6.518
 3929SOL    HW212687   6.966   1.626   6.419
 3930SOL     OW12688   1.114   2.102   3.722
 3930SOL    HW112689   1.038   2.104   3.656
 3930SOL    HW212690   1.092   2.038   3.795
 3931SOL     OW12691   1.798   1.684   2.132
 3931SOL    HW112692   1.792   1.769   2.185
 3931SOL    HW212693   1.865   1.623   2.174
 3932SOL     OW12694   2.025   4.679   3.843
 3932SOL    HW112695   2.050   4.776   3.838
 3932SOL    HW212696   1.928   4.669   3.819
 3933SOL     OW12697   1.715   6.695   0.220
 3933SOL    HW112698   1.754   6.649   0.300
 3933SOL    HW212699   1.750   6.789   0.215
 3934SOL     OW12700   6.707   1.325   2.845
 3934SOL    HW112701   6.626   1.304   2.900
 3934SOL    HW212702   6.747   1.411   2.876
 3935SOL     OW12703   1.263   1.378   5.735
 3935SOL    HW112704   1.322   1.424   5.801
 3935SOL    HW212705   1.179   1.431   5.724
 3936SOL     OW12706   0.023   5.959   5.106
 3936SOL    HW112707   0.044   5.869   5.145
 3936SOL    HW212708   0.047   6.030   5.172
 3937SOL     OW12709   6.624   6.289   2.139
 3937SOL    HW112710   6.641   6.387   2.138
 3937SOL    HW212711   6.706   6.240   2.109
 3938SOL     OW12712   6.192   4.217   4.281
 3938SOL    HW112713   6.211   4.227   4.379
 3938SOL    HW212714   6.254   4.276   4.229
 3939SOL     OW12715   2.783   1.660   3.156
 3939SOL    HW112716   2.768   1.754   3.126
 3939SOL    HW212717   2.845   1.660   3.234
 3940SOL     OW12718   2.955   4.714   1.662
 3940SOL    HW112719   3.041   4.663   1.657
 3940SOL    HW212720   2.887   4.661   1.713
 3941SOL     OW12721   5.798   0.054   4.707
 3941SOL    HW112722   5.885   0.016   4.677
 3941SOL    HW212723   5.724   7.018   4.683
 3942SOL     OW12724   0.584   6.252   5.597
 3942SOL    HW112725   0.560   6.344   5.565
 3942SOL    HW212726   0.500   6.198   5.609
 3943SOL     OW12727   0.770   3.160   2.399
 3943SOL    HW112728   0.768   3.228   2.473
 3943SOL    HW212729   0.849   3.099   2.412
 3944SOL     OW12730   5.937   3.981   6.185
 3944SOL    HW112731   5.932   4.058   6.121
 3944SOL    HW212732   5.848   3.936   6.190
 3945SOL     OW12733   1.247   2.404   3.143
 3945SOL    HW112734   1.318   2.385   3.075
 3945SOL    HW212735   1.173   2.455   3.099
 3946SOL     OW12736   0.192   3.816   6.732
 3946SOL    HW112737   0.187   3.719   6.756
 3946SOL    HW212738   0.228   3.868   6.809
 3947SOL     OW12739   6.009   5.216   0.669
 3947SOL    HW112740   6.030   5.303   0.713
 3947SOL    HW212741   5.956   5.159   0.732
 3948SOL     OW12742   1.590   3.733   0.057
 3948SOL    HW112743   1.583   3.658   0.123
 3948SOL    HW212744   1.611   3.696   6.993
 3949SOL     OW12745   6.839   0.083   3.835
 3949SOL    HW112746   6.785   0.051   3.757
 3949SOL    HW212747   6.816   0.178   3.855
 3950SOL     OW12748   3.921   4.071   1.687
 3950SOL    HW112749   3.910   4.023   1.600
 3950SOL    HW212750   4.002   4.036   1.734
 3951SOL     OW12751   0.510   1.358   0.016
 3951SOL    HW112752   0.423   1.353   0.065
 3951SOL    HW212753   0.569   1.283   0.043
 3952SOL     OW12754   6.247   3.284   4.230
 3952SOL    HW112755   6.157   3.302   4.190
 3952SOL    HW212756   6.236   3.256   4.325
 3953SOL     OW12757   3.697   3.844   6.608
 3953SOL    HW112758   3.657   3.794   6.531
 3953SOL    HW212759   3.690   3.788   6.691
 3954SOL     OW12760   5.683   5.030   5.493
 3954SOL    HW112761   5.604   5.087   5.471
 3954SOL    HW212762   5.760   5.057   5.436
 3955SOL     OW12763   5.111   6.664   0.103
 3955SOL    HW112764   5.087   6.751   0.147
 3955SOL    HW212765   5.207   6.666   0.076
 3956SOL     OW12766   0.926   2.225   4.953
 3956SOL    HW112767   0.933   2.293   5.026
 3956SOL    HW212768   0.831   2.200   4.939
 3957SOL     OW12769   3.750   6.441   3.218
 3957SOL    HW112770   3.772   6.343   3.211
 3957SOL    HW212771   3.832   6.495   3.203
 3958SOL     OW12772   6.395   6.274   6.651
 3958SOL    HW112773   6.449   6.357   6.668
 3958SOL    HW212774   6.301   6.300   6.627
 3959SOL     OW12775   3.495   6.513   1.376
 3959SOL    HW112776   3.451   6.452   1.441
 3959SOL    HW212777   3.426   6.557   1.319
 3960SOL     OW12778   5.763   2.662   5.868
 3960SOL    HW112779   5.809   2.579   5.898
 3960SOL    HW212780   5.829   2.737   5.865
 3961SOL     OW12781   5.259   1.835   1.772
 3961SOL    HW112782   5.268   1.864   1.867
 3961SOL    HW212783   5.258   1.735   1.767
 3962SOL     OW12784   0.672   5.972   6.918
 3962SOL    HW112785   0.758   5.937   6.955
 3962SOL    HW212786   0.602   5.901   6.920
 3963SOL     OW12787   5.310   5.194   3.532
 3963SOL    HW112788   5.220   5.154   3.513
 3963SOL    HW212789   5.305   5.294   3.521
 3964SOL     OW12790   4.080   4.856   4.810
 3964SOL    HW112791   4.164   4.803   4.799
 3964SOL    HW212792   4.021   4.810   4.876
 3965SOL     OW12793   3.732   4.576   6.279
 3965SOL    HW112794   3.677   4.615   6.353
 3965SOL    HW212795   3.768   4.650   6.222
 3966SOL     OW12796   6.563   4.589   0.245
 3966SOL    HW112797   6.564   4.659   0.173
 3966SOL    HW212798   6.626   4.515   0.219
 3967SOL     OW12799   1.016   5.160   2.637
 3967SOL    HW112800   0.968   5.184   2.722
 3967SOL    HW212801   1.112   5.187   2.645
 3968SOL     OW12802   6.102   1.072   1.116
 3968SOL    HW112803   6.107   0.995   1.053
 3968SOL    HW212804   6.017   1.067   1.168
 3969SOL     OW12805   0.459   4.046   2.779
 3969SOL    HW112806   0.556   4.021   2.782
 3969SOL    HW212807   0.403   3.966   2.802
 3970SOL     OW12808   5.139   5.355   3.748
 3970SOL    HW112809   5.158   5.293   3.824
 3970SOL    HW212810   5.045   5.343   3.718
 3971SOL     OW12811   2.611   5.205   1.996
 3971SOL    HW112812   2.570   5.225   2.085
 3971SOL    HW212813   2.607   5.106   1.979
 3972SOL     OW12814   1.009   5.520   1.290
 3972SOL    HW112815   1.028   5.455   1.364
 3972SOL    HW212816   1.031   5.613   1.321
 3973SOL     OW12817   3.099   3.322   4.916
 3973SOL    HW112818   3.126   3.232   4.950
 3973SOL    HW212819   3.097   3.387   4.991
 3974SOL     OW12820   1.044   0.353   5.646
 3974SOL    HW112821   0.947   0.327   5.655
 3974SOL    HW212822   1.092   0.286   5.590
 3975SOL     OW12823   5.930   0.294   6.031
 3975SOL    HW112824   6.011   0.282   5.974
 3975SOL    HW212825   5.901   0.205   6.066
 3976SOL     OW12826   1.495   5.085   0.957
 3976SOL    HW112827   1.577   5.057   1.007
 3976SOL    HW212828   1.519   5.154   0.889
 3977SOL     OW12829   3.218   4.841   6.049
 3977SOL    HW112830   3.239   4.913   5.983
 3977SOL    HW212831   3.155   4.775   6.007
 3978SOL     OW12832   5.215   6.969   4.429
 3978SOL    HW112833   5.163   7.020   4.497
 3978SOL    HW212834   5.215   7.019   4.342
 3979SOL     OW12835   2.182   6.153   1.488
 3979SOL    HW112836   2.233   6.080   1.442
 3979SOL    HW212837   2.245   6.209   1.542
 3980SOL     OW12838   6.892   4.505   5.756
 3980SOL    HW112839   6.874   4.566   5.833
 3980SOL    HW212840   6.981   4.462   5.767
 3981SOL     OW12841   1.144   1.985   6.174
 3981SOL    HW112842   1.155   1.888   6.197
 3981SOL    HW212843   1.234   2.029   6.172
 3982SOL     OW12844   2.939   0.497   4.177
 3982SOL    HW112845   2.875   0.549   4.120
 3982SOL    HW212846   2.963   0.551   4.258
 3983SOL     OW12847   3.353   5.912   4.234
 3983SOL    HW112848   3.362   5.827   4.182
 3983SOL    HW212849   3.429   5.920   4.298
 3984SOL     OW12850   2.374   0.817   2.010
 3984SOL    HW112851   2.461   0.849   1.974
 3984SOL    HW212852   2.305   0.889   1.998
 3985SOL     OW12853   2.487   4.182   0.111
 3985SOL    HW112854   2.501   4.277   0.085
 3985SOL    HW212855   2.573   4.131   0.097
 3986SOL     OW12856   0.557   1.957   3.397
 3986SOL    HW112857   0.473   2.010   3.383
 3986SOL    HW212858   0.534   1.860   3.405
 3987SOL     OW12859   1.241   5.172   4.757
 3987SOL    HW112860   1.239   5.181   4.856
 3987SOL    HW212861   1.331   5.197   4.722
 3988SOL     OW12862   3.818   2.015   5.561
 3988SOL    HW112863   3.818   1.941   5.627
 3988SOL    HW212864   3.787   1.981   5.472
 3989SOL     OW12865   5.963   0.860   6.540
 3989SOL    HW112866   5.946   0.761   6.539
 3989SOL    HW212867   5.882   0.907   6.576
 3990SOL     OW12868   6.042   1.702   3.852
 3990SOL    HW112869   6.031   1.605   3.829
 3990SOL    HW212870   6.111   1.712   3.924
 3991SOL     OW12871   6.444   2.417   3.704
 3991SOL    HW112872   6.353   2.425   3.663
 3991SOL    HW212873   6.488   2.334   3.670
 3992SOL     OW12874   4.610   1.703   6.253
 3992SOL    HW112875   4.626   1.661   6.342
 3992SOL    HW212876   4.686   1.764   6.231
 3993SOL     OW12877   2.024   1.596   3.791
 3993SOL    HW112878   1.930   1.628   3.805
 3993SOL    HW212879   2.034   1.564   3.696
 3994SOL     OW12880   1.628   2.477   4.718
 3994SOL    HW112881   1.588   2.415   4.785
 3994SOL    HW212882   1.597   2.451   4.626
 3995SOL     OW12883   2.404   4.367   3.954
 3995SOL    HW112884   2.485   4.424   3.943
 3995SOL    HW212885   2.380   4.326   3.866
 3996SOL     OW12886   1.459   0.687   4.989
 3996SOL    HW112887   1.455   0.773   5.040
 3996SOL    HW212888   1.450   0.706   4.891
 3997SOL     OW12889   4.881   3.498   3.711
 3997SOL    HW112890   4.782   3.493   3.725
 3997SOL    HW212891   4.912   3.592   3.721
 3998SOL     OW12892   5.252   1.575   2.336
 3998SOL    HW112893   5.158   1.573   2.369
 3998SOL    HW212894   5.310   1.523   2.398
 3999SOL     OW12895   5.688   3.889   3.037
 3999SOL    HW112896   5.781   3.857   3.051
 3999SOL    HW212897   5.628   3.852   3.108
 4000SOL     OW12898   3.287   5.646   2.670
 4000SOL    HW112899   3.234   5.638   2.586
 4000SOL    HW212900   3.380   5.677   2.648
 4001SOL     OW12901   2.463   2.549   4.753
 4001SOL    HW112902   2.420   2.464   4.724
 4001SOL    HW212903   2.428   2.625   4.697
 4002SOL     OW12904   3.610   3.706   6.376
 4002SOL    HW112905   3.635   3.610   6.389
 4002SOL    HW212906   3.605   3.726   6.278
 4003SOL     OW12907   2.513   0.556   6.096
 4003SOL    HW112908   2.419   0.568   6.129
 4003SOL    HW212909   2.559   0.644   6.094
 4004SOL     OW12910   5.976   3.329   4.146
 4004SOL    HW112911   5.960   3.413   4.094
 4004SOL    HW212912   5.899   3.267   4.133
 4005SOL     OW12913   4.969   4.962   1.377
 4005SOL    HW112914   5.054   4.987   1.423
 4005SOL    HW212915   4.981   4.874   1.330
 4006SOL     OW12916   4.378   4.893   2.262
 4006SOL    HW112917   4.334   4.931   2.343
 4006SOL    HW212918   4.477   4.903   2.270
 4007SOL     OW12919   0.796   2.745   2.204
 4007SOL    HW112920   0.834   2.700   2.123
 4007SOL    HW212921   0.756   2.833   2.179
 4008SOL     OW12922   3.881   1.385   5.644
 4008SOL    HW112923   3.923   1.374   5.554
 4008SOL    HW212924   3.950   1.367   5.715
 4009SOL     OW12925   4.385   2.695   0.541
 4009SOL    HW112926   4.453   2.696   0.468
 4009SOL    HW212927   4.430   2.707   0.630
 4010SOL     OW12928   2.203   3.282   1.500
 4010SOL    HW112929   2.283   3.224   1.518
 4010SOL    HW212930   2.183   3.282   1.402
 4011SOL     OW12931   1.126   6.869   2.326
 4011SOL    HW112932   1.079   6.916   2.252
 4011SOL    HW212933   1.061   6.849   2.399
 4012SOL     OW12934   4.468   5.254   2.160
 4012SOL    HW112935   4.449   5.314   2.237
 4012SOL    HW212936   4.388   5.199   2.139
 4013SOL     OW12937   3.134   0.631   0.794
 4013SOL    HW112938   3.092   0.715   0.829
 4013SOL    HW212939   3.063   0.563   0.777
 4014SOL     OW12940   3.939   5.623   4.119
 4014SOL    HW112941   3.850   5.587   4.147
 4014SOL    HW212942   3.970   5.692   4.184
 4015SOL     OW12943   4.106   4.670   6.425
 4015SOL    HW112944   4.086   4.648   6.329
 4015SOL    HW212945   4.035   4.731   6.461
 4016SOL     OW12946   1.657   5.095   6.947
 4016SOL    HW112947   1.693   5.185   6.971
 4016SOL    HW212948   1.559   5.100   6.933
 4017SOL     OW12949   0.504   6.106   6.714
 4017SOL    HW112950   0.509   6.063   6.623
 4017SOL    HW212951   0.566   6.058   6.776
 4018SOL     OW12952   5.444   6.309   1.342
 4018SOL    HW112953   5.535   6.269   1.353
 4018SOL    HW212954   5.445   6.374   1.265
 4019SOL     OW12955   6.406   3.950   2.670
 4019SOL    HW112956   6.451   4.039   2.678
 4019SOL    HW212957   6.369   3.923   2.759
 4020SOL     OW12958   0.386   2.683   5.774
 4020SOL    HW112959   0.475   2.649   5.804
 4020SOL    HW212960   0.334   2.609   5.732
 4021SOL     OW12961   2.917   3.682   4.979
 4021SOL    HW112962   2.839   3.625   5.005
 4021SOL    HW212963   2.938   3.668   4.883
 4022SOL     OW12964   4.682   6.901   6.525
 4022SOL    HW112965   4.707   6.826   6.464
 4022SOL    HW212966   4.750   6.910   6.598
 4023SOL     OW12967   6.785   0.775   4.037
 4023SOL    HW112968   6.705   0.749   3.983
 4023SOL    HW212969   6.844   0.696   4.049
 4024SOL     OW12970   2.132   5.444   4.573
 4024SOL    HW112971   2.135   5.381   4.651
 4024SOL    HW212972   2.059   5.417   4.511
 4025SOL     OW12973   0.422   6.415   4.365
 4025SOL    HW112974   0.362   6.341   4.394
 4025SOL    HW212975   0.512   6.405   4.408
 4026SOL     OW12976   6.298   0.137   3.072
 4026SOL    HW112977   6.279   0.156   2.976
 4026SOL    HW212978   6.328   0.042   3.082
 4027SOL     OW12979   3.057   2.566   0.860
 4027SOL    HW112980   3.100   2.607   0.780
 4027SOL    HW212981   2.962   2.544   0.839
 4028SOL     OW12982   2.728   2.347   3.014
 4028SOL    HW112983   2.639   2.355   2.969
 4028SOL    HW212984   2.799   2.341   2.944
 4029SOL     OW12985   3.157   4.883   5.718
 4029SOL    HW112986   3.160   4.917   5.624
 4029SOL    HW212987   3.176   4.784   5.718
 4030SOL     OW12988   1.294   1.624   1.648
 4030SOL    HW112989   1.362   1.671   1.704
 4030SOL    HW212990   1.286   1.669   1.559
 4031SOL     OW12991   4.901   6.168   3.519
 4031SOL    HW112992   4.929   6.247   3.574
 4031SOL    HW212993   4.981   6.117   3.490
 4032SOL     OW12994   6.140   0.429   2.699
 4032SOL    HW112995   6.067   0.404   2.636
 4032SOL    HW212996   6.197   0.349   2.717
 4033SOL     OW12997   2.317   3.581   1.114
 4033SOL    HW112998   2.353   3.552   1.202
 4033SOL    HW212999   2.360   3.667   1.087
 4034SOL     OW13000   6.572   1.390   4.347
 4034SOL    HW113001   6.480   1.381   4.309
 4034SOL    HW213002   6.585   1.324   4.421
 4035SOL     OW13003   6.129   2.581   0.544
 4035SOL    HW113004   6.153   2.484   0.557
 4035SOL    HW213005   6.046   2.587   0.489
 4036SOL     OW13006   4.548   5.697   2.274
 4036SOL    HW113007   4.587   5.728   2.360
 4036SOL    HW213008   4.565   5.765   2.203
 4037SOL     OW13009   2.488   1.744   0.383
 4037SOL    HW113010   2.577   1.774   0.419
 4037SOL    HW213011   2.492   1.645   0.365
 4038SOL     OW13012   4.556   3.390   1.666
 4038SOL    HW113013   4.600   3.480   1.664
 4038SOL    HW213014   4.626   3.319   1.661
 4039SOL     OW13015   4.817   4.160   1.578
 4039SOL    HW113016   4.816   4.260   1.569
 4039SOL    HW213017   4.725   4.128   1.602
 4040SOL     OW13018   3.480   6.872   6.158
 4040SOL    HW113019   3.416   6.907   6.227
 4040SOL    HW213020   3.559   6.832   6.204
 4041SOL     OW13021   1.477   4.743   1.410
 4041SOL    HW113022   1.476   4.710   1.315
 4041SOL    HW213023   1.431   4.831   1.414
 4042SOL     OW13024   6.188   5.699   3.023
 4042SOL    HW113025   6.092   5.671   3.020
 4042SOL    HW213026   6.238   5.641   3.087
 4043SOL     OW13027   5.588   1.439   4.531
 4043SOL    HW113028   5.530   1.484   4.463
 4043SOL    HW213029   5.626   1.508   4.593
 4044SOL     OW13030   4.655   0.231   3.305
 4044SOL    HW113031   4.706   0.177   3.238
 4044SOL    HW213032   4.712   0.307   3.336
 4045SOL     OW13033   2.781   5.711   5.302
 4045SOL    HW113034   2.869   5.758   5.303
 4045SOL    HW213035   2.742   5.714   5.210
 4046SOL     OW13036   1.220   1.999   4.121
 4046SOL    HW113037   1.199   2.037   4.212
 4046SOL    HW213038   1.162   1.920   4.104
 4047SOL     OW13039   1.628   1.860   0.868
 4047SOL    HW113040   1.670   1.911   0.942
 4047SOL    HW213041   1.532   1.887   0.859
 4048SOL     OW13042   5.301   1.893   2.048
 4048SOL    HW113043   5.276   1.988   2.029
 4048SOL    HW213044   5.223   1.844   2.085
 4049SOL     OW13045   5.888   5.049   6.148
 4049SOL    HW113046   5.969   5.075   6.096
 4049SOL    HW213047   5.812   5.033   6.086
 4050SOL     OW13048   1.346   6.791   1.302
 4050SOL    HW113049   1.343   6.709   1.245
 4050SOL    HW213050   1.298   6.774   1.388
 4051SOL     OW13051   3.938   1.934   6.664
 4051SOL    HW113052   4.032   1.902   6.649
 4051SOL    HW213053   3.915   2.001   6.594
 4052SOL     OW13054   6.866   1.170   2.707
 4052SOL    HW113055   6.804   1.236   2.750
 4052SOL    HW213056   6.878   1.193   2.611
 4053SOL     OW13057   3.164   5.475   4.114
 4053SOL    HW113058   3.232   5.458   4.043
 4053SOL    HW213059   3.103   5.396   4.121
 4054SOL     OW13060   6.364   3.558   1.920
 4054SOL    HW113061   6.427   3.602   1.984
 4054SOL    HW213062   6.273   3.555   1.960
 4055SOL     OW13063   3.212   3.040   6.381
 4055SOL    HW113064   3.162   3.122   6.350
 4055SOL    HW213065   3.167   2.959   6.344
 4056SOL     OW13066   3.355   4.179   0.846
 4056SOL    HW113067   3.369   4.178   0.747
 4056SOL    HW213068   3.365   4.087   0.882
 4057SOL     OW13069   5.842   2.702   1.779
 4057SOL    HW113070   5.838   2.688   1.878
 4057SOL    HW213071   5.807   2.792   1.756
 4058SOL     OW13072   2.000   0.210   4.054
 4058SOL    HW113073   2.005   0.281   3.983
 4058SOL    HW213074   1.950   0.246   4.133
 4059SOL     OW13075   1.248   2.444   3.615
 4059SOL    HW113076   1.209   2.516   3.673
 4059SOL    HW213077   1.314   2.391   3.668
 4060SOL     OW13078   5.438   5.704   4.444
 4060SOL    HW113079   5.442   5.674   4.539
 4060SOL    HW213080   5.361   5.658   4.398
 4061SOL     OW13081   3.053   4.950   1.778
 4061SOL    HW113082   3.039   4.853   1.763
 4061SOL    HW213083   3.132   4.982   1.725
 4062SOL     OW13084   2.155   2.470   2.138
 4062SOL    HW113085   2.092   2.537   2.176
 4062SOL    HW213086   2.241   2.515   2.113
 4063SOL     OW13087   6.408   5.975   5.522
 4063SOL    HW113088   6.503   5.971   5.491
 4063SOL    HW213089   6.363   5.888   5.502
 4064SOL     OW13090   1.987   6.641   3.704
 4064SOL    HW113091   1.920   6.636   3.779
 4064SOL    HW213092   1.945   6.607   3.620
 4065SOL     OW13093   0.304   0.135   0.993
 4065SOL    HW113094   0.264   0.226   0.984
 4065SOL    HW213095   0.312   0.093   0.902
 4066SOL     OW13096   5.141   6.055   3.208
 4066SOL    HW113097   5.103   6.038   3.299
 4066SOL    HW213098   5.091   6.000   3.141
 4067SOL     OW13099   6.521   3.224   3.016
 4067SOL    HW113100   6.457   3.195   2.945
 4067SOL    HW213101   6.590   3.154   3.030
 4068SOL     OW13102   3.304   0.877   4.802
 4068SOL    HW113103   3.216   0.865   4.849
 4068SOL    HW213104   3.326   0.974   4.798
 4069SOL     OW13105   3.315   5.032   5.885
 4069SOL    HW113106   3.269   4.971   5.820
 4069SOL    HW213107   3.254   5.108   5.908
 4070SOL     OW13108   0.517   3.157   2.057
 4070SOL    HW113109   0.497   3.080   1.996
 4070SOL    HW213110   0.433   3.186   2.103
 4071SOL     OW13111   1.309   0.534   5.303
 4071SOL    HW113112   1.227   0.559   5.355
 4071SOL    HW213113   1.389   0.577   5.343
 4072SOL     OW13114   0.357   5.781   4.414
 4072SOL    HW113115   0.290   5.724   4.367
 4072SOL    HW213116   0.317   5.818   4.497
 4073SOL     OW13117   2.186   6.313   6.303
 4073SOL    HW113118   2.181   6.224   6.256
 4073SOL    HW213119   2.138   6.307   6.391
 4074SOL     OW13120   6.915   2.861   2.057
 4074SOL    HW113121   6.836   2.911   2.019
 4074SOL    HW213122   6.973   2.830   1.983
 4075SOL     OW13123   4.196   1.773   2.687
 4075SOL    HW113124   4.185   1.863   2.644
 4075SOL    HW213125   4.112   1.750   2.737
 4076SOL     OW13126   3.032   3.083   5.749
 4076SOL    HW113127   3.029   3.025   5.668
 4076SOL    HW213128   3.064   3.174   5.723
 4077SOL     OW13129   3.936   0.580   0.465
 4077SOL    HW113130   4.009   0.646   0.480
 4077SOL    HW213131   3.852   0.613   0.509
 4078SOL     OW13132   6.826   5.654   2.076
 4078SOL    HW113133   6.731   5.677   2.098
 4078SOL    HW213134   6.842   5.670   1.978
 4079SOL     OW13135   0.995   2.222   4.146
 4079SOL    HW113136   1.035   2.244   4.235
 4079SOL    HW213137   1.028   2.133   4.116
 4080SOL     OW13138   2.967   3.890   6.565
 4080SOL    HW113139   3.018   3.827   6.507
 4080SOL    HW213140   2.898   3.937   6.510
 4081SOL     OW13141   2.291   1.922   4.595
 4081SOL    HW113142   2.308   2.011   4.554
 4081SOL    HW213143   2.376   1.885   4.632
 4082SOL     OW13144   1.769   3.167   0.462
 4082SOL    HW113145   1.690   3.106   0.455
 4082SOL    HW213146   1.831   3.149   0.386
 4083SOL     OW13147   6.812   4.463   1.798
 4083SOL    HW113148   6.838   4.366   1.788
 4083SOL    HW213149   6.843   4.513   1.717
 4084SOL     OW13150   4.391   2.350   3.179
 4084SOL    HW113151   4.291   2.346   3.175
 4084SOL    HW213152   4.428   2.257   3.179
 4085SOL     OW13153   2.643   5.915   0.793
 4085SOL    HW113154   2.594   5.866   0.865
 4085SOL    HW213155   2.679   5.849   0.727
 4086SOL     OW13156   0.558   5.219   1.568
 4086SOL    HW113157   0.545   5.207   1.470
 4086SOL    HW213158   0.505   5.297   1.600
 4087SOL     OW13159   1.751   1.713   3.285
 4087SOL    HW113160   1.751   1.624   3.329
 4087SOL    HW213161   1.799   1.779   3.342
 4088SOL     OW13162   6.213   0.810   6.766
 4088SOL    HW113163   6.261   0.851   6.688
 4088SOL    HW213164   6.210   0.875   6.841
 4089SOL     OW13165   5.529   4.705   3.661
 4089SOL    HW113166   5.605   4.673   3.717
 4089SOL    HW213167   5.565   4.744   3.576
 4090SOL     OW13168   1.013   4.974   5.026
 4090SOL    HW113169   1.031   4.878   5.046
 4090SOL    HW213170   1.074   5.006   4.954
 4091SOL     OW13171   0.727   6.477   6.769
 4091SOL    HW113172   0.667   6.487   6.689
 4091SOL    HW213173   0.815   6.440   6.739
 4092SOL     OW13174   5.646   2.908   4.364
 4092SOL    HW113175   5.665   2.835   4.298
 4092SOL    HW213176   5.565   2.885   4.418
 4093SOL     OW13177   4.810   6.089   2.065
 4093SOL    HW113178   4.830   6.157   2.136
 4093SOL    HW213179   4.894   6.043   2.038
 4094SOL     OW13180   1.842   5.245   5.899
 4094SOL    HW113181   1.907   5.311   5.862
 4094SOL    HW213182   1.885   5.196   5.976
 4095SOL     OW13183   0.547   4.382   0.769
 4095SOL    HW113184   0.617   4.447   0.799
 4095SOL    HW213185   0.458   4.429   0.765
 4096SOL     OW13186   4.985   0.629   6.145
 4096SOL    HW113187   4.954   0.579   6.226
 4096SOL    HW213188   4.976   0.727   6.161
 4097SOL     OW13189   3.934   4.956   4.577
 4097SOL    HW113190   3.987   4.914   4.503
 4097SOL    HW213191   3.968   4.923   4.665
 4098SOL     OW13192   0.532   2.182   1.919
 4098SOL    HW113193   0.623   2.175   1.961
 4098SOL    HW213194   0.462   2.180   1.990
 4099SOL     OW13195   3.773   5.262   1.418
 4099SOL    HW113196   3.812   5.179   1.378
 4099SOL    HW213197   3.709   5.303   1.353
 4100SOL     OW13198   6.850   6.455   4.484
 4100SOL    HW113199   6.919   6.418   4.421
 4100SOL    HW213200   6.787   6.514   4.433
 4101SOL     OW13201   6.705   0.974   0.049
 4101SOL    HW113202   6.691   0.988   6.977
 4101SOL    HW213203   6.795   1.010   0.074
 4102SOL     OW13204   0.399   1.187   0.569
 4102SOL    HW113205   0.485   1.163   0.525
 4102SOL    HW213206   0.367   1.275   0.533
 4103SOL     OW13207   0.333   6.763   0.166
 4103SOL    HW113208   0.388   6.712   0.100
 4103SOL    HW213209   0.385   6.775   0.250
 4104SOL     OW13210   6.938   5.327   3.075
 4104SOL    HW113211   6.950   5.425   3.063
 4104SOL    HW213212   6.846   5.301   3.044
 4105SOL     OW13213   5.309   0.014   2.142
 4105SOL    HW113214   5.214   7.015   2.122
 4105SOL    HW213215   5.310   0.080   2.217
 4106SOL     OW13216   6.904   3.066   2.841
 4106SOL    HW113217   6.848   3.052   2.922
 4106SOL    HW213218   6.867   3.013   2.765
 4107SOL     OW13219   1.269   5.120   1.130
 4107SOL    HW113220   1.348   5.121   1.068
 4107SOL    HW213221   1.211   5.198   1.109
 4108SOL     OW13222   6.677   5.551   4.508
 4108SOL    HW113223   6.675   5.650   4.499
 4108SOL    HW213224   6.586   5.514   4.488
 4109SOL     OW13225   6.556   6.532   4.528
 4109SOL    HW113226   6.581   6.610   4.585
 4109SOL    HW213227   6.460   6.538   4.503
 4110SOL     OW13228   4.318   3.836   5.426
 4110SOL    HW113229   4.404   3.834   5.478
 4110SOL    HW213230   4.259   3.908   5.462
 4111SOL     OW13231   5.147   4.145   6.834
 4111SOL    HW113232   5.157   4.092   6.750
 4111SOL    HW213233   5.125   4.240   6.811
 4112SOL     OW13234   4.953   6.150   4.999
 4112SOL    HW113235   4.933   6.247   4.984
 4112SOL    HW213236   4.907   6.120   5.082
 4113SOL     OW13237   5.402   5.547   5.094
 4113SOL    HW113238   5.428   5.610   5.021
 4113SOL    HW213239   5.326   5.586   5.146
 4114SOL     OW13240   4.443   2.403   4.112
 4114SOL    HW113241   4.345   2.387   4.123
 4114SOL    HW213242   4.494   2.342   4.174
 4115SOL     OW13243   3.054   5.340   2.065
 4115SOL    HW113244   3.001   5.286   2.129
 4115SOL    HW213245   3.086   5.281   1.990
 4116SOL     OW13246   3.633   1.666   2.535
 4116SOL    HW113247   3.664   1.701   2.623
 4116SOL    HW213248   3.622   1.567   2.540
 4117SOL     OW13249   1.348   3.471   2.602
 4117SOL    HW113250   1.394   3.383   2.612
 4117SOL    HW213251   1.382   3.517   2.520
 4118SOL     OW13252   4.987   6.050   0.846
 4118SOL    HW113253   4.913   6.028   0.910
 4118SOL    HW213254   5.074   6.053   0.896
 4119SOL     OW13255   3.790   1.622   4.249
 4119SOL    HW113256   3.715   1.641   4.312
 4119SOL    HW213257   3.778   1.676   4.166
 4120SOL     OW13258   4.307   0.492   6.383
 4120SOL    HW113259   4.257   0.407   6.368
 4120SOL    HW213260   4.398   0.472   6.418
 4121SOL     OW13261   6.280   0.309   4.139
 4121SOL    HW113262   6.215   0.368   4.187
 4121SOL    HW213263   6.362   0.361   4.116
 4122SOL     OW13264   1.135   6.241   4.100
 4122SOL    HW113265   1.048   6.245   4.148
 4122SOL    HW213266   1.156   6.147   4.075
 4123SOL     OW13267   4.307   4.646   5.376
 4123SOL    HW113268   4.265   4.737   5.367
 4123SOL    HW213269   4.236   4.576   5.366
 4124SOL     OW13270   6.673   6.531   0.752
 4124SOL    HW113271   6.674   6.543   0.653
 4124SOL    HW213272   6.732   6.600   0.795
 4125SOL     OW13273   4.603   1.645   2.423
 4125SOL    HW113274   4.548   1.728   2.429
 4125SOL    HW213275   4.648   1.628   2.511
 4126SOL     OW13276   2.000   3.816   3.765
 4126SOL    HW113277   1.975   3.721   3.742
 4126SOL    HW213278   1.978   3.876   3.688
 4127SOL     OW13279   5.544   4.361   5.333
 4127SOL    HW113280   5.614   4.293   5.355
 4127SOL    HW213281   5.475   4.360   5.405
 4128SOL     OW13282   0.878   3.013   0.925
 4128SOL    HW113283   0.924   3.091   0.884
 4128SOL    HW213284   0.891   3.015   1.024
 4129SOL     OW13285   3.921   0.936   6.847
 4129SOL    HW113286   4.012   0.945   6.808
 4129SOL    HW213287   3.866   1.016   6.823
 4130SOL     OW13288   6.244   2.798   0.919
 4130SOL    HW113289   6.175   2.819   0.849
 4130SOL    HW213290   6.331   2.840   0.894
 4131SOL     OW13291   0.002   1.639   4.019
 4131SOL    HW113292   0.042   1.548   4.010
 4131SOL    HW213293   7.020   1.663   4.116
 4132SOL     OW13294   4.762   4.067   3.534
 4132SOL    HW113295   4.764   4.127   3.455
 4132SOL    HW213296   4.681   4.010   3.531
 4133SOL     OW13297   3.364   6.032   1.325
 4133SOL    HW113298   3.442   5.970   1.329
 4133SOL    HW213299   3.279   5.980   1.337
 4134SOL     OW13300   2.683   4.113   1.353
 4134SOL    HW113301   2.776   4.077   1.346
 4134SOL    HW213302   2.640   4.076   1.436
 4135SOL     OW13303   0.508   2.164   2.608
 4135SOL    HW113304   0.548   2.189   2.520
 4135SOL    HW213305   0.556   2.084   2.644
 4136SOL     OW13306   1.649   3.093   3.207
 4136SOL    HW113307   1.683   3.162   3.271
 4136SOL    HW213308   1.553   3.074   3.227
 4137SOL     OW13309   1.083   3.462   1.855
 4137SOL    HW113310   0.986   3.485   1.852
 4137SOL    HW213311   1.095   3.373   1.899
 4138SOL     OW13312   4.388   5.698   2.728
 4138SOL    HW113313   4.389   5.656   2.819
 4138SOL    HW213314   4.311   5.761   2.722
 4139SOL     OW13315   2.406   1.941   5.756
 4139SOL    HW113316   2.325   1.965   5.701
 4139SOL    HW213317   2.380   1.936   5.853
 4140SOL     OW13318   3.091   0.509   5.644
 4140SOL    HW113319   3.010   0.469   5.601
 4140SOL    HW213320   3.120   0.588   5.592
 4141SOL     OW13321   5.006   6.964   1.357
 4141SOL    HW113322   4.984   6.867   1.370
 4141SOL    HW213323   5.086   6.988   1.413
 4142SOL     OW13324   6.884   4.772   0.753
 4142SOL    HW113325   6.847   4.857   0.716
 4142SOL    HW213326   6.831   4.743   0.833
 4143SOL     OW13327   5.284   1.610   0.990
 4143SOL    HW113328   5.311   1.628   1.084
 4143SOL    HW213329   5.186   1.624   0.980
 4144SOL     OW13330   5.248   1.682   0.354
 4144SOL    HW113331   5.297   1.603   0.319
 4144SOL    HW213332   5.187   1.717   0.283
 4145SOL     OW13333   0.201   6.412   1.907
 4145SOL    HW113334   0.290   6.451   1.882
 4145SOL    HW213335   0.131   6.483   1.903
 4146SOL     OW13336   6.842   0.693   2.783
 4146SOL    HW113337   6.931   0.656   2.808
 4146SOL    HW213338   6.840   0.791   2.802
 4147SOL     OW13339   4.877   4.938   6.096
 4147SOL    HW113340   4.934   4.888   6.161
 4147SOL    HW213341   4.855   5.029   6.134
 4148SOL     OW13342   1.603   0.507   5.128
 4148SOL    HW113343   1.563   0.575   5.066
 4148SOL    HW213344   1.700   0.494   5.106
 4149SOL     OW13345   0.036   4.000   0.966
 4149SOL    HW113346   0.130   4.034   0.954
 4149SOL    HW213347   0.005   3.957   0.881
 4150SOL     OW13348   0.783   6.931   6.208
 4150SOL    HW113349   0.841   6.927   6.127
 4150SOL    HW213350   0.788   6.843   6.256
 4151SOL     OW13351   3.232   6.585   5.855
 4151SOL    HW113352   3.158   6.593   5.788
 4151SOL    HW213353   3.246   6.489   5.879
 4152SOL     OW13354   4.571   5.897   0.819
 4152SOL    HW113355   4.607   5.945   0.898
 4152SOL    HW213356   4.577   5.798   0.834
 4153SOL     OW13357   5.384   5.213   0.671
 4153SOL    HW113358   5.289   5.181   0.674
 4153SOL    HW213359   5.407   5.240   0.578
 4154SOL     OW13360   6.930   5.067   3.266
 4154SOL    HW113361   6.907   5.149   3.213
 4154SOL    HW213362   6.928   4.987   3.207
 4155SOL     OW13363   0.058   1.543   2.566
 4155SOL    HW113364   0.100   1.538   2.657
 4155SOL    HW213365   6.986   1.529   2.574
 4156SOL     OW13366   5.841   5.787   4.906
 4156SOL    HW113367   5.781   5.792   4.826
 4156SOL    HW213368   5.917   5.851   4.894
 4157SOL     OW13369   4.978   5.293   4.012
 4157SOL    HW113370   4.907   5.337   3.957
 4157SOL    HW213371   4.980   5.334   4.103
 4158SOL     OW13372   6.835   3.156   1.284
 4158SOL    HW113373   6.752   3.158   1.341
 4158SOL    HW213374   6.890   3.076   1.307
 4159SOL     OW13375   2.076   3.357   3.254
 4159SOL    HW113376   2.076   3.260   3.230
 4159SOL    HW213377   2.098   3.368   3.351
 4160SOL     OW13378   5.970   0.714   0.222
 4160SOL    HW113379   6.020   0.656   0.287
 4160SOL    HW213380   5.886   0.667   0.194
 4161SOL     OW13381   0.860   1.766   1.077
 4161SOL    HW113382   0.876   1.865   1.085
 4161SOL    HW213383   0.802   1.749   0.997
 4162SOL     OW13384   6.801   5.912   0.173
 4162SOL    HW113385   6.725   5.969   0.205
 4162SOL    HW213386   6.831   5.944   0.083
 4163SOL     OW13387   4.533   0.226   2.987
 4163SOL    HW113388   4.489   0.155   3.041
 4163SOL    HW213389   4.595   0.184   2.921
 4164SOL     OW13390   1.647   6.651   5.601
 4164SOL    HW113391   1.722   6.635   5.666
 4164SOL    HW213392   1.604   6.739   5.622
 4165SOL     OW13393   4.333   0.196   6.048
 4165SOL    HW113394   4.288   0.196   5.959
 4165SOL    HW213395   4.428   0.167   6.037
 4166SOL     OW13396   5.269   2.673   0.640
 4166SOL    HW113397   5.358   2.716   0.623
 4166SOL    HW213398   5.263   2.647   0.736
 4167SOL     OW13399   1.608   4.195   0.985
 4167SOL    HW113400   1.654   4.110   0.956
 4167SOL    HW213401   1.676   4.269   0.990
 4168SOL     OW13402   0.087   4.362   1.079
 4168SOL    HW113403   0.056   4.267   1.086
 4168SOL    HW213404   0.155   4.380   1.149
 4169SOL     OW13405   5.976   4.530   4.735
 4169SOL    HW113406   5.913   4.472   4.682
 4169SOL    HW213407   6.052   4.474   4.768
 4170SOL     OW13408   4.185   3.728   5.910
 4170SOL    HW113409   4.204   3.659   5.840
 4170SOL    HW213410   4.179   3.818   5.868
 4171SOL     OW13411   6.001   6.330   0.823
 4171SOL    HW113412   6.077   6.268   0.806
 4171SOL    HW213413   6.028   6.423   0.798
 4172SOL     OW13414   1.481   1.530   5.876
 4172SOL    HW113415   1.531   1.592   5.816
 4172SOL    HW213416   1.498   1.554   5.971
 4173SOL     OW13417   5.090   4.319   5.041
 4173SOL    HW113418   5.147   4.401   5.037
 4173SOL    HW213419   4.995   4.344   5.022
 4174SOL     OW13420   5.105   1.524   3.160
 4174SOL    HW113421   5.093   1.457   3.233
 4174SOL    HW213422   5.017   1.566   3.138
 4175SOL     OW13423   2.281   5.627   4.848
 4175SOL    HW113424   2.230   5.556   4.800
 4175SOL    HW213425   2.271   5.615   4.947
 4176SOL     OW13426   2.998   5.761   2.008
 4176SOL    HW113427   3.086   5.803   1.984
 4176SOL    HW213428   2.929   5.832   2.018
 4177SOL     OW13429   6.131   4.795   5.308
 4177SOL    HW113430   6.033   4.780   5.319
 4177SOL    HW213431   6.155   4.885   5.346
 4178SOL     OW13432   4.853   0.191   4.197
 4178SOL    HW113433   4.865   0.254   4.120
 4178SOL    HW213434   4.781   0.125   4.175
 4179SOL     OW13435   5.300   3.199   3.489
 4179SOL    HW113436   5.344   3.215   3.401
 4179SOL    HW213437   5.338   3.116   3.532
 4180SOL     OW13438   5.185   4.555   1.066
 4180SOL    HW113439   5.227   4.468   1.090
 4180SOL    HW213440   5.140   4.547   0.977
 4181SOL     OW13441   2.576   1.438   0.552
 4181SOL    HW113442   2.509   1.474   0.487
 4181SOL    HW213443   2.654   1.401   0.502
 4182SOL     OW13444   0.935   6.727   3.541
 4182SOL    HW113445   0.890   6.685   3.462
 4182SOL    HW213446   1.034   6.712   3.535
 4183SOL     OW13447   3.019   1.561   0.044
 4183SOL    HW113448   3.080   1.624   7.023
 4183SOL    HW213449   3.033   1.469   0.008
 4184SOL     OW13450   4.782   5.750   1.480
 4184SOL    HW113451   4.849   5.695   1.430
 4184SOL    HW213452   4.804   5.747   1.578
 4185SOL     OW13453   0.411   5.092   2.282
 4185SOL    HW113454   0.386   5.034   2.359
 4185SOL    HW213455   0.509   5.115   2.288
 4186SOL     OW13456   2.156   5.034   6.983
 4186SOL    HW113457   2.231   5.042   6.917
 4186SOL    HW213458   2.086   4.973   6.947
 4187SOL     OW13459   3.224   2.938   5.584
 4187SOL    HW113460   3.215   2.849   5.630
 4187SOL    HW213461   3.290   2.995   5.633
 4188SOL     OW13462   4.784   6.781   4.992
 4188SOL    HW113463   4.823   6.781   5.084
 4188SOL    HW213464   4.686   6.762   4.998
 4189SOL     OW13465   2.358   5.038   5.416
 4189SOL    HW113466   2.260   5.054   5.404
 4189SOL    HW213467   2.405   5.126   5.420
 4190SOL     OW13468   0.896   0.780   0.284
 4190SOL    HW113469   0.984   0.765   0.239
 4190SOL    HW213470   0.852   0.693   0.303
 4191SOL     OW13471   4.721   4.227   3.300
 4191SOL    HW113472   4.799   4.277   3.263
 4191SOL    HW213473   4.669   4.187   3.224
 4192SOL     OW13474   1.074   0.690   4.259
 4192SOL    HW113475   1.025   0.604   4.245
 4192SOL    HW213476   1.094   0.731   4.170
 4193SOL     OW13477   0.892   1.051   1.835
 4193SOL    HW113478   0.801   1.092   1.833
 4193SOL    HW213479   0.947   1.094   1.907
 4194SOL     OW13480   5.286   0.790   4.621
 4194SOL    HW113481   5.275   0.698   4.583
 4194SOL    HW213482   5.356   0.839   4.568
 4195SOL     OW13483   3.619   6.690   2.135
 4195SOL    HW113484   3.718   6.700   2.126
 4195SOL    HW213485   3.596   6.592   2.132
 4196SOL     OW13486   5.385   2.047   3.620
 4196SOL    HW113487   5.438   2.061   3.704
 4196SOL    HW213488   5.353   2.135   3.586
 4197SOL     OW13489   5.105   5.702   6.356
 4197SOL    HW113490   5.196   5.676   6.390
 4197SOL    HW213491   5.084   5.648   6.274
 4198SOL     OW13492   5.582   2.108   0.060
 4198SOL    HW113493   5.552   2.117   6.992
 4198SOL    HW213494   5.645   2.183   0.082
 4199SOL     OW13495   2.165   2.852   5.818
 4199SOL    HW113496   2.137   2.929   5.761
 4199SOL    HW213497   2.180   2.771   5.760
 4200SOL     OW13498   3.942   6.507   6.083
 4200SOL    HW113499   3.925   6.533   6.178
 4200SOL    HW213500   3.855   6.506   6.032
 4201SOL     OW13501   5.703   6.120   3.619
 4201SOL    HW113502   5.797   6.092   3.603
 4201SOL    HW213503   5.686   6.125   3.717
 4202SOL     OW13504   4.037   5.357   6.100
 4202SOL    HW113505   3.938   5.364   6.088
 4202SOL    HW213506   4.073   5.287   6.038
 4203SOL     OW13507   4.655   5.049   0.237
 4203SOL    HW113508   4.576   5.096   0.198
 4203SOL    HW213509   4.719   5.025   0.163
 4204SOL     OW13510   3.969   3.847   2.796
 4204SOL    HW113511   3.904   3.923   2.804
 4204SOL    HW213512   4.016   3.854   2.708
 4205SOL     OW13513   3.747   5.803   3.544
 4205SOL    HW113514   3.747   5.713   3.589
 4205SOL    HW213515   3.702   5.796   3.455
 4206SOL     OW13516   0.060   0.218   6.007
 4206SOL    HW113517   6.995   0.212   5.967
 4206SOL    HW213518   0.065   0.158   6.087
 4207SOL     OW13519   1.803   1.864   0.677
 4207SOL    HW113520   1.871   1.935   0.697
 4207SOL    HW213521   1.740   1.855   0.754
 4208SOL     OW13522   0.620   3.321   6.027
 4208SOL    HW113523   0.714   3.346   6.003
 4208SOL    HW213524   0.607   3.329   6.126
 4209SOL     OW13525   0.461   0.635   4.874
 4209SOL    HW113526   0.436   0.649   4.779
 4209SOL    HW213527   0.433   0.543   4.903
 4210SOL     OW13528   2.897   3.344   2.350
 4210SOL    HW113529   2.957   3.266   2.367
 4210SOL    HW213530   2.821   3.315   2.290
 4211SOL     OW13531   4.153   5.746   5.890
 4211SOL    HW113532   4.058   5.778   5.890
 4211SOL    HW213533   4.213   5.819   5.858
 4212SOL     OW13534   5.754   1.916   2.788
 4212SOL    HW113535   5.722   2.011   2.781
 4212SOL    HW213536   5.854   1.915   2.788
 4213SOL     OW13537   2.570   0.988   1.646
 4213SOL    HW113538   2.571   1.075   1.695
 4213SOL    HW213539   2.476   0.964   1.621
 4214SOL     OW13540   1.449   4.586   5.060
 4214SOL    HW113541   1.397   4.500   5.056
 4214SOL    HW213542   1.401   4.657   5.009
 4215SOL     OW13543   6.424   5.756   5.174
 4215SOL    HW113544   6.488   5.701   5.120
 4215SOL    HW213545   6.342   5.774   5.120
 4216SOL     OW13546   1.022   1.551   2.732
 4216SOL    HW113547   0.956   1.476   2.734
 4216SOL    HW213548   1.113   1.516   2.753
 4217SOL     OW13549   0.898   0.634   2.172
 4217SOL    HW113550   0.907   0.706   2.241
 4217SOL    HW213551   0.831   0.567   2.204
 4218SOL     OW13552   4.521   0.915   1.849
 4218SOL    HW113553   4.468   0.843   1.803
 4218SOL    HW213554   4.604   0.875   1.888
 4219SOL     OW13555   3.357   5.413   3.907
 4219SOL    HW113556   3.384   5.451   3.818
 4219SOL    HW213557   3.335   5.316   3.898
 4220SOL     OW13558   5.254   2.944   3.894
 4220SOL    HW113559   5.165   2.900   3.907
 4220SOL    HW213560   5.321   2.875   3.867
 4221SOL     OW13561   6.243   5.327   6.495
 4221SOL    HW113562   6.147   5.298   6.496
 4221SOL    HW213563   6.280   5.315   6.403
 4222SOL     OW13564   5.943   1.485   3.372
 4222SOL    HW113565   5.957   1.543   3.452
 4222SOL    HW213566   5.845   1.468   3.360
 4223SOL     OW13567   3.636   3.400   6.094
 4223SOL    HW113568   3.582   3.393   6.011
 4223SOL    HW213569   3.576   3.399   6.174
 4224SOL     OW13570   5.166   3.407   3.680
 4224SOL    HW113571   5.069   3.419   3.661
 4224SOL    HW213572   5.192   3.312   3.663
 4225SOL     OW13573   4.254   0.727   6.116
 4225SOL    HW113574   4.171   0.678   6.144
 4225SOL    HW213575   4.234   0.784   6.036
 4226SOL     OW13576   0.966   0.472   2.556
 4226SOL    HW113577   0.943   0.484   2.653
 4226SOL    HW213578   0.892   0.421   2.511
 4227SOL     OW13579   3.480   4.587   0.683
 4227SOL    HW113580   3.459   4.611   0.589
 4227SOL    HW213581   3.395   4.567   0.732
 4228SOL     OW13582   1.077   3.799   5.233
 4228SOL    HW113583   1.003   3.737   5.210
 4228SOL    HW213584   1.138   3.811   5.154
 4229SOL     OW13585   4.930   5.438   5.774
 4229SOL    HW113586   4.992   5.501   5.726
 4229SOL    HW213587   4.836   5.471   5.766
 4230SOL     OW13588   1.170   6.895   3.152
 4230SOL    HW113589   1.074   6.921   3.155
 4230SOL    HW213590   1.204   6.884   3.245
 4231SOL     OW13591   6.310   6.163   5.300
 4231SOL    HW113592   6.359   6.162   5.213
 4231SOL    HW213593   6.349   6.094   5.362
 4232SOL     OW13594   6.650   4.815   2.639
 4232SOL    HW113595   6.650   4.744   2.569
 4232SOL    HW213596   6.744   4.830   2.672
 4233SOL     OW13597   6.898   0.181   6.431
 4233SOL    HW113598   6.966   0.138   6.489
 4233SOL    HW213599   6.812   0.189   6.480
 4234SOL     OW13600   2.389   6.835   5.481
 4234SOL    HW113601   2.443   6.815   5.563
 4234SOL    HW213602   2.439   6.803   5.400
 4235SOL     OW13603   5.658   3.610   6.130
 4235SOL    HW113604   5.583   3.554   6.095
 4235SOL    HW213605   5.745   3.565   6.109
 4236SOL     OW13606   0.028   3.765   2.861
 4236SOL    HW113607   6.992   3.800   2.791
 4236SOL    HW213608   7.005   3.749   2.946
 4237SOL     OW13609   6.080   5.367   2.831
 4237SOL    HW113610   6.094   5.444   2.769
 4237SOL    HW213611   5.986   5.367   2.864
 4238SOL     OW13612   3.213   5.198   2.746
 4238SOL    HW113613   3.192   5.202   2.648
 4238SOL    HW213614   3.133   5.224   2.799
 4239SOL     OW13615   5.578   1.743   3.257
 4239SOL    HW113616   5.592   1.788   3.170
 4239SOL    HW213617   5.587   1.810   3.331
 4240SOL     OW13618   2.413   0.178   0.353
 4240SOL    HW113619   2.361   0.177   0.438
 4240SOL    HW213620   2.394   0.095   0.301
 4241SOL     OW13621   6.100   0.609   7.015
 4241SOL    HW113622   6.049   0.653   6.941
 4241SOL    HW213623   6.071   0.647   0.076
 4242SOL     OW13624   2.235   0.593   3.252
 4242SOL    HW113625   2.143   0.556   3.264
 4242SOL    HW213626   2.239   0.646   3.167
 4243SOL     OW13627   6.466   3.179   3.306
 4243SOL    HW113628   6.533   3.217   3.370
 4243SOL    HW213629   6.490   3.207   3.213
 4244SOL     OW13630   4.981   4.507   1.851
 4244SOL    HW113631   4.931   4.426   1.820
 4244SOL    HW213632   4.924   4.588   1.837
 4245SOL     OW13633   6.510   0.869   5.849
 4245SOL    HW113634   6.424   0.831   5.882
 4245SOL    HW213635   6.585   0.805   5.870
 4246SOL     OW13636   6.405   3.524   2.703
 4246SOL    HW113637   6.325   3.574   2.736
 4246SOL    HW213638   6.470   3.513   2.778
 4247SOL     OW13639   2.312   4.747   3.519
 4247SOL    HW113640   2.225   4.710   3.485
 4247SOL    HW213641   2.295   4.835   3.563
 4248SOL     OW13642   2.236   1.427   3.829
 4248SOL    HW113643   2.220   1.342   3.779
 4248SOL    HW213644   2.153   1.482   3.828
 4249SOL     OW13645   5.398   1.807   4.395
 4249SOL    HW113646   5.345   1.726   4.421
 4249SOL    HW213647   5.466   1.782   4.326
 4250SOL     OW13648   0.160   5.924   3.886
 4250SOL    HW113649   0.191   5.987   3.957
 4250SOL    HW213650   0.069   5.890   3.909
 4251SOL     OW13651   5.842   3.672   1.283
 4251SOL    HW113652   5.864   3.760   1.241
 4251SOL    HW213653   5.768   3.684   1.349
 4252SOL     OW13654   6.568   6.849   6.373
 4252SOL    HW113655   6.583   6.933   6.320
 4252SOL    HW213656   6.554   6.772   6.310
 4253SOL     OW13657   2.921   6.298   0.625
 4253SOL    HW113658   3.012   6.293   0.667
 4253SOL    HW213659   2.858   6.239   0.674
 4254SOL     OW13660   1.076   3.342   2.599
 4254SOL    HW113661   1.151   3.405   2.623
 4254SOL    HW213662   1.092   3.305   2.508
 4255SOL     OW13663   6.846   4.653   4.065
 4255SOL    HW113664   6.912   4.704   4.009
 4255SOL    HW213665   6.837   4.696   4.155
 4256SOL     OW13666   1.582   6.274   1.163
 4256SOL    HW113667   1.576   6.370   1.189
 4256SOL    HW213668   1.499   6.226   1.192
 4257SOL     OW13669   3.352   0.705   4.201
 4257SOL    HW113670   3.331   0.803   4.192
 4257SOL    HW213671   3.362   0.683   4.298
 4258SOL     OW13672   3.508   5.805   1.324
 4258SOL    HW113673   3.484   5.743   1.248
 4258SOL    HW213674   3.507   5.754   1.410
 4259SOL     OW13675   1.910   0.473   0.925
 4259SOL    HW113676   1.887   0.559   0.879
 4259SOL    HW213677   1.933   0.492   1.020
 4260SOL     OW13678   5.859   0.358   2.567
 4260SOL    HW113679   5.900   0.288   2.508
 4260SOL    HW213680   5.760   0.346   2.568
 4261SOL     OW13681   1.854   0.982   2.586
 4261SOL    HW113682   1.878   1.054   2.651
 4261SOL    HW213683   1.819   1.023   2.502
 4262SOL     OW13684   0.809   3.942   6.745
 4262SOL    HW113685   0.853   3.978   6.827
 4262SOL    HW213686   0.844   3.850   6.726
 4263SOL     OW13687   2.667   0.703   2.867
 4263SOL    HW113688   2.730   0.749   2.805
 4263SOL    HW213689   2.716   0.680   2.952
 4264SOL     OW13690   6.142   2.008   4.202
 4264SOL    HW113691   6.112   1.945   4.130
 4264SOL    HW213692   6.240   1.997   4.217
 4265SOL     OW13693   4.154   0.783   0.423
 4265SOL    HW113694   4.236   0.818   0.378
 4265SOL    HW213695   4.096   0.737   0.355
 4266SOL     OW13696   1.645   6.342   6.532
 4266SOL    HW113697   1.555   6.383   6.518
 4266SOL    HW213698   1.714   6.398   6.485
 4267SOL     OW13699   2.185   3.663   3.558
 4267SOL    HW113700   2.191   3.652   3.657
 4267SOL    HW213701   2.122   3.737   3.537
 4268SOL     OW13702   1.494   5.837   6.792
 4268SOL    HW113703   1.443   5.812   6.874
 4268SOL    HW213704   1.542   5.923   6.807
 4269SOL     OW13705   3.007   0.436   2.179
 4269SOL    HW113706   3.080   0.393   2.232
 4269SOL    HW213707   2.923   0.438   2.233
 4270SOL     OW13708   4.100   3.729   3.004
 4270SOL    HW113709   4.052   3.792   2.942
 4270SOL    HW213710   4.122   3.645   2.956
 4271SOL     OW13711   6.502   1.215   6.913
 4271SOL    HW113712   6.494   1.130   6.966
 4271SOL    HW213713   6.415   1.232   6.866
 4272SOL     OW13714   6.574   1.850   4.606
 4272SOL    HW113715   6.625   1.879   4.525
 4272SOL    HW213716   6.547   1.754   4.595
 4273SOL     OW13717   3.704   6.961   5.321
 4273SOL    HW113718   3.784   6.964   5.381
 4273SOL    HW213719   3.692   0.023   5.277
 4274SOL     OW13720   1.233   0.436   1.506
 4274SOL    HW113721   1.219   0.444   1.407
 4274SOL    HW213722   1.145   0.420   1.551
 4275SOL     OW13723   6.274   1.942   4.621
 4275SOL    HW113724   6.310   1.887   4.546
 4275SOL    HW213725   6.344   1.951   4.692
 4276SOL     OW13726   2.451   5.412   3.933
 4276SOL    HW113727   2.362   5.403   3.977
 4276SOL    HW213728   2.467   5.508   3.909
 4277SOL     OW13729   6.212   4.709   3.337
 4277SOL    HW113730   6.195   4.733   3.242
 4277SOL    HW213731   6.231   4.611   3.343
 4278SOL     OW13732   0.229   6.814   5.056
 4278SOL    HW113733   0.205   6.738   5.115
 4278SOL    HW213734   0.146   6.859   5.023
 4279SOL     OW13735   3.465   1.148   3.350
 4279SOL    HW113736   3.531   1.073   3.357
 4279SOL    HW213737   3.415   1.156   3.436
 4280SOL     OW13738   5.586   6.971   5.931
 4280SOL    HW113739   5.613   6.889   5.879
 4280SOL    HW213740   5.553   6.943   6.021
 4281SOL     OW13741   6.623   4.538   2.881
 4281SOL    HW113742   6.554   4.550   2.810
 4281SOL    HW213743   6.671   4.625   2.896
 4282SOL     OW13744   3.443   4.597   0.410
 4282SOL    HW113745   3.436   4.685   0.363
 4282SOL    HW213746   3.520   4.546   0.373
 4283SOL     OW13747   1.930   0.618   3.495
 4283SOL    HW113748   1.949   0.715   3.481
 4283SOL    HW213749   1.898   0.577   3.410
 4284SOL     OW13750   3.637   3.793   1.284
 4284SOL    HW113751   3.562   3.742   1.326
 4284SOL    HW213752   3.724   3.760   1.321
 4285SOL     OW13753   1.694   0.506   5.788
 4285SOL    HW113754   1.625   0.496   5.860
 4285SOL    HW213755   1.777   0.546   5.827
 4286SOL     OW13756   5.527   6.330   5.710
 4286SOL    HW113757   5.489   6.414   5.671
 4286SOL    HW213758   5.458   6.258   5.706
 4287SOL     OW13759   5.590   0.575   6.035
 4287SOL    HW113760   5.522   0.643   6.008
 4287SOL    HW213761   5.627   0.531   5.953
 4288SOL     OW13762   0.610   5.724   2.957
 4288SOL    HW113763   0.695   5.753   2.913
 4288SOL    HW213764   0.535   5.779   2.923
 4289SOL     OW13765   6.595   3.447   6.345
 4289SOL    HW113766   6.557   3.355   6.337
 4289SOL    HW213767   6.583   3.496   6.259
 4290SOL     OW13768   1.674   6.589   3.654
 4290SOL    HW113769   1.725   6.612   3.571
 4290SOL    HW213770   1.613   6.511   3.635
 4291SOL     OW13771   4.791   3.942   0.176
 4291SOL    HW113772   4.774   3.972   0.082
 4291SOL    HW213773   4.712   3.890   0.209
 4292SOL     OW13774   5.676   3.017   0.450
 4292SOL    HW113775   5.700   2.923   0.425
 4292SOL    HW213776   5.650   3.067   0.368
 4293SOL     OW13777   3.120   3.023   6.821
 4293SOL    HW113778   3.109   2.962   6.743
 4293SOL    HW213779   3.042   3.086   6.825
 4294SOL     OW13780   2.308   1.664   6.281
 4294SOL    HW113781   2.370   1.658   6.359
 4294SOL    HW213782   2.352   1.625   6.201
 4295SOL     OW13783   3.312   6.068   5.015
 4295SOL    HW113784   3.325   6.013   4.933
 4295SOL    HW213785   3.227   6.040   5.061
 4296SOL     OW13786   3.423   6.834   0.595
 4296SOL    HW113787   3.424   6.881   0.683
 4296SOL    HW213788   3.442   6.899   0.522
 4297SOL     OW13789   5.409   0.307   1.095
 4297SOL    HW113790   5.505   0.329   1.114
 4297SOL    HW213791   5.354   0.390   1.098
 4298SOL     OW13792   4.409   5.356   0.817
 4298SOL    HW113793   4.417   5.271   0.870
 4298SOL    HW213794   4.496   5.377   0.773
 4299SOL     OW13795   1.657   3.163   6.437
 4299SOL    HW113796   1.570   3.121   6.463
 4299SOL    HW213797   1.727   3.092   6.426
 4300SOL     OW13798   3.078   6.768   0.327
 4300SOL    HW113799   3.114   6.758   0.420
 4300SOL    HW213800   3.081   6.865   0.301
 4301SOL     OW13801   4.356   0.488   1.413
 4301SOL    HW113802   4.348   0.446   1.504
 4301SOL    HW213803   4.344   0.418   1.343
 4302SOL     OW13804   0.560   0.173   5.926
 4302SOL    HW113805   0.483   0.231   5.952
 4302SOL    HW213806   0.555   0.086   5.974
 4303SOL     OW13807   7.001   5.045   3.964
 4303SOL    HW113808   0.031   5.085   4.036
 4303SOL    HW213809   6.988   5.112   3.891
 4304SOL     OW13810   3.168   2.981   2.692
 4304SOL    HW113811   3.119   2.896   2.674
 4304SOL    HW213812   3.266   2.965   2.683
 4305SOL     OW13813   0.473   6.707   6.064
 4305SOL    HW113814   0.405   6.762   6.016
 4305SOL    HW213815   0.519   6.647   5.999
 4306SOL     OW13816   4.494   4.942   5.108
 4306SOL    HW113817   4.545   4.947   5.022
 4306SOL    HW213818   4.433   4.862   5.106
 4307SOL     OW13819   5.954   3.926   5.746
 4307SOL    HW113820   5.970   3.828   5.731
 4307SOL    HW213821   5.892   3.961   5.675
 4308SOL     OW13822   6.053   4.753   1.134
 4308SOL    HW113823   6.112   4.759   1.214
 4308SOL    HW213824   6.100   4.789   1.054
 4309SOL     OW13825   0.929   1.164   0.152
 4309SOL    HW113826   0.984   1.084   0.124
 4309SOL    HW213827   0.970   1.206   0.233
 4310SOL     OW13828   1.620   2.734   2.045
 4310SOL    HW113829   1.637   2.831   2.063
 4310SOL    HW213830   1.706   2.690   2.020
 4311SOL     OW13831   1.678   6.495   2.540
 4311SOL    HW113832   1.634   6.563   2.482
 4311SOL    HW213833   1.776   6.490   2.517
 4312SOL     OW13834   1.358   6.132   1.824
 4312SOL    HW113835   1.449   6.160   1.792
 4312SOL    HW213836   1.312   6.079   1.753
 4313SOL     OW13837   4.863   1.901   0.831
 4313SOL    HW113838   4.889   1.805   0.843
 4313SOL    HW213839   4.860   1.922   0.733
 4314SOL     OW13840   6.015   1.106   4.290
 4314SOL    HW113841   6.047   1.120   4.196
 4314SOL    HW213842   5.932   1.159   4.305
 4315SOL     OW13843   2.523   0.012   3.111
 4315SOL    HW113844   2.614   6.999   3.099
 4315SOL    HW213845   2.475   0.012   3.024
 4316SOL     OW13846   5.005   1.187   1.826
 4316SOL    HW113847   4.954   1.122   1.769
 4316SOL    HW213848   4.974   1.280   1.808
 4317SOL     OW13849   5.288   2.312   5.303
 4317SOL    HW113850   5.294   2.398   5.253
 4317SOL    HW213851   5.312   2.327   5.399
 4318SOL     OW13852   0.138   2.109   5.092
 4318SOL    HW113853   0.180   2.051   5.023
 4318SOL    HW213854   0.039   2.102   5.087
 4319SOL     OW13855   2.036   1.328   0.585
 4319SOL    HW113856   2.097   1.316   0.664
 4319SOL    HW213857   1.942   1.335   0.617
 4320SOL     OW13858   4.389   4.882   0.847
 4320SOL    HW113859   4.304   4.898   0.796
 4320SOL    HW213860   4.367   4.865   0.943
 4321SOL     OW13861   0.434   5.442   5.431
 4321SOL    HW113862   0.512   5.472   5.486
 4321SOL    HW213863   0.395   5.359   5.471
 4322SOL     OW13864   6.101   2.945   0.106
 4322SOL    HW113865   6.082   3.039   0.132
 4322SOL    HW213866   6.172   2.907   0.165
 4323SOL     OW13867   4.476   3.859   0.077
 4323SOL    HW113868   4.432   3.903   0.155
 4323SOL    HW213869   4.488   3.926   0.004
 4324SOL     OW13870   6.062   4.509   6.589
 4324SOL    HW113871   6.020   4.420   6.601
 4324SOL    HW213872   6.014   4.559   6.517
 4325SOL     OW13873   2.649   1.558   1.306
 4325SOL    HW113874   2.669   1.606   1.391
 4325SOL    HW213875   2.711   1.590   1.234
 4326SOL     OW13876   4.394   4.572   3.238
 4326SOL    HW113877   4.409   4.496   3.301
 4326SOL    HW213878   4.459   4.565   3.162
 4327SOL     OW13879   5.649   5.783   2.203
 4327SOL    HW113880   5.609   5.786   2.295
 4327SOL    HW213881   5.729   5.843   2.200
 4328SOL     OW13882   4.308   4.277   5.994
 4328SOL    HW113883   4.287   4.299   5.899
 4328SOL    HW213884   4.362   4.351   6.034
 4329SOL     OW13885   4.815   2.440   5.280
 4329SOL    HW113886   4.843   2.403   5.368
 4329SOL    HW213887   4.853   2.532   5.269
 4330SOL     OW13888   1.688   6.009   4.720
 4330SOL    HW113889   1.662   5.913   4.723
 4330SOL    HW213890   1.642   6.054   4.644
 4331SOL     OW13891   6.260   1.440   1.771
 4331SOL    HW113892   6.221   1.450   1.863
 4331SOL    HW213893   6.189   1.457   1.703
 4332SOL     OW13894   4.915   2.837   2.549
 4332SOL    HW113895   4.886   2.912   2.608
 4332SOL    HW213896   4.892   2.859   2.454
 4333SOL     OW13897   4.587   1.000   5.510
 4333SOL    HW113898   4.538   0.914   5.495
 4333SOL    HW213899   4.620   1.002   5.604
 4334SOL     OW13900   1.719   2.135   2.758
 4334SOL    HW113901   1.735   2.161   2.663
 4334SOL    HW213902   1.710   2.035   2.764
 4335SOL     OW13903   3.108   3.875   2.290
 4335SOL    HW113904   3.203   3.872   2.320
 4335SOL    HW213905   3.048   3.866   2.370
 4336SOL     OW13906   3.335   6.673   6.088
 4336SOL    HW113907   3.295   6.663   5.997
 4336SOL    HW213908   3.368   6.766   6.100
 4337SOL     OW13909   1.176   4.505   0.492
 4337SOL    HW113910   1.077   4.514   0.507
 4337SOL    HW213911   1.215   4.593   0.468
 4338SOL     OW13912   6.209   6.770   6.165
 4338SOL    HW113913   6.289   6.726   6.207
 4338SOL    HW213914   6.195   6.733   6.073
 4339SOL     OW13915   4.179   3.172   5.807
 4339SOL    HW113916   4.130   3.236   5.747
 4339SOL    HW213917   4.237   3.112   5.752
 4340SOL     OW13918   6.356   3.231   0.991
 4340SOL    HW113919   6.302   3.284   1.056
 4340SOL    HW213920   6.335   3.134   1.001
 4341SOL     OW13921   0.993   5.361   1.736
 4341SOL    HW113922   1.080   5.318   1.761
 4341SOL    HW213923   1.010   5.433   1.668
 4342SOL     OW13924   4.918   3.753   3.313
 4342SOL    HW113925   4.926   3.805   3.228
 4342SOL    HW213926   4.953   3.660   3.299
 4343SOL     OW13927   2.995   6.260   5.049
 4343SOL    HW113928   3.037   6.173   5.073
 4343SOL    HW213929   2.991   6.269   4.949
 4344SOL     OW13930   0.413   4.116   2.170
 4344SOL    HW113931   0.490   4.154   2.220
 4344SOL    HW213932   0.398   4.170   2.086
 4345SOL     OW13933   3.264   4.605   5.636
 4345SOL    HW113934   3.285   4.507   5.631
 4345SOL    HW213935   3.341   4.654   5.677
 4346SOL     OW13936   1.919   3.688   2.867
 4346SOL    HW113937   1.878   3.619   2.806
 4346SOL    HW213938   2.009   3.712   2.832
 4347SOL     OW13939   5.821   0.142   2.224
 4347SOL    HW113940   5.820   0.063   2.162
 4347SOL    HW213941   5.820   0.227   2.170
 4348SOL     OW13942   0.135   5.427   3.677
 4348SOL    HW113943   0.130   5.390   3.585
 4348SOL    HW213944   0.217   5.393   3.723
 4349SOL     OW13945   5.685   2.102   3.115
 4349SOL    HW113946   5.699   2.124   3.019
 4349SOL    HW213947   5.764   2.051   3.149
 4350SOL     OW13948   3.533   1.724   3.943
 4350SOL    HW113949   3.456   1.663   3.959
 4350SOL    HW213950   3.617   1.682   3.977
 4351SOL     OW13951   1.354   6.129   1.220
 4351SOL    HW113952   1.306   6.073   1.153
 4351SOL    HW213953   1.344   6.087   1.311
 4352SOL     OW13954   6.188   4.013   2.503
 4352SOL    HW113955   6.277   3.987   2.540
 4352SOL    HW213956   6.142   3.933   2.466
 4353SOL     OW13957   4.266   2.767   6.394
 4353SOL    HW113958   4.191   2.819   6.434
 4353SOL    HW213959   4.239   2.671   6.385
 4354SOL     OW13960   2.099   0.724   6.039
 4354SOL    HW113961   2.075   0.821   6.038
 4354SOL    HW213962   2.153   0.703   6.120
 4355SOL     OW13963   2.400   0.631   2.625
 4355SOL    HW113964   2.427   0.720   2.587
 4355SOL    HW213965   2.321   0.644   2.686
 4356SOL     OW13966   5.250   3.757   0.114
 4356SOL    HW113967   5.155   3.735   0.139
 4356SOL    HW213968   5.304   3.771   0.197
 4357SOL     OW13969   6.832   0.913   1.291
 4357SOL    HW113970   6.893   0.847   1.247
 4357SOL    HW213971   6.868   0.936   1.382
 4358SOL     OW13972   6.868   0.870   0.872
 4358SOL    HW113973   6.919   0.945   0.914
 4358SOL    HW213974   6.776   0.866   0.911
 4359SOL     OW13975   1.358   1.269   6.248
 4359SOL    HW113976   1.353   1.354   6.196
 4359SOL    HW213977   1.446   1.225   6.233
 4360SOL     OW13978   0.586   3.792   3.645
 4360SOL    HW113979   0.567   3.866   3.581
 4360SOL    HW213980   0.534   3.711   3.617
 4361SOL     OW13981   2.061   3.520   1.525
 4361SOL    HW113982   2.092   3.425   1.528
 4361SOL    HW213983   2.038   3.551   1.617
 4362SOL     OW13984   6.751   5.166   3.554
 4362SOL    HW113985   6.776   5.139   3.461
 4362SOL    HW213986   6.760   5.087   3.615
 4363SOL     OW13987   5.244   2.387   0.959
 4363SOL    HW113988   5.287   2.310   0.912
 4363SOL    HW213989   5.246   2.371   1.058
 4364SOL     OW13990   3.159   4.087   3.782
 4364SOL    HW113991   3.172   3.996   3.742
 4364SOL    HW213992   3.090   4.083   3.854
 4365SOL     OW13993   3.129   0.934   1.650
 4365SOL    HW113994   3.158   0.992   1.573
 4365SOL    HW213995   3.078   0.856   1.615
 4366SOL     OW13996   6.758   7.013   6.911
 4366SOL    HW113997   6.831   7.009   6.978
 4366SOL    HW213998   6.773   0.064   6.849
 4367SOL     OW13999   2.599   4.601   4.318
 4367SOL    HW114000   2.586   4.592   4.219
 4367SOL    HW214001   2.528   4.548   4.365
 4368SOL     OW14002   4.172   6.049   1.444
 4368SOL    HW114003   4.117   6.002   1.514
 4368SOL    HW214004   4.115   6.117   1.397
 4369SOL     OW14005   4.365   5.142   3.021
 4369SOL    HW114006   4.439   5.206   3.043
 4369SOL    HW214007   4.325   5.107   3.106
 4370SOL     OW14008   3.655   4.655   1.568
 4370SOL    HW114009   3.582   4.707   1.523
 4370SOL    HW214010   3.640   4.657   1.667
 4371SOL     OW14011   1.807   2.120   2.235
 4371SOL    HW114012   1.749   2.070   2.171
 4371SOL    HW214013   1.899   2.130   2.195
 4372SOL     OW14014   2.328   2.082   4.287
 4372SOL    HW114015   2.237   2.039   4.287
 4372SOL    HW214016   2.344   2.126   4.199
 4373SOL     OW14017   5.159   1.573   6.842
 4373SOL    HW114018   5.253   1.604   6.827
 4373SOL    HW214019   5.097   1.651   6.842
 4374SOL     OW14020   1.156   1.591   1.386
 4374SOL    HW114021   1.167   1.507   1.334
 4374SOL    HW214022   1.060   1.605   1.407
 4375SOL     OW14023   4.058   6.465   3.399
 4375SOL    HW114024   3.981   6.452   3.462
 4375SOL    HW214025   4.045   6.550   3.348
 4376SOL     OW14026   6.279   0.191   2.771
 4376SOL    HW114027   6.360   0.189   2.712
 4376SOL    HW214028   6.212   0.125   2.737
 4377SOL     OW14029   5.735   5.741   0.178
 4377SOL    HW114030   5.656   5.783   0.223
 4377SOL    HW214031   5.733   5.642   0.194
 4378SOL     OW14032   2.052   2.735   2.564
 4378SOL    HW114033   2.010   2.811   2.615
 4378SOL    HW214034   1.982   2.686   2.513
 4379SOL     OW14035   2.383   2.277   2.472
 4379SOL    HW114036   2.296   2.321   2.493
 4379SOL    HW214037   2.413   2.223   2.551
 4380SOL     OW14038   1.158   6.602   3.152
 4380SOL    HW114039   1.217   6.679   3.175
 4380SOL    HW214040   1.088   6.631   3.087
 4381SOL     OW14041   2.195   3.699   5.306
 4381SOL    HW114042   2.151   3.634   5.367
 4381SOL    HW214043   2.200   3.661   5.214
 4382SOL     OW14044   5.851   3.824   6.512
 4382SOL    HW114045   5.829   3.728   6.528
 4382SOL    HW214046   5.951   3.834   6.505
 4383SOL     OW14047   0.747   2.198   5.769
 4383SOL    HW114048   0.836   2.153   5.773
 4383SOL    HW214049   0.756   2.285   5.721
 4384SOL     OW14050   5.586   1.425   6.024
 4384SOL    HW114051   5.624   1.434   6.117
 4384SOL    HW214052   5.660   1.432   5.957
 4385SOL     OW14053   6.175   2.989   5.131
 4385SOL    HW114054   6.112   3.020   5.060
 4385SOL    HW214055   6.154   3.035   5.217
 4386SOL     OW14056   2.081   3.477   6.914
 4386SOL    HW114057   2.099   3.387   6.874
 4386SOL    HW214058   2.056   3.466   7.010
 4387SOL     OW14059   6.831   1.187   1.969
 4387SOL    HW114060   6.838   1.096   2.011
 4387SOL    HW214061   6.815   1.255   2.040
 4388SOL     OW14062   5.347   1.401   6.622
 4388SOL    HW114063   5.411   1.373   6.551
 4388SOL    HW214064   5.398   1.440   6.699
 4389SOL     OW14065   0.222   4.033   0.676
 4389SOL    HW114066   0.246   4.007   0.770
 4389SOL    HW214067   0.194   4.129   0.674
 4390SOL     OW14068   3.804   1.216   1.700
 4390SOL    HW114069   3.853   1.129   1.707
 4390SOL    HW214070   3.870   1.291   1.707
 4391SOL     OW14071   1.361   5.612   6.647
 4391SOL    HW114072   1.387   5.644   6.556
 4391SOL    HW214073   1.373   5.685   6.713
 4392SOL     OW14074   6.801   3.156   6.446
 4392SOL    HW114075   6.705   3.136   6.466
 4392SOL    HW214076   6.811   3.175   6.348
 4393SOL     OW14077   6.001   0.601   2.406
 4393SOL    HW114078   5.926   0.561   2.458
 4393SOL    HW214079   6.052   0.665   2.463
 4394SOL     OW14080   5.590   5.690   2.821
 4394SOL    HW114081   5.617   5.601   2.786
 4394SOL    HW214082   5.658   5.758   2.794
 4395SOL     OW14083   3.425   0.175   1.516
 4395SOL    HW114084   3.492   0.102   1.531
 4395SOL    HW214085   3.371   0.153   1.435
 4396SOL     OW14086   2.061   2.501   4.356
 4396SOL    HW114087   1.974   2.458   4.332
 4396SOL    HW214088   2.079   2.487   4.454
 4397SOL     OW14089   0.596   1.057   4.574
 4397SOL    HW114090   0.589   1.093   4.481
 4397SOL    HW214091   0.680   1.004   4.583
 4398SOL     OW14092   0.418   4.707   5.308
 4398SOL    HW114093   0.406   4.620   5.260
 4398SOL    HW214094   0.504   4.749   5.280
 4399SOL     OW14095   1.706   1.211   1.493
 4399SOL    HW114096   1.641   1.282   1.518
 4399SOL    HW214097   1.798   1.248   1.493
 4400SOL     OW14098   3.685   6.431   5.956
 4400SOL    HW114099   3.689   6.393   5.864
 4400SOL    HW214100   3.722   6.365   6.021
 4401SOL     OW14101   4.949   6.541   6.600
 4401SOL    HW114102   4.986   6.613   6.658
 4401SOL    HW214103   4.849   6.548   6.598
 4402SOL     OW14104   2.723   0.181   1.025
 4402SOL    HW114105   2.686   0.120   1.095
 4402SOL    HW214106   2.689   0.274   1.040
 4403SOL     OW14107   0.911   0.358   3.510
 4403SOL    HW114108   0.878   0.283   3.566
 4403SOL    HW214109   0.902   0.335   3.413
 4404SOL     OW14110   0.103   4.355   5.772
 4404SOL    HW114111   0.185   4.378   5.825
 4404SOL    HW214112   0.118   4.379   5.676
 4405SOL     OW14113   1.382   4.455   1.907
 4405SOL    HW114114   1.426   4.435   1.820
 4405SOL    HW214115   1.326   4.538   1.898
 4406SOL     OW14116   0.105   3.803   0.561
 4406SOL    HW114117   0.123   3.804   0.463
 4406SOL    HW214118   0.146   3.883   0.604
 4407SOL     OW14119   6.712   5.226   1.036
 4407SOL    HW114120   6.803   5.197   1.007
 4407SOL    HW214121   6.709   5.326   1.040
 4408SOL     OW14122   3.116   1.457   1.466
 4408SOL    HW114123   3.189   1.525   1.477
 4408SOL    HW214124   3.062   1.454   1.550
 4409SOL     OW14125   4.720   0.295   2.630
 4409SOL    HW114126   4.791   0.256   2.688
 4409SOL    HW214127   4.727   0.394   2.630
 4410SOL     OW14128   1.148   5.786   6.851
 4410SOL    HW114129   1.109   5.718   6.788
 4410SOL    HW214130   1.206   5.740   6.918
 4411SOL     OW14131   3.654   4.145   3.888
 4411SOL    HW114132   3.579   4.122   3.825
 4411SOL    HW214133   3.636   4.233   3.930
 4412SOL     OW14134   4.190   6.505   5.032
 4412SOL    HW114135   4.138   6.449   5.097
 4412SOL    HW214136   4.144   6.592   5.018
 4413SOL     OW14137   6.091   5.945   4.842
 4413SOL    HW114138   6.183   5.975   4.863
 4413SOL    HW214139   6.090   5.901   4.751
 4414SOL     OW14140   3.560   4.132   1.349
 4414SOL    HW114141   3.622   4.163   1.277
 4414SOL    HW214142   3.491   4.202   1.367
 4415SOL     OW14143   4.150   3.410   0.023
 4415SOL    HW114144   4.126   3.322   7.007
 4415SOL    HW214145   4.181   3.473   6.979
 4416SOL     OW14146   2.592   0.654   4.134
 4416SOL    HW114147   2.553   0.575   4.182
 4416SOL    HW214148   2.665   0.622   4.073
 4417SOL     OW14149   6.086   4.491   3.189
 4417SOL    HW114150   6.089   4.414   3.252
 4417SOL    HW214151   5.996   4.533   3.190
 4418SOL     OW14152   5.838   1.831   2.436
 4418SOL    HW114153   5.811   1.919   2.475
 4418SOL    HW214154   5.935   1.814   2.455
 4419SOL     OW14155   6.086   6.183   6.866
 4419SOL    HW114156   6.008   6.158   6.809
 4419SOL    HW214157   6.112   6.104   6.923
 4420SOL     OW14158   5.266   1.336   1.858
 4420SOL    HW114159   5.339   1.315   1.923
 4420SOL    HW214160   5.178   1.315   1.899
 4421SOL     OW14161   1.608   0.743   5.318
 4421SOL    HW114162   1.669   0.812   5.279
 4421SOL    HW214163   1.602   0.665   5.256
 4422SOL     OW14164   3.355   4.356   6.190
 4422SOL    HW114165   3.397   4.300   6.261
 4422SOL    HW214166   3.256   4.352   6.198
 4423SOL     OW14167   1.418   3.038   5.695
 4423SOL    HW114168   1.414   2.939   5.687
 4423SOL    HW214169   1.495   3.073   5.642
 4424SOL     OW14170   5.212   0.973   4.293
 4424SOL    HW114171   5.248   0.945   4.382
 4424SOL    HW214172   5.219   0.897   4.228
 4425SOL     OW14173   3.445   5.072   0.335
 4425SOL    HW114174   3.540   5.103   0.324
 4425SOL    HW214175   3.411   5.101   0.425
 4426SOL     OW14176   0.060   0.918   4.597
 4426SOL    HW114177   0.132   0.981   4.566
 4426SOL    HW214178   0.036   0.856   4.522
 4427SOL     OW14179   0.471   6.229   2.527
 4427SOL    HW114180   0.373   6.217   2.543
 4427SOL    HW214181   0.487   6.244   2.429
 4428SOL     OW14182   2.967   0.003   2.272
 4428SOL    HW114183   3.047   0.053   2.238
 4428SOL    HW214184   2.899   7.022   2.199
 4429SOL     OW14185   2.879   0.188   2.467
 4429SOL    HW114186   2.903   0.122   2.395
 4429SOL    HW214187   2.891   0.146   2.556
 4430SOL     OW14188   5.033   3.657   4.698
 4430SOL    HW114189   5.117   3.709   4.681
 4430SOL    HW214190   4.982   3.700   4.772
 4431SOL     OW14191   2.108   0.974   2.531
 4431SOL    HW114192   2.009   0.966   2.540
 4431SOL    HW214193   2.145   0.889   2.493
 4432SOL     OW14194   3.401   3.518   5.017
 4432SOL    HW114195   3.357   3.481   4.936
 4432SOL    HW214196   3.464   3.450   5.055
 4433SOL     OW14197   4.357   1.023   4.804
 4433SOL    HW114198   4.449   0.986   4.820
 4433SOL    HW214199   4.335   1.019   4.707
 4434SOL     OW14200   4.706   2.218   4.163
 4434SOL    HW114201   4.795   2.188   4.198
 4434SOL    HW214202   4.718   2.257   4.072
 4435SOL     OW14203   4.488   3.135   1.454
 4435SOL    HW114204   4.399   3.179   1.454
 4435SOL    HW214205   4.498   3.078   1.536
 4436SOL     OW14206   4.574   1.191   1.131
 4436SOL    HW114207   4.626   1.152   1.055
 4436SOL    HW214208   4.633   1.253   1.183
 4437SOL     OW14209   5.852   1.675   3.182
 4437SOL    HW114210   5.898   1.616   3.247
 4437SOL    HW214211   5.753   1.659   3.185
 4438SOL     OW14212   5.584   0.039   0.356
 4438SOL    HW114213   5.599   0.055   0.453
 4438SOL    HW214214   5.627   0.112   0.303
 4439SOL     OW14215   0.530   5.403   1.942
 4439SOL    HW114216   0.624   5.425   1.969
 4439SOL    HW214217   0.475   5.388   2.024
 4440SOL     OW14218   2.038   5.477   0.579
 4440SOL    HW114219   2.064   5.404   0.516
 4440SOL    HW214220   1.940   5.494   0.571
 4441SOL     OW14221   6.892   2.010   3.008
 4441SOL    HW114222   6.975   2.054   2.974
 4441SOL    HW214223   6.814   2.071   2.994
 4442SOL     OW14224   2.675   5.497   4.407
 4442SOL    HW114225   2.650   5.405   4.378
 4442SOL    HW214226   2.700   5.496   4.504
 4443SOL     OW14227   0.182   2.851   0.601
 4443SOL    HW114228   0.091   2.842   0.640
 4443SOL    HW214229   0.193   2.942   0.561
 4444SOL     OW14230   3.208   4.700   6.294
 4444SOL    HW114231   3.233   4.747   6.379
 4444SOL    HW214232   3.227   4.759   6.216
 4445SOL     OW14233   0.322   0.457   1.176
 4445SOL    HW114234   0.243   0.408   1.212
 4445SOL    HW214235   0.357   0.519   1.246
 4446SOL     OW14236   5.847   1.196   2.331
 4446SOL    HW114237   5.835   1.127   2.259
 4446SOL    HW214238   5.822   1.156   2.419
 4447SOL     OW14239   5.045   3.728   6.365
 4447SOL    HW114240   5.036   3.688   6.456
 4447SOL    HW214241   5.008   3.821   6.365
 4448SOL     OW14242   2.947   4.000   1.407
 4448SOL    HW114243   2.925   3.985   1.311
 4448SOL    HW214244   3.046   4.011   1.417
 4449SOL     OW14245   5.537   0.209   5.840
 4449SOL    HW114246   5.445   0.244   5.860
 4449SOL    HW214247   5.541   0.112   5.864
 4450SOL     OW14248   3.694   3.068   4.369
 4450SOL    HW114249   3.675   3.165   4.352
 4450SOL    HW214250   3.775   3.060   4.428
 4451SOL     OW14251   5.975   4.555   3.592
 4451SOL    HW114252   5.906   4.540   3.662
 4451SOL    HW214253   6.046   4.616   3.627
 4452SOL     OW14254   5.634   6.408   4.507
 4452SOL    HW114255   5.586   6.394   4.593
 4452SOL    HW214256   5.639   6.321   4.457
 4453SOL     OW14257   0.444   2.436   1.784
 4453SOL    HW114258   0.377   2.472   1.849
 4453SOL    HW214259   0.476   2.346   1.816
 4454SOL     OW14260   1.312   2.195   7.026
 4454SOL    HW114261   1.396   2.160   6.984
 4454SOL    HW214262   1.263   2.120   0.044
 4455SOL     OW14263   4.089   6.108   6.311
 4455SOL    HW114264   4.139   6.030   6.274
 4455SOL    HW214265   4.096   6.185   6.248
 4456SOL     OW14266   3.753   6.104   2.197
 4456SOL    HW114267   3.674   6.043   2.204
 4456SOL    HW214268   3.724   6.199   2.213
 4457SOL     OW14269   4.853   1.950   1.726
 4457SOL    HW114270   4.917   2.025   1.709
 4457SOL    HW214271   4.821   1.953   1.820
 4458SOL     OW14272   1.329   2.616   6.607
 4458SOL    HW114273   1.284   2.635   6.695
 4458SOL    HW214274   1.313   2.521   6.581
 4459SOL     OW14275   3.935   0.591   5.023
 4459SOL    HW114276   3.964   0.673   5.072
 4459SOL    HW214277   3.884   0.531   5.084
 4460SOL     OW14278   3.412   2.564   5.648
 4460SOL    HW114279   3.463   2.550   5.563
 4460SOL    HW214280   3.477   2.573   5.724
 4461SOL     OW14281   1.490   1.007   1.855
 4461SOL    HW114282   1.536   0.938   1.911
 4461SOL    HW214283   1.399   1.024   1.892
 4462SOL     OW14284   5.958   4.688   2.130
 4462SOL    HW114285   5.995   4.706   2.222
 4462SOL    HW214286   5.896   4.609   2.134
 4463SOL     OW14287   5.714   1.764   6.282
 4463SOL    HW114288   5.620   1.788   6.257
 4463SOL    HW214289   5.718   1.667   6.307
 4464SOL     OW14290   6.547   5.058   0.886
 4464SOL    HW114291   6.543   4.977   0.943
 4464SOL    HW214292   6.604   5.127   0.930
 4465SOL     OW14293   2.752   5.438   1.234
 4465SOL    HW114294   2.682   5.445   1.304
 4465SOL    HW214295   2.714   5.391   1.154
 4466SOL     OW14296   1.829   2.269   3.363
 4466SOL    HW114297   1.905   2.264   3.428
 4466SOL    HW214298   1.842   2.348   3.303
 4467SOL     OW14299   2.018   6.963   2.492
 4467SOL    HW114300   1.947   7.022   2.454
 4467SOL    HW214301   2.012   6.963   2.592
 4468SOL     OW14302   2.049   2.491   0.801
 4468SOL    HW114303   2.054   2.556   0.877
 4468SOL    HW214304   1.955   2.487   0.767
 4469SOL     OW14305   4.202   0.701   1.497
 4469SOL    HW114306   4.153   0.742   1.421
 4469SOL    HW214307   4.246   0.617   1.467
 4470SOL     OW14308   6.127   2.387   2.367
 4470SOL    HW114309   6.065   2.376   2.445
 4470SOL    HW214310   6.106   2.473   2.320
 4471SOL     OW14311   0.573   1.820   6.987
 4471SOL    HW114312   0.569   1.919   6.997
 4471SOL    HW214313   0.480   1.783   6.991
 4472SOL     OW14314   1.305   3.127   3.492
 4472SOL    HW114315   1.348   3.131   3.402
 4472SOL    HW214316   1.376   3.123   3.563
 4473SOL     OW14317   6.637   2.588   4.802
 4473SOL    HW114318   6.646   2.512   4.866
 4473SOL    HW214319   6.710   2.584   4.734
 4474SOL     OW14320   2.937   1.284   1.309
 4474SOL    HW114321   3.000   1.341   1.361
 4474SOL    HW214322   2.985   1.204   1.274
 4475SOL     OW14323   1.606   4.118   2.801
 4475SOL    HW114324   1.535   4.186   2.782
 4475SOL    HW214325   1.563   4.034   2.834
 4476SOL     OW14326   3.686   6.949   3.829
 4476SOL    HW114327   3.616   6.881   3.850
 4476SOL    HW214328   3.662   6.996   3.744
 4477SOL     OW14329   1.728   6.713   5.226
 4477SOL    HW114330   1.704   6.703   5.130
 4477SOL    HW214331   1.798   6.645   5.250
 4478SOL     OW14332   3.737   0.119   2.823
 4478SOL    HW114333   3.813   0.147   2.765
 4478SOL    HW214334   3.676   0.059   2.771
 4479SOL     OW14335   1.093   0.909   1.677
 4479SOL    HW114336   1.090   0.819   1.635
 4479SOL    HW214337   1.011   0.923   1.734
 4480SOL     OW14338   2.036   4.026   5.740
 4480SOL    HW114339   2.045   4.094   5.667
 4480SOL    HW214340   1.983   3.948   5.707
 4481SOL     OW14341   2.602   6.514   5.173
 4481SOL    HW114342   2.692   6.513   5.130
 4481SOL    HW214343   2.536   6.465   5.116
 4482SOL     OW14344   1.011   3.874   4.457
 4482SOL    HW114345   1.024   3.939   4.382
 4482SOL    HW214346   1.055   3.787   4.433
 4483SOL     OW14347   5.434   3.214   1.896
 4483SOL    HW114348   5.396   3.222   1.989
 4483SOL    HW214349   5.460   3.305   1.863
 4484SOL     OW14350   3.142   3.062   6.023
 4484SOL    HW114351   3.107   3.091   5.934
 4484SOL    HW214352   3.232   3.021   6.012
 4485SOL     OW14353   5.269   1.562   5.222
 4485SOL    HW114354   5.222   1.474   5.211
 4485SOL    HW214355   5.229   1.611   5.299
 4486SOL     OW14356   5.468   4.636   4.981
 4486SOL    HW114357   5.560   4.596   4.981
 4486SOL    HW214358   5.417   4.603   4.902
 4487SOL     OW14359   2.129   2.956   6.186
 4487SOL    HW114360   2.182   2.972   6.269
 4487SOL    HW214361   2.190   2.926   6.113
 4488SOL     OW14362   6.556   3.059   6.538
 4488SOL    HW114363   6.497   2.988   6.499
 4488SOL    HW214364   6.535   3.070   6.635
 4489SOL     OW14365   5.931   6.167   3.801
 4489SOL    HW114366   5.915   6.080   3.847
 4489SOL    HW214367   5.984   6.151   3.717
 4490SOL     OW14368   6.303   2.503   3.177
 4490SOL    HW114369   6.315   2.550   3.089
 4490SOL    HW214370   6.225   2.543   3.225
 4491SOL     OW14371   6.444   1.974   4.828
 4491SOL    HW114372   6.502   1.916   4.772
 4491SOL    HW214373   6.438   1.937   4.921
 4492SOL     OW14374   5.715   4.107   1.332
 4492SOL    HW114375   5.698   4.205   1.336
 4492SOL    HW214376   5.634   4.060   1.296
 4493SOL     OW14377   4.470   5.536   5.151
 4493SOL    HW114378   4.497   5.532   5.248
 4493SOL    HW214379   4.444   5.630   5.129
 4494SOL     OW14380   6.646   1.116   5.966
 4494SOL    HW114381   6.740   1.090   5.989
 4494SOL    HW214382   6.601   1.039   5.921
 4495SOL     OW14383   3.818   6.444   4.151
 4495SOL    HW114384   3.858   6.425   4.241
 4495SOL    HW214385   3.783   6.538   4.150
 4496SOL     OW14386   5.735   5.788   1.271
 4496SOL    HW114387   5.674   5.762   1.346
 4496SOL    HW214388   5.830   5.787   1.304
 4497SOL     OW14389   4.447   1.347   6.913
 4497SOL    HW114390   4.463   1.339   7.012
 4497SOL    HW214391   4.387   1.273   6.883
 4498SOL     OW14392   6.932   3.619   0.294
 4498SOL    HW114393   6.993   3.673   0.236
 4498SOL    HW214394   6.908   3.672   0.375
 4499SOL     OW14395   6.640   3.518   4.684
 4499SOL    HW114396   6.574   3.465   4.737
 4499SOL    HW214397   6.713   3.457   4.652
 4500SOL     OW14398   3.328   3.368   3.720
 4500SOL    HW114399   3.416   3.320   3.716
 4500SOL    HW214400   3.332   3.441   3.788
 4501SOL     OW14401   0.399   3.700   4.140
 4501SOL    HW114402   0.452   3.715   4.056
 4501SOL    HW214403   0.389   3.786   4.190
 4502SOL     OW14404   0.863   3.105   6.801
 4502SOL    HW114405   0.941   3.045   6.780
 4502SOL    HW214406   0.778   3.057   6.782
 4503SOL     OW14407   3.335   6.832   1.823
 4503SOL    HW114408   3.410   6.897   1.833
 4503SOL    HW214409   3.281   6.855   1.742
 4504SOL     OW14410   6.669   0.445   4.695
 4504SOL    HW114411   6.634   0.442   4.788
 4504SOL    HW214412   6.686   0.351   4.663
 4505SOL     OW14413   5.603   4.911   1.822
 4505SOL    HW114414   5.628   4.885   1.915
 4505SOL    HW214415   5.683   4.951   1.776
 4506SOL     OW14416   4.178   2.308   3.578
 4506SOL    HW114417   4.244   2.278   3.509
 4506SOL    HW214418   4.094   2.337   3.533
 4507SOL     OW14419   5.283   4.678   2.218
 4507SOL    HW114420   5.337   4.624   2.282
 4507SOL    HW214421   5.200   4.628   2.193
 4508SOL     OW14422   0.858   4.575   6.527
 4508SOL    HW114423   0.874   4.673   6.536
 4508SOL    HW214424   0.760   4.558   6.516
 4509SOL     OW14425   4.568   2.166   2.803
 4509SOL    HW114426   4.485   2.214   2.833
 4509SOL    HW214427   4.543   2.094   2.740
 4510SOL     OW14428   4.199   1.050   3.950
 4510SOL    HW114429   4.268   1.101   4.002
 4510SOL    HW214430   4.240   0.967   3.914
 4511SOL     OW14431   6.956   3.061   0.244
 4511SOL    HW114432   6.857   3.064   0.255
 4511SOL    HW214433   6.986   2.966   0.244
 4512SOL     OW14434   3.170   0.781   5.705
 4512SOL    HW114435   3.157   0.718   5.782
 4512SOL    HW214436   3.082   0.813   5.672
 4513SOL     OW14437   5.935   5.179   0.170
 4513SOL    HW114438   5.934   5.217   0.077
 4513SOL    HW214439   6.028   5.184   0.207
 4514SOL     OW14440   4.241   1.164   6.898
 4514SOL    HW114441   4.165   1.196   6.955
 4514SOL    HW214442   4.275   1.077   6.934
 4515SOL     OW14443   6.873   1.704   5.812
 4515SOL    HW114444   6.919   1.784   5.850
 4515SOL    HW214445   6.913   1.682   5.724
 4516SOL     OW14446   2.055   0.273   7.026
 4516SOL    HW114447   1.978   0.291   0.060
 4516SOL    HW214448   2.066   0.350   6.963
 4517SOL     OW14449   4.257   0.713   6.618
 4517SOL    HW114450   4.197   0.767   6.677
 4517SOL    HW214451   4.295   0.772   6.547
 4518SOL     OW14452   6.938   0.585   2.548
 4518SOL    HW114453   6.908   0.650   2.619
 4518SOL    HW214454   7.023   0.617   2.508
 4519SOL     OW14455   6.442   0.926   1.500
 4519SOL    HW114456   6.365   0.902   1.441
 4519SOL    HW214457   6.528   0.907   1.452
 4520SOL     OW14458   4.532   6.347   4.826
 4520SOL    HW114459   4.481   6.354   4.913
 4520SOL    HW214460   4.523   6.433   4.776
 4521SOL     OW14461   5.905   1.884   4.148
 4521SOL    HW114462   5.862   1.830   4.221
 4521SOL    HW214463   5.958   1.958   4.188
 4522SOL     OW14464   6.314   6.572   3.373
 4522SOL    HW114465   6.372   6.653   3.378
 4522SOL    HW214466   6.220   6.598   3.397
 4523SOL     OW14467   0.626   4.101   0.466
 4523SOL    HW114468   0.670   4.144   0.545
 4523SOL    HW214469   0.583   4.015   0.494
 4524SOL     OW14470   6.163   2.436   3.670
 4524SOL    HW114471   6.178   2.373   3.594
 4524SOL    HW214472   6.094   2.399   3.731
 4525SOL     OW14473   5.032   1.177   4.908
 4525SOL    HW114474   5.097   1.122   4.856
 4525SOL    HW214475   4.967   1.117   4.954
 4526SOL     OW14476   6.388   0.717   1.234
 4526SOL    HW114477   6.305   0.666   1.212
 4526SOL    HW214478   6.459   0.653   1.263
 4527SOL     OW14479   5.033   1.108   3.575
 4527SOL    HW114480   5.050   1.095   3.673
 4527SOL    HW214481   4.936   1.099   3.557
 4528SOL     OW14482   4.914   0.135   0.145
 4528SOL    HW114483   4.958   0.164   0.230
 4528SOL    HW214484   4.930   0.203   0.074
 4529SOL     OW14485   3.313   0.861   5.490
 4529SOL    HW114486   3.393   0.801   5.488
 4529SOL    HW214487   3.251   0.832   5.563
 4530SOL     OW14488   2.147   4.468   6.282
 4530SOL    HW114489   2.146   4.436   6.187
 4530SOL    HW214490   2.099   4.402   6.340
 4531SOL     OW14491   0.252   3.634   4.686
 4531SOL    HW114492   0.159   3.670   4.692
 4531SOL    HW214493   0.263   3.560   4.752
 4532SOL     OW14494   5.859   2.105   3.607
 4532SOL    HW114495   5.843   2.174   3.677
 4532SOL    HW214496   5.934   2.045   3.636
 4533SOL     OW14497   1.223   1.008   1.898
 4533SOL    HW114498   1.185   0.946   1.829
 4533SOL    HW214499   1.228   1.100   1.861
 4534SOL     OW14500   4.766   4.093   4.451
 4534SOL    HW114501   4.772   4.190   4.431
 4534SOL    HW214502   4.793   4.077   4.547
 4535SOL     OW14503   4.276   0.857   2.216
 4535SOL    HW114504   4.214   0.779   2.222
 4535SOL    HW214505   4.241   0.931   2.274
 4536SOL     OW14506   4.030   1.449   3.867
 4536SOL    HW114507   4.030   1.438   3.767
 4536SOL    HW214508   4.125   1.453   3.899
 4537SOL     OW14509   4.097   3.129   6.375
 4537SOL    HW114510   4.054   3.048   6.336
 4537SOL    HW214511   4.130   3.188   6.301
 4538SOL     OW14512   2.307   0.203   4.062
 4538SOL    HW114513   2.369   0.175   4.136
 4538SOL    HW214514   2.216   0.167   4.080
 4539SOL     OW14515   2.548   0.580   5.009
 4539SOL    HW114516   2.573   0.559   4.914
 4539SOL    HW214517   2.591   0.667   5.036
 4540SOL     OW14518   3.364   2.295   5.561
 4540SOL    HW114519   3.375   2.290   5.461
 4540SOL    HW214520   3.363   2.391   5.588
 4541SOL     OW14521   6.089   2.305   0.610
 4541SOL    HW114522   6.172   2.278   0.658
 4541SOL    HW214523   6.038   2.223   0.583
 4542SOL     OW14524   6.809   1.521   2.571
 4542SOL    HW114525   6.785   1.512   2.668
 4542SOL    HW214526   6.742   1.580   2.526
 4543SOL     OW14527   4.970   2.007   1.418
 4543SOL    HW114528   4.978   1.962   1.329
 4543SOL    HW214529   5.043   2.075   1.427
 4544SOL     OW14530   2.948   6.321   6.120
 4544SOL    HW114531   2.876   6.391   6.115
 4544SOL    HW214532   3.035   6.365   6.140
 4545SOL     OW14533   5.164   4.249   4.719
 4545SOL    HW114534   5.152   4.184   4.794
 4545SOL    HW214535   5.139   4.341   4.751
 4546SOL     OW14536   1.501   1.002   5.981
 4546SOL    HW114537   1.456   1.031   5.896
 4546SOL    HW214538   1.546   1.081   6.023
 4547SOL     OW14539   5.671   2.421   2.990
 4547SOL    HW114540   5.632   2.509   3.017
 4547SOL    HW214541   5.597   2.357   2.966
 4548SOL     OW14542   0.861   4.004   4.056
 4548SOL    HW114543   0.790   4.070   4.030
 4548SOL    HW214544   0.818   3.919   4.087
 4549SOL     OW14545   6.733   4.361   1.393
 4549SOL    HW114546   6.823   4.397   1.415
 4549SOL    HW214547   6.712   4.379   1.297
 4550SOL     OW14548   0.884   5.530   3.084
 4550SOL    HW114549   0.899   5.493   3.176
 4550SOL    HW214550   0.791   5.511   3.054
 4551SOL     OW14551   0.150   1.930   5.584
 4551SOL    HW114552   0.210   1.981   5.523
 4551SOL    HW214553   0.081   1.881   5.530
 4552SOL     OW14554   6.546   3.307   0.790
 4552SOL    HW114555   6.488   3.315   0.709
 4552SOL    HW214556   6.489   3.293   0.871
 4553SOL     OW14557   3.443   4.771   7.016
 4553SOL    HW114558   3.383   4.774   0.070
 4553SOL    HW214559   3.397   4.815   6.939
 4554SOL     OW14560   5.545   0.629   1.106
 4554SOL    HW114561   5.630   0.680   1.109
 4554SOL    HW214562   5.535   0.587   1.016
 4555SOL     OW14563   3.007   1.949   6.088
 4555SOL    HW114564   2.950   1.963   6.169
 4555SOL    HW214565   2.994   2.024   6.024
 4556SOL     OW14566   4.886   3.075   3.858
 4556SOL    HW114567   4.936   3.156   3.890
 4556SOL    HW214568   4.831   3.038   3.933
 4557SOL     OW14569   4.495   5.832   6.002
 4557SOL    HW114570   4.490   5.736   5.975
 4557SOL    HW214571   4.454   5.889   5.931
 4558SOL     OW14572   0.829   4.646   5.062
 4558SOL    HW114573   0.870   4.707   5.130
 4558SOL    HW214574   0.768   4.699   5.002
 4559SOL     OW14575   0.018   4.120   1.517
 4559SOL    HW114576   6.964   4.112   1.458
 4559SOL    HW214577   0.056   4.213   1.510
 4560SOL     OW14578   5.218   4.400   1.936
 4560SOL    HW114579   5.177   4.335   2.001
 4560SOL    HW214580   5.146   4.451   1.890
 4561SOL     OW14581   2.064   1.865   2.259
 4561SOL    HW114582   2.052   1.892   2.164
 4561SOL    HW214583   2.133   1.923   2.302
 4562SOL     OW14584   3.058   6.003   5.108
 4562SOL    HW114585   2.987   5.968   5.046
 4562SOL    HW214586   3.067   5.942   5.186
 4563SOL     OW14587   6.924   2.761   1.118
 4563SOL    HW114588   6.945   2.705   1.038
 4563SOL    HW214589   6.853   2.827   1.093
 4564SOL     OW14590   6.878   6.397   1.225
 4564SOL    HW114591   6.897   6.495   1.222
 4564SOL    HW214592   6.801   6.377   1.164
 4565SOL     OW14593   0.890   1.242   5.561
 4565SOL    HW114594   0.973   1.249   5.505
 4565SOL    HW214595   0.908   1.186   5.641
 4566SOL     OW14596   6.747   2.704   0.808
 4566SOL    HW114597   6.665   2.696   0.751
 4566SOL    HW214598   6.724   2.680   0.903
 4567SOL     OW14599   6.269   0.463   6.831
 4567SOL    HW114600   6.194   0.447   6.895
 4567SOL    HW214601   6.289   0.561   6.827
 4568SOL     OW14602   2.441   3.961   5.813
 4568SOL    HW114603   2.421   3.915   5.727
 4568SOL    HW214604   2.356   4.001   5.849
 4569SOL     OW14605   1.868   1.783   3.047
 4569SOL    HW114606   1.806   1.764   3.124
 4569SOL    HW214607   1.914   1.870   3.064
 4570SOL     OW14608   0.699   6.669   4.003
 4570SOL    HW114609   0.670   6.728   3.927
 4570SOL    HW214610   0.752   6.724   4.068
 4571SOL     OW14611   4.056   4.180   6.237
 4571SOL    HW114612   3.969   4.229   6.245
 4571SOL    HW214613   4.114   4.227   6.170
 4572SOL     OW14614   1.521   6.554   6.856
 4572SOL    HW114615   1.500   6.642   6.813
 4572SOL    HW214616   1.484   6.553   6.949
 4573SOL     OW14617   6.511   6.894   0.683
 4573SOL    HW114618   6.482   6.814   0.736
 4573SOL    HW214619   6.438   6.962   0.683
 4574SOL     OW14620   5.917   3.655   0.666
 4574SOL    HW114621   5.890   3.735   0.719
 4574SOL    HW214622   5.927   3.576   0.727
 4575SOL     OW14623   6.261   1.131   5.898
 4575SOL    HW114624   6.175   1.158   5.942
 4575SOL    HW214625   6.338   1.168   5.950
 4576SOL     OW14626   2.323   6.401   5.916
 4576SOL    HW114627   2.268   6.455   5.980
 4576SOL    HW214628   2.417   6.395   5.950
 4577SOL     OW14629   1.154   2.116   4.375
 4577SOL    HW114630   1.085   2.111   4.447
 4577SOL    HW214631   1.238   2.155   4.412
 4578SOL     OW14632   0.737   3.336   4.932
 4578SOL    HW114633   0.742   3.370   5.026
 4578SOL    HW214634   0.811   3.271   4.915
 4579SOL     OW14635   4.264   0.944   2.728
 4579SOL    HW114636   4.169   0.976   2.721
 4579SOL    HW214637   4.276   0.863   2.671
 4580SOL     OW14638   5.194   4.861   0.755
 4580SOL    HW114639   5.137   4.900   0.827
 4580SOL    HW214640   5.140   4.851   0.672
 4581SOL     OW14641   2.495   4.456   2.497
 4581SOL    HW114642   2.510   4.357   2.491
 4581SOL    HW214643   2.479   4.482   2.592
 4582SOL     OW14644   5.534   6.914   4.845
 4582SOL    HW114645   5.501   6.826   4.880
 4582SOL    HW214646   5.457   6.977   4.836
 4583SOL     OW14647   2.666   2.232   6.041
 4583SOL    HW114648   2.610   2.176   5.979
 4583SOL    HW214649   2.684   2.180   6.125
 4584SOL     OW14650   6.972   4.882   5.888
 4584SOL    HW114651   0.044   4.871   5.898
 4584SOL    HW214652   6.934   4.920   5.972
 4585SOL     OW14653   2.765   6.674   2.779
 4585SOL    HW114654   2.691   6.740   2.775
 4585SOL    HW214655   2.735   6.587   2.740
 4586SOL     OW14656   3.360   5.265   0.879
 4586SOL    HW114657   3.289   5.324   0.842
 4586SOL    HW214658   3.428   5.320   0.928
 4587SOL     OW14659   3.496   3.828   2.571
 4587SOL    HW114660   3.436   3.753   2.598
 4587SOL    HW214661   3.527   3.877   2.653
 4588SOL     OW14662   3.466   3.708   5.205
 4588SOL    HW114663   3.566   3.708   5.212
 4588SOL    HW214664   3.437   3.639   5.139
 4589SOL     OW14665   6.125   1.052   2.448
 4589SOL    HW114666   6.043   1.078   2.396
 4589SOL    HW214667   6.131   1.107   2.531
 4590SOL     OW14668   5.376   6.060   1.209
 4590SOL    HW114669   5.467   6.020   1.207
 4590SOL    HW214670   5.375   6.139   1.270
 4591SOL     OW14671   0.963   6.119   4.724
 4591SOL    HW114672   0.902   6.174   4.781
 4591SOL    HW214673   0.923   6.029   4.708
 4592SOL     OW14674   2.994   1.668   1.659
 4592SOL    HW114675   3.043   1.591   1.699
 4592SOL    HW214676   3.047   1.752   1.673
 4593SOL     OW14677   4.598   5.253   3.319
 4593SOL    HW114678   4.598   5.209   3.408
 4593SOL    HW214679   4.542   5.335   3.322
 4594SOL     OW14680   3.110   1.349   2.623
 4594SOL    HW114681   3.127   1.445   2.602
 4594SOL    HW214682   3.197   1.303   2.641
 4595SOL     OW14683   4.029   2.821   6.514
 4595SOL    HW114684   3.984   2.733   6.504
 4595SOL    HW214685   3.960   2.893   6.527
 4596SOL     OW14686   6.177   6.783   2.149
 4596SOL    HW114687   6.227   6.716   2.093
 4596SOL    HW214688   6.147   6.739   2.234
 4597SOL     OW14689   4.021   5.077   6.382
 4597SOL    HW114690   3.989   5.170   6.400
 4597SOL    HW214691   3.979   5.013   6.446
 4598SOL     OW14692   2.517   6.040   6.292
 4598SOL    HW114693   2.497   6.129   6.252
 4598SOL    HW214694   2.457   6.025   6.371
 4599SOL     OW14695   0.744   5.463   1.404
 4599SOL    HW114696   0.838   5.474   1.370
 4599SOL    HW214697   0.679   5.482   1.330
 4600SOL     OW14698   1.331   5.123   5.395
 4600SOL    HW114699   1.270   5.044   5.396
 4600SOL    HW214700   1.425   5.094   5.416
 4601SOL     OW14701   2.265   0.574   5.417
 4601SOL    HW114702   2.243   0.498   5.355
 4601SOL    HW214703   2.251   0.544   5.511
 4602SOL     OW14704   1.679   6.128   1.356
 4602SOL    HW114705   1.647   6.185   1.280
 4602SOL    HW214706   1.635   6.038   1.350
 4603SOL     OW14707   3.188   6.305   0.716
 4603SOL    HW114708   3.188   6.363   0.798
 4603SOL    HW214709   3.248   6.227   0.730
 4604SOL     OW14710   4.298   0.439   0.911
 4604SOL    HW114711   4.326   0.359   0.858
 4604SOL    HW214712   4.222   0.485   0.865
 4605SOL     OW14713   2.955   0.495   2.987
 4605SOL    HW114714   2.898   0.478   2.906
 4605SOL    HW214715   2.916   0.570   3.040
 4606SOL     OW14716   1.119   6.508   1.851
 4606SOL    HW114717   1.140   6.548   1.941
 4606SOL    HW214718   1.032   6.546   1.818
 4607SOL     OW14719   1.857   2.490   1.426
 4607SOL    HW114720   1.801   2.561   1.384
 4607SOL    HW214721   1.890   2.522   1.514
 4608SOL     OW14722   0.573   6.204   3.829
 4608SOL    HW114723   0.626   6.266   3.887
 4608SOL    HW214724   0.508   6.154   3.886
 4609SOL     OW14725   4.604   5.220   6.920
 4609SOL    HW114726   4.659   5.279   6.979
 4609SOL    HW214727   4.563   5.275   6.847
 4610SOL     OW14728   5.068   2.879   0.695
 4610SOL    HW114729   5.000   2.888   0.768
 4610SOL    HW214730   5.138   2.813   0.722
 4611SOL     OW14731   0.489   5.685   5.840
 4611SOL    HW114732   0.517   5.769   5.793
 4611SOL    HW214733   0.408   5.648   5.795
 4612SOL     OW14734   1.455   5.733   0.056
 4612SOL    HW114735   1.477   5.813   0.112
 4612SOL    HW214736   1.530   5.714   7.020
 4613SOL     OW14737   2.657   6.333   1.963
 4613SOL    HW114738   2.612   6.264   1.906
 4613SOL    HW214739   2.737   6.370   1.915
 4614SOL     OW14740   7.008   3.183   4.906
 4614SOL    HW114741   0.073   3.151   4.882
 4614SOL    HW214742   7.013   3.239   4.989
 4615SOL     OW14743   2.054   7.020   0.162
 4615SOL    HW114744   2.062   6.970   0.076
 4615SOL    HW214745   2.033   0.090   0.142
 4616SOL     OW14746   6.690   0.279   5.238
 4616SOL    HW114747   6.646   0.214   5.300
 4616SOL    HW214748   6.773   0.239   5.200
 4617SOL     OW14749   0.734   2.493   2.291
 4617SOL    HW114750   0.828   2.485   2.323
 4617SOL    HW214751   0.726   2.570   2.228
 4618SOL     OW14752   2.116   2.903   4.870
 4618SOL    HW114753   2.178   2.946   4.936
 4618SOL    HW214754   2.144   2.809   4.855
 4619SOL     OW14755   3.195   6.330   3.369
 4619SOL    HW114756   3.292   6.342   3.389
 4619SOL    HW214757   3.156   6.418   3.340
 4620SOL     OW14758   2.081   4.583   0.589
 4620SOL    HW114759   2.022   4.502   0.579
 4620SOL    HW214760   2.057   4.650   0.519
 4621SOL     OW14761   5.469   1.131   2.262
 4621SOL    HW114762   5.456   1.178   2.349
 4621SOL    HW214763   5.478   1.198   2.188
 4622SOL     OW14764   2.328   4.612   0.708
 4622SOL    HW114765   2.244   4.604   0.653
 4622SOL    HW214766   2.396   4.666   0.658
 4623SOL     OW14767   5.375   6.518   0.361
 4623SOL    HW114768   5.330   6.561   0.284
 4623SOL    HW214769   5.422   6.435   0.331
 4624SOL     OW14770   4.657   6.628   3.544
 4624SOL    HW114771   4.607   6.690   3.483
 4624SOL    HW214772   4.707   6.681   3.613
 4625SOL     OW14773   2.188   3.824   0.875
 4625SOL    HW114774   2.160   3.728   0.868
 4625SOL    HW214775   2.192   3.850   0.972
 4626SOL     OW14776   5.080   4.576   2.638
 4626SOL    HW114777   5.139   4.606   2.713
 4626SOL    HW214778   5.098   4.631   2.557
 4627SOL     OW14779   2.260   4.675   4.714
 4627SOL    HW114780   2.251   4.577   4.700
 4627SOL    HW214781   2.276   4.694   4.811
 4628SOL     OW14782   6.178   4.647   3.961
 4628SOL    HW114783   6.272   4.660   3.992
 4628SOL    HW214784   6.118   4.712   4.006
 4629SOL     OW14785   2.064   5.081   5.375
 4629SOL    HW114786   2.031   5.147   5.442
 4629SOL    HW214787   2.039   5.111   5.283
 4630SOL     OW14788   3.012   5.339   2.483
 4630SOL    HW114789   3.108   5.327   2.461
 4630SOL    HW214790   2.956   5.289   2.417
 4631SOL     OW14791   2.170   6.445   2.496
 4631SOL    HW114792   2.143   6.407   2.584
 4631SOL    HW214793   2.252   6.397   2.463
 4632SOL     OW14794   3.486   4.868   2.409
 4632SOL    HW114795   3.534   4.949   2.443
 4632SOL    HW214796   3.391   4.870   2.439
 4633SOL     OW14797   4.966   0.024   4.617
 4633SOL    HW114798   4.881   0.067   4.586
 4633SOL    HW214799   4.949   7.000   4.701
 4634SOL     OW14800   2.792   5.009   5.921
 4634SOL    HW114801   2.870   5.017   5.983
 4634SOL    HW214802   2.814   4.945   5.847
 4635SOL     OW14803   5.383   3.868   1.411
 4635SOL    HW114804   5.391   3.845   1.314
 4635SOL    HW214805   5.364   3.966   1.421
 4636SOL     OW14806   1.654   4.483   6.948
 4636SOL    HW114807   1.609   4.489   0.010
 4636SOL    HW214808   1.707   4.566   6.933
 4637SOL     OW14809   1.258   6.955   0.613
 4637SOL    HW114810   1.240   6.910   0.701
 4637SOL    HW214811   1.176   6.947   0.555
 4638SOL     OW14812   5.323   4.138   6.483
 4638SOL    HW114813   5.371   4.167   6.566
 4638SOL    HW214814   5.249   4.202   6.464
 4639SOL     OW14815   3.090   4.392   6.229
 4639SOL    HW114816   3.027   4.377   6.305
 4639SOL    HW214817   3.129   4.484   6.236
 4640SOL     OW14818   5.028   3.818   3.547
 4640SOL    HW114819   4.969   3.776   3.478
 4640SOL    HW214820   5.123   3.812   3.517
 4641SOL     OW14821   2.113   6.862   5.247
 4641SOL    HW114822   2.103   6.789   5.315
 4641SOL    HW214823   2.113   6.951   5.293
 4642SOL     OW14824   0.324   5.310   3.811
 4642SOL    HW114825   0.304   5.216   3.786
 4642SOL    HW214826   0.266   5.337   3.888
 4643SOL     OW14827   6.136   2.910   1.153
 4643SOL    HW114828   6.036   2.913   1.142
 4643SOL    HW214829   6.177   2.859   1.078
 4644SOL     OW14830   6.840   4.935   4.842
 4644SOL    HW114831   6.850   4.930   4.941
 4644SOL    HW214832   6.811   4.845   4.807
 4645SOL     OW14833   0.969   0.717   4.510
 4645SOL    HW114834   1.007   0.719   4.418
 4645SOL    HW214835   1.043   0.703   4.576
 4646SOL     OW14836   1.697   5.644   3.622
 4646SOL    HW114837   1.734   5.554   3.597
 4646SOL    HW214838   1.773   5.705   3.643
 4647SOL     OW14839   1.560   0.772   3.306
 4647SOL    HW114840   1.571   0.734   3.398
 4647SOL    HW214841   1.468   0.809   3.296
 4648SOL     OW14842   3.899   0.961   2.241
 4648SOL    HW114843   3.982   0.992   2.194
 4648SOL    HW214844   3.921   0.881   2.297
 4649SOL     OW14845   5.358   6.911   6.541
 4649SOL    HW114846   5.258   6.911   6.541
 4649SOL    HW214847   5.391   6.987   6.484
 4650SOL     OW14848   4.446   5.380   2.579
 4650SOL    HW114849   4.396   5.399   2.664
 4650SOL    HW214850   4.470   5.283   2.576
 4651SOL     OW14851   6.845   2.396   0.458
 4651SOL    HW114852   6.932   2.377   0.412
 4651SOL    HW214853   6.864   2.430   0.550
 4652SOL     OW14854   6.544   6.923   4.095
 4652SOL    HW114855   6.643   6.912   4.091
 4652SOL    HW214856   6.500   6.847   4.046
 4653SOL     OW14857   5.887   4.944   0.779
 4653SOL    HW114858   5.922   4.880   0.711
 4653SOL    HW214859   5.787   4.940   0.781
 4654SOL     OW14860   1.100   6.675   0.294
 4654SOL    HW114861   1.013   6.670   0.245
 4654SOL    HW214862   1.162   6.737   0.246
 4655SOL     OW14863   5.115   4.207   1.490
 4655SOL    HW114864   5.019   4.189   1.510
 4655SOL    HW214865   5.169   4.198   1.574
 4656SOL     OW14866   1.114   1.088   3.075
 4656SOL    HW114867   1.082   0.994   3.085
 4656SOL    HW214868   1.188   1.092   3.007
 4657SOL     OW14869   5.171   6.159   1.785
 4657SOL    HW114870   5.244   6.142   1.719
 4657SOL    HW214871   5.084   6.127   1.747
 4658SOL     OW14872   3.767   1.294   2.854
 4658SOL    HW114873   3.746   1.213   2.908
 4658SOL    HW214874   3.682   1.341   2.829
 4659SOL     OW14875   3.181   4.984   5.145
 4659SOL    HW114876   3.131   5.016   5.065
 4659SOL    HW214877   3.117   4.942   5.210
 4660SOL     OW14878   1.307   4.340   6.275
 4660SOL    HW114879   1.239   4.370   6.343
 4660SOL    HW214880   1.358   4.419   6.242
 4661SOL     OW14881   3.131   4.203   5.553
 4661SOL    HW114882   3.218   4.251   5.558
 4661SOL    HW214883   3.073   4.245   5.484
 4662SOL     OW14884   3.322   0.161   5.663
 4662SOL    HW114885   3.362   0.244   5.624
 4662SOL    HW214886   3.255   0.123   5.599
 4663SOL     OW14887   0.178   2.474   2.369
 4663SOL    HW114888   0.215   2.392   2.413
 4663SOL    HW214889   0.080   2.481   2.388
 4664SOL     OW14890   1.510   1.405   0.814
 4664SOL    HW114891   1.454   1.348   0.755
 4664SOL    HW214892   1.455   1.437   0.892
 4665SOL     OW14893   3.455   6.838   6.607
 4665SOL    HW114894   3.494   6.903   6.542
 4665SOL    HW214895   3.425   6.887   6.689
 4666SOL     OW14896   1.366   2.392   0.544
 4666SOL    HW114897   1.381   2.324   0.472
 4666SOL    HW214898   1.380   2.484   0.507
 4667SOL     OW14899   6.106   3.653   2.728
 4667SOL    HW114900   6.132   3.669   2.823
 4667SOL    HW214901   6.063   3.735   2.691
 4668SOL     OW14902   4.228   1.984   2.520
 4668SOL    HW114903   4.169   2.025   2.451
 4668SOL    HW214904   4.264   2.056   2.580
 4669SOL     OW14905   5.080   5.983   6.281
 4669SOL    HW114906   5.101   5.903   6.338
 4669SOL    HW214907   5.007   5.959   6.216
 4670SOL     OW14908   3.005   2.215   5.346
 4670SOL    HW114909   3.086   2.249   5.298
 4670SOL    HW214910   2.974   2.283   5.412
 4671SOL     OW14911   6.465   2.684   1.610
 4671SOL    HW114912   6.388   2.632   1.648
 4671SOL    HW214913   6.443   2.782   1.613
 4672SOL     OW14914   2.741   4.556   6.208
 4672SOL    HW114915   2.794   4.612   6.271
 4672SOL    HW214916   2.764   4.580   6.113
 4673SOL     OW14917   5.032   0.297   1.845
 4673SOL    HW114918   4.985   0.323   1.929
 4673SOL    HW214919   5.129   0.321   1.852
 4674SOL     OW14920   5.298   6.706   6.033
 4674SOL    HW114921   5.313   6.768   5.955
 4674SOL    HW214922   5.304   6.758   6.118
 4675SOL     OW14923   1.813   1.377   6.298
 4675SOL    HW114924   1.822   1.446   6.370
 4675SOL    HW214925   1.865   1.406   6.218
 4676SOL     OW14926   0.355   6.492   3.843
 4676SOL    HW114927   0.303   6.463   3.924
 4676SOL    HW214928   0.439   6.439   3.837
 4677SOL     OW14929   2.704   1.447   6.483
 4677SOL    HW114930   2.687   1.450   6.384
 4677SOL    HW214931   2.775   1.380   6.503
 4678SOL     OW14932   1.588   4.612   3.251
 4678SOL    HW114933   1.682   4.607   3.283
 4678SOL    HW214934   1.585   4.649   3.158
 4679SOL     OW14935   4.105   0.363   0.449
 4679SOL    HW114936   4.033   0.432   0.444
 4679SOL    HW214937   4.091   0.307   0.531
 4680SOL     OW14938   3.099   1.630   0.310
 4680SOL    HW114939   3.181   1.687   0.300
 4680SOL    HW214940   3.063   1.607   0.219
 4681SOL     OW14941   5.233   5.259   6.849
 4681SOL    HW114942   5.214   5.216   6.761
 4681SOL    HW214943   5.283   5.195   6.907
 4682SOL     OW14944   4.619   4.320   5.523
 4682SOL    HW114945   4.530   4.346   5.561
 4682SOL    HW214946   4.612   4.230   5.480
 4683SOL     OW14947   4.220   4.650   2.527
 4683SOL    HW114948   4.124   4.664   2.552
 4683SOL    HW214949   4.254   4.730   2.478
 4684SOL     OW14950   5.899   0.569   5.154
 4684SOL    HW114951   5.973   0.617   5.106
 4684SOL    HW214952   5.811   0.598   5.115
 4685SOL     OW14953   1.053   6.132   5.701
 4685SOL    HW114954   1.065   6.100   5.607
 4685SOL    HW214955   1.131   6.102   5.756
 4686SOL     OW14956   4.435   5.155   0.443
 4686SOL    HW114957   4.392   5.094   0.377
 4686SOL    HW214958   4.508   5.106   0.491
 4687SOL     OW14959   6.210   3.774   4.456
 4687SOL    HW114960   6.224   3.692   4.512
 4687SOL    HW214961   6.298   3.809   4.425
 4688SOL     OW14962   5.831   4.301   4.672
 4688SOL    HW114963   5.743   4.323   4.629
 4688SOL    HW214964   5.834   4.204   4.694
 4689SOL     OW14965   5.058   1.058   0.126
 4689SOL    HW114966   5.085   0.964   0.146
 4689SOL    HW214967   5.064   1.112   0.210
 4690SOL     OW14968   1.363   0.465   6.832
 4690SOL    HW114969   1.311   0.504   6.908
 4690SOL    HW214970   1.399   0.376   6.857
 4691SOL     OW14971   2.547   5.039   1.545
 4691SOL    HW114972   2.624   5.057   1.483
 4691SOL    HW214973   2.530   5.120   1.600
 4692SOL     OW14974   5.937   5.891   1.670
 4692SOL    HW114975   5.910   5.795   1.665
 4692SOL    HW214976   5.874   5.940   1.730
 4693SOL     OW14977   1.288   1.972   3.533
 4693SOL    HW114978   1.306   2.031   3.454
 4693SOL    HW214979   1.218   2.013   3.591
 4694SOL     OW14980   2.144   0.914   0.029
 4694SOL    HW114981   2.165   0.994   7.000
 4694SOL    HW214982   2.064   0.934   0.086
 4695SOL     OW14983   1.113   3.243   2.005
 4695SOL    HW114984   1.080   3.304   2.077
 4695SOL    HW214985   1.065   3.155   2.012
 4696SOL     OW14986   0.248   4.160   0.059
 4696SOL    HW114987   0.301   4.119   7.012
 4696SOL    HW214988   0.300   4.153   0.145
 4697SOL     OW14989   1.859   3.305   0.661
 4697SOL    HW114990   1.815   3.253   0.589
 4697SOL    HW214991   1.790   3.346   0.721
 4698SOL     OW14992   4.548   5.126   2.599
 4698SOL    HW114993   4.557   5.051   2.534
 4698SOL    HW214994   4.637   5.170   2.612
 4699SOL     OW14995   1.511   6.648   2.346
 4699SOL    HW114996   1.419   6.614   2.365
 4699SOL    HW214997   1.509   6.704   2.263
 4700SOL     OW14998   0.081   1.463   3.564
 4700SOL    HW114999   0.004   1.400   3.557
 4700SOL    HW215000   0.049   1.558   3.557
 4701SOL     OW15001   2.461   2.599   0.523
 4701SOL    HW115002   2.382   2.643   0.566
 4701SOL    HW215003   2.430   2.519   0.471
 4702SOL     OW15004   4.815   4.993   0.002
 4702SOL    HW115005   4.792   4.984   6.931
 4702SOL    HW215006   4.827   4.903   0.042
 4703SOL     OW15007   0.706   1.562   1.698
 4703SOL    HW115008   0.698   1.576   1.796
 4703SOL    HW215009   0.648   1.629   1.650
 4704SOL     OW15010   0.555   6.147   0.114
 4704SOL    HW115011   0.638   6.163   0.168
 4704SOL    HW215012   0.579   6.111   0.024
 4705SOL     OW15013   3.577   3.039   1.648
 4705SOL    HW115014   3.577   2.958   1.589
 4705SOL    HW215015   3.571   3.010   1.744
 4706SOL     OW15016   3.188   7.015   0.129
 4706SOL    HW115017   3.089   0.001   0.132
 4706SOL    HW215018   3.230   0.035   0.207
 4707SOL     OW15019   1.959   6.914   0.973
 4707SOL    HW115020   1.938   6.969   0.893
 4707SOL    HW215021   1.891   6.930   1.044
 4708SOL     OW15022   1.197   1.718   6.311
 4708SOL    HW115023   1.154   1.630   6.328
 4708SOL    HW215024   1.183   1.778   6.390
 4709SOL     OW15025   4.647   5.484   5.745
 4709SOL    HW115026   4.589   5.548   5.695
 4709SOL    HW215027   4.665   5.404   5.689
 4710SOL     OW15028   5.172   6.794   5.361
 4710SOL    HW115029   5.236   6.858   5.319
 4710SOL    HW215030   5.163   6.815   5.458
 4711SOL     OW15031   6.093   1.387   1.532
 4711SOL    HW115032   6.046   1.425   1.611
 4711SOL    HW215033   6.092   1.287   1.537
 4712SOL     OW15034   2.764   4.321   0.196
 4712SOL    HW115035   2.843   4.318   0.135
 4712SOL    HW215036   2.691   4.375   0.153
 4713SOL     OW15037   3.697   4.196   1.070
 4713SOL    HW115038   3.665   4.290   1.073
 4713SOL    HW215039   3.792   4.194   1.039
 4714SOL     OW15040   0.490   1.874   6.335
 4714SOL    HW115041   0.410   1.907   6.383
 4714SOL    HW215042   0.520   1.787   6.376
 4715SOL     OW15043   5.577   2.544   2.554
 4715SOL    HW115044   5.493   2.544   2.500
 4715SOL    HW215045   5.576   2.623   2.616
 4716SOL     OW15046   4.519   6.054   6.616
 4716SOL    HW115047   4.431   6.017   6.646
 4716SOL    HW215048   4.570   6.088   6.695
 4717SOL     OW15049   6.799   6.887   4.023
 4717SOL    HW115050   6.868   6.821   4.053
 4717SOL    HW215051   6.843   6.960   3.971
 4718SOL     OW15052   5.124   2.407   1.806
 4718SOL    HW115053   5.198   2.425   1.871
 4718SOL    HW215054   5.055   2.479   1.815
 4719SOL     OW15055   4.766   3.134   1.687
 4719SOL    HW115056   4.711   3.089   1.758
 4719SOL    HW215057   4.839   3.073   1.657
 4720SOL     OW15058   2.388   5.724   6.260
 4720SOL    HW115059   2.330   5.686   6.189
 4720SOL    HW215060   2.389   5.662   6.339
 4721SOL     OW15061   6.497   2.308   2.299
 4721SOL    HW115062   6.470   2.292   2.394
 4721SOL    HW215063   6.501   2.406   2.281
 4722SOL     OW15064   1.051   6.136   6.556
 4722SOL    HW115065   0.959   6.112   6.586
 4722SOL    HW215066   1.118   6.103   6.623
 4723SOL     OW15067   2.733   3.724   5.816
 4723SOL    HW115068   2.797   3.679   5.878
 4723SOL    HW215069   2.746   3.823   5.820
 4724SOL     OW15070   5.923   6.624   2.855
 4724SOL    HW115071   5.977   6.573   2.787
 4724SOL    HW215072   5.910   6.568   2.936
 4725SOL     OW15073   6.420   5.507   1.389
 4725SOL    HW115074   6.499   5.447   1.376
 4725SOL    HW215075   6.353   5.461   1.448
 4726SOL     OW15076   1.255   2.471   6.113
 4726SOL    HW115077   1.274   2.529   6.034
 4726SOL    HW215078   1.157   2.451   6.118
 4727SOL     OW15079   1.194   5.900   1.074
 4727SOL    HW115080   1.250   5.846   1.137
 4727SOL    HW215081   1.252   5.940   1.003
 4728SOL     OW15082   5.920   0.995   1.857
 4728SOL    HW115083   5.980   0.975   1.934
 4728SOL    HW215084   5.829   0.958   1.875
 4729SOL     OW15085   3.583   1.716   0.676
 4729SOL    HW115086   3.613   1.633   0.627
 4729SOL    HW215087   3.483   1.718   0.680
 4730SOL     OW15088   3.493   5.894   5.508
 4730SOL    HW115089   3.562   5.960   5.479
 4730SOL    HW215090   3.476   5.903   5.606
 4731SOL     OW15091   4.219   0.472   6.718
 4731SOL    HW115092   4.120   0.461   6.732
 4731SOL    HW215093   4.239   0.569   6.703
 4732SOL     OW15094   1.280   3.935   5.833
 4732SOL    HW115095   1.229   3.949   5.917
 4732SOL    HW215096   1.364   3.990   5.834
 4733SOL     OW15097   1.107   4.006   3.792
 4733SOL    HW115098   1.164   3.998   3.874
 4733SOL    HW215099   1.050   4.087   3.799
 4734SOL     OW15100   3.837   2.699   0.197
 4734SOL    HW115101   3.874   2.792   0.204
 4734SOL    HW215102   3.876   2.654   0.116
 4735SOL     OW15103   6.172   5.792   3.984
 4735SOL    HW115104   6.090   5.847   3.968
 4735SOL    HW215105   6.246   5.825   3.925
 4736SOL     OW15106   6.440   1.631   5.225
 4736SOL    HW115107   6.366   1.565   5.220
 4736SOL    HW215108   6.426   1.690   5.305
 4737SOL     OW15109   2.556   4.584   1.877
 4737SOL    HW115110   2.512   4.661   1.832
 4737SOL    HW215111   2.643   4.614   1.918
 4738SOL     OW15112   0.479   6.380   2.820
 4738SOL    HW115113   0.549   6.413   2.757
 4738SOL    HW215114   0.500   6.286   2.847
 4739SOL     OW15115   3.842   0.780   3.168
 4739SOL    HW115116   3.894   0.772   3.254
 4739SOL    HW215117   3.893   0.837   3.104
 4740SOL     OW15118   0.907   1.614   1.497
 4740SOL    HW115119   0.838   1.615   1.569
 4740SOL    HW215120   0.864   1.587   1.410
 4741SOL     OW15121   4.945   3.308   0.620
 4741SOL    HW115122   4.859   3.339   0.580
 4741SOL    HW215123   5.012   3.382   0.618
 4742SOL     OW15124   3.165   6.772   6.454
 4742SOL    HW115125   3.163   6.825   6.539
 4742SOL    HW215126   3.197   6.830   6.379
 4743SOL     OW15127   2.009   3.300   4.079
 4743SOL    HW115128   1.961   3.317   4.165
 4743SOL    HW215129   1.951   3.328   4.002
 4744SOL     OW15130   1.848   4.172   0.408
 4744SOL    HW115131   1.808   4.154   0.319
 4744SOL    HW215132   1.777   4.167   0.478
 4745SOL     OW15133   3.013   4.879   0.090
 4745SOL    HW115134   3.105   4.843   0.110
 4745SOL    HW215135   3.004   4.970   0.128
 4746SOL     OW15136   5.265   5.610   2.441
 4746SOL    HW115137   5.324   5.535   2.414
 4746SOL    HW215138   5.318   5.679   2.491
 4747SOL     OW15139   1.562   3.606   6.643
 4747SOL    HW115140   1.533   3.539   6.712
 4747SOL    HW215141   1.620   3.561   6.575
 4748SOL     OW15142   1.357   4.940   0.745
 4748SOL    HW115143   1.413   4.982   0.674
 4748SOL    HW215144   1.380   4.980   0.834
 4749SOL     OW15145   2.372   6.244   5.606
 4749SOL    HW115146   2.430   6.320   5.576
 4749SOL    HW215147   2.301   6.278   5.667
 4750SOL     OW15148   0.422   4.234   3.835
 4750SOL    HW115149   0.392   4.160   3.775
 4750SOL    HW215150   0.479   4.298   3.782
 4751SOL     OW15151   4.157   1.928   2.073
 4751SOL    HW115152   4.142   2.016   2.029
 4751SOL    HW215153   4.104   1.923   2.157
 4752SOL     OW15154   4.359   0.784   6.359
 4752SOL    HW115155   4.361   0.693   6.399
 4752SOL    HW215156   4.286   0.790   6.292
 4753SOL     OW15157   5.450   0.253   4.253
 4753SOL    HW115158   5.513   0.220   4.324
 4753SOL    HW215159   5.407   0.338   4.284
 4754SOL     OW15160   5.887   6.115   4.965
 4754SOL    HW115161   5.958   6.056   4.926
 4754SOL    HW215162   5.878   6.096   5.062
 4755SOL     OW15163   2.236   0.486   1.019
 4755SOL    HW115164   2.254   0.567   0.962
 4755SOL    HW215165   2.174   0.510   1.093
 4756SOL     OW15166   5.719   2.727   0.410
 4756SOL    HW115167   5.763   2.638   0.396
 4756SOL    HW215168   5.668   2.727   0.496
 4757SOL     OW15169   2.372   1.806   1.020
 4757SOL    HW115170   2.338   1.773   1.109
 4757SOL    HW215171   2.296   1.811   0.956
 4758SOL     OW15172   2.179   5.951   3.979
 4758SOL    HW115173   2.151   6.037   3.936
 4758SOL    HW215174   2.208   5.886   3.909
 4759SOL     OW15175   6.117   4.314   5.572
 4759SOL    HW115176   6.045   4.332   5.505
 4759SOL    HW215177   6.158   4.401   5.601
 4760SOL     OW15178   2.275   2.371   0.670
 4760SOL    HW115179   2.188   2.393   0.716
 4760SOL    HW215180   2.290   2.436   0.595
 4761SOL     OW15181   0.793   6.233   0.234
 4761SOL    HW115182   0.801   6.191   0.324
 4761SOL    HW215183   0.859   6.309   0.227
 4762SOL     OW15184   0.496   6.213   2.245
 4762SOL    HW115185   0.554   6.145   2.289
 4762SOL    HW215186   0.537   6.241   2.158
 4763SOL     OW15187   5.865   0.062   3.152
 4763SOL    HW115188   5.908   0.043   3.064
 4763SOL    HW215189   5.860   0.161   3.165
 4764SOL     OW15190   4.804   3.855   4.354
 4764SOL    HW115191   4.802   3.945   4.399
 4764SOL    HW215192   4.713   3.813   4.362
 4765SOL     OW15193   5.047   1.048   4.084
 4765SOL    HW115194   5.085   1.035   4.175
 4765SOL    HW215195   5.024   1.144   4.071
 4766SOL     OW15196   5.228   6.083   4.386
 4766SOL    HW115197   5.171   6.097   4.305
 4766SOL    HW215198   5.228   6.166   4.442
 4767SOL     OW15199   3.276   5.755   5.731
 4767SOL    HW115200   3.361   5.800   5.758
 4767SOL    HW215201   3.202   5.822   5.726
 4768SOL     OW15202   4.542   2.154   6.168
 4768SOL    HW115203   4.487   2.101   6.104
 4768SOL    HW215204   4.523   2.251   6.156
 4769SOL     OW15205   4.805   4.234   6.755
 4769SOL    HW115206   4.802   4.170   6.678
 4769SOL    HW215207   4.866   4.310   6.732
 4770SOL     OW15208   0.626   1.088   4.295
 4770SOL    HW115209   0.642   0.989   4.297
 4770SOL    HW215210   0.657   1.125   4.208
 4771SOL     OW15211   2.813   6.094   5.322
 4771SOL    HW115212   2.771   6.176   5.363
 4771SOL    HW215213   2.820   6.106   5.223
 4772SOL     OW15214   3.905   5.085   1.255
 4772SOL    HW115215   3.977   5.087   1.324
 4772SOL    HW215216   3.916   5.004   1.197
 4773SOL     OW15217   6.872   5.455   3.509
 4773SOL    HW115218   6.906   5.519   3.578
 4773SOL    HW215219   6.923   5.369   3.515
 4774SOL     OW15220   1.690   3.101   1.391
 4774SOL    HW115221   1.626   3.035   1.432
 4774SOL    HW215222   1.640   3.162   1.330
 4775SOL     OW15223   5.378   6.701   2.597
 4775SOL    HW115224   5.374   6.601   2.593
 4775SOL    HW215225   5.292   6.740   2.563
 4776SOL     OW15226   1.233   6.464   5.356
 4776SOL    HW115227   1.147   6.415   5.335
 4776SOL    HW215228   1.309   6.398   5.356
 4777SOL     OW15229   2.063   5.221   1.210
 4777SOL    HW115230   2.076   5.318   1.188
 4777SOL    HW215231   1.968   5.195   1.194
 4778SOL     OW15232   6.298   2.492   4.145
 4778SOL    HW115233   6.267   2.544   4.065
 4778SOL    HW215234   6.227   2.493   4.215
 4779SOL     OW15235   6.381   5.707   2.279
 4779SOL    HW115236   6.473   5.747   2.270
 4779SOL    HW215237   6.315   5.781   2.291
 4780SOL     OW15238   5.723   1.010   0.184
 4780SOL    HW115239   5.657   0.965   0.244
 4780SOL    HW215240   5.797   1.049   0.240
 4781SOL     OW15241   2.246   5.497   2.383
 4781SOL    HW115242   2.205   5.468   2.470
 4781SOL    HW215243   2.210   5.587   2.359
 4782SOL     OW15244   5.384   5.575   0.604
 4782SOL    HW115245   5.453   5.595   0.535
 4782SOL    HW215246   5.398   5.634   0.684
 4783SOL     OW15247   4.464   3.642   6.784
 4783SOL    HW115248   4.546   3.698   6.776
 4783SOL    HW215249   4.484   3.549   6.751
 4784SOL     OW15250   6.395   3.755   6.798
 4784SOL    HW115251   6.481   3.753   6.747
 4784SOL    HW215252   6.350   3.666   6.790
 4785SOL     OW15253   1.476   6.617   2.836
 4785SOL    HW115254   1.449   6.594   2.742
 4785SOL    HW215255   1.425   6.696   2.867
 4786SOL     OW15256   2.410   1.219   0.203
 4786SOL    HW115257   2.403   1.137   0.259
 4786SOL    HW215258   2.499   1.263   0.218
 4787SOL     OW15259   3.970   1.528   2.439
 4787SOL    HW115260   4.034   1.472   2.387
 4787SOL    HW215261   3.999   1.624   2.435
 4788SOL     OW15262   0.272   5.962   6.334
 4788SOL    HW115263   0.323   6.025   6.392
 4788SOL    HW215264   0.336   5.902   6.285
 4789SOL     OW15265   4.890   1.886   1.161
 4789SOL    HW115266   4.929   1.842   1.079
 4789SOL    HW215267   4.793   1.863   1.167
 4790SOL     OW15268   6.014   2.330   5.222
 4790SOL    HW115269   6.033   2.279   5.138
 4790SOL    HW215270   6.000   2.426   5.200
 4791SOL     OW15271   0.186   2.618   1.383
 4791SOL    HW115272   0.106   2.610   1.442
 4791SOL    HW215273   0.261   2.563   1.420
 4792SOL     OW15274   1.980   4.463   3.480
 4792SOL    HW115275   2.043   4.409   3.425
 4792SOL    HW215276   1.984   4.433   3.575
 4793SOL     OW15277   2.017   2.936   5.148
 4793SOL    HW115278   1.917   2.942   5.138
 4793SOL    HW215279   2.061   2.991   5.077
 4794SOL     OW15280   4.776   0.147   4.479
 4794SOL    HW115281   4.815   0.161   4.389
 4794SOL    HW215282   4.677   0.131   4.471
 4795SOL     OW15283   6.008   2.270   4.095
 4795SOL    HW115284   6.078   2.229   4.153
 4795SOL    HW215285   5.918   2.235   4.122
 4796SOL     OW15286   4.848   2.091   4.972
 4796SOL    HW115287   4.851   2.142   5.058
 4796SOL    HW215288   4.767   2.118   4.921
 4797SOL     OW15289   1.051   6.272   5.320
 4797SOL    HW115290   0.969   6.276   5.378
 4797SOL    HW215291   1.026   6.290   5.225
 4798SOL     OW15292   0.772   4.017   5.154
 4798SOL    HW115293   0.793   3.921   5.141
 4798SOL    HW215294   0.674   4.027   5.173
 4799SOL     OW15295   4.834   1.798   0.330
 4799SOL    HW115296   4.780   1.838   0.256
 4799SOL    HW215297   4.788   1.716   0.364
 4800SOL     OW15298   3.053   2.590   6.244
 4800SOL    HW115299   3.091   2.531   6.316
 4800SOL    HW215300   2.990   2.537   6.188
 4801SOL     OW15301   2.908   2.388   6.569
 4801SOL    HW115302   2.854   2.457   6.619
 4801SOL    HW215303   2.896   2.299   6.613
 4802SOL     OW15304   1.194   6.807   1.926
 4802SOL    HW115305   1.265   6.738   1.941
 4802SOL    HW215306   1.227   6.876   1.861
 4803SOL     OW15307   0.125   4.914   0.460
 4803SOL    HW115308   0.161   4.957   0.377
 4803SOL    HW215309   0.054   4.848   0.434
 4804SOL     OW15310   6.222   6.133   1.412
 4804SOL    HW115311   6.218   6.034   1.426
 4804SOL    HW215312   6.285   6.174   1.477
 4805SOL     OW15313   6.324   2.239   2.503
 4805SOL    HW115314   6.356   2.286   2.584
 4805SOL    HW215315   6.247   2.289   2.463
 4806SOL     OW15316   1.384   4.320   2.842
 4806SOL    HW115317   1.458   4.343   2.905
 4806SOL    HW215318   1.320   4.396   2.835
 4807SOL     OW15319   1.168   4.829   0.545
 4807SOL    HW115320   1.242   4.870   0.598
 4807SOL    HW215321   1.203   4.798   0.456
 4808SOL     OW15322   5.306   4.721   0.200
 4808SOL    HW115323   5.389   4.677   0.237
 4808SOL    HW215324   5.232   4.713   0.267
 4809SOL     OW15325   3.542   4.881   0.585
 4809SOL    HW115326   3.476   4.943   0.543
 4809SOL    HW215327   3.506   4.848   0.672
 4810SOL     OW15328   1.652   5.108   2.589
 4810SOL    HW115329   1.635   5.197   2.633
 4810SOL    HW215330   1.707   5.051   2.650
 4811SOL     OW15331   2.640   4.004   1.597
 4811SOL    HW115332   2.671   4.074   1.663
 4811SOL    HW215333   2.630   3.917   1.644
 4812SOL     OW15334   0.059   5.206   2.515
 4812SOL    HW115335   0.040   5.147   2.437
 4812SOL    HW215336   0.035   5.300   2.494
 4813SOL     OW15337   6.031   2.125   6.946
 4813SOL    HW115338   5.978   2.138   6.862
 4813SOL    HW215339   6.114   2.180   6.942
 4814SOL     OW15340   0.038   3.346   1.339
 4814SOL    HW115341   6.983   3.309   1.294
 4814SOL    HW215342   0.113   3.281   1.331
 4815SOL     OW15343   5.611   3.833   2.300
 4815SOL    HW115344   5.669   3.914   2.300
 4815SOL    HW215345   5.665   3.753   2.329
 4816SOL     OW15346   2.072   4.408   1.120
 4816SOL    HW115347   2.036   4.456   1.200
 4816SOL    HW215348   2.078   4.471   1.043
 4817SOL     OW15349   1.255   1.644   6.734
 4817SOL    HW115350   1.168   1.629   6.687
 4817SOL    HW215351   1.263   1.581   6.812
 4818SOL     OW15352   0.691   6.375   4.415
 4818SOL    HW115353   0.710   6.345   4.508
 4818SOL    HW215354   0.750   6.453   4.392
 4819SOL     OW15355   1.613   2.214   0.351
 4819SOL    HW115356   1.616   2.120   0.386
 4819SOL    HW215357   1.651   2.217   0.259
 4820SOL     OW15358   6.189   2.644   2.663
 4820SOL    HW115359   6.211   2.696   2.580
 4820SOL    HW215360   6.127   2.569   2.639
 4821SOL     OW15361   0.669   6.413   2.605
 4821SOL    HW115362   0.745   6.411   2.539
 4821SOL    HW215363   0.597   6.351   2.574
 4822SOL     OW15364   2.078   3.260   4.781
 4822SOL    HW115365   2.055   3.356   4.793
 4822SOL    HW215366   2.097   3.242   4.685
 4823SOL     OW15367   2.100   0.361   4.654
 4823SOL    HW115368   2.112   0.272   4.609
 4823SOL    HW215369   2.179   0.380   4.713
 4824SOL     OW15370   5.289   1.989   4.680
 4824SOL    HW115371   5.340   2.051   4.620
 4824SOL    HW215372   5.202   2.031   4.705
 4825SOL     OW15373   1.916   2.979   4.069
 4825SOL    HW115374   1.931   2.881   4.055
 4825SOL    HW215375   1.841   2.993   4.133
 4826SOL     OW15376   6.274   1.225   6.761
 4826SOL    HW115377   6.290   1.259   6.668
 4826SOL    HW215378   6.201   1.157   6.760
 4827SOL     OW15379   6.066   1.479   0.566
 4827SOL    HW115380   5.990   1.501   0.505
 4827SOL    HW215381   6.152   1.489   0.516
 4828SOL     OW15382   5.521   2.819   0.650
 4828SOL    HW115383   5.596   2.869   0.606
 4828SOL    HW215384   5.553   2.783   0.738
 4829SOL     OW15385   3.958   6.888   6.327
 4829SOL    HW115386   4.047   6.855   6.358
 4829SOL    HW215387   3.896   6.810   6.317
 4830SOL     OW15388   4.479   6.631   3.920
 4830SOL    HW115389   4.557   6.619   3.981
 4830SOL    HW215390   4.394   6.629   3.974
 4831SOL     OW15391   0.026   4.601   6.208
 4831SOL    HW115392   0.016   4.505   6.183
 4831SOL    HW215393   0.123   4.623   6.215
 4832SOL     OW15394   3.684   3.360   3.970
 4832SOL    HW115395   3.712   3.441   3.918
 4832SOL    HW215396   3.731   3.279   3.933
 4833SOL     OW15397   4.746   2.243   2.991
 4833SOL    HW115398   4.698   2.215   2.907
 4833SOL    HW215399   4.819   2.178   3.011
 4834SOL     OW15400   4.030   6.133   0.997
 4834SOL    HW115401   4.096   6.186   1.049
 4834SOL    HW215402   3.954   6.106   1.056
 4835SOL     OW15403   5.930   1.434   6.845
 4835SOL    HW115404   5.874   1.376   6.904
 4835SOL    HW215405   6.006   1.471   6.897
 4836SOL     OW15406   5.479   3.226   4.848
 4836SOL    HW115407   5.392   3.199   4.889
 4836SOL    HW215408   5.536   3.145   4.833
 4837SOL     OW15409   6.704   4.011   2.802
 4837SOL    HW115410   6.648   4.087   2.770
 4837SOL    HW215411   6.645   3.931   2.817
 4838SOL     OW15412   0.921   5.271   0.225
 4838SOL    HW115413   0.849   5.273   0.294
 4838SOL    HW215414   0.907   5.345   0.160
 4839SOL     OW15415   2.130   3.243   6.793
 4839SOL    HW115416   2.051   3.240   6.731
 4839SOL    HW215417   2.212   3.214   6.743
 4840SOL     OW15418   6.759   4.653   6.548
 4840SOL    HW115419   6.750   4.613   6.457
 4840SOL    HW215420   6.832   4.607   6.598
 4841SOL     OW15421   2.457   5.686   1.749
 4841SOL    HW115422   2.507   5.639   1.821
 4841SOL    HW215423   2.362   5.700   1.778
 4842SOL     OW15424   3.467   5.214   3.068
 4842SOL    HW115425   3.383   5.160   3.074
 4842SOL    HW215426   3.464   5.271   2.986
 4843SOL     OW15427   6.590   2.901   1.314
 4843SOL    HW115428   6.493   2.922   1.311
 4843SOL    HW215429   6.637   2.966   1.374
 4844SOL     OW15430   0.936   3.163   6.350
 4844SOL    HW115431   0.859   3.194   6.294
 4844SOL    HW215432   0.934   3.210   6.438
 4845SOL     OW15433   5.373   5.424   6.574
 4845SOL    HW115434   5.370   5.325   6.589
 4845SOL    HW215435   5.295   5.466   6.619
 4846SOL     OW15436   6.827   3.279   3.741
 4846SOL    HW115437   6.874   3.261   3.655
 4846SOL    HW215438   6.760   3.207   3.758
 4847SOL     OW15439   2.375   0.572   6.683
 4847SOL    HW115440   2.305   0.539   6.745
 4847SOL    HW215441   2.438   0.498   6.661
 4848SOL     OW15442   1.725   0.857   4.421
 4848SOL    HW115443   1.710   0.920   4.345
 4848SOL    HW215444   1.802   0.889   4.477
 4849SOL     OW15445   0.892   5.812   6.977
 4849SOL    HW115446   0.966   5.830   6.913
 4849SOL    HW215447   0.928   5.807   0.043
 4850SOL     OW15448   3.789   1.570   2.207
 4850SOL    HW115449   3.721   1.513   2.161
 4850SOL    HW215450   3.839   1.515   2.275
 4851SOL     OW15451   3.922   6.926   5.525
 4851SOL    HW115452   4.018   6.899   5.514
 4851SOL    HW215453   3.883   6.878   5.604
 4852SOL     OW15454   1.357   5.810   5.279
 4852SOL    HW115455   1.365   5.866   5.362
 4852SOL    HW215456   1.368   5.868   5.198
 4853SOL     OW15457   3.602   0.717   2.878
 4853SOL    HW115458   3.637   0.624   2.863
 4853SOL    HW215459   3.649   0.780   2.816
 4854SOL     OW15460   4.299   6.571   1.788
 4854SOL    HW115461   4.278   6.613   1.700
 4854SOL    HW215462   4.382   6.612   1.825
 4855SOL     OW15463   6.179   2.860   4.106
 4855SOL    HW115464   6.269   2.893   4.077
 4855SOL    HW215465   6.176   2.853   4.206
 4856SOL     OW15466   1.395   3.021   3.263
 4856SOL    HW115467   1.330   3.011   3.188
 4856SOL    HW215468   1.432   2.931   3.287
 4857SOL     OW15469   3.535   1.754   4.287
 4857SOL    HW115470   3.465   1.818   4.255
 4857SOL    HW215471   3.614   1.805   4.322
 4858SOL     OW15472   0.562   0.413   4.479
 4858SOL    HW115473   0.632   0.476   4.512
 4858SOL    HW215474   0.583   0.320   4.510
 4859SOL     OW15475   1.067   6.807   4.355
 4859SOL    HW115476   1.121   6.798   4.439
 4859SOL    HW215477   1.071   6.722   4.303
 4860SOL     OW15478   4.296   4.395   1.683
 4860SOL    HW115479   4.318   4.308   1.727
 4860SOL    HW215480   4.316   4.390   1.586
 4861SOL     OW15481   5.936   5.508   0.278
 4861SOL    HW115482   6.004   5.580   0.266
 4861SOL    HW215483   5.967   5.445   0.350
 4862SOL     OW15484   2.266   4.358   4.949
 4862SOL    HW115485   2.214   4.273   4.955
 4862SOL    HW215486   2.332   4.361   5.024
 4863SOL     OW15487   4.984   3.844   1.290
 4863SOL    HW115488   4.900   3.857   1.236
 4863SOL    HW215489   5.057   3.812   1.230
 4864SOL     OW15490   4.332   1.542   2.406
 4864SOL    HW115491   4.259   1.607   2.388
 4864SOL    HW215492   4.420   1.590   2.407
 4865SOL     OW15493   2.196   6.660   4.425
 4865SOL    HW115494   2.212   6.758   4.417
 4865SOL    HW215495   2.252   6.622   4.498
 4866SOL     OW15496   6.438   4.226   1.822
 4866SOL    HW115497   6.341   4.236   1.804
 4866SOL    HW215498   6.474   4.148   1.771
 4867SOL     OW15499   4.097   5.551   2.304
 4867SOL    HW115500   4.100   5.454   2.280
 4867SOL    HW215501   4.009   5.572   2.346
 4868SOL     OW15502   6.608   5.048   2.472
 4868SOL    HW115503   6.651   4.972   2.521
 4868SOL    HW215504   6.552   5.013   2.397
 4869SOL     OW15505   0.901   1.131   1.151
 4869SOL    HW115506   0.875   1.146   1.247
 4869SOL    HW215507   0.849   1.054   1.114
 4870SOL     OW15508   0.010   6.106   1.544
 4870SOL    HW115509   7.018   6.008   1.541
 4870SOL    HW215510   0.025   6.140   1.451
 4871SOL     OW15511   0.848   0.831   5.157
 4871SOL    HW115512   0.765   0.847   5.211
 4871SOL    HW215513   0.879   0.918   5.117
 4872SOL     OW15514   6.674   5.787   3.703
 4872SOL    HW115515   6.707   5.696   3.725
 4872SOL    HW215516   6.579   5.797   3.733
 4873SOL     OW15517   6.498   4.998   3.830
 4873SOL    HW115518   6.497   4.901   3.852
 4873SOL    HW215519   6.406   5.027   3.803
 4874SOL     OW15520   6.263   2.928   3.038
 4874SOL    HW115521   6.297   2.999   2.976
 4874SOL    HW215522   6.261   2.963   3.131
 4875SOL     OW15523   5.909   3.020   1.421
 4875SOL    HW115524   5.953   3.110   1.422
 4875SOL    HW215525   5.976   2.950   1.398
 4876SOL     OW15526   5.728   1.411   4.119
 4876SOL    HW115527   5.728   1.387   4.216
 4876SOL    HW215528   5.704   1.331   4.064
 4877SOL     OW15529   1.104   1.929   6.813
 4877SOL    HW115530   1.051   1.931   6.897
 4877SOL    HW215531   1.087   2.013   6.761
 4878SOL     OW15532   6.619   0.369   3.062
 4878SOL    HW115533   6.672   0.453   3.065
 4878SOL    HW215534   6.530   0.387   3.021
 4879SOL     OW15535   4.534   5.067   3.525
 4879SOL    HW115536   4.435   5.065   3.516
 4879SOL    HW215537   4.561   5.026   3.612
 4880SOL     OW15538   5.702   3.584   0.109
 4880SOL    HW115539   5.611   3.561   0.074
 4880SOL    HW215540   5.745   3.503   0.148
 4881SOL     OW15541   1.737   1.212   6.501
 4881SOL    HW115542   1.760   1.263   6.418
 4881SOL    HW215543   1.673   1.264   6.557
 4882SOL     OW15544   5.004   1.616   4.871
 4882SOL    HW115545   5.054   1.661   4.797
 4882SOL    HW215546   4.935   1.679   4.907
 4883SOL     OW15547   5.486   4.374   2.073
 4883SOL    HW115548   5.395   4.384   2.033
 4883SOL    HW215549   5.478   4.347   2.169
 4884SOL     OW15550   3.272   0.175   1.262
 4884SOL    HW115551   3.177   0.180   1.292
 4884SOL    HW215552   3.309   0.267   1.249
 4885SOL     OW15553   1.645   5.345   2.706
 4885SOL    HW115554   1.635   5.361   2.804
 4885SOL    HW215555   1.701   5.418   2.666
 4886SOL     OW15556   0.321   6.005   1.072
 4886SOL    HW115557   0.227   5.999   1.037
 4886SOL    HW215558   0.319   6.025   1.170
 4887SOL     OW15559   0.692   0.785   3.184
 4887SOL    HW115560   0.613   0.735   3.148
 4887SOL    HW215561   0.670   0.822   3.274
 4888SOL     OW15562   1.928   6.632   4.463
 4888SOL    HW115563   2.025   6.633   4.438
 4888SOL    HW215564   1.891   6.540   4.453
 4889SOL     OW15565   6.373   0.885   6.238
 4889SOL    HW115566   6.289   0.913   6.285
 4889SOL    HW215567   6.415   0.966   6.196
 4890SOL     OW15568   0.799   1.901   6.486
 4890SOL    HW115569   0.880   1.955   6.461
 4890SOL    HW215570   0.759   1.938   6.570
 4891SOL     OW15571   1.410   4.806   6.978
 4891SOL    HW115572   1.400   4.749   6.897
 4891SOL    HW215573   1.366   4.894   6.963
 4892SOL     OW15574   3.517   6.124   1.728
 4892SOL    HW115575   3.481   6.034   1.752
 4892SOL    HW215576   3.583   6.153   1.798
 4893SOL     OW15577   6.861   3.848   1.507
 4893SOL    HW115578   6.909   3.900   1.578
 4893SOL    HW215579   6.877   3.890   1.418
 4894SOL     OW15580   2.126   1.837   2.744
 4894SOL    HW115581   2.175   1.924   2.738
 4894SOL    HW215582   2.164   1.772   2.678
 4895SOL     OW15583   0.508   5.242   3.236
 4895SOL    HW115584   0.546   5.193   3.157
 4895SOL    HW215585   0.425   5.290   3.208
 4896SOL     OW15586   1.713   5.657   1.847
 4896SOL    HW115587   1.775   5.716   1.898
 4896SOL    HW215588   1.738   5.561   1.863
 4897SOL     OW15589   2.528   4.122   6.463
 4897SOL    HW115590   2.449   4.128   6.402
 4897SOL    HW215591   2.535   4.207   6.515
 4898SOL     OW15592   3.525   1.425   3.785
 4898SOL    HW115593   3.616   1.384   3.782
 4898SOL    HW215594   3.475   1.391   3.865
 4899SOL     OW15595   6.488   5.423   2.976
 4899SOL    HW115596   6.559   5.447   2.910
 4899SOL    HW215597   6.443   5.338   2.947
 4900SOL     OW15598   1.676   5.674   4.506
 4900SOL    HW115599   1.611   5.725   4.563
 4900SOL    HW215600   1.769   5.698   4.533
 4901SOL     OW15601   3.455   6.474   6.187
 4901SOL    HW115602   3.401   6.550   6.152
 4901SOL    HW215603   3.531   6.455   6.124
 4902SOL     OW15604   2.651   2.052   4.799
 4902SOL    HW115605   2.653   2.116   4.722
 4902SOL    HW215606   2.610   1.966   4.771
 4903SOL     OW15607   2.949   5.850   6.872
 4903SOL    HW115608   2.876   5.916   6.892
 4903SOL    HW215609   3.019   5.855   6.943
 4904SOL     OW15610   1.643   0.390   4.269
 4904SOL    HW115611   1.608   0.419   4.357
 4904SOL    HW215612   1.743   0.393   4.270
 4905SOL     OW15613   3.956   0.500   2.087
 4905SOL    HW115614   3.869   0.548   2.084
 4905SOL    HW215615   3.957   0.437   2.165
 4906SOL     OW15616   4.687   2.341   5.852
 4906SOL    HW115617   4.591   2.317   5.834
 4906SOL    HW215618   4.715   2.413   5.789
 4907SOL     OW15619   4.331   5.808   1.133
 4907SOL    HW115620   4.401   5.738   1.150
 4907SOL    HW215621   4.279   5.824   1.218
 4908SOL     OW15622   5.011   4.941   6.669
 4908SOL    HW115623   4.941   5.012   6.679
 4908SOL    HW215624   5.020   4.890   6.754
 4909SOL     OW15625   6.672   0.072   4.351
 4909SOL    HW115626   6.580   0.061   4.316
 4909SOL    HW215627   6.698   7.017   4.404
 4910SOL     OW15628   5.299   6.448   4.680
 4910SOL    HW115629   5.379   6.424   4.736
 4910SOL    HW215630   5.304   6.545   4.656
 4911SOL     OW15631   1.012   3.606   4.144
 4911SOL    HW115632   1.055   3.609   4.234
 4911SOL    HW215633   0.918   3.638   4.150
 4912SOL     OW15634   5.258   1.825   0.027
 4912SOL    HW115635   5.178   1.830   0.088
 4912SOL    HW215636   5.319   1.752   0.059
 4913SOL     OW15637   3.601   3.363   4.613
 4913SOL    HW115638   3.552   3.426   4.552
 4913SOL    HW215639   3.539   3.290   4.641
 4914SOL     OW15640   3.781   6.656   5.520
 4914SOL    HW115641   3.837   6.667   5.438
 4914SOL    HW215642   3.826   6.701   5.597
 4915SOL     OW15643   4.195   0.526   4.678
 4915SOL    HW115644   4.290   0.494   4.678
 4915SOL    HW215645   4.154   0.506   4.589
 4916SOL     OW15646   1.557   0.662   3.915
 4916SOL    HW115647   1.532   0.578   3.962
 4916SOL    HW215648   1.656   0.663   3.900
 4917SOL     OW15649   1.672   4.782   1.161
 4917SOL    HW115650   1.731   4.853   1.122
 4917SOL    HW215651   1.608   4.750   1.091
 4918SOL     OW15652   3.620   6.478   2.698
 4918SOL    HW115653   3.674   6.421   2.759
 4918SOL    HW215654   3.523   6.466   2.717
 4919SOL     OW15655   2.836   2.156   6.708
 4919SOL    HW115656   2.879   2.147   6.798
 4919SOL    HW215657   2.760   2.221   6.713
 4920SOL     OW15658   5.272   0.622   5.243
 4920SOL    HW115659   5.312   0.569   5.169
 4920SOL    HW215660   5.335   0.625   5.320
 4921SOL     OW15661   1.651   4.510   0.388
 4921SOL    HW115662   1.572   4.496   0.448
 4921SOL    HW215663   1.690   4.601   0.404
 4922SOL     OW15664   1.909   3.049   4.755
 4922SOL    HW115665   1.933   2.967   4.807
 4922SOL    HW215666   1.968   3.124   4.784
 4923SOL     OW15667   3.640   1.472   0.540
 4923SOL    HW115668   3.703   1.443   0.467
 4923SOL    HW215669   3.567   1.404   0.549
 4924SOL     OW15670   2.497   1.637   5.684
 4924SOL    HW115671   2.517   1.571   5.757
 4924SOL    HW215672   2.446   1.715   5.722
 4925SOL     OW15673   5.642   6.740   2.061
 4925SOL    HW115674   5.551   6.775   2.039
 4925SOL    HW215675   5.658   6.747   2.160
 4926SOL     OW15676   5.178   2.203   0.327
 4926SOL    HW115677   5.237   2.163   0.257
 4926SOL    HW215678   5.090   2.228   0.287
 4927SOL     OW15679   4.069   3.437   4.016
 4927SOL    HW115680   4.145   3.452   4.079
 4927SOL    HW215681   4.022   3.523   3.999
 4928SOL     OW15682   1.319   0.157   6.698
 4928SOL    HW115683   1.338   0.219   6.622
 4928SOL    HW215684   1.244   0.193   6.753
 4929SOL     OW15685   0.932   4.972   4.340
 4929SOL    HW115686   0.950   5.071   4.333
 4929SOL    HW215687   1.017   4.924   4.357
 4930SOL     OW15688   4.297   0.725   3.019
 4930SOL    HW115689   4.376   0.735   2.959
 4930SOL    HW215690   4.258   0.815   3.039
 4931SOL     OW15691   6.963   0.306   0.594
 4931SOL    HW115692   6.914   0.393   0.584
 4931SOL    HW215693   6.918   0.236   0.540
 4932SOL     OW15694   2.560   3.374   1.670
 4932SOL    HW115695   2.657   3.381   1.694
 4932SOL    HW215696   2.504   3.411   1.743
 4933SOL     OW15697   2.113   0.330   3.802
 4933SOL    HW115698   2.178   0.382   3.858
 4933SOL    HW215699   2.160   0.251   3.762
 4934SOL     OW15700   2.624   5.216   2.591
 4934SOL    HW115701   2.647   5.186   2.684
 4934SOL    HW215702   2.646   5.312   2.581
 4935SOL     OW15703   1.486   1.635   6.521
 4935SOL    HW115704   1.395   1.636   6.564
 4935SOL    HW215705   1.476   1.643   6.422
 4936SOL     OW15706   1.803   4.855   1.409
 4936SOL    HW115707   1.808   4.775   1.468
 4936SOL    HW215708   1.733   4.841   1.340
 4937SOL     OW15709   6.693   2.540   6.327
 4937SOL    HW115710   6.615   2.537   6.389
 4937SOL    HW215711   6.765   2.480   6.360
 4938SOL     OW15712   2.448   6.299   6.246
 4938SOL    HW115713   2.466   6.350   6.161
 4938SOL    HW215714   2.367   6.338   6.290
 4939SOL     OW15715   6.399   2.093   4.245
 4939SOL    HW115716   6.374   2.176   4.296
 4939SOL    HW215717   6.471   2.115   4.180
 4940SOL     OW15718   0.997   1.001   5.025
 4940SOL    HW115719   1.011   1.096   4.994
 4940SOL    HW215720   1.012   0.939   4.948
 4941SOL     OW15721   4.820   3.076   5.361
 4941SOL    HW115722   4.837   3.159   5.309
 4941SOL    HW215723   4.907   3.030   5.380
 4942SOL     OW15724   5.586   3.051   6.000
 4942SOL    HW115725   5.622   3.074   5.909
 4942SOL    HW215726   5.537   2.964   5.995
 4943SOL     OW15727   4.681   3.590   5.959
 4943SOL    HW115728   4.689   3.498   5.997
 4943SOL    HW215729   4.704   3.658   6.028
 4944SOL     OW15730   2.547   4.354   1.738
 4944SOL    HW115731   2.559   4.395   1.648
 4944SOL    HW215732   2.577   4.419   1.808
 4945SOL     OW15733   1.210   7.018   4.201
 4945SOL    HW115734   1.132   6.968   4.237
 4945SOL    HW215735   1.263   0.029   4.277
 4946SOL     OW15736   1.304   5.256   0.112
 4946SOL    HW115737   1.245   5.315   0.056
 4946SOL    HW215738   1.248   5.210   0.181
 4947SOL     OW15739   2.022   0.452   0.649
 4947SOL    HW115740   2.036   0.371   0.591
 4947SOL    HW215741   1.977   0.425   0.734
 4948SOL     OW15742   1.946   3.087   2.928
 4948SOL    HW115743   1.848   3.074   2.910
 4948SOL    HW215744   1.969   3.183   2.917
 4949SOL     OW15745   5.842   4.571   5.716
 4949SOL    HW115746   5.848   4.617   5.805
 4949SOL    HW215747   5.810   4.635   5.647
 4950SOL     OW15748   1.589   4.900   4.609
 4950SOL    HW115749   1.668   4.850   4.574
 4950SOL    HW215750   1.619   4.966   4.679
 4951SOL     OW15751   5.645   0.621   4.935
 4951SOL    HW115752   5.640   0.682   5.013
 4951SOL    HW215753   5.557   0.575   4.923
 4952SOL     OW15754   0.593   0.502   5.874
 4952SOL    HW115755   0.532   0.437   5.919
 4952SOL    HW215756   0.543   0.550   5.802
 4953SOL     OW15757   1.954   0.128   3.398
 4953SOL    HW115758   1.941   0.124   3.497
 4953SOL    HW215759   1.876   0.174   3.356
 4954SOL     OW15760   3.913   2.955   0.217
 4954SOL    HW115761   3.933   2.953   0.119
 4954SOL    HW215762   3.998   2.963   0.268
 4955SOL     OW15763   3.211   6.404   6.728
 4955SOL    HW115764   3.177   6.318   6.765
 4955SOL    HW215765   3.233   6.467   6.803
 4956SOL     OW15766   2.073   6.560   4.981
 4956SOL    HW115767   2.021   6.565   5.066
 4956SOL    HW215768   2.038   6.486   4.924
 4957SOL     OW15769   5.418   2.506   1.950
 4957SOL    HW115770   5.468   2.491   1.865
 4957SOL    HW215771   5.457   2.450   2.023
 4958SOL     OW15772   0.325   5.230   5.567
 4958SOL    HW115773   0.275   5.240   5.481
 4958SOL    HW215774   0.280   5.161   5.624
 4959SOL     OW15775   5.979   1.816   0.250
 4959SOL    HW115776   6.019   1.818   0.159
 4959SOL    HW215777   6.053   1.818   0.318
 4960SOL     OW15778   3.565   4.914   3.500
 4960SOL    HW115779   3.578   4.905   3.401
 4960SOL    HW215780   3.468   4.929   3.520
 4961SOL     OW15781   4.212   0.903   5.896
 4961SOL    HW115782   4.254   0.993   5.905
 4961SOL    HW215783   4.113   0.911   5.910
 4962SOL     OW15784   5.555   2.482   6.965
 4962SOL    HW115785   5.654   2.495   6.970
 4962SOL    HW215786   5.511   2.538   0.008
 4963SOL     OW15787   6.740   6.269   0.748
 4963SOL    HW115788   6.715   6.365   0.734
 4963SOL    HW215789   6.695   6.235   0.830
 4964SOL     OW15790   3.048   0.817   4.006
 4964SOL    HW115791   3.074   0.721   4.012
 4964SOL    HW215792   3.124   0.874   4.036
 4965SOL     OW15793   0.422   1.095   2.186
 4965SOL    HW115794   0.358   1.049   2.125
 4965SOL    HW215795   0.410   1.062   2.280
 4966SOL     OW15796   2.886   6.501   5.090
 4966SOL    HW115797   2.926   6.543   5.172
 4966SOL    HW215798   2.925   6.411   5.076
 4967SOL     OW15799   4.002   4.840   5.145
 4967SOL    HW115800   3.908   4.871   5.130
 4967SOL    HW215801   4.039   4.884   5.227
 4968SOL     OW15802   6.585   2.139   4.060
 4968SOL    HW115803   6.651   2.202   4.099
 4968SOL    HW215804   6.517   2.191   4.006
 4969SOL     OW15805   2.603   5.604   2.871
 4969SOL    HW115806   2.678   5.556   2.825
 4969SOL    HW215807   2.517   5.584   2.822
 4970SOL     OW15808   2.440   2.595   2.505
 4970SOL    HW115809   2.490   2.558   2.427
 4970SOL    HW215810   2.505   2.635   2.570
 4971SOL     OW15811   5.594   5.866   3.317
 4971SOL    HW115812   5.669   5.927   3.342
 4971SOL    HW215813   5.515   5.921   3.288
 4972SOL     OW15814   0.944   3.988   0.967
 4972SOL    HW115815   0.929   3.944   0.879
 4972SOL    HW215816   1.041   3.982   0.991
 4973SOL     OW15817   1.225   6.610   2.371
 4973SOL    HW115818   1.166   6.547   2.320
 4973SOL    HW215819   1.203   6.704   2.345
 4974SOL     OW15820   6.530   4.296   0.725
 4974SOL    HW115821   6.521   4.209   0.678
 4974SOL    HW215822   6.599   4.289   0.797
 4975SOL     OW15823   6.339   3.855   5.704
 4975SOL    HW115824   6.435   3.883   5.702
 4975SOL    HW215825   6.287   3.920   5.759
 4976SOL     OW15826   2.103   1.225   3.659
 4976SOL    HW115827   2.100   1.250   3.562
 4976SOL    HW215828   2.116   1.126   3.667
 4977SOL     OW15829   3.993   4.750   6.891
 4977SOL    HW115830   3.895   4.765   6.905
 4977SOL    HW215831   4.009   4.655   6.863
 4978SOL     OW15832   6.826   4.425   4.878
 4978SOL    HW115833   6.896   4.437   4.948
 4978SOL    HW215834   6.774   4.341   4.896
 4979SOL     OW15835   0.055   0.043   6.588
 4979SOL    HW115836   0.093   0.092   6.667
 4979SOL    HW215837   7.008   7.010   6.620
 4980SOL     OW15838   5.263   6.635   2.866
 4980SOL    HW115839   5.165   6.628   2.846
 4980SOL    HW215840   5.313   6.566   2.813
 4981SOL     OW15841   4.840   5.199   0.429
 4981SOL    HW115842   4.771   5.192   0.357
 4981SOL    HW215843   4.838   5.292   0.467
 4982SOL     OW15844   2.953   0.934   5.568
 4982SOL    HW115845   2.892   0.994   5.620
 4982SOL    HW215846   3.020   0.990   5.519
 4983SOL     OW15847   5.919   3.604   5.391
 4983SOL    HW115848   5.887   3.684   5.340
 4983SOL    HW215849   5.981   3.551   5.334
 4984SOL     OW15850   5.285   3.840   3.458
 4984SOL    HW115851   5.355   3.791   3.510
 4984SOL    HW215852   5.281   3.803   3.365
 4985SOL     OW15853   5.914   0.005   3.411
 4985SOL    HW115854   5.906   0.037   3.317
 4985SOL    HW215855   5.852   0.057   3.469
 4986SOL     OW15856   6.905   4.183   1.766
 4986SOL    HW115857   6.959   4.185   1.682
 4986SOL    HW215858   6.864   4.092   1.777
 4987SOL     OW15859   1.321   0.531   2.474
 4987SOL    HW115860   1.311   0.627   2.498
 4987SOL    HW215861   1.406   0.518   2.422
 4988SOL     OW15862   5.114   0.831   2.422
 4988SOL    HW115863   5.129   0.929   2.435
 4988SOL    HW215864   5.055   0.797   2.496
 4989SOL     OW15865   4.822   6.960   1.555
 4989SOL    HW115866   4.897   6.969   1.489
 4989SOL    HW215867   4.846   7.010   1.638
 4990SOL     OW15868   2.723   2.276   5.750
 4990SOL    HW115869   2.627   2.281   5.723
 4990SOL    HW215870   2.730   2.263   5.849
 4991SOL     OW15871   6.030   5.309   3.751
 4991SOL    HW115872   5.990   5.218   3.766
 4991SOL    HW215873   5.980   5.377   3.805
 4992SOL     OW15874   4.888   0.916   3.339
 4992SOL    HW115875   4.795   0.881   3.334
 4992SOL    HW215876   4.946   0.852   3.390
 4993SOL     OW15877   2.570   5.865   4.151
 4993SOL    HW115878   2.482   5.861   4.199
 4993SOL    HW215879   2.639   5.814   4.203
 4994SOL     OW15880   1.849   0.886   3.648
 4994SOL    HW115881   1.850   0.823   3.726
 4994SOL    HW215882   1.933   0.874   3.594
 4995SOL     OW15883   0.146   2.406   5.828
 4995SOL    HW115884   0.065   2.449   5.790
 4995SOL    HW215885   0.221   2.410   5.761
 4996SOL     OW15886   0.862   1.480   3.029
 4996SOL    HW115887   0.838   1.466   2.933
 4996SOL    HW215888   0.950   1.436   3.048
 4997SOL     OW15889   5.353   2.858   2.773
 4997SOL    HW115890   5.271   2.801   2.776
 4997SOL    HW215891   5.373   2.892   2.865
 4998SOL     OW15892   2.064   4.178   5.001
 4998SOL    HW115893   2.119   4.099   5.027
 4998SOL    HW215894   2.044   4.234   5.081
 4999SOL     OW15895   6.291   3.648   0.324
 4999SOL    HW115896   6.271   3.635   0.227
 4999SOL    HW215897   6.218   3.608   0.379
 5000SOL     OW15898   3.057   7.026   3.464
 5000SOL    HW115899   3.074   7.019   3.562
 5000SOL    HW215900   3.142   7.005   3.415
 5001SOL     OW15901   0.033   3.633   0.784
 5001SOL    HW115902   0.122   3.633   0.830
 5001SOL    HW215903   0.044   3.669   0.691
 5002SOL     OW15904   0.551   3.138   2.911
 5002SOL    HW115905   0.511   3.139   2.819
 5002SOL    HW215906   0.587   3.228   2.933
 5003SOL     OW15907   2.933   6.277   2.481
 5003SOL    HW115908   2.878   6.312   2.405
 5003SOL    HW215909   2.882   6.207   2.530
 5004SOL     OW15910   3.034   5.662   5.948
 5004SOL    HW115911   2.997   5.643   6.039
 5004SOL    HW215912   3.034   5.579   5.894
 5005SOL     OW15913   3.155   2.769   0.673
 5005SOL    HW115914   3.118   2.827   0.746
 5005SOL    HW215915   3.153   2.820   0.587
 5006SOL     OW15916   5.287   0.280   0.469
 5006SOL    HW115917   5.267   0.365   0.517
 5006SOL    HW215918   5.351   0.299   0.394
 5007SOL     OW15919   1.453   0.119   0.655
 5007SOL    HW115920   1.451   0.215   0.627
 5007SOL    HW215921   1.371   0.073   0.621
 5008SOL     OW15922   6.265   0.002   2.221
 5008SOL    HW115923   6.226   6.936   2.215
 5008SOL    HW215924   6.341   0.010   2.157
 5009SOL     OW15925   0.931   0.114   0.861
 5009SOL    HW115926   1.003   0.067   0.810
 5009SOL    HW215927   0.861   0.146   0.798
 5010SOL     OW15928   4.052   3.755   2.559
 5010SOL    HW115929   3.989   3.703   2.501
 5010SOL    HW215930   4.146   3.734   2.534
 5011SOL     OW15931   1.855   3.852   1.871
 5011SOL    HW115932   1.911   3.769   1.873
 5011SOL    HW215933   1.914   3.931   1.854
 5012SOL     OW15934   5.899   4.271   6.056
 5012SOL    HW115935   5.912   4.309   5.964
 5012SOL    HW215936   5.892   4.346   6.122
 5013SOL     OW15937   4.956   1.499   6.464
 5013SOL    HW115938   5.001   1.427   6.517
 5013SOL    HW215939   4.899   1.458   6.393
 5014SOL     OW15940   5.940   4.366   0.640
 5014SOL    HW115941   5.945   4.403   0.547
 5014SOL    HW215942   5.988   4.278   0.643
 5015SOL     OW15943   5.032   2.080   4.731
 5015SOL    HW115944   5.061   2.176   4.730
 5015SOL    HW215945   5.015   2.052   4.826
 5016SOL     OW15946   2.145   2.449   0.005
 5016SOL    HW115947   2.087   2.482   6.957
 5016SOL    HW215948   2.100   2.467   0.093
 5017SOL     OW15949   1.882   2.708   0.178
 5017SOL    HW115950   1.941   2.688   0.099
 5017SOL    HW215951   1.938   2.734   0.256
 5018SOL     OW15952   0.139   3.905   2.491
 5018SOL    HW115953   0.098   3.869   2.407
 5018SOL    HW215954   0.068   3.916   2.560
 5019SOL     OW15955   1.176   4.688   6.565
 5019SOL    HW115956   1.154   4.610   6.508
 5019SOL    HW215957   1.160   4.773   6.514
 5020SOL     OW15958   5.162   0.177   6.198
 5020SOL    HW115959   5.221   0.227   6.262
 5020SOL    HW215960   5.219   0.124   6.135
 5021SOL     OW15961   0.411   1.346   6.230
 5021SOL    HW115962   0.381   1.261   6.186
 5021SOL    HW215963   0.505   1.336   6.262
 5022SOL     OW15964   0.704   1.667   6.435
 5022SOL    HW115965   0.732   1.761   6.458
 5022SOL    HW215966   0.662   1.624   6.514
 5023SOL     OW15967   6.542   2.640   1.351
 5023SOL    HW115968   6.562   2.732   1.316
 5023SOL    HW215969   6.529   2.645   1.450
 5024SOL     OW15970   5.832   5.365   1.753
 5024SOL    HW115971   5.791   5.425   1.685
 5024SOL    HW215972   5.930   5.380   1.756
 5025SOL     OW15973   3.283   1.524   2.248
 5025SOL    HW115974   3.281   1.574   2.335
 5025SOL    HW215975   3.244   1.580   2.176
 5026SOL     OW15976   6.329   5.969   5.945
 5026SOL    HW115977   6.338   6.008   5.853
 5026SOL    HW215978   6.401   5.901   5.959
 5027SOL     OW15979   0.164   6.786   2.243
 5027SOL    HW115980   0.205   6.700   2.213
 5027SOL    HW215981   0.102   6.769   2.319
 5028SOL     OW15982   0.231   1.597   2.785
 5028SOL    HW115983   0.312   1.596   2.726
 5028SOL    HW215984   0.190   1.688   2.783
 5029SOL     OW15985   6.713   2.752   2.791
 5029SOL    HW115986   6.781   2.688   2.755
 5029SOL    HW215987   6.703   2.829   2.728
 5030SOL     OW15988   0.019   0.205   0.224
 5030SOL    HW115989   0.013   0.300   0.256
 5030SOL    HW215990   0.103   0.163   0.258
 5031SOL     OW15991   5.520   0.222   4.921
 5031SOL    HW115992   5.515   0.134   4.969
 5031SOL    HW215993   5.522   0.206   4.822
 5032SOL     OW15994   2.057   2.626   1.072
 5032SOL    HW115995   2.080   2.552   1.135
 5032SOL    HW215996   1.963   2.657   1.089
 5033SOL     OW15997   2.530   6.439   5.480
 5033SOL    HW115998   2.503   6.528   5.516
 5033SOL    HW215999   2.498   6.430   5.386
 5034SOL     OW16000   5.102   0.716   2.899
 5034SOL    HW116001   5.195   0.679   2.903
 5034SOL    HW216002   5.037   0.645   2.924
 5035SOL     OW16003   0.407   4.201   0.289
 5035SOL    HW116004   0.498   4.217   0.249
 5035SOL    HW216005   0.416   4.138   0.366
 5036SOL     OW16006   0.675   5.206   0.324
 5036SOL    HW116007   0.710   5.156   0.403
 5036SOL    HW216008   0.635   5.143   0.258
 5037SOL     OW16009   5.194   3.129   3.195
 5037SOL    HW116010   5.112   3.142   3.251
 5037SOL    HW216011   5.224   3.218   3.159
 5038SOL     OW16012   2.426   3.906   6.255
 5038SOL    HW116013   2.509   3.851   6.255
 5038SOL    HW216014   2.449   4.002   6.240
 5039SOL     OW16015   3.027   4.311   5.340
 5039SOL    HW116016   3.010   4.392   5.285
 5039SOL    HW216017   2.965   4.238   5.312
 5040SOL     OW16018   2.515   5.271   6.134
 5040SOL    HW116019   2.541   5.300   6.226
 5040SOL    HW216020   2.484   5.176   6.137
 5041SOL     OW16021   1.568   1.154   2.244
 5041SOL    HW116022   1.581   1.205   2.159
 5041SOL    HW216023   1.499   1.200   2.300
 5042SOL     OW16024   6.357   2.994   0.571
 5042SOL    HW116025   6.261   3.016   0.591
 5042SOL    HW216026   6.410   3.078   0.563
 5043SOL     OW16027   3.382   0.215   6.301
 5043SOL    HW116028   3.460   0.270   6.270
 5043SOL    HW216029   3.355   0.244   6.393
 5044SOL     OW16030   0.542   6.758   0.366
 5044SOL    HW116031   0.620   6.696   0.355
 5044SOL    HW216032   0.567   6.832   0.428
 5045SOL     OW16033   5.101   1.287   6.616
 5045SOL    HW116034   5.112   1.192   6.644
 5045SOL    HW216035   5.188   1.335   6.627
 5046SOL     OW16036   3.187   4.002   2.620
 5046SOL    HW116037   3.260   3.937   2.639
 5046SOL    HW216038   3.154   4.041   2.706
 5047SOL     OW16039   6.704   3.565   2.522
 5047SOL    HW116040   6.701   3.474   2.481
 5047SOL    HW216041   6.617   3.612   2.506
 5048SOL     OW16042   0.312   1.311   2.328
 5048SOL    HW116043   0.387   1.367   2.364
 5048SOL    HW216044   0.343   1.260   2.248
 5049SOL     OW16045   6.427   1.806   5.434
 5049SOL    HW116046   6.455   1.893   5.474
 5049SOL    HW216047   6.342   1.776   5.479
 5050SOL     OW16048   1.784   0.781   1.194
 5050SOL    HW116049   1.754   0.861   1.246
 5050SOL    HW216050   1.706   0.743   1.144
 5051SOL     OW16051   4.537   4.818   1.215
 5051SOL    HW116052   4.449   4.866   1.210
 5051SOL    HW216053   4.523   4.720   1.202
 5052SOL     OW16054   2.118   6.972   6.318
 5052SOL    HW116055   2.021   6.994   6.315
 5052SOL    HW216056   2.163   7.008   6.236
 5053SOL     OW16057   2.186   3.977   2.671
 5053SOL    HW116058   2.096   3.979   2.627
 5053SOL    HW216059   2.201   3.887   2.712
 5054SOL     OW16060   3.582   6.418   4.850
 5054SOL    HW116061   3.681   6.424   4.868
 5054SOL    HW216062   3.562   6.453   4.759
 5055SOL     OW16063   1.477   0.644   5.609
 5055SOL    HW116064   1.518   0.707   5.544
 5055SOL    HW216065   1.548   0.585   5.648
 5056SOL     OW16066   6.607   4.731   0.488
 5056SOL    HW116067   6.624   4.635   0.512
 5056SOL    HW216068   6.602   4.740   0.389
 5057SOL     OW16069   6.717   6.052   5.118
 5057SOL    HW116070   6.765   6.073   5.203
 5057SOL    HW216071   6.738   5.958   5.090
 5058SOL     OW16072   2.725   3.296   5.334
 5058SOL    HW116073   2.653   3.239   5.375
 5058SOL    HW216074   2.736   3.379   5.389
 5059SOL     OW16075   5.757   1.777   3.668
 5059SOL    HW116076   5.666   1.741   3.647
 5059SOL    HW216077   5.781   1.755   3.763
 5060SOL     OW16078   1.246   1.742   5.147
 5060SOL    HW116079   1.152   1.711   5.133
 5060SOL    HW216080   1.310   1.675   5.107
 5061SOL     OW16081   4.112   3.490   2.286
 5061SOL    HW116082   4.112   3.395   2.319
 5061SOL    HW216083   4.074   3.493   2.194
 5062SOL     OW16084   5.311   1.149   3.511
 5062SOL    HW116085   5.217   1.118   3.528
 5062SOL    HW216086   5.369   1.070   3.492
 5063SOL     OW16087   1.233   0.102   2.587
 5063SOL    HW116088   1.295   0.150   2.649
 5063SOL    HW216089   1.206   0.164   2.513
 5064SOL     OW16090   4.900   4.083   1.910
 5064SOL    HW116091   4.840   4.135   1.850
 5064SOL    HW216092   4.967   4.032   1.855
 5065SOL     OW16093   1.742   1.978   3.909
 5065SOL    HW116094   1.778   2.018   3.824
 5065SOL    HW216095   1.644   1.962   3.899
 5066SOL     OW16096   3.970   4.833   1.102
 5066SOL    HW116097   4.015   4.781   1.175
 5066SOL    HW216098   4.004   4.801   1.013
 5067SOL     OW16099   3.667   0.923   2.117
 5067SOL    HW116100   3.756   0.937   2.162
 5067SOL    HW216101   3.682   0.897   2.022
 5068SOL     OW16102   2.629   4.979   6.503
 5068SOL    HW116103   2.635   5.005   6.600
 5068SOL    HW216104   2.705   5.021   6.453
 5069SOL     OW16105   2.348   3.221   5.634
 5069SOL    HW116106   2.310   3.133   5.607
 5069SOL    HW216107   2.407   3.256   5.561
 5070SOL     OW16108   4.629   4.584   4.006
 5070SOL    HW116109   4.671   4.660   4.055
 5070SOL    HW216110   4.670   4.498   4.038
 5071SOL     OW16111   4.181   1.308   3.153
 5071SOL    HW116112   4.129   1.367   3.091
 5071SOL    HW216113   4.279   1.320   3.136
 5072SOL     OW16114   1.100   1.125   1.529
 5072SOL    HW116115   1.010   1.132   1.485
 5072SOL    HW216116   1.104   1.041   1.582
 5073SOL     OW16117   0.800   5.167   1.369
 5073SOL    HW116118   0.854   5.085   1.390
 5073SOL    HW216119   0.774   5.213   1.454
 5074SOL     OW16120   3.449   2.295   1.051
 5074SOL    HW116121   3.510   2.217   1.040
 5074SOL    HW216122   3.472   2.345   1.135
 5075SOL     OW16123   0.879   2.471   6.636
 5075SOL    HW116124   0.848   2.405   6.568
 5075SOL    HW216125   0.800   2.503   6.689
 5076SOL     OW16126   5.250   0.494   0.619
 5076SOL    HW116127   5.161   0.512   0.578
 5076SOL    HW216128   5.244   0.507   0.718
 5077SOL     OW16129   2.366   3.883   5.572
 5077SOL    HW116130   2.402   3.891   5.479
 5077SOL    HW216131   2.299   3.809   5.576
 5078SOL     OW16132   0.405   1.253   4.194
 5078SOL    HW116133   0.330   1.187   4.187
 5078SOL    HW216134   0.478   1.214   4.250
 5079SOL     OW16135   2.133   3.170   5.037
 5079SOL    HW116136   2.107   3.189   4.943
 5079SOL    HW216137   2.215   3.112   5.038
 5080SOL     OW16138   6.131   6.194   6.126
 5080SOL    HW116139   6.164   6.099   6.129
 5080SOL    HW216140   6.051   6.204   6.185
 5081SOL     OW16141   3.580   3.341   5.108
 5081SOL    HW116142   3.660   3.349   5.167
 5081SOL    HW216143   3.607   3.299   5.021
 5082SOL     OW16144   5.535   5.373   1.673
 5082SOL    HW116145   5.538   5.437   1.750
 5082SOL    HW216146   5.444   5.374   1.632
 5083SOL     OW16147   2.685   0.128   2.752
 5083SOL    HW116148   2.590   0.154   2.771
 5083SOL    HW216149   2.689   0.084   2.662
 5084SOL     OW16150   0.083   4.459   3.880
 5084SOL    HW116151   0.050   4.553   3.874
 5084SOL    HW216152   0.077   4.416   3.790
 5085SOL     OW16153   5.893   2.429   6.194
 5085SOL    HW116154   5.948   2.456   6.272
 5085SOL    HW216155   5.805   2.477   6.197
 5086SOL     OW16156   1.204   5.667   3.301
 5086SOL    HW116157   1.225   5.709   3.390
 5086SOL    HW216158   1.184   5.570   3.314
 5087SOL     OW16159   1.735   5.418   2.955
 5087SOL    HW116160   1.796   5.494   2.931
 5087SOL    HW216161   1.684   5.442   3.037
 5088SOL     OW16162   5.850   0.344   4.336
 5088SOL    HW116163   5.801   0.415   4.285
 5088SOL    HW216164   5.803   0.327   4.423
 5089SOL     OW16165   5.529   3.877   3.915
 5089SOL    HW116166   5.618   3.877   3.869
 5089SOL    HW216167   5.541   3.859   4.012
 5090SOL     OW16168   2.204   3.888   2.151
 5090SOL    HW116169   2.227   3.984   2.136
 5090SOL    HW216170   2.256   3.853   2.229
 5091SOL     OW16171   0.607   1.129   1.855
 5091SOL    HW116172   0.519   1.084   1.840
 5091SOL    HW216173   0.605   1.177   1.943
 5092SOL     OW16174   3.581   3.890   2.914
 5092SOL    HW116175   3.517   3.964   2.938
 5092SOL    HW216176   3.653   3.886   2.983
 5093SOL     OW16177   2.836   1.519   0.676
 5093SOL    HW116178   2.773   1.500   0.601
 5093SOL    HW216179   2.813   1.606   0.718
 5094SOL     OW16180   2.546   5.495   5.780
 5094SOL    HW116181   2.569   5.580   5.828
 5094SOL    HW216182   2.629   5.442   5.766
 5095SOL     OW16183   6.279   2.063   3.848
 5095SOL    HW116184   6.306   2.131   3.917
 5095SOL    HW216185   6.329   1.978   3.864
 5096SOL     OW16186   4.168   5.121   0.337
 5096SOL    HW116187   4.072   5.137   0.360
 5096SOL    HW216188   4.225   5.188   0.385
 5097SOL     OW16189   1.371   6.996   6.405
 5097SOL    HW116190   1.412   0.058   6.427
 5097SOL    HW216191   1.401   6.928   6.473
 5098SOL     OW16192   2.402   0.189   1.917
 5098SOL    HW116193   2.496   0.220   1.929
 5098SOL    HW216194   2.399   0.117   1.848
 5099SOL     OW16195   1.165   0.073   0.100
 5099SOL    HW116196   1.193   0.115   0.013
 5099SOL    HW216197   1.237   0.011   0.132
 5100SOL     OW16198   3.225   5.639   4.855
 5100SOL    HW116199   3.285   5.560   4.841
 5100SOL    HW216200   3.199   5.645   4.952
 5101SOL     OW16201   5.051   0.192   0.398
 5101SOL    HW116202   5.008   0.125   0.459
 5101SOL    HW216203   5.144   0.212   0.430
 5102SOL     OW16204   5.678   6.513   4.116
 5102SOL    HW116205   5.729   6.447   4.062
 5102SOL    HW216206   5.740   6.582   4.152
 5103SOL     OW16207   0.270   0.704   3.617
 5103SOL    HW116208   0.290   0.606   3.616
 5103SOL    HW216209   0.288   0.740   3.708
 5104SOL     OW16210   1.922   6.502   2.431
 5104SOL    HW116211   1.905   6.594   2.397
 5104SOL    HW216212   2.017   6.495   2.462
 5105SOL     OW16213   3.075   3.073   0.905
 5105SOL    HW116214   2.987   3.120   0.918
 5105SOL    HW216215   3.097   3.021   0.987
 5106SOL     OW16216   4.214   1.992   0.158
 5106SOL    HW116217   4.214   1.978   0.059
 5106SOL    HW216218   4.125   2.028   0.187
 5107SOL     OW16219   3.114   1.342   0.385
 5107SOL    HW116220   3.102   1.327   0.483
 5107SOL    HW216221   3.135   1.439   0.369
 5108SOL     OW16222   3.305   3.744   4.872
 5108SOL    HW116223   3.277   3.722   4.779
 5108SOL    HW216224   3.384   3.687   4.897
 5109SOL     OW16225   1.081   1.598   0.412
 5109SOL    HW116226   1.042   1.601   0.504
 5109SOL    HW216227   1.181   1.592   0.419
 5110SOL     OW16228   0.447   0.824   6.212
 5110SOL    HW116229   0.535   0.871   6.223
 5110SOL    HW216230   0.454   0.731   6.247
 5111SOL     OW16231   1.780   0.830   4.939
 5111SOL    HW116232   1.723   0.773   4.879
 5111SOL    HW216233   1.826   0.900   4.885
 5112SOL     OW16234   2.201   1.204   2.982
 5112SOL    HW116235   2.125   1.181   3.042
 5112SOL    HW216236   2.282   1.226   3.037
 5113SOL     OW16237   2.008   0.221   1.142
 5113SOL    HW116238   2.013   0.321   1.152
 5113SOL    HW216239   2.005   0.198   1.045
 5114SOL     OW16240   3.361   1.043   6.575
 5114SOL    HW116241   3.289   1.030   6.644
 5114SOL    HW216242   3.420   0.963   6.575
 5115SOL     OW16243   1.710   4.985   4.012
 5115SOL    HW116244   1.777   5.059   4.002
 5115SOL    HW216245   1.747   4.916   4.074
 5116SOL     OW16246   0.224   0.345   5.784
 5116SOL    HW116247   0.143   0.296   5.818
 5116SOL    HW216248   0.260   0.299   5.703
 5117SOL     OW16249   2.321   4.188   4.546
 5117SOL    HW116250   2.286   4.174   4.453
 5117SOL    HW216251   2.293   4.111   4.603
 5118SOL     OW16252   5.074   6.856   6.897
 5118SOL    HW116253   5.050   6.779   6.957
 5118SOL    HW216254   5.166   6.888   6.919
 5119SOL     OW16255   4.968   0.724   2.175
 5119SOL    HW116256   4.880   0.679   2.191
 5119SOL    HW216257   5.008   0.751   2.263
 5120SOL     OW16258   3.617   0.785   3.680
 5120SOL    HW116259   3.670   0.844   3.741
 5120SOL    HW216260   3.657   0.693   3.680
 5121SOL     OW16261   2.546   2.109   6.285
 5121SOL    HW116262   2.597   2.046   6.345
 5121SOL    HW216263   2.458   2.068   6.262
 5122SOL     OW16264   3.565   7.008   2.663
 5122SOL    HW116265   3.538   6.931   2.721
 5122SOL    HW216266   3.573   6.977   2.568
 5123SOL     OW16267   4.530   2.309   4.394
 5123SOL    HW116268   4.615   2.343   4.355
 5123SOL    HW216269   4.535   2.209   4.403
 5124SOL     OW16270   2.429   5.547   5.093
 5124SOL    HW116271   2.392   5.632   5.129
 5124SOL    HW216272   2.527   5.557   5.075
 5125SOL     OW16273   5.972   3.451   4.684
 5125SOL    HW116274   5.988   3.377   4.619
 5125SOL    HW216275   5.876   3.478   4.682
 5126SOL     OW16276   6.069   4.959   4.875
 5126SOL    HW116277   6.073   5.029   4.804
 5126SOL    HW216278   6.162   4.931   4.900
 5127SOL     OW16279   1.123   3.777   0.200
 5127SOL    HW116280   1.197   3.716   0.229
 5127SOL    HW216281   1.095   3.755   0.107
 5128SOL     OW16282   6.730   0.576   6.637
 5128SOL    HW116283   6.756   0.617   6.549
 5128SOL    HW216284   6.640   0.610   6.663
 5129SOL     OW16285   5.621   0.054   2.379
 5129SOL    HW116286   5.686   0.093   2.314
 5129SOL    HW216287   5.601   6.985   2.354
 5130SOL     OW16288   0.870   5.930   3.585
 5130SOL    HW116289   0.938   5.986   3.632
 5130SOL    HW216290   0.780   5.972   3.592
 5131SOL     OW16291   2.709   4.972   3.676
 5131SOL    HW116292   2.681   5.056   3.722
 5131SOL    HW216293   2.637   4.944   3.612
 5132SOL     OW16294   3.530   2.272   5.939
 5132SOL    HW116295   3.553   2.256   5.843
 5132SOL    HW216296   3.612   2.262   5.995
 5133SOL     OW16297   1.338   5.331   6.652
 5133SOL    HW116298   1.358   5.429   6.650
 5133SOL    HW216299   1.406   5.282   6.597
 5134SOL     OW16300   6.960   2.212   2.100
 5134SOL    HW116301   6.960   2.222   2.200
 5134SOL    HW216302   6.972   2.115   2.077
 5135SOL     OW16303   5.831   3.638   4.192
 5135SOL    HW116304   5.817   3.577   4.270
 5135SOL    HW216305   5.909   3.699   4.211
 5136SOL     OW16306   5.071   0.367   6.532
 5136SOL    HW116307   5.154   0.340   6.483
 5136SOL    HW216308   5.014   0.287   6.548
 5137SOL     OW16309   4.164   3.980   5.778
 5137SOL    HW116310   4.166   4.071   5.819
 5137SOL    HW216311   4.149   3.989   5.679
 5138SOL     OW16312   3.972   2.784   5.349
 5138SOL    HW116313   3.916   2.828   5.278
 5138SOL    HW216314   3.978   2.686   5.331
 5139SOL     OW16315   1.318   1.506   3.605
 5139SOL    HW116316   1.234   1.456   3.585
 5139SOL    HW216317   1.395   1.443   3.605
 5140SOL     OW16318   4.123   2.285   5.600
 5140SOL    HW116319   4.094   2.290   5.696
 5140SOL    HW216320   4.190   2.212   5.589
 5141SOL     OW16321   5.753   3.824   0.836
 5141SOL    HW116322   5.735   3.914   0.877
 5141SOL    HW216323   5.681   3.760   0.862
 5142SOL     OW16324   5.603   6.796   2.333
 5142SOL    HW116325   5.686   6.786   2.389
 5142SOL    HW216326   5.523   6.793   2.393
 5143SOL     OW16327   6.460   4.458   4.546
 5143SOL    HW116328   6.550   4.500   4.530
 5143SOL    HW216329   6.444   4.451   4.644
 5144SOL     OW16330   0.800   4.984   5.548
 5144SOL    HW116331   0.812   4.888   5.570
 5144SOL    HW216332   0.887   5.021   5.514
 5145SOL     OW16333   3.602   5.504   6.285
 5145SOL    HW116334   3.596   5.415   6.331
 5145SOL    HW216335   3.693   5.513   6.244
 5146SOL     OW16336   2.998   3.784   5.313
 5146SOL    HW116337   3.078   3.791   5.254
 5146SOL    HW216338   3.020   3.817   5.405
 5147SOL     OW16339   6.529   5.645   3.167
 5147SOL    HW116340   6.619   5.610   3.192
 5147SOL    HW216341   6.473   5.570   3.130
 5148SOL     OW16342   6.455   0.758   1.878
 5148SOL    HW116343   6.474   0.683   1.942
 5148SOL    HW216344   6.384   0.730   1.814
 5149SOL     OW16345   6.341   6.378   3.120
 5149SOL    HW116346   6.333   6.455   3.182
 5149SOL    HW216347   6.344   6.293   3.172
 5150SOL     OW16348   2.387   5.672   3.429
 5150SOL    HW116349   2.471   5.617   3.431
 5150SOL    HW216350   2.402   5.753   3.372
 5151SOL     OW16351   6.592   3.615   2.094
 5151SOL    HW116352   6.628   3.620   2.000
 5151SOL    HW216353   6.666   3.632   2.159
 5152SOL     OW16354   1.779   4.874   0.008
 5152SOL    HW116355   1.759   4.970   7.015
 5152SOL    HW216356   1.752   4.817   6.958
 5153SOL     OW16357   1.497   1.363   0.239
 5153SOL    HW116358   1.438   1.438   0.210
 5153SOL    HW216359   1.501   1.294   0.167
 5154SOL     OW16360   1.398   2.606   5.861
 5154SOL    HW116361   1.384   2.530   5.797
 5154SOL    HW216362   1.400   2.692   5.810
 5155SOL     OW16363   4.352   0.342   2.255
 5155SOL    HW116364   4.380   0.252   2.219
 5155SOL    HW216365   4.341   0.336   2.354
 5156SOL     OW16366   5.143   3.919   5.948
 5156SOL    HW116367   5.109   3.932   5.855
 5156SOL    HW216368   5.105   3.834   5.986
 5157SOL     OW16369   3.652   1.949   3.561
 5157SOL    HW116370   3.584   2.013   3.596
 5157SOL    HW216371   3.642   1.861   3.607
 5158SOL     OW16372   3.852   2.153   1.317
 5158SOL    HW116373   3.860   2.193   1.226
 5158SOL    HW216374   3.936   2.170   1.369
 5159SOL     OW16375   6.157   3.669   5.832
 5159SOL    HW116376   6.221   3.699   5.762
 5159SOL    HW216377   6.069   3.645   5.791
 5160SOL     OW16378   0.698   4.784   2.955
 5160SOL    HW116379   0.639   4.799   2.876
 5160SOL    HW216380   0.669   4.702   3.004
 5161SOL     OW16381   1.992   3.791   5.942
 5161SOL    HW116382   1.899   3.766   5.918
 5161SOL    HW216383   2.031   3.848   5.869
 5162SOL     OW16384   0.899   5.277   2.859
 5162SOL    HW116385   0.909   5.375   2.840
 5162SOL    HW216386   0.807   5.247   2.834
 5163SOL     OW16387   3.083   6.500   0.173
 5163SOL    HW116388   3.103   6.570   0.240
 5163SOL    HW216389   3.077   6.411   0.218
 5164SOL     OW16390   4.209   1.972   6.922
 5164SOL    HW116391   4.215   1.933   6.830
 5164SOL    HW216392   4.162   2.061   6.918
 5165SOL     OW16393   0.151   3.997   5.488
 5165SOL    HW116394   0.177   4.008   5.391
 5165SOL    HW216395   0.057   4.029   5.500
 5166SOL     OW16396   0.673   5.467   2.365
 5166SOL    HW116397   0.772   5.460   2.363
 5166SOL    HW216398   0.637   5.414   2.442
 5167SOL     OW16399   6.390   5.406   5.857
 5167SOL    HW116400   6.437   5.361   5.933
 5167SOL    HW216401   6.455   5.462   5.806
 5168SOL     OW16402   4.839   3.491   1.649
 5168SOL    HW116403   4.824   3.584   1.681
 5168SOL    HW216404   4.881   3.437   1.722
 5169SOL     OW16405   4.164   2.341   4.151
 5169SOL    HW116406   4.108   2.306   4.076
 5169SOL    HW216407   4.111   2.340   4.236
 5170SOL     OW16408   0.978   3.973   5.432
 5170SOL    HW116409   0.909   4.044   5.423
 5170SOL    HW216410   1.010   3.946   5.341
 5171SOL     OW16411   0.681   4.814   5.282
 5171SOL    HW116412   0.684   4.913   5.270
 5171SOL    HW216413   0.760   4.784   5.335
 5172SOL     OW16414   1.428   3.227   2.621
 5172SOL    HW116415   1.358   3.223   2.550
 5172SOL    HW216416   1.407   3.160   2.692
 5173SOL     OW16417   4.981   5.157   4.592
 5173SOL    HW116418   4.984   5.140   4.691
 5173SOL    HW216419   4.998   5.254   4.575
 5174SOL     OW16420   2.635   5.091   2.876
 5174SOL    HW116421   2.700   5.130   2.941
 5174SOL    HW216422   2.613   4.997   2.903
 5175SOL     OW16423   2.222   3.846   6.811
 5175SOL    HW116424   2.303   3.806   6.769
 5175SOL    HW216425   2.250   3.911   6.882
 5176SOL     OW16426   5.170   3.283   6.812
 5176SOL    HW116427   5.115   3.199   6.811
 5176SOL    HW216428   5.124   3.352   6.868
 5177SOL     OW16429   5.772   0.272   0.223
 5177SOL    HW116430   5.871   0.276   0.236
 5177SOL    HW216431   5.752   0.247   0.128
 5178SOL     OW16432   0.905   3.321   2.182
 5178SOL    HW116433   0.855   3.330   2.096
 5178SOL    HW216434   0.839   3.308   2.257
 5179SOL     OW16435   4.368   5.026   4.115
 5179SOL    HW116436   4.376   5.092   4.190
 5179SOL    HW216437   4.453   4.975   4.105
 5180SOL     OW16438   2.814   2.424   0.831
 5180SOL    HW116439   2.781   2.479   0.755
 5180SOL    HW216440   2.737   2.372   0.870
 5181SOL     OW16441   5.226   1.151   2.939
 5181SOL    HW116442   5.238   1.137   2.841
 5181SOL    HW216443   5.190   1.067   2.980
 5182SOL     OW16444   4.003   4.361   1.661
 5182SOL    HW116445   4.075   4.381   1.728
 5182SOL    HW216446   3.979   4.264   1.666
 5183SOL     OW16447   3.937   1.968   2.568
 5183SOL    HW116448   3.859   1.987   2.507
 5183SOL    HW216449   3.990   1.892   2.530
 5184SOL     OW16450   0.400   1.545   4.536
 5184SOL    HW116451   0.339   1.614   4.577
 5184SOL    HW216452   0.410   1.469   4.599
 5185SOL     OW16453   5.782   0.769   2.804
 5185SOL    HW116454   5.730   0.853   2.821
 5185SOL    HW216455   5.860   0.765   2.867
 5186SOL     OW16456   6.609   2.949   0.344
 5186SOL    HW116457   6.551   3.031   0.336
 5186SOL    HW216458   6.629   2.914   0.253
 5187SOL     OW16459   1.527   6.518   4.165
 5187SOL    HW116460   1.549   6.597   4.108
 5187SOL    HW216461   1.597   6.448   4.152
 5188SOL     OW16462   6.923   5.639   1.215
 5188SOL    HW116463   6.954   5.725   1.174
 5188SOL    HW216464   6.842   5.656   1.271
 5189SOL     OW16465   3.895   5.391   0.862
 5189SOL    HW116466   3.983   5.371   0.819
 5189SOL    HW216467   3.904   5.472   0.920
 5190SOL     OW16468   0.560   1.973   4.712
 5190SOL    HW116469   0.571   2.071   4.698
 5190SOL    HW216470   0.530   1.930   4.627
 5191SOL     OW16471   4.359   0.095   1.897
 5191SOL    HW116472   4.274   0.143   1.875
 5191SOL    HW216473   4.384   0.035   1.821
 5192SOL     OW16474   2.093   5.550   1.975
 5192SOL    HW116475   2.009   5.507   1.942
 5192SOL    HW216476   2.165   5.482   1.985
 5193SOL     OW16477   4.597   5.064   4.695
 5193SOL    HW116478   4.596   5.164   4.698
 5193SOL    HW216479   4.600   5.033   4.599
 5194SOL     OW16480   4.236   1.833   6.684
 5194SOL    HW116481   4.193   1.749   6.651
 5194SOL    HW216482   4.277   1.882   6.607
 5195SOL     OW16483   6.812   6.302   4.030
 5195SOL    HW116484   6.729   6.271   4.076
 5195SOL    HW216485   6.822   6.401   4.043
 5196SOL     OW16486   3.914   6.152   1.314
 5196SOL    HW116487   3.909   6.252   1.316
 5196SOL    HW216488   3.827   6.114   1.346
 5197SOL     OW16489   2.413   4.487   6.018
 5197SOL    HW116490   2.462   4.503   6.103
 5197SOL    HW216491   2.458   4.413   5.967
 5198SOL     OW16492   4.498   6.550   3.189
 5198SOL    HW116493   4.449   6.492   3.254
 5198SOL    HW216494   4.552   6.493   3.128
 5199SOL     OW16495   1.621   5.748   0.397
 5199SOL    HW116496   1.531   5.749   0.352
 5199SOL    HW216497   1.651   5.653   0.408
 5200SOL     OW16498   1.208   3.102   5.271
 5200SOL    HW116499   1.239   3.189   5.235
 5200SOL    HW216500   1.110   3.092   5.256
 5201SOL     OW16501   0.085   0.023   2.923
 5201SOL    HW116502   0.155   0.011   2.993
 5201SOL    HW216503   0.033   6.964   2.913
 5202SOL     OW16504   6.122   3.359   6.192
 5202SOL    HW116505   6.168   3.312   6.117
 5202SOL    HW216506   6.091   3.448   6.162
 5203SOL     OW16507   2.738   2.295   0.238
 5203SOL    HW116508   2.696   2.286   0.328
 5203SOL    HW216509   2.681   2.351   0.179
 5204SOL     OW16510   3.808   5.281   7.011
 5204SOL    HW116511   3.726   5.324   0.024
 5204SOL    HW216512   3.815   5.187   0.018
 5205SOL     OW16513   0.746   6.183   0.984
 5205SOL    HW116514   0.811   6.253   0.955
 5205SOL    HW216515   0.709   6.137   0.903
 5206SOL     OW16516   0.742   4.909   6.198
 5206SOL    HW116517   0.703   4.997   6.226
 5206SOL    HW216518   0.842   4.917   6.190
 5207SOL     OW16519   1.035   6.365   3.788
 5207SOL    HW116520   1.107   6.374   3.856
 5207SOL    HW216521   0.960   6.427   3.810
 5208SOL     OW16522   4.211   2.511   6.087
 5208SOL    HW116523   4.209   2.606   6.056
 5208SOL    HW216524   4.303   2.474   6.074
 5209SOL     OW16525   5.804   6.361   2.730
 5209SOL    HW116526   5.728   6.370   2.794
 5209SOL    HW216527   5.779   6.403   2.642
 5210SOL     OW16528   4.531   2.634   6.306
 5210SOL    HW116529   4.454   2.683   6.346
 5210SOL    HW216530   4.613   2.649   6.361
 5211SOL     OW16531   3.670   2.715   5.360
 5211SOL    HW116532   3.686   2.771   5.280
 5211SOL    HW216533   3.708   2.760   5.441
 5212SOL     OW16534   6.997   2.872   0.768
 5212SOL    HW116535   6.964   2.960   0.802
 5212SOL    HW216536   6.930   2.834   0.705
 5213SOL     OW16537   4.793   3.853   6.125
 5213SOL    HW116538   4.805   3.946   6.089
 5213SOL    HW216539   4.698   3.840   6.153
 5214SOL     OW16540   5.277   1.286   5.722
 5214SOL    HW116541   5.205   1.220   5.744
 5214SOL    HW216542   5.241   1.379   5.730
 5215SOL     OW16543   6.818   4.791   4.308
 5215SOL    HW116544   6.904   4.802   4.357
 5215SOL    HW216545   6.792   4.878   4.266
 5216SOL     OW16546   4.927   5.052   2.138
 5216SOL    HW116547   4.985   5.105   2.201
 5216SOL    HW216548   4.837   5.037   2.179
 5217SOL     OW16549   4.245   5.308   4.310
 5217SOL    HW116550   4.252   5.384   4.246
 5217SOL    HW216551   4.208   5.341   4.397
 5218SOL     OW16552   0.914   0.988   3.471
 5218SOL    HW116553   0.925   1.012   3.375
 5218SOL    HW216554   0.897   1.071   3.524
 5219SOL     OW16555   4.720   1.288   4.892
 5219SOL    HW116556   4.793   1.305   4.958
 5219SOL    HW216557   4.716   1.190   4.871
 5220SOL     OW16558   0.563   5.982   2.677
 5220SOL    HW116559   0.483   5.930   2.709
 5220SOL    HW216560   0.537   6.038   2.599
 5221SOL     OW16561   5.620   2.485   4.543
 5221SOL    HW116562   5.688   2.499   4.471
 5221SOL    HW216563   5.609   2.387   4.559
 5222SOL     OW16564   3.448   5.907   3.096
 5222SOL    HW116565   3.491   5.820   3.120
 5222SOL    HW216566   3.352   5.891   3.072
 5223SOL     OW16567   6.425   2.399   0.705
 5223SOL    HW116568   6.482   2.378   0.625
 5223SOL    HW216569   6.360   2.325   0.719
 5224SOL     OW16570   6.742   2.197   4.731
 5224SOL    HW116571   6.662   2.185   4.791
 5224SOL    HW216572   6.809   2.126   4.751
 5225SOL     OW16573   0.635   0.838   3.451
 5225SOL    HW116574   0.674   0.746   3.464
 5225SOL    HW216575   0.662   0.897   3.527
 5226SOL     OW16576   6.829   5.806   5.034
 5226SOL    HW116577   6.824   5.778   4.938
 5226SOL    HW216578   6.896   5.879   5.044
 5227SOL     OW16579   0.580   3.423   4.678
 5227SOL    HW116580   0.551   3.343   4.731
 5227SOL    HW216581   0.675   3.446   4.702
 5228SOL     OW16582   6.025   2.302   1.160
 5228SOL    HW116583   6.038   2.311   1.062
 5228SOL    HW216584   6.048   2.209   1.189
 5229SOL     OW16585   1.768   6.007   7.015
 5229SOL    HW116586   1.678   6.049   7.011
 5229SOL    HW216587   1.814   6.035   0.073
 5230SOL     OW16588   0.705   5.653   1.595
 5230SOL    HW116589   0.644   5.612   1.663
 5230SOL    HW216590   0.712   5.592   1.516
 5231SOL     OW16591   4.848   3.052   4.867
 5231SOL    HW116592   4.796   3.135   4.847
 5231SOL    HW216593   4.944   3.066   4.841
 5232SOL     OW16594   2.801   3.041   5.906
 5232SOL    HW116595   2.886   3.041   5.853
 5232SOL    HW216596   2.803   2.965   5.972
 5233SOL     OW16597   4.878   1.055   2.675
 5233SOL    HW116598   4.813   1.127   2.698
 5233SOL    HW216599   4.886   1.048   2.576
 5234SOL     OW16600   2.825   1.188   6.503
 5234SOL    HW116601   2.874   1.122   6.446
 5234SOL    HW216602   2.742   1.145   6.541
 5235SOL     OW16603   1.717   2.446   0.480
 5235SOL    HW116604   1.678   2.535   0.456
 5235SOL    HW216605   1.664   2.374   0.435
 5236SOL     OW16606   5.457   4.636   2.665
 5236SOL    HW116607   5.430   4.663   2.572
 5236SOL    HW216608   5.523   4.561   2.660
 5237SOL     OW16609   1.986   1.122   5.075
 5237SOL    HW116610   1.906   1.152   5.022
 5237SOL    HW216611   2.017   1.033   5.041
 5238SOL     OW16612   0.913   4.326   0.183
 5238SOL    HW116613   0.999   4.320   0.132
 5238SOL    HW216614   0.867   4.237   0.182
 5239SOL     OW16615   3.568   2.863   3.860
 5239SOL    HW116616   3.522   2.776   3.846
 5239SOL    HW216617   3.626   2.858   3.942
 5240SOL     OW16618   3.171   1.551   6.266
 5240SOL    HW116619   3.162   1.633   6.324
 5240SOL    HW216620   3.098   1.487   6.287
 5241SOL     OW16621   0.635   5.081   5.282
 5241SOL    HW116622   0.561   5.148   5.276
 5241SOL    HW216623   0.722   5.125   5.264
 5242SOL     OW16624   0.582   6.208   6.121
 5242SOL    HW116625   0.522   6.132   6.096
 5242SOL    HW216626   0.624   6.247   6.039
 5243SOL     OW16627   0.814   5.152   1.683
 5243SOL    HW116628   0.722   5.169   1.649
 5243SOL    HW216629   0.858   5.239   1.703
 5244SOL     OW16630   3.613   5.389   0.150
 5244SOL    HW116631   3.555   5.407   0.230
 5244SOL    HW216632   3.696   5.445   0.156
 5245SOL     OW16633   3.809   4.517   0.273
 5245SOL    HW116634   3.730   4.545   0.218
 5245SOL    HW216635   3.843   4.430   0.240
 5246SOL     OW16636   6.084   3.766   2.439
 5246SOL    HW116637   6.003   3.732   2.392
 5246SOL    HW216638   6.158   3.700   2.429
 5247SOL     OW16639   1.378   0.964   0.667
 5247SOL    HW116640   1.422   0.944   0.755
 5247SOL    HW216641   1.437   0.933   0.593
 5248SOL     OW16642   5.422   1.005   3.869
 5248SOL    HW116643   5.422   0.968   3.962
 5248SOL    HW216644   5.515   1.003   3.833
 5249SOL     OW16645   6.919   4.864   5.454
 5249SOL    HW116646   6.886   4.905   5.539
 5249SOL    HW216647   6.877   4.774   5.442
 5250SOL     OW16648   1.809   6.600   5.799
 5250SOL    HW116649   1.862   6.684   5.806
 5250SOL    HW216650   1.854   6.528   5.852
 5251SOL     OW16651   0.714   3.779   0.505
 5251SOL    HW116652   0.745   3.744   0.416
 5251SOL    HW216653   0.719   3.706   0.573
 5252SOL     OW16654   1.962   6.103   0.519
 5252SOL    HW116655   1.913   6.021   0.549
 5252SOL    HW216656   1.996   6.153   0.599
 5253SOL     OW16657   5.389   4.642   4.278
 5253SOL    HW116658   5.342   4.670   4.195
 5253SOL    HW216659   5.433   4.553   4.264
 5254SOL     OW16660   4.951   1.225   2.974
 5254SOL    HW116661   4.929   1.177   3.059
 5254SOL    HW216662   5.046   1.207   2.949
 5255SOL     OW16663   5.753   1.070   5.827
 5255SOL    HW116664   5.771   0.985   5.876
 5255SOL    HW216665   5.764   1.147   5.890
 5256SOL     OW16666   4.307   0.924   3.449
 5256SOL    HW116667   4.341   0.968   3.365
 5256SOL    HW216668   4.385   0.893   3.504
 5257SOL     OW16669   5.218   6.586   2.038
 5257SOL    HW116670   5.181   6.493   2.037
 5257SOL    HW216671   5.175   6.639   2.111
 5258SOL     OW16672   6.179   4.216   2.294
 5258SOL    HW116673   6.180   4.153   2.372
 5258SOL    HW216674   6.096   4.271   2.297
 5259SOL     OW16675   5.449   5.685   0.859
 5259SOL    HW116676   5.406   5.765   0.900
 5259SOL    HW216677   5.415   5.602   0.904
 5260SOL     OW16678   5.173   3.727   1.163
 5260SOL    HW116679   5.210   3.743   1.072
 5260SOL    HW216680   5.195   3.634   1.192
 5261SOL     OW16681   1.203   3.942   0.618
 5261SOL    HW116682   1.276   3.943   0.551
 5261SOL    HW216683   1.117   3.967   0.574
 5262SOL     OW16684   2.861   1.132   2.854
 5262SOL    HW116685   2.884   1.049   2.906
 5262SOL    HW216686   2.894   1.121   2.760
 5263SOL     OW16687   2.097   1.770   4.696
 5263SOL    HW116688   2.129   1.681   4.662
 5263SOL    HW216689   2.154   1.843   4.658
 5264SOL     OW16690   5.894   2.174   2.548
 5264SOL    HW116691   5.918   2.158   2.643
 5264SOL    HW216692   5.803   2.214   2.543
 5265SOL     OW16693   6.039   3.990   4.478
 5265SOL    HW116694   6.085   4.077   4.461
 5265SOL    HW216695   6.108   3.918   4.490
 5266SOL     OW16696   2.273   5.993   1.023
 5266SOL    HW116697   2.261   6.025   0.929
 5266SOL    HW216698   2.215   6.046   1.084
 5267SOL     OW16699   4.943   3.782   4.901
 5267SOL    HW116700   4.909   3.690   4.921
 5267SOL    HW216701   4.934   3.839   4.982
 5268SOL     OW16702   6.161   0.005   6.255
 5268SOL    HW116703   6.207   6.948   6.225
 5268SOL    HW216704   6.137   7.023   6.352
 5269SOL     OW16705   1.204   6.667   3.589
 5269SOL    HW116706   1.190   6.573   3.560
 5269SOL    HW216707   1.243   6.668   3.681
 5270SOL     OW16708   5.766   1.264   1.434
 5270SOL    HW116709   5.844   1.311   1.476
 5270SOL    HW216710   5.772   1.166   1.453
 5271SOL     OW16711   5.958   5.527   4.786
 5271SOL    HW116712   6.042   5.579   4.772
 5271SOL    HW216713   5.887   5.587   4.823
 5272SOL     OW16714   2.625   5.230   1.730
 5272SOL    HW116715   2.714   5.190   1.713
 5272SOL    HW216716   2.598   5.214   1.825
 5273SOL     OW16717   6.706   2.922   3.369
 5273SOL    HW116718   6.729   2.840   3.317
 5273SOL    HW216719   6.646   2.898   3.445
 5274SOL     OW16720   6.264   0.261   2.413
 5274SOL    HW116721   6.325   0.270   2.491
 5274SOL    HW216722   6.295   0.186   2.354
 5275SOL     OW16723   3.562   1.877   0.124
 5275SOL    HW116724   3.531   1.919   0.039
 5275SOL    HW216725   3.645   1.924   0.156
 5276SOL     OW16726   1.645   0.358   0.756
 5276SOL    HW116727   1.695   0.287   0.806
 5276SOL    HW216728   1.670   0.354   0.659
 5277SOL     OW16729   1.501   1.814   3.140
 5277SOL    HW116730   1.469   1.889   3.198
 5277SOL    HW216731   1.596   1.794   3.162
 5278SOL     OW16732   5.510   0.320   3.312
 5278SOL    HW116733   5.422   0.304   3.359
 5278SOL    HW216734   5.526   0.246   3.246
 5279SOL     OW16735   1.492   5.151   6.310
 5279SOL    HW116736   1.515   5.175   6.404
 5279SOL    HW216737   1.537   5.066   6.285
 5280SOL     OW16738   2.753   6.477   4.862
 5280SOL    HW116739   2.675   6.538   4.878
 5280SOL    HW216740   2.800   6.459   4.949
 5281SOL     OW16741   0.149   1.728   2.385
 5281SOL    HW116742   0.212   1.790   2.431
 5281SOL    HW216743   0.114   1.660   2.450
 5282SOL     OW16744   2.484   2.013   2.951
 5282SOL    HW116745   2.578   1.991   2.925
 5282SOL    HW216746   2.434   1.929   2.970
 5283SOL     OW16747   4.690   6.216   1.561
 5283SOL    HW116748   4.751   6.294   1.545
 5283SOL    HW216749   4.675   6.205   1.659
 5284SOL     OW16750   5.305   3.527   3.447
 5284SOL    HW116751   5.373   3.526   3.521
 5284SOL    HW216752   5.221   3.483   3.478
 5285SOL     OW16753   2.366   4.673   3.857
 5285SOL    HW116754   2.271   4.667   3.888
 5285SOL    HW216755   2.376   4.627   3.768
 5286SOL     OW16756   1.459   3.561   1.281
 5286SOL    HW116757   1.536   3.624   1.291
 5286SOL    HW216758   1.382   3.609   1.239
 5287SOL     OW16759   2.409   6.510   1.411
 5287SOL    HW116760   2.448   6.426   1.451
 5287SOL    HW216761   2.364   6.563   1.483
 5288SOL     OW16762   3.837   0.279   1.776
 5288SOL    HW116763   3.884   0.238   1.854
 5288SOL    HW216764   3.739   0.281   1.794
 5289SOL     OW16765   1.469   5.083   6.005
 5289SOL    HW116766   1.431   5.174   5.990
 5289SOL    HW216767   1.548   5.069   5.945
 5290SOL     OW16768   1.562   4.815   5.223
 5290SOL    HW116769   1.535   4.739   5.164
 5290SOL    HW216770   1.653   4.797   5.261
 5291SOL     OW16771   2.359   5.613   5.611
 5291SOL    HW116772   2.406   5.673   5.547
 5291SOL    HW216773   2.426   5.566   5.668
 5292SOL     OW16774   6.928   3.916   0.193
 5292SOL    HW116775   6.935   3.974   0.112
 5292SOL    HW216776   6.850   3.855   0.183
 5293SOL     OW16777   1.272   0.856   4.094
 5293SOL    HW116778   1.330   0.909   4.033
 5293SOL    HW216779   1.322   0.775   4.127
 5294SOL     OW16780   4.673   3.306   5.943
 5294SOL    HW116781   4.616   3.319   5.862
 5294SOL    HW216782   4.769   3.297   5.915
 5295SOL     OW16783   4.758   0.333   2.350
 5295SOL    HW116784   4.755   0.252   2.293
 5295SOL    HW216785   4.704   0.318   2.433
 5296SOL     OW16786   1.774   5.087   0.403
 5296SOL    HW116787   1.809   5.021   0.337
 5296SOL    HW216788   1.751   5.040   0.488
 5297SOL     OW16789   3.346   1.983   1.244
 5297SOL    HW116790   3.391   1.902   1.208
 5297SOL    HW216791   3.416   2.051   1.269
 5298SOL     OW16792   1.175   6.055   6.803
 5298SOL    HW116793   1.161   5.961   6.834
 5298SOL    HW216794   1.253   6.095   6.852
 5299SOL     OW16795   2.450   2.594   1.160
 5299SOL    HW116796   2.367   2.557   1.203
 5299SOL    HW216797   2.530   2.567   1.213
 5300SOL     OW16798   0.185   6.159   1.781
 5300SOL    HW116799   0.197   6.253   1.812
 5300SOL    HW216800   0.122   6.156   1.704
 5301SOL     OW16801   4.672   3.076   0.665
 5301SOL    HW116802   4.576   3.067   0.641
 5301SOL    HW216803   4.718   2.988   0.655
 5302SOL     OW16804   6.404   4.628   2.342
 5302SOL    HW116805   6.498   4.617   2.376
 5302SOL    HW216806   6.387   4.560   2.271
 5303SOL     OW16807   6.529   5.913   3.020
 5303SOL    HW116808   6.536   5.839   3.087
 5303SOL    HW216809   6.558   5.999   3.062
 5304SOL     OW16810   6.443   1.602   6.188
 5304SOL    HW116811   6.494   1.686   6.209
 5304SOL    HW216812   6.463   1.534   6.258
 5305SOL     OW16813   1.075   5.843   4.402
 5305SOL    HW116814   1.146   5.773   4.400
 5305SOL    HW216815   1.030   5.848   4.313
 5306SOL     OW16816   0.455   5.298   5.195
 5306SOL    HW116817   0.393   5.323   5.121
 5306SOL    HW216818   0.439   5.358   5.274
 5307SOL     OW16819   4.525   0.034   6.935
 5307SOL    HW116820   4.430   0.019   6.962
 5307SOL    HW216821   4.540   7.022   6.844
 5308SOL     OW16822   0.829   6.071   3.941
 5308SOL    HW116823   0.899   6.073   3.869
 5308SOL    HW216824   0.813   6.164   3.974
 5309SOL     OW16825   3.525   4.190   1.824
 5309SOL    HW116826   3.502   4.272   1.772
 5309SOL    HW216827   3.480   4.110   1.783
 5310SOL     OW16828   5.867   2.334   2.174
 5310SOL    HW116829   5.949   2.386   2.150
 5310SOL    HW216830   5.893   2.241   2.201
 5311SOL     OW16831   6.957   5.940   1.258
 5311SOL    HW116832   7.007   6.027   1.255
 5311SOL    HW216833   6.954   5.907   1.353
 5312SOL     OW16834   0.368   3.851   2.099
 5312SOL    HW116835   0.464   3.827   2.090
 5312SOL    HW216836   0.359   3.936   2.151
 5313SOL     OW16837   1.276   3.427   0.014
 5313SOL    HW116838   1.179   3.404   0.006
 5313SOL    HW216839   1.290   3.523   7.017
 5314SOL     OW16840   3.486   5.726   0.120
 5314SOL    HW116841   3.540   5.788   0.177
 5314SOL    HW216842   3.442   5.658   0.178
 5315SOL     OW16843   3.881   3.369   1.157
 5315SOL    HW116844   3.897   3.346   1.253
 5315SOL    HW216845   3.916   3.295   1.099
 5316SOL     OW16846   0.042   4.822   4.451
 5316SOL    HW116847   0.067   4.866   4.537
 5316SOL    HW216848   0.115   4.837   4.384
 5317SOL     OW16849   7.008   0.653   4.871
 5317SOL    HW116850   6.936   0.671   4.803
 5317SOL    HW216851   0.062   0.707   4.848
 5318SOL     OW16852   0.307   1.640   5.893
 5318SOL    HW116853   0.275   1.547   5.872
 5318SOL    HW216854   0.316   1.650   5.992
 5319SOL     OW16855   4.682   6.536   6.648
 5319SOL    HW116856   4.590   6.499   6.658
 5319SOL    HW216857   4.695   6.570   6.556
 5320SOL     OW16858   5.691   4.828   6.544
 5320SOL    HW116859   5.734   4.871   6.624
 5320SOL    HW216860   5.617   4.887   6.510
 5321SOL     OW16861   0.988   4.276   2.874
 5321SOL    HW116862   1.032   4.365   2.887
 5321SOL    HW216863   1.057   4.204   2.875
 5322SOL     OW16864   3.871   5.567   5.977
 5322SOL    HW116865   3.824   5.547   5.892
 5322SOL    HW216866   3.954   5.512   5.984
 5323SOL     OW16867   4.083   3.163   0.356
 5323SOL    HW116868   4.170   3.179   0.310
 5323SOL    HW216869   4.097   3.157   0.454
 5324SOL     OW16870   3.738   2.477   1.692
 5324SOL    HW116871   3.707   2.414   1.764
 5324SOL    HW216872   3.824   2.443   1.653
 5325SOL     OW16873   5.604   6.642   3.578
 5325SOL    HW116874   5.647   6.728   3.548
 5325SOL    HW216875   5.638   6.567   3.522
 5326SOL     OW16876   6.922   6.004   3.530
 5326SOL    HW116877   6.841   5.958   3.493
 5326SOL    HW216878   6.990   5.936   3.557
 5327SOL     OW16879   6.260   4.752   4.924
 5327SOL    HW116880   6.225   4.711   4.840
 5327SOL    HW216881   6.260   4.683   4.996
 5328SOL     OW16882   4.758   2.552   5.701
 5328SOL    HW116883   4.839   2.577   5.647
 5328SOL    HW216884   4.706   2.634   5.724
 5329SOL     OW16885   0.834   3.668   0.258
 5329SOL    HW116886   0.903   3.736   0.234
 5329SOL    HW216887   0.870   3.576   0.242
 5330SOL     OW16888   3.936   4.024   6.874
 5330SOL    HW116889   4.023   4.071   6.876
 5330SOL    HW216890   3.941   3.945   6.812
 5331SOL     OW16891   5.402   0.690   1.555
 5331SOL    HW116892   5.408   0.656   1.649
 5331SOL    HW216893   5.447   0.626   1.493
 5332SOL     OW16894   0.316   4.591   0.230
 5332SOL    HW116895   0.370   4.552   0.304
 5332SOL    HW216896   0.251   4.523   0.197
 5333SOL     OW16897   0.942   0.900   3.801
 5333SOL    HW116898   0.964   0.990   3.764
 5333SOL    HW216899   0.843   0.889   3.807
 5334SOL     OW16900   2.925   5.416   4.935
 5334SOL    HW116901   2.977   5.413   4.850
 5334SOL    HW216902   2.971   5.477   5.000
 5335SOL     OW16903   7.025   5.107   1.981
 5335SOL    HW116904   0.047   5.107   1.894
 5335SOL    HW216905   7.002   5.201   2.006
 5336SOL     OW16906   2.172   1.839   3.150
 5336SOL    HW116907   2.196   1.820   3.055
 5336SOL    HW216908   2.232   1.786   3.211
 5337SOL     OW16909   4.712   4.750   2.063
 5337SOL    HW116910   4.792   4.763   2.005
 5337SOL    HW216911   4.633   4.729   2.006
 5338SOL     OW16912   6.055   0.692   6.077
 5338SOL    HW116913   6.013   0.770   6.125
 5338SOL    HW216914   6.125   0.725   6.014
 5339SOL     OW16915   5.721   1.365   3.117
 5339SOL    HW116916   5.774   1.416   3.049
 5339SOL    HW216917   5.624   1.388   3.108
 5340SOL     OW16918   5.881   3.914   1.138
 5340SOL    HW116919   5.890   3.935   1.041
 5340SOL    HW216920   5.852   3.996   1.187
 5341SOL     OW16921   2.943   5.145   5.397
 5341SOL    HW116922   2.875   5.216   5.414
 5341SOL    HW216923   2.934   5.111   5.304
 5342SOL     OW16924   5.534   6.357   4.814
 5342SOL    HW116925   5.617   6.305   4.793
 5342SOL    HW216926   5.460   6.294   4.836
 5343SOL     OW16927   4.261   3.555   5.125
 5343SOL    HW116928   4.358   3.576   5.111
 5343SOL    HW216929   4.216   3.543   5.037
 5344SOL     OW16930   1.366   1.884   0.957
 5344SOL    HW116931   1.298   1.811   0.943
 5344SOL    HW216932   1.325   1.958   1.010
 5345SOL     OW16933   5.391   6.700   0.131
 5345SOL    HW116934   5.467   6.691   0.066
 5345SOL    HW216935   5.398   6.788   0.179
 5346SOL     OW16936   2.883   5.600   3.716
 5346SOL    HW116937   2.832   5.559   3.791
 5346SOL    HW216938   2.961   5.541   3.692
 5347SOL     OW16939   0.483   3.288   2.484
 5347SOL    HW116940   0.575   3.323   2.468
 5347SOL    HW216941   0.432   3.287   2.398
 5348SOL     OW16942   6.713   1.294   6.716
 5348SOL    HW116943   6.657   1.234   6.773
 5348SOL    HW216944   6.711   1.387   6.753
 5349SOL     OW16945   2.566   3.499   0.452
 5349SOL    HW116946   2.580   3.523   0.356
 5349SOL    HW216947   2.471   3.517   0.477
 5350SOL     OW16948   2.040   0.341   4.993
 5350SOL    HW116949   2.107   0.303   4.929
 5350SOL    HW216950   1.986   0.267   5.032
 5351SOL     OW16951   0.235   5.562   2.282
 5351SOL    HW116952   0.232   5.632   2.210
 5351SOL    HW216953   0.301   5.491   2.256
 5352SOL     OW16954   2.258   4.864   2.883
 5352SOL    HW116955   2.194   4.787   2.880
 5352SOL    HW216956   2.352   4.831   2.873
 5353SOL     OW16957   3.972   6.058   4.749
 5353SOL    HW116958   4.053   6.007   4.779
 5353SOL    HW216959   3.959   6.043   4.651
 5354SOL     OW16960   1.967   4.146   1.077
 5354SOL    HW116961   1.988   4.098   0.992
 5354SOL    HW216962   1.998   4.241   1.070
 5355SOL     OW16963   5.963   5.046   3.803
 5355SOL    HW116964   5.928   5.045   3.897
 5355SOL    HW216965   5.886   5.059   3.740
 5356SOL     OW16966   6.723   3.513   3.364
 5356SOL    HW116967   6.712   3.415   3.377
 5356SOL    HW216968   6.781   3.550   3.437
 5357SOL     OW16969   3.214   5.461   0.771
 5357SOL    HW116970   3.144   5.448   0.842
 5357SOL    HW216971   3.217   5.558   0.746
 5358SOL     OW16972   4.460   1.942   1.064
 5358SOL    HW116973   4.547   1.915   1.105
 5358SOL    HW216974   4.444   2.039   1.081
 5359SOL     OW16975   2.660   1.831   6.478
 5359SOL    HW116976   2.569   1.854   6.511
 5359SOL    HW216977   2.728   1.882   6.530
 5360SOL     OW16978   4.105   6.420   3.815
 5360SOL    HW116979   4.016   6.462   3.801
 5360SOL    HW216980   4.109   6.380   3.906
 5361SOL     OW16981   2.375   6.885   4.432
 5361SOL    HW116982   2.463   6.873   4.387
 5361SOL    HW216983   2.386   6.869   4.531
 5362SOL     OW16984   6.734   5.851   2.391
 5362SOL    HW116985   6.757   5.942   2.426
 5362SOL    HW216986   6.734   5.785   2.466
 5363SOL     OW16987   6.155   5.902   6.149
 5363SOL    HW116988   6.198   5.832   6.206
 5363SOL    HW216989   6.222   5.939   6.085
 5364SOL     OW16990   6.031   0.562   1.402
 5364SOL    HW116991   6.048   0.548   1.499
 5364SOL    HW216992   5.942   0.522   1.377
 5365SOL     OW16993   3.344   3.084   2.270
 5365SOL    HW116994   3.318   3.156   2.335
 5365SOL    HW216995   3.263   3.033   2.242
 5366SOL     OW16996   6.229   6.299   1.822
 5366SOL    HW116997   6.131   6.301   1.838
 5366SOL    HW216998   6.253   6.366   1.751
 5367SOL     OW16999   0.244   0.290   1.775
 5367SOL    HW117000   0.201   0.271   1.864
 5367SOL    HW217001   0.327   0.233   1.767
 5368SOL     OW17002   6.042   0.045   2.686
 5368SOL    HW117003   6.041   0.074   2.591
 5368SOL    HW217004   6.048   6.972   2.690
 5369SOL     OW17005   2.479   6.585   0.961
 5369SOL    HW117006   2.423   6.523   0.906
 5369SOL    HW217007   2.428   6.614   1.042
 5370SOL     OW17008   4.569   3.637   0.624
 5370SOL    HW117009   4.475   3.638   0.659
 5370SOL    HW217010   4.620   3.563   0.667
 5371SOL     OW17011   1.051   4.308   5.293
 5371SOL    HW117012   0.977   4.329   5.357
 5371SOL    HW217013   1.124   4.376   5.303
 5372SOL     OW17014   0.996   6.298   3.133
 5372SOL    HW117015   1.073   6.299   3.070
 5372SOL    HW217016   0.921   6.245   3.094
 5373SOL     OW17017   4.103   6.349   5.242
 5373SOL    HW117018   4.123   6.363   5.339
 5373SOL    HW217019   4.143   6.262   5.213
 5374SOL     OW17020   2.430   5.004   0.933
 5374SOL    HW117021   2.447   4.909   0.960
 5374SOL    HW217022   2.416   5.009   0.834
 5375SOL     OW17023   0.362   6.123   5.691
 5375SOL    HW117024   0.263   6.106   5.685
 5375SOL    HW217025   0.411   6.036   5.698
 5376SOL     OW17026   0.870   2.443   1.568
 5376SOL    HW117027   0.948   2.495   1.603
 5376SOL    HW217028   0.794   2.505   1.551
 5377SOL     OW17029   0.862   0.007   2.692
 5377SOL    HW117030   0.804   6.959   2.725
 5377SOL    HW217031   0.899   0.058   2.770
 5378SOL     OW17032   6.289   6.701   2.419
 5378SOL    HW117033   6.343   6.620   2.442
 5378SOL    HW217034   6.350   6.778   2.401
 5379SOL     OW17035   1.243   3.458   4.773
 5379SOL    HW117036   1.267   3.422   4.863
 5379SOL    HW217037   1.324   3.499   4.731
 5380SOL     OW17038   3.172   6.913   1.604
 5380SOL    HW117039   3.171   7.012   1.616
 5380SOL    HW217040   3.083   6.876   1.632
 5381SOL     OW17041   6.784   6.115   1.811
 5381SOL    HW117042   6.738   6.197   1.778
 5381SOL    HW217043   6.818   6.062   1.733
 5382SOL     OW17044   3.063   2.095   2.072
 5382SOL    HW117045   3.026   2.188   2.070
 5382SOL    HW217046   2.988   2.029   2.071
 5383SOL     OW17047   1.440   3.134   4.599
 5383SOL    HW117048   1.504   3.058   4.601
 5383SOL    HW217049   1.469   3.204   4.665
 5384SOL     OW17050   4.878   6.631   4.780
 5384SOL    HW117051   4.848   6.703   4.842
 5384SOL    HW217052   4.891   6.669   4.688
 5385SOL     OW17053   4.082   3.248   5.087
 5385SOL    HW117054   3.996   3.254   5.137
 5385SOL    HW217055   4.065   3.262   4.989
 5386SOL     OW17056   5.054   1.887   4.034
 5386SOL    HW117057   4.983   1.821   4.012
 5386SOL    HW217058   5.052   1.962   3.968
 5387SOL     OW17059   2.409   6.458   2.861
 5387SOL    HW117060   2.476   6.398   2.904
 5387SOL    HW217061   2.368   6.518   2.931
 5388SOL     OW17062   0.776   0.900   2.960
 5388SOL    HW117063   0.769   0.888   3.059
 5388SOL    HW217064   0.791   0.811   2.917
 5389SOL     OW17065   3.938   1.041   3.869
 5389SOL    HW117066   4.037   1.043   3.887
 5389SOL    HW217067   3.922   1.059   3.772
 5390SOL     OW17068   5.910   4.087   3.167
 5390SOL    HW117069   5.960   4.025   3.107
 5390SOL    HW217070   5.880   4.167   3.116
 5391SOL     OW17071   2.282   2.093   0.695
 5391SOL    HW117072   2.351   2.055   0.755
 5391SOL    HW217073   2.299   2.191   0.682
 5392SOL     OW17074   5.572   4.025   0.952
 5392SOL    HW117075   5.588   3.948   1.013
 5392SOL    HW217076   5.475   4.027   0.925
 5393SOL     OW17077   4.453   0.409   5.078
 5393SOL    HW117078   4.387   0.348   5.122
 5393SOL    HW217079   4.410   0.496   5.058
 5394SOL     OW17080   0.825   5.781   0.796
 5394SOL    HW117081   0.860   5.714   0.730
 5394SOL    HW217082   0.821   5.738   0.887
 5395SOL     OW17083   4.948   0.494   1.238
 5395SOL    HW117084   4.939   0.394   1.243
 5395SOL    HW217085   4.895   0.529   1.161
 5396SOL     OW17086   5.514   4.853   1.477
 5396SOL    HW117087   5.524   4.953   1.477
 5396SOL    HW217088   5.438   4.827   1.418
 5397SOL     OW17089   0.216   1.842   1.567
 5397SOL    HW117090   0.222   1.899   1.485
 5397SOL    HW217091   0.268   1.885   1.641
 5398SOL     OW17092   3.364   1.975   4.263
 5398SOL    HW117093   3.277   2.022   4.244
 5398SOL    HW217094   3.426   1.988   4.186
 5399SOL     OW17095   2.545   6.645   6.237
 5399SOL    HW117096   2.487   6.683   6.309
 5399SOL    HW217097   2.565   6.715   6.169
 5400SOL     OW17098   3.196   3.683   6.952
 5400SOL    HW117099   3.194   3.721   6.859
 5400SOL    HW217100   3.283   3.707   6.996
 5401SOL     OW17101   5.747   4.282   2.149
 5401SOL    HW117102   5.748   4.194   2.101
 5401SOL    HW217103   5.710   4.353   2.089
 5402SOL     OW17104   3.540   5.968   1.070
 5402SOL    HW117105   3.482   5.918   1.134
 5402SOL    HW217106   3.483   6.023   1.009
 5403SOL     OW17107   5.124   3.258   6.071
 5403SOL    HW117108   5.205   3.247   6.129
 5403SOL    HW217109   5.046   3.212   6.113
 5404SOL     OW17110   0.846   0.736   1.923
 5404SOL    HW117111   0.885   0.696   2.006
 5404SOL    HW217112   0.789   0.814   1.948
 5405SOL     OW17113   5.641   4.831   7.021
 5405SOL    HW117114   5.600   4.869   0.077
 5405SOL    HW217115   5.678   4.740   0.014
 5406SOL     OW17116   2.015   0.704   5.304
 5406SOL    HW117117   1.967   0.656   5.378
 5406SOL    HW217118   1.970   0.792   5.288
 5407SOL     OW17119   3.270   1.888   0.920
 5407SOL    HW117120   3.244   1.801   0.963
 5407SOL    HW217121   3.356   1.921   0.959
 5408SOL     OW17122   3.989   0.658   4.780
 5408SOL    HW117123   4.058   0.598   4.740
 5408SOL    HW217124   3.955   0.619   4.865
 5409SOL     OW17125   6.806   1.790   3.255
 5409SOL    HW117126   6.783   1.846   3.176
 5409SOL    HW217127   6.757   1.702   3.250
 5410SOL     OW17128   0.685   2.087   6.263
 5410SOL    HW117129   0.743   2.072   6.182
 5410SOL    HW217130   0.649   1.999   6.295
 5411SOL     OW17131   5.656   5.194   6.324
 5411SOL    HW117132   5.736   5.249   6.298
 5411SOL    HW217133   5.654   5.184   6.423
 5412SOL     OW17134   2.833   1.288   6.966
 5412SOL    HW117135   2.831   1.307   6.868
 5412SOL    HW217136   2.928   1.292   6.998
 5413SOL     OW17137   0.662   0.451   6.656
 5413SOL    HW117138   0.562   0.452   6.650
 5413SOL    HW217139   0.699   0.399   6.579
 5414SOL     OW17140   6.402   4.421   4.810
 5414SOL    HW117141   6.305   4.417   4.836
 5414SOL    HW217142   6.439   4.328   4.806
 5415SOL     OW17143   2.525   6.841   1.491
 5415SOL    HW117144   2.553   6.919   1.547
 5415SOL    HW217145   2.427   6.825   1.503
 5416SOL     OW17146   2.885   5.005   5.182
 5416SOL    HW117147   2.874   4.906   5.173
 5416SOL    HW217148   2.833   5.051   5.110
 5417SOL     OW17149   4.311   6.700   4.685
 5417SOL    HW117150   4.285   6.752   4.603
 5417SOL    HW217151   4.245   6.626   4.699
 5418SOL     OW17152   5.502   6.617   5.002
 5418SOL    HW117153   5.403   6.611   4.988
 5418SOL    HW217154   5.546   6.533   4.969
 5419SOL     OW17155   3.479   5.696   0.798
 5419SOL    HW117156   3.501   5.635   0.723
 5419SOL    HW217157   3.526   5.666   0.881
 5420SOL     OW17158   1.728   1.876   1.757
 5420SOL    HW117159   1.804   1.857   1.695
 5420SOL    HW217160   1.747   1.960   1.808
 5421SOL     OW17161   3.180   5.172   1.894
 5421SOL    HW117162   3.122   5.091   1.883
 5421SOL    HW217163   3.264   5.147   1.942
 5422SOL     OW17164   0.524   4.502   4.025
 5422SOL    HW117165   0.539   4.429   4.092
 5422SOL    HW217166   0.497   4.461   3.937
 5423SOL     OW17167   5.144   4.918   0.068
 5423SOL    HW117168   5.069   4.951   0.125
 5423SOL    HW217169   5.205   4.861   0.123
 5424SOL     OW17170   5.665   4.160   4.138
 5424SOL    HW117171   5.730   4.084   4.148
 5424SOL    HW217172   5.578   4.135   4.179
 5425SOL     OW17173   5.680   1.940   5.007
 5425SOL    HW117174   5.689   2.022   4.952
 5425SOL    HW217175   5.591   1.896   4.988
 5426SOL     OW17176   5.779   5.958   2.815
 5426SOL    HW117177   5.692   5.968   2.864
 5426SOL    HW217178   5.832   6.042   2.823
 5427SOL     OW17179   5.035   3.629   0.335
 5427SOL    HW117180   4.953   3.577   0.312
 5427SOL    HW217181   5.056   3.617   0.432
 5428SOL     OW17182   5.625   6.948   1.779
 5428SOL    HW117183   5.562   6.911   1.847
 5428SOL    HW217184   5.682   6.875   1.742
 5429SOL     OW17185   1.960   0.549   5.892
 5429SOL    HW117186   1.991   0.599   5.972
 5429SOL    HW217187   2.035   0.542   5.825
 5430SOL     OW17188   1.977   2.734   5.599
 5430SOL    HW117189   1.921   2.812   5.571
 5430SOL    HW217190   2.060   2.730   5.542
 5431SOL     OW17191   2.744   4.106   6.106
 5431SOL    HW117192   2.645   4.103   6.119
 5431SOL    HW217193   2.772   4.198   6.081
 5432SOL     OW17194   3.842   5.000   0.036
 5432SOL    HW117195   3.779   4.933   7.024
 5432SOL    HW217196   3.936   4.971   0.020
 5433SOL     OW17197   0.684   1.196   2.428
 5433SOL    HW117198   0.663   1.124   2.494
 5433SOL    HW217199   0.782   1.215   2.429
 5434SOL     OW17200   4.157   0.821   4.510
 5434SOL    HW117201   4.222   0.758   4.467
 5434SOL    HW217202   4.128   0.784   4.598
 5435SOL     OW17203   6.887   2.851   0.508
 5435SOL    HW117204   6.944   2.932   0.494
 5435SOL    HW217205   6.794   2.869   0.476
 5436SOL     OW17206   5.519   4.564   3.260
 5436SOL    HW117207   5.601   4.537   3.211
 5436SOL    HW217208   5.537   4.646   3.314
 5437SOL     OW17209   3.122   4.877   4.854
 5437SOL    HW117210   3.044   4.837   4.902
 5437SOL    HW217211   3.092   4.953   4.798
 5438SOL     OW17212   5.973   4.036   2.123
 5438SOL    HW117213   6.064   3.996   2.110
 5438SOL    HW217214   5.982   4.131   2.150
 5439SOL     OW17215   0.454   3.023   0.140
 5439SOL    HW117216   0.411   2.936   0.118
 5439SOL    HW217217   0.425   3.054   0.230
 5440SOL     OW17218   6.444   6.753   3.816
 5440SOL    HW117219   6.543   6.754   3.805
 5440SOL    HW217220   6.405   6.679   3.762
 5441SOL     OW17221   4.986   3.308   3.896
 5441SOL    HW117222   4.932   3.357   3.828
 5441SOL    HW217223   5.083   3.309   3.869
 5442SOL     OW17224   3.595   0.234   3.015
 5442SOL    HW117225   3.658   0.203   2.944
 5442SOL    HW217226   3.618   0.189   3.102
 5443SOL     OW17227   3.981   5.882   3.896
 5443SOL    HW117228   3.976   5.911   3.800
 5443SOL    HW217229   3.900   5.827   3.917
 5444SOL     OW17230   0.363   0.886   3.399
 5444SOL    HW117231   0.308   0.835   3.465
 5444SOL    HW217232   0.459   0.861   3.408
 5445SOL     OW17233   6.102   4.379   3.971
 5445SOL    HW117234   6.042   4.350   4.045
 5445SOL    HW217235   6.105   4.479   3.968
 5446SOL     OW17236   5.954   5.588   4.453
 5446SOL    HW117237   6.052   5.576   4.464
 5446SOL    HW217238   5.910   5.591   4.543
 5447SOL     OW17239   1.315   1.505   0.502
 5447SOL    HW117240   1.255   1.432   0.534
 5447SOL    HW217241   1.394   1.465   0.456
 5448SOL     OW17242   4.611   4.905   4.020
 5448SOL    HW117243   4.702   4.885   4.055
 5448SOL    HW217244   4.606   4.878   3.923
 5449SOL     OW17245   2.092   1.514   0.392
 5449SOL    HW117246   2.146   1.595   0.414
 5449SOL    HW217247   2.098   1.449   0.468
 5450SOL     OW17248   3.411   0.408   1.232
 5450SOL    HW117249   3.440   0.369   1.145
 5450SOL    HW217250   3.425   0.507   1.231
 5451SOL     OW17251   1.848   6.098   3.538
 5451SOL    HW117252   1.798   6.184   3.545
 5451SOL    HW217253   1.898   6.096   3.451
 5452SOL     OW17254   2.352   4.169   0.928
 5452SOL    HW117255   2.280   4.165   0.859
 5452SOL    HW217256   2.319   4.221   1.007
 5453SOL     OW17257   5.307   4.220   2.295
 5453SOL    HW117258   5.372   4.227   2.371
 5453SOL    HW217259   5.221   4.264   2.320
 5454SOL     OW17260   5.281   5.972   0.014
 5454SOL    HW117261   5.351   6.026   6.994
 5454SOL    HW217262   5.324   5.899   0.067
 5455SOL     OW17263   0.188   2.544   3.745
 5455SOL    HW117264   0.254   2.600   3.696
 5455SOL    HW217265   0.099   2.589   3.744
 5456SOL     OW17266   3.303   1.271   6.867
 5456SOL    HW117267   3.366   1.337   6.909
 5456SOL    HW217268   3.306   1.279   6.768
 5457SOL     OW17269   6.544   1.884   1.066
 5457SOL    HW117270   6.581   1.833   0.988
 5457SOL    HW217271   6.583   1.847   1.150
 5458SOL     OW17272   6.813   5.442   0.115
 5458SOL    HW117273   6.908   5.473   0.106
 5458SOL    HW217274   6.811   5.355   0.164
 5459SOL     OW17275   2.501   4.292   5.818
 5459SOL    HW117276   2.508   4.193   5.816
 5459SOL    HW217277   2.554   4.330   5.742
 5460SOL     OW17278   3.036   0.361   2.657
 5460SOL    HW117279   3.034   0.324   2.564
 5460SOL    HW217280   2.943   0.360   2.695
 5461SOL     OW17281   0.464   6.752   4.658
 5461SOL    HW117282   0.380   6.724   4.612
 5461SOL    HW217283   0.456   6.847   4.687
 5462SOL     OW17284   5.564   6.281   0.280
 5462SOL    HW117285   5.575   6.230   0.194
 5462SOL    HW217286   5.644   6.339   0.295
 5463SOL     OW17287   0.284   1.948   6.934
 5463SOL    HW117288   0.203   1.894   6.911
 5463SOL    HW217289   0.295   2.022   6.868
 5464SOL     OW17290   5.917   6.489   4.953
 5464SOL    HW117291   5.882   6.579   4.926
 5464SOL    HW217292   5.971   6.450   4.878
 5465SOL     OW17293   5.658   0.251   4.083
 5465SOL    HW117294   5.730   0.186   4.107
 5465SOL    HW217295   5.582   0.241   4.149
 5466SOL     OW17296   5.168   2.722   5.819
 5466SOL    HW117297   5.071   2.712   5.839
 5466SOL    HW217298   5.211   2.632   5.817
 5467SOL     OW17299   6.235   3.587   3.290
 5467SOL    HW117300   6.160   3.644   3.324
 5467SOL    HW217301   6.311   3.590   3.355
 5468SOL     OW17302   6.618   2.147   5.176
 5468SOL    HW117303   6.679   2.192   5.241
 5468SOL    HW217304   6.548   2.212   5.145
 5469SOL     OW17305   3.234   6.402   5.464
 5469SOL    HW117306   3.261   6.405   5.368
 5469SOL    HW217307   3.254   6.312   5.502
 5470SOL     OW17308   3.451   5.565   3.707
 5470SOL    HW117309   3.531   5.510   3.682
 5470SOL    HW217310   3.460   5.656   3.667
 5471SOL     OW17311   6.841   0.899   3.223
 5471SOL    HW117312   6.902   0.909   3.301
 5471SOL    HW217313   6.834   0.987   3.175
 5472SOL     OW17314   2.668   3.750   6.274
 5472SOL    HW117315   2.706   3.658   6.264
 5472SOL    HW217316   2.742   3.816   6.289
 5473SOL     OW17317   2.229   2.922   0.853
 5473SOL    HW117318   2.281   2.918   0.939
 5473SOL    HW217319   2.131   2.919   0.873
 5474SOL     OW17320   1.238   4.303   4.618
 5474SOL    HW117321   1.250   4.256   4.531
 5474SOL    HW217322   1.181   4.248   4.679
 5475SOL     OW17323   1.738   2.364   0.890
 5475SOL    HW117324   1.732   2.323   0.981
 5475SOL    HW217325   1.646   2.380   0.854
 5476SOL     OW17326   2.300   4.706   4.968
 5476SOL    HW117327   2.375   4.641   4.965
 5476SOL    HW217328   2.224   4.668   5.021
 5477SOL     OW17329   1.955   4.336   2.637
 5477SOL    HW117330   2.026   4.353   2.569
 5477SOL    HW217331   1.896   4.262   2.607
 5478SOL     OW17332   3.869   0.170   5.514
 5478SOL    HW117333   3.910   0.085   5.546
 5478SOL    HW217334   3.939   0.224   5.466
 5479SOL     OW17335   5.496   2.159   5.480
 5479SOL    HW117336   5.550   2.224   5.533
 5479SOL    HW217337   5.538   2.146   5.390
 5480SOL     OW17338   5.726   5.810   4.631
 5480SOL    HW117339   5.665   5.887   4.648
 5480SOL    HW217340   5.680   5.743   4.572
 5481SOL     OW17341   4.701   1.259   4.311
 5481SOL    HW117342   4.714   1.311   4.395
 5481SOL    HW217343   4.603   1.254   4.290
 5482SOL     OW17344   3.482   3.495   1.855
 5482SOL    HW117345   3.569   3.513   1.808
 5482SOL    HW217346   3.498   3.490   1.953
 5483SOL     OW17347   0.692   2.017   5.196
 5483SOL    HW117348   0.616   2.009   5.261
 5483SOL    HW217349   0.756   1.942   5.210
 5484SOL     OW17350   5.105   0.728   3.476
 5484SOL    HW117351   5.131   0.675   3.395
 5484SOL    HW217352   5.187   0.757   3.525
 5485SOL     OW17353   3.583   6.981   5.572
 5485SOL    HW117354   3.549   6.888   5.587
 5485SOL    HW217355   3.621   6.988   5.480
 5486SOL     OW17356   1.682   5.338   5.332
 5486SOL    HW117357   1.774   5.320   5.369
 5486SOL    HW217358   1.689   5.399   5.254
 5487SOL     OW17359   4.909   3.128   6.170
 5487SOL    HW117360   4.921   3.120   6.269
 5487SOL    HW217361   4.829   3.185   6.150
 5488SOL     OW17362   5.821   0.731   1.160
 5488SOL    HW117363   5.907   0.694   1.127
 5488SOL    HW217364   5.839   0.807   1.223
 5489SOL     OW17365   1.474   4.427   1.428
 5489SOL    HW117366   1.539   4.419   1.353
 5489SOL    HW217367   1.451   4.523   1.442
 5490SOL     OW17368   3.407   6.861   0.214
 5490SOL    HW117369   3.412   6.762   0.202
 5490SOL    HW217370   3.317   6.894   0.184
 5491SOL     OW17371   1.985   3.916   0.708
 5491SOL    HW117372   1.999   3.957   0.618
 5491SOL    HW217373   2.069   3.923   0.761
 5492SOL     OW17374   0.431   2.103   6.092
 5492SOL    HW117375   0.457   2.102   5.995
 5492SOL    HW217376   0.495   2.049   6.145
 5493SOL     OW17377   3.964   3.937   4.371
 5493SOL    HW117378   3.900   3.931   4.295
 5493SOL    HW217379   3.938   4.013   4.431
 5494SOL     OW17380   6.416   2.398   5.989
 5494SOL    HW117381   6.476   2.475   6.009
 5494SOL    HW217382   6.428   2.327   6.058
 5495SOL     OW17383   3.824   1.835   1.095
 5495SOL    HW117384   3.813   1.771   1.019
 5495SOL    HW217385   3.909   1.813   1.144
 5496SOL     OW17386   2.931   0.214   3.141
 5496SOL    HW117387   2.953   0.141   3.077
 5496SOL    HW217388   2.926   0.301   3.092
 5497SOL     OW17389   0.432   2.313   3.982
 5497SOL    HW117390   0.500   2.309   3.908
 5497SOL    HW217391   0.457   2.386   4.046
 5498SOL     OW17392   5.930   6.588   0.905
 5498SOL    HW117393   5.852   6.607   0.845
 5498SOL    HW217394   5.899   6.539   0.986
 5499SOL     OW17395   0.170   0.857   4.830
 5499SOL    HW117396   0.185   0.931   4.895
 5499SOL    HW217397   0.136   0.895   4.743
 5500SOL     OW17398   1.349   0.878   0.261
 5500SOL    HW117399   1.300   0.941   0.321
 5500SOL    HW217400   1.417   0.827   0.314
 5501SOL     OW17401   4.012   6.475   0.214
 5501SOL    HW117402   3.956   6.394   0.201
 5501SOL    HW217403   3.976   6.550   0.158
 5502SOL     OW17404   5.397   3.825   0.353
 5502SOL    HW117405   5.388   3.913   0.399
 5502SOL    HW217406   5.494   3.802   0.343
 5503SOL     OW17407   0.217   5.276   2.739
 5503SOL    HW117408   0.271   5.202   2.778
 5503SOL    HW217409   0.163   5.242   2.663
 5504SOL     OW17410   3.932   0.978   5.338
 5504SOL    HW117411   3.965   0.918   5.411
 5504SOL    HW217412   3.884   1.056   5.377
 5505SOL     OW17413   1.698   5.427   3.971
 5505SOL    HW117414   1.699   5.364   3.893
 5505SOL    HW217415   1.614   5.482   3.967
 5506SOL     OW17416   0.897   2.047   6.077
 5506SOL    HW117417   0.935   2.107   6.006
 5506SOL    HW217418   0.972   2.008   6.131
 5507SOL     OW17419   2.936   0.331   3.958
 5507SOL    HW117420   2.927   0.388   4.040
 5507SOL    HW217421   2.853   0.339   3.902
 5508SOL     OW17422   0.929   0.465   6.352
 5508SOL    HW117423   0.849   0.412   6.383
 5508SOL    HW217424   0.898   0.539   6.291
 5509SOL     OW17425   0.781   6.492   0.026
 5509SOL    HW117426   0.773   6.401   0.066
 5509SOL    HW217427   0.770   6.486   6.954
 5510SOL     OW17428   5.658   5.318   0.622
 5510SOL    HW117429   5.564   5.332   0.652
 5510SOL    HW217430   5.720   5.329   0.700
 5511SOL     OW17431   2.001   1.213   3.909
 5511SOL    HW117432   2.015   1.226   3.811
 5511SOL    HW217433   2.072   1.151   3.944
 5512SOL     OW17434   5.886   1.794   1.538
 5512SOL    HW117435   5.863   1.717   1.597
 5512SOL    HW217436   5.947   1.856   1.586
 5513SOL     OW17437   4.436   5.005   6.888
 5513SOL    HW117438   4.503   5.076   6.910
 5513SOL    HW217439   4.345   5.035   6.918
 5514SOL     OW17440   4.159   6.936   4.047
 5514SOL    HW117441   4.063   6.930   4.021
 5514SOL    HW217442   4.198   6.844   4.053
 5515SOL     OW17443   0.520   5.174   1.313
 5515SOL    HW117444   0.468   5.154   1.230
 5515SOL    HW217445   0.610   5.209   1.288
 5516SOL     OW17446   1.941   4.200   6.743
 5516SOL    HW117447   1.929   4.207   6.644
 5516SOL    HW217448   2.021   4.142   6.762
 5517SOL     OW17449   1.821   3.476   2.100
 5517SOL    HW117450   1.841   3.453   2.005
 5517SOL    HW217451   1.894   3.535   2.136
 5518SOL     OW17452   6.634   6.142   6.268
 5518SOL    HW117453   6.650   6.054   6.224
 5518SOL    HW217454   6.537   6.167   6.259
 5519SOL     OW17455   5.637   3.239   3.033
 5519SOL    HW117456   5.568   3.169   3.017
 5519SOL    HW217457   5.678   3.266   2.946
 5520SOL     OW17458   5.762   6.026   1.830
 5520SOL    HW117459   5.773   6.125   1.833
 5520SOL    HW217460   5.732   5.993   1.919
 5521SOL     OW17461   5.163   0.153   1.657
 5521SOL    HW117462   5.192   0.244   1.627
 5521SOL    HW217463   5.089   0.162   1.723
 5522SOL     OW17464   0.267   5.722   0.272
 5522SOL    HW117465   0.207   5.781   0.217
 5522SOL    HW217466   0.243   5.627   0.258
 5523SOL     OW17467   3.155   0.160   1.626
 5523SOL    HW117468   3.247   0.177   1.591
 5523SOL    HW217469   3.091   0.221   1.580
 5524SOL     OW17470   5.412   5.851   5.295
 5524SOL    HW117471   5.440   5.904   5.375
 5524SOL    HW217472   5.393   5.757   5.322
 5525SOL     OW17473   0.156   2.344   0.621
 5525SOL    HW117474   0.180   2.440   0.629
 5525SOL    HW217475   0.082   2.322   0.685
 5526SOL     OW17476   5.008   5.025   3.986
 5526SOL    HW117477   4.953   5.108   3.996
 5526SOL    HW217478   5.082   5.042   3.921
 5527SOL     OW17479   5.501   3.753   3.612
 5527SOL    HW117480   5.461   3.678   3.664
 5527SOL    HW217481   5.569   3.800   3.667
 5528SOL     OW17482   0.961   1.255   6.730
 5528SOL    HW117483   1.026   1.180   6.736
 5528SOL    HW217484   0.946   1.278   6.634
 5529SOL     OW17485   2.434   0.285   2.792
 5529SOL    HW117486   2.458   0.324   2.703
 5529SOL    HW217487   2.445   0.354   2.863
 5530SOL     OW17488   5.797   1.976   1.970
 5530SOL    HW117489   5.727   1.992   1.900
 5530SOL    HW217490   5.881   2.022   1.944
 5531SOL     OW17491   3.032   3.107   2.383
 5531SOL    HW117492   3.066   3.048   2.310
 5531SOL    HW217493   3.094   3.103   2.461
 5532SOL     OW17494   1.060   2.761   0.565
 5532SOL    HW117495   1.056   2.662   0.575
 5532SOL    HW217496   0.968   2.799   0.575
 5533SOL     OW17497   3.825   1.373   3.170
 5533SOL    HW117498   3.781   1.369   3.259
 5533SOL    HW217499   3.778   1.311   3.107
 5534SOL     OW17500   0.613   1.605   5.860
 5534SOL    HW117501   0.513   1.614   5.857
 5534SOL    HW217502   0.647   1.638   5.948
 5535SOL     OW17503   6.999   2.878   3.367
 5535SOL    HW117504   0.013   2.803   3.314
 5535SOL    HW217505   6.900   2.879   3.352
 5536SOL     OW17506   3.062   1.539   4.316
 5536SOL    HW117507   3.116   1.620   4.339
 5536SOL    HW217508   3.124   1.461   4.301
 5537SOL     OW17509   3.132   0.656   2.365
 5537SOL    HW117510   3.150   0.646   2.267
 5537SOL    HW217511   3.034   0.641   2.383
 5538SOL     OW17512   2.239   6.502   5.331
 5538SOL    HW117513   2.291   6.572   5.280
 5538SOL    HW217514   2.283   6.413   5.319
 5539SOL     OW17515   1.758   3.000   0.980
 5539SOL    HW117516   1.661   2.976   0.983
 5539SOL    HW217517   1.771   3.092   1.018
 5540SOL     OW17518   5.687   4.029   3.493
 5540SOL    HW117519   5.769   4.021   3.436
 5540SOL    HW217520   5.629   4.101   3.456
 5541SOL     OW17521   5.909   0.071   6.179
 5541SOL    HW117522   6.005   0.043   6.192
 5541SOL    HW217523   5.850   0.010   6.233
 5542SOL     OW17524   5.269   4.137   6.042
 5542SOL    HW117525   5.212   4.064   6.005
 5542SOL    HW217526   5.316   4.104   6.124
 5543SOL     OW17527   3.598   4.939   5.938
 5543SOL    HW117528   3.503   4.970   5.932
 5543SOL    HW217529   3.657   5.004   5.890
 5544SOL     OW17530   5.884   5.994   6.116
 5544SOL    HW117531   5.976   5.959   6.133
 5544SOL    HW217532   5.868   6.074   6.174
 5545SOL     OW17533   3.835   1.803   1.943
 5545SOL    HW117534   3.864   1.793   2.038
 5545SOL    HW217535   3.786   1.890   1.932
 5546SOL     OW17536   1.013   5.312   4.716
 5546SOL    HW117537   1.107   5.285   4.732
 5546SOL    HW217538   0.975   5.257   4.641
 5547SOL     OW17539   2.601   0.161   4.766
 5547SOL    HW117540   2.559   0.076   4.800
 5547SOL    HW217541   2.697   0.163   4.792
 5548SOL     OW17542   5.478   3.469   6.017
 5548SOL    HW117543   5.463   3.382   6.064
 5548SOL    HW217544   5.393   3.521   6.015
 5549SOL     OW17545   4.398   3.342   6.544
 5549SOL    HW117546   4.419   3.359   6.447
 5549SOL    HW217547   4.303   3.315   6.553
 5550SOL     OW17548   2.417   4.437   2.047
 5550SOL    HW117549   2.345   4.398   1.991
 5550SOL    HW217550   2.469   4.504   1.994
 5551SOL     OW17551   2.214   0.164   3.402
 5551SOL    HW117552   2.254   0.084   3.359
 5551SOL    HW217553   2.114   0.153   3.408
 5552SOL     OW17554   0.212   0.589   7.027
 5552SOL    HW117555   0.184   0.659   0.065
 5552SOL    HW217556   0.303   0.610   6.992
 5553SOL     OW17557   4.769   6.396   6.869
 5553SOL    HW117558   4.728   6.440   6.789
 5553SOL    HW217559   4.868   6.414   6.869
 5554SOL     OW17560   4.354   1.847   5.399
 5554SOL    HW117561   4.433   1.793   5.371
 5554SOL    HW217562   4.278   1.786   5.421
 5555SOL     OW17563   2.084   4.307   3.993
 5555SOL    HW117564   2.055   4.320   4.088
 5555SOL    HW217565   2.101   4.210   3.976
 5556SOL     OW17566   6.448   1.661   3.551
 5556SOL    HW117567   6.463   1.725   3.475
 5556SOL    HW217568   6.362   1.611   3.536
 5557SOL     OW17569   3.710   6.765   3.052
 5557SOL    HW117570   3.796   6.727   3.084
 5557SOL    HW217571   3.643   6.691   3.040
 5558SOL     OW17572   4.411   3.067   6.040
 5558SOL    HW117573   4.379   3.162   6.045
 5558SOL    HW217574   4.474   3.057   5.963
 5559SOL     OW17575   2.788   0.750   2.188
 5559SOL    HW117576   2.851   0.802   2.130
 5559SOL    HW217577   2.836   0.719   2.270
 5560SOL     OW17578   1.528   6.661   3.380
 5560SOL    HW117579   1.487   6.591   3.439
 5560SOL    HW217580   1.596   6.713   3.432
 5561SOL     OW17581   1.833   2.383   4.227
 5561SOL    HW117582   1.788   2.357   4.142
 5561SOL    HW217583   1.792   2.335   4.303
 5562SOL     OW17584   2.991   2.122   6.935
 5562SOL    HW117585   2.980   2.099   0.005
 5562SOL    HW217586   3.011   2.219   6.926
 5563SOL     OW17587   4.176   5.518   2.669
 5563SOL    HW117588   4.153   5.521   2.766
 5563SOL    HW217589   4.255   5.576   2.651
 5564SOL     OW17590   4.830   1.051   2.135
 5564SOL    HW117591   4.817   0.971   2.075
 5564SOL    HW217592   4.743   1.076   2.176
 5565SOL     OW17593   4.638   1.786   6.687
 5565SOL    HW117594   4.554   1.736   6.666
 5565SOL    HW217595   4.666   1.765   6.780
 5566SOL     OW17596   1.857   5.651   0.136
 5566SOL    HW117597   1.828   5.643   0.040
 5566SOL    HW217598   1.857   5.748   0.162
 5567SOL     OW17599   0.245   4.358   1.536
 5567SOL    HW117600   0.323   4.402   1.580
 5567SOL    HW217601   0.160   4.400   1.570
 5568SOL     OW17602   4.146   2.285   3.234
 5568SOL    HW117603   4.086   2.303   3.157
 5568SOL    HW217604   4.094   2.244   3.309
 5569SOL     OW17605   2.086   1.398   2.520
 5569SOL    HW117606   1.999   1.400   2.569
 5569SOL    HW217607   2.145   1.472   2.554
 5570SOL     OW17608   5.769   4.501   5.240
 5570SOL    HW117609   5.774   4.476   5.143
 5570SOL    HW217610   5.682   4.469   5.277
 5571SOL     OW17611   0.428   5.965   0.829
 5571SOL    HW117612   0.403   6.032   0.759
 5571SOL    HW217613   0.395   5.995   0.918
 5572SOL     OW17614   1.457   2.302   4.847
 5572SOL    HW117615   1.502   2.255   4.923
 5572SOL    HW217616   1.358   2.288   4.852
 5573SOL     OW17617   1.698   3.442   6.446
 5573SOL    HW117618   1.783   3.485   6.416
 5573SOL    HW217619   1.709   3.343   6.448
 5574SOL     OW17620   6.055   1.935   3.725
 5574SOL    HW117621   6.044   1.843   3.763
 5574SOL    HW217622   6.148   1.968   3.743
 5575SOL     OW17623   6.773   1.354   1.340
 5575SOL    HW117624   6.862   1.308   1.339
 5575SOL    HW217625   6.748   1.377   1.434
 5576SOL     OW17626   1.146   6.264   1.966
 5576SOL    HW117627   1.204   6.200   1.916
 5576SOL    HW217628   1.142   6.351   1.917
 5577SOL     OW17629   2.895   2.396   5.549
 5577SOL    HW117630   2.826   2.349   5.605
 5577SOL    HW217631   2.857   2.482   5.515
 5578SOL     OW17632   4.030   4.502   0.478
 5578SOL    HW117633   4.116   4.507   0.427
 5578SOL    HW217634   3.954   4.502   0.413
 5579SOL     OW17635   0.053   3.637   6.503
 5579SOL    HW117636   0.108   3.631   6.587
 5579SOL    HW217637   0.047   3.547   6.461
 5580SOL     OW17638   4.609   3.064   5.832
 5580SOL    HW117639   4.571   3.114   5.754
 5580SOL    HW217640   4.681   3.119   5.875
 5581SOL     OW17641   2.896   6.386   1.838
 5581SOL    HW117642   2.865   6.478   1.816
 5581SOL    HW217643   2.996   6.384   1.843
 5582SOL     OW17644   3.890   3.374   3.694
 5582SOL    HW117645   3.818   3.305   3.705
 5582SOL    HW217646   3.851   3.457   3.654
 5583SOL     OW17647   4.277   0.337   2.976
 5583SOL    HW117648   4.369   0.317   3.009
 5583SOL    HW217649   4.217   0.358   3.053
 5584SOL     OW17650   5.798   4.271   3.918
 5584SOL    HW117651   5.871   4.203   3.917
 5584SOL    HW217652   5.718   4.233   3.964
 5585SOL     OW17653   4.333   6.658   4.395
 5585SOL    HW117654   4.377   6.574   4.363
 5585SOL    HW217655   4.402   6.725   4.421
 5586SOL     OW17656   0.540   2.256   6.660
 5586SOL    HW117657   0.477   2.218   6.728
 5586SOL    HW217658   0.495   2.331   6.611
 5587SOL     OW17659   4.193   6.132   2.630
 5587SOL    HW117660   4.241   6.192   2.694
 5587SOL    HW217661   4.173   6.182   2.546
 5588SOL     OW17662   1.582   0.180   3.085
 5588SOL    HW117663   1.580   0.088   3.046
 5588SOL    HW217664   1.488   0.216   3.091
 5589SOL     OW17665   5.904   1.947   6.289
 5589SOL    HW117666   5.913   1.966   6.387
 5589SOL    HW217667   5.831   1.880   6.275
 5590SOL     OW17668   6.675   6.129   3.125
 5590SOL    HW117669   6.708   6.146   3.218
 5590SOL    HW217670   6.702   6.204   3.065
 5591SOL     OW17671   6.162   0.973   6.393
 5591SOL    HW117672   6.129   1.067   6.387
 5591SOL    HW217673   6.106   0.923   6.460
 5592SOL     OW17674   1.089   4.301   2.527
 5592SOL    HW117675   1.049   4.236   2.463
 5592SOL    HW217676   1.147   4.252   2.592
 5593SOL     OW17677   6.947   2.473   6.144
 5593SOL    HW117678   6.867   2.521   6.181
 5593SOL    HW217679   7.021   2.538   6.128
 5594SOL     OW17680   2.877   0.898   6.737
 5594SOL    HW117681   2.845   0.965   6.670
 5594SOL    HW217682   2.829   0.812   6.722
 5595SOL     OW17683   6.348   0.598   5.198
 5595SOL    HW117684   6.346   0.597   5.098
 5595SOL    HW217685   6.352   0.692   5.231
 5596SOL     OW17686   4.957   0.543   2.595
 5596SOL    HW117687   4.969   0.641   2.605
 5596SOL    HW217688   5.027   0.494   2.646
 5597SOL     OW17689   6.174   1.402   5.687
 5597SOL    HW117690   6.269   1.376   5.703
 5597SOL    HW217691   6.166   1.446   5.598
 5598SOL     OW17692   5.796   2.164   4.181
 5598SOL    HW117693   5.727   2.107   4.135
 5598SOL    HW217694   5.804   2.136   4.276
 5599SOL     OW17695   6.752   3.295   2.142
 5599SOL    HW117696   6.839   3.302   2.092
 5599SOL    HW217697   6.727   3.199   2.151
 5600SOL     OW17698   2.029   0.531   2.403
 5600SOL    HW117699   2.012   0.616   2.353
 5600SOL    HW217700   1.942   0.490   2.430
 5601SOL     OW17701   3.747   1.264   6.401
 5601SOL    HW117702   3.740   1.182   6.459
 5601SOL    HW217703   3.685   1.334   6.436
 5602SOL     OW17704   0.671   0.418   2.507
 5602SOL    HW117705   0.663   0.397   2.604
 5602SOL    HW217706   0.602   0.485   2.481
 5603SOL     OW17707   5.372   2.014   6.332
 5603SOL    HW117708   5.399   1.934   6.279
 5603SOL    HW217709   5.451   2.048   6.383
 5604SOL     OW17710   0.299   2.056   5.376
 5604SOL    HW117711   0.246   2.129   5.334
 5604SOL    HW217712   0.386   2.092   5.409
 5605SOL     OW17713   2.001   0.135   4.507
 5605SOL    HW117714   2.069   0.087   4.452
 5605SOL    HW217715   1.910   0.103   4.483
 5606SOL     OW17716   5.339   0.680   0.389
 5606SOL    HW117717   5.309   0.769   0.422
 5606SOL    HW217718   5.299   0.608   0.445
 5607SOL     OW17719   5.372   1.789   3.981
 5607SOL    HW117720   5.323   1.871   4.011
 5607SOL    HW217721   5.428   1.754   4.056
 5608SOL     OW17722   5.951   1.594   2.952
 5608SOL    HW117723   5.960   1.661   2.879
 5608SOL    HW217724   5.898   1.633   3.028
 5609SOL     OW17725   4.869   5.703   0.900
 5609SOL    HW117726   4.820   5.711   0.813
 5609SOL    HW217727   4.807   5.724   0.975
 5610SOL     OW17728   5.512   4.337   1.436
 5610SOL    HW117729   5.538   4.380   1.350
 5610SOL    HW217730   5.420   4.368   1.462
 5611SOL     OW17731   0.844   4.954   2.011
 5611SOL    HW117732   0.845   5.036   2.067
 5611SOL    HW217733   0.781   4.887   2.050
 5612SOL     OW17734   3.847   3.264   0.245
 5612SOL    HW117735   3.905   3.275   0.165
 5612SOL    HW217736   3.904   3.244   0.325
 5613SOL     OW17737   5.848   4.753   5.174
 5613SOL    HW117738   5.839   4.752   5.075
 5613SOL    HW217739   5.823   4.663   5.211
 5614SOL     OW17740   5.361   3.850   4.868
 5614SOL    HW117741   5.413   3.812   4.944
 5614SOL    HW217742   5.322   3.939   4.895
 5615SOL     OW17743   6.590   1.419   3.610
 5615SOL    HW117744   6.556   1.508   3.583
 5615SOL    HW217745   6.648   1.428   3.691
 5616SOL     OW17746   2.263   2.998   4.660
 5616SOL    HW117747   2.286   3.091   4.690
 5616SOL    HW217748   2.224   2.947   4.736
 5617SOL     OW17749   1.420   3.697   5.224
 5617SOL    HW117750   1.371   3.688   5.311
 5617SOL    HW217751   1.502   3.752   5.239
 5618SOL     OW17752   6.649   4.415   3.115
 5618SOL    HW117753   6.747   4.399   3.102
 5618SOL    HW217754   6.616   4.475   3.042
 5619SOL     OW17755   3.099   3.921   3.444
 5619SOL    HW117756   3.027   3.888   3.383
 5619SOL    HW217757   3.073   3.902   3.539
 5620SOL     OW17758   4.705   3.607   6.502
 5620SOL    HW117759   4.623   3.615   6.444
 5620SOL    HW217760   4.677   3.593   6.597
 5621SOL     OW17761   1.245   3.235   6.159
 5621SOL    HW117762   1.204   3.326   6.158
 5621SOL    HW217763   1.337   3.239   6.120
 5622SOL     OW17764   5.005   6.492   5.653
 5622SOL    HW117765   5.063   6.493   5.735
 5622SOL    HW217766   5.055   6.450   5.578
 5623SOL     OW17767   4.647   6.224   5.371
 5623SOL    HW117768   4.662   6.160   5.296
 5623SOL    HW217769   4.641   6.317   5.335
 5624SOL     OW17770   0.243   5.061   3.749
 5624SOL    HW117771   0.256   5.067   3.650
 5624SOL    HW217772   0.226   4.966   3.775
 5625SOL     OW17773   0.023   5.695   5.491
 5625SOL    HW117774   0.020   5.794   5.476
 5625SOL    HW217775   6.963   5.665   5.530
 5626SOL     OW17776   2.211   5.379   4.018
 5626SOL    HW117777   2.245   5.287   4.035
 5626SOL    HW217778   2.210   5.431   4.103
 5627SOL     OW17779   6.904   5.135   6.296
 5627SOL    HW117780   6.807   5.134   6.273
 5627SOL    HW217781   6.947   5.051   6.263
 5628SOL     OW17782   2.220   2.520   1.290
 5628SOL    HW117783   2.190   2.427   1.310
 5628SOL    HW217784   2.237   2.569   1.376
 5629SOL     OW17785   5.073   3.011   2.213
 5629SOL    HW117786   5.070   2.959   2.127
 5629SOL    HW217787   5.040   3.104   2.197
 5630SOL     OW17788   1.747   3.989   6.499
 5630SOL    HW117789   1.829   3.977   6.444
 5630SOL    HW217790   1.745   3.920   6.572
 5631SOL     OW17791   5.396   1.222   1.498
 5631SOL    HW117792   5.366   1.273   1.418
 5631SOL    HW217793   5.439   1.136   1.469
 5632SOL     OW17794   3.689   1.913   5.352
 5632SOL    HW117795   3.729   1.848   5.287
 5632SOL    HW217796   3.589   1.906   5.348
 5633SOL     OW17797   6.271   4.269   4.546
 5633SOL    HW117798   6.301   4.207   4.619
 5633SOL    HW217799   6.345   4.332   4.523
 5634SOL     OW17800   2.201   4.642   4.310
 5634SOL    HW117801   2.169   4.590   4.231
 5634SOL    HW217802   2.262   4.586   4.365
 5635SOL     OW17803   1.955   6.010   6.487
 5635SOL    HW117804   2.009   5.970   6.561
 5635SOL    HW217805   1.953   6.110   6.498
 5636SOL     OW17806   5.758   0.044   5.095
 5636SOL    HW117807   5.824   0.071   5.165
 5636SOL    HW217808   5.807   0.020   5.011
 5637SOL     OW17809   3.348   6.922   3.721
 5637SOL    HW117810   3.382   7.008   3.682
 5637SOL    HW217811   3.374   6.846   3.661
 5638SOL     OW17812   6.255   4.327   0.659
 5638SOL    HW117813   6.340   4.337   0.711
 5638SOL    HW217814   6.250   4.397   0.588
 5639SOL     OW17815   2.608   0.613   2.043
 5639SOL    HW117816   2.675   0.655   2.104
 5639SOL    HW217817   2.600   0.668   1.959
 5640SOL     OW17818   2.805   0.844   2.686
 5640SOL    HW117819   2.885   0.784   2.694
 5640SOL    HW217820   2.834   0.936   2.662
 5641SOL     OW17821   0.460   4.692   5.920
 5641SOL    HW117822   0.375   4.642   5.935
 5641SOL    HW217823   0.439   4.786   5.894
 5642SOL     OW17824   0.724   5.322   5.127
 5642SOL    HW117825   0.739   5.259   5.050
 5642SOL    HW217826   0.625   5.335   5.140
 5643SOL     OW17827   3.835   1.058   4.358
 5643SOL    HW117828   3.738   1.070   4.376
 5643SOL    HW217829   3.854   1.074   4.261
 5644SOL     OW17830   3.660   0.485   4.190
 5644SOL    HW117831   3.616   0.395   4.193
 5644SOL    HW217832   3.668   0.516   4.096
 5645SOL     OW17833   6.044   4.991   2.908
 5645SOL    HW117834   5.986   4.997   2.988
 5645SOL    HW217835   6.124   4.934   2.928
 5646SOL     OW17836   0.918   5.755   3.335
 5646SOL    HW117837   0.901   5.794   3.425
 5646SOL    HW217838   1.017   5.749   3.319
 5647SOL     OW17839   5.729   6.608   0.725
 5647SOL    HW117840   5.697   6.644   0.637
 5647SOL    HW217841   5.653   6.560   0.770
 5648SOL     OW17842   1.552   1.332   3.627
 5648SOL    HW117843   1.606   1.333   3.711
 5648SOL    HW217844   1.486   1.257   3.631
 5649SOL     OW17845   6.779   7.008   5.207
 5649SOL    HW117846   6.864   6.957   5.194
 5649SOL    HW217847   6.763   0.042   5.129
 5650SOL     OW17848   1.214   5.398   0.849
 5650SOL    HW117849   1.299   5.445   0.874
 5650SOL    HW217850   1.159   5.383   0.930
 5651SOL     OW17851   0.351   1.058   1.800
 5651SOL    HW117852   0.293   1.104   1.732
 5651SOL    HW217853   0.301   1.048   1.886
 5652SOL     OW17854   6.098   0.110   1.956
 5652SOL    HW117855   6.115   0.082   2.051
 5652SOL    HW217856   6.000   0.107   1.937
 5653SOL     OW17857   0.519   6.018   6.458
 5653SOL    HW117858   0.581   6.071   6.400
 5653SOL    HW217859   0.545   5.922   6.455
 5654SOL     OW17860   6.365   6.752   5.415
 5654SOL    HW117861   6.387   6.768   5.319
 5654SOL    HW217862   6.421   6.812   5.473
 5655SOL     OW17863   2.070   3.939   5.313
 5655SOL    HW117864   2.112   3.848   5.313
 5655SOL    HW217865   2.142   4.009   5.322
 5656SOL     OW17866   0.338   3.352   0.764
 5656SOL    HW117867   0.438   3.342   0.766
 5656SOL    HW217868   0.310   3.382   0.672
 5657SOL     OW17869   5.447   1.186   0.282
 5657SOL    HW117870   5.438   1.091   0.250
 5657SOL    HW217871   5.486   1.186   0.374
 5658SOL     OW17872   3.379   5.370   5.794
 5658SOL    HW117873   3.387   5.303   5.720
 5658SOL    HW217874   3.321   5.446   5.763
 5659SOL     OW17875   4.088   3.615   3.517
 5659SOL    HW117876   4.119   3.549   3.586
 5659SOL    HW217877   4.118   3.585   3.426
 5660SOL     OW17878   5.698   0.142   5.603
 5660SOL    HW117879   5.789   0.171   5.634
 5660SOL    HW217880   5.633   0.150   5.680
 5661SOL     OW17881   1.431   4.300   4.798
 5661SOL    HW117882   1.386   4.308   4.886
 5661SOL    HW217883   1.363   4.304   4.725
 5662SOL     OW17884   3.125   5.506   3.634
 5662SOL    HW117885   3.215   5.546   3.650
 5662SOL    HW217886   3.124   5.461   3.545
 5663SOL     OW17887   2.041   2.916   6.804
 5663SOL    HW117888   2.091   2.906   6.718
 5663SOL    HW217889   2.101   2.960   6.871
 5664SOL     OW17890   6.464   3.835   4.338
 5664SOL    HW117891   6.515   3.750   4.349
 5664SOL    HW217892   6.525   3.913   4.351
 5665SOL     OW17893   1.578   2.426   7.025
 5665SOL    HW117894   1.560   2.381   6.937
 5665SOL    HW217895   1.628   2.363   0.058
 5666SOL     OW17896   5.984   5.762   1.301
 5666SOL    HW117897   6.017   5.757   1.206
 5666SOL    HW217898   6.056   5.801   1.359
 5667SOL     OW17899   1.164   4.654   3.722
 5667SOL    HW117900   1.209   4.701   3.646
 5667SOL    HW217901   1.171   4.710   3.805
 5668SOL     OW17902   5.350   1.950   5.123
 5668SOL    HW117903   5.376   1.938   5.028
 5668SOL    HW217904   5.399   1.883   5.180
 5669SOL     OW17905   0.736   3.017   0.141
 5669SOL    HW117906   0.646   3.051   0.114
 5669SOL    HW217907   0.730   2.919   0.163
 5670SOL     OW17908   6.221   2.624   3.888
 5670SOL    HW117909   6.276   2.707   3.880
 5670SOL    HW217910   6.211   2.583   3.797
 5671SOL     OW17911   0.423   5.882   0.033
 5671SOL    HW117912   0.478   5.907   0.112
 5671SOL    HW217913   0.398   5.785   0.039
 5672SOL     OW17914   3.955   4.884   6.583
 5672SOL    HW117915   4.042   4.839   6.603
 5672SOL    HW217916   3.900   4.888   6.666
 5673SOL     OW17917   0.789   6.710   2.010
 5673SOL    HW117918   0.706   6.760   1.986
 5673SOL    HW217919   0.830   6.670   1.927
 5674SOL     OW17920   0.094   4.776   4.797
 5674SOL    HW117921   0.063   4.870   4.781
 5674SOL    HW217922   0.014   4.717   4.811
 5675SOL     OW17923   4.701   1.972   5.531
 5675SOL    HW117924   4.664   2.032   5.460
 5675SOL    HW217925   4.752   1.898   5.488
 5676SOL     OW17926   2.274   2.819   2.452
 5676SOL    HW117927   2.182   2.794   2.481
 5676SOL    HW217928   2.329   2.736   2.441
 5677SOL     OW17929   0.132   1.238   2.027
 5677SOL    HW117930   0.091   1.242   1.936
 5677SOL    HW217931   0.104   1.319   2.079
 5678SOL     OW17932   3.558   6.530   3.017
 5678SOL    HW117933   3.489   6.465   2.988
 5678SOL    HW217934   3.618   6.489   3.085
 5679SOL     OW17935   0.892   1.012   4.149
 5679SOL    HW117936   0.827   0.941   4.178
 5679SOL    HW217937   0.979   0.969   4.125
 5680SOL     OW17938   1.376   5.092   6.928
 5680SOL    HW117939   1.315   5.113   6.852
 5680SOL    HW217940   1.356   5.153   7.005
 5681SOL     OW17941   0.593   4.509   0.395
 5681SOL    HW117942   0.582   4.429   0.453
 5681SOL    HW217943   0.650   4.577   0.441
 5682SOL     OW17944   2.495   4.398   6.291
 5682SOL    HW117945   2.589   4.432   6.300
 5682SOL    HW217946   2.434   4.455   6.346
 5683SOL     OW17947   4.119   0.671   0.056
 5683SOL    HW117948   4.061   0.610   0.001
 5683SOL    HW217949   4.178   0.616   0.115
 5684SOL     OW17950   3.085   3.008   4.730
 5684SOL    HW117951   3.030   2.973   4.806
 5684SOL    HW217952   3.043   3.092   4.695
 5685SOL     OW17953   1.727   3.281   2.541
 5685SOL    HW117954   1.769   3.208   2.487
 5685SOL    HW217955   1.630   3.261   2.555
 5686SOL     OW17956   2.660   0.313   6.123
 5686SOL    HW117957   2.666   0.412   6.112
 5686SOL    HW217958   2.667   0.269   6.033
 5687SOL     OW17959   0.282   4.558   6.050
 5687SOL    HW117960   0.299   4.536   6.146
 5687SOL    HW217961   0.304   4.479   5.993
 5688SOL     OW17962   0.298   2.500   0.186
 5688SOL    HW117963   0.205   2.486   0.220
 5688SOL    HW217964   0.364   2.476   0.257
 5689SOL     OW17965   4.512   0.859   0.935
 5689SOL    HW117966   4.509   0.775   0.882
 5689SOL    HW217967   4.484   0.841   1.030
 5690SOL     OW17968   2.742   6.026   1.245
 5690SOL    HW117969   2.829   6.076   1.245
 5690SOL    HW217970   2.726   5.988   1.154
 5691SOL     OW17971   2.771   6.666   2.313
 5691SOL    HW117972   2.859   6.692   2.351
 5691SOL    HW217973   2.698   6.694   2.376
 5692SOL     OW17974   6.307   2.847   0.310
 5692SOL    HW117975   6.336   2.892   0.395
 5692SOL    HW217976   6.315   2.748   0.321
 5693SOL     OW17977   5.654   2.280   2.579
 5693SOL    HW117978   5.643   2.379   2.579
 5693SOL    HW217979   5.645   2.246   2.485
 5694SOL     OW17980   0.983   2.311   3.871
 5694SOL    HW117981   1.051   2.247   3.836
 5694SOL    HW217982   0.974   2.300   3.970
 5695SOL     OW17983   1.042   2.516   2.999
 5695SOL    HW117984   1.008   2.485   2.910
 5695SOL    HW217985   1.023   2.614   3.009
 5696SOL     OW17986   1.369   0.912   3.136
 5696SOL    HW117987   1.332   0.826   3.100
 5696SOL    HW217988   1.345   0.921   3.233
 5697SOL     OW17989   6.010   2.178   1.525
 5697SOL    HW117990   6.077   2.119   1.479
 5697SOL    HW217991   5.919   2.161   1.487
 5698SOL     OW17992   0.623   3.376   3.053
 5698SOL    HW117993   0.574   3.451   3.098
 5698SOL    HW217994   0.714   3.366   3.094
 5699SOL     OW17995   6.509   2.579   2.850
 5699SOL    HW117996   6.576   2.651   2.832
 5699SOL    HW217997   6.424   2.621   2.884
 5700SOL     OW17998   0.001   6.439   4.696
 5700SOL    HW117999   6.958   6.448   4.625
 5700SOL    HW218000   7.017   6.513   4.762
 5701SOL     OW18001   1.306   0.714   2.978
 5701SOL    HW118002   1.329   0.621   3.009
 5701SOL    HW218003   1.361   0.737   2.898
 5702SOL     OW18004   2.374   6.265   5.321
 5702SOL    HW118005   2.366   6.225   5.412
 5702SOL    HW218006   2.429   6.206   5.262
 5703SOL     OW18007   6.491   4.348   1.541
 5703SOL    HW118008   6.523   4.336   1.635
 5703SOL    HW218009   6.569   4.366   1.481
 5704SOL     OW18010   4.259   4.980   2.479
 5704SOL    HW118011   4.162   4.970   2.457
 5704SOL    HW218012   4.269   5.011   2.573
 5705SOL     OW18013   4.691   0.799   1.249
 5705SOL    HW118014   4.689   0.833   1.343
 5705SOL    HW218015   4.630   0.720   1.241
 5706SOL     OW18016   6.480   3.265   0.508
 5706SOL    HW118017   6.574   3.243   0.482
 5706SOL    HW218018   6.458   3.358   0.479
 5707SOL     OW18019   7.020   6.808   0.655
 5707SOL    HW118020   6.987   6.775   0.567
 5707SOL    HW218021   6.973   6.759   0.729
 5708SOL     OW18022   4.923   6.107   1.161
 5708SOL    HW118023   4.930   6.206   1.159
 5708SOL    HW218024   4.827   6.080   1.146
 5709SOL     OW18025   1.611   0.339   2.656
 5709SOL    HW118026   1.669   0.259   2.674
 5709SOL    HW218027   1.524   0.327   2.704
 5710SOL     OW18028   2.466   2.979   6.659
 5710SOL    HW118029   2.541   2.915   6.645
 5710SOL    HW218030   2.445   2.985   6.757
 5711SOL     OW18031   4.862   1.486   2.908
 5711SOL    HW118032   4.855   1.398   2.955
 5711SOL    HW218033   4.907   1.473   2.820
 5712SOL     OW18034   0.942   5.804   5.945
 5712SOL    HW118035   0.856   5.784   5.991
 5712SOL    HW218036   1.010   5.832   6.013
 5713SOL     OW18037   2.751   2.994   1.624
 5713SOL    HW118038   2.696   3.046   1.558
 5713SOL    HW218039   2.725   2.898   1.621
 5714SOL     OW18040   0.755   5.398   6.755
 5714SOL    HW118041   0.692   5.363   6.686
 5714SOL    HW218042   0.706   5.462   6.815
 5715SOL     OW18043   0.819   6.590   3.330
 5715SOL    HW118044   0.737   6.541   3.362
 5715SOL    HW218045   0.815   6.599   3.231
 5716SOL     OW18046   1.475   3.987   0.026
 5716SOL    HW118047   1.559   3.997   6.998
 5716SOL    HW218048   1.450   3.890   0.030
 5717SOL     OW18049   1.918   5.965   0.788
 5717SOL    HW118050   1.945   5.882   0.739
 5717SOL    HW218051   1.905   5.944   0.885
 5718SOL     OW18052   0.993   2.565   5.603
 5718SOL    HW118053   1.020   2.640   5.543
 5718SOL    HW218054   1.023   2.583   5.696
 5719SOL     OW18055   3.185   1.759   6.423
 5719SOL    HW118056   3.227   1.739   6.511
 5719SOL    HW218057   3.181   1.858   6.409
 5720SOL     OW18058   1.222   5.491   3.976
 5720SOL    HW118059   1.282   5.470   3.899
 5720SOL    HW218060   1.128   5.466   3.953
 5721SOL     OW18061   0.325   4.037   1.291
 5721SOL    HW118062   0.388   3.978   1.240
 5721SOL    HW218063   0.240   3.988   1.307
 5722SOL     OW18064   6.380   1.191   5.408
 5722SOL    HW118065   6.474   1.197   5.439
 5722SOL    HW218066   6.323   1.150   5.480
 5723SOL     OW18067   4.672   3.465   6.745
 5723SOL    HW118068   4.702   3.508   6.830
 5723SOL    HW218069   4.653   3.368   6.761
 5724SOL     OW18070   4.614   2.811   5.136
 5724SOL    HW118071   4.693   2.872   5.141
 5724SOL    HW218072   4.553   2.829   5.213
 5725SOL     OW18073   5.390   5.719   3.621
 5725SOL    HW118074   5.474   5.685   3.579
 5725SOL    HW218075   5.389   5.819   3.619
 5726SOL     OW18076   0.212   4.742   5.077
 5726SOL    HW118077   0.146   4.751   5.002
 5726SOL    HW218078   0.281   4.814   5.070
 5727SOL     OW18079   7.016   2.073   3.967
 5727SOL    HW118080   0.059   2.015   4.008
 5727SOL    HW218081   0.030   2.131   3.897
 5728SOL     OW18082   4.023   1.039   6.442
 5728SOL    HW118083   4.074   1.048   6.356
 5728SOL    HW218084   3.928   1.015   6.421
 5729SOL     OW18085   0.751   1.505   0.187
 5729SOL    HW118086   0.653   1.495   0.170
 5729SOL    HW218087   0.779   1.599   0.169
 5730SOL     OW18088   4.462   5.095   6.214
 5730SOL    HW118089   4.414   5.151   6.146
 5730SOL    HW218090   4.520   5.154   6.270
 5731SOL     OW18091   1.052   6.606   4.172
 5731SOL    HW118092   0.974   6.579   4.116
 5731SOL    HW218093   1.137   6.591   4.121
 5732SOL     OW18094   6.486   4.956   5.023
 5732SOL    HW118095   6.581   4.926   5.017
 5732SOL    HW218096   6.426   4.886   4.985
 5733SOL     OW18097   3.514   0.266   5.080
 5733SOL    HW118098   3.529   0.253   5.178
 5733SOL    HW218099   3.498   0.178   5.037
 5734SOL     OW18100   1.068   6.296   6.067
 5734SOL    HW118101   1.093   6.344   5.983
 5734SOL    HW218102   1.100   6.201   6.061
 5735SOL     OW18103   3.972   2.127   1.951
 5735SOL    HW118104   3.936   2.063   1.883
 5735SOL    HW218105   3.898   2.180   1.991
 5736SOL     OW18106   6.095   3.913   0.453
 5736SOL    HW118107   6.096   3.821   0.413
 5736SOL    HW218108   6.069   3.980   0.383
 5737SOL     OW18109   4.865   5.444   0.505
 5737SOL    HW118110   4.889   5.459   0.409
 5737SOL    HW218111   4.947   5.456   0.561
 5738SOL     OW18112   2.832   2.616   5.912
 5738SOL    HW118113   2.859   2.543   5.975
 5738SOL    HW218114   2.885   2.698   5.931
 5739SOL     OW18115   0.900   0.059   5.669
 5739SOL    HW118116   0.943   7.014   5.723
 5739SOL    HW218117   0.823   0.098   5.720
 5740SOL     OW18118   4.319   3.628   0.719
 5740SOL    HW118119   4.291   3.569   0.643
 5740SOL    HW218120   4.238   3.659   0.769
 5741SOL     OW18121   6.445   4.127   4.715
 5741SOL    HW118122   6.401   4.038   4.724
 5741SOL    HW218123   6.530   4.118   4.663
 5742SOL     OW18124   4.735   6.839   2.637
 5742SOL    HW118125   4.831   6.864   2.641
 5742SOL    HW218126   4.726   6.739   2.646
 5743SOL     OW18127   2.715   5.740   5.035
 5743SOL    HW118128   2.788   5.804   5.010
 5743SOL    HW218129   2.644   5.741   4.965
 5744SOL     OW18130   4.849   1.613   1.614
 5744SOL    HW118131   4.892   1.702   1.604
 5744SOL    HW218132   4.750   1.622   1.606
 5745SOL     OW18133   1.971   1.437   4.097
 5745SOL    HW118134   2.032   1.515   4.085
 5745SOL    HW218135   2.007   1.359   4.045
 5746SOL     OW18136   5.017   0.000   1.075
 5746SOL    HW118137   5.034   7.019   1.173
 5746SOL    HW218138   4.950   0.073   1.058
 5747SOL     OW18139   0.662   4.434   2.664
 5747SOL    HW118140   0.683   4.339   2.691
 5747SOL    HW218141   0.578   4.463   2.711
 5748SOL     OW18142   1.488   6.225   0.788
 5748SOL    HW118143   1.470   6.322   0.772
 5748SOL    HW218144   1.586   6.211   0.801
 5749SOL     OW18145   1.382   6.179   4.255
 5749SOL    HW118146   1.329   6.253   4.214
 5749SOL    HW218147   1.448   6.144   4.188
 5750SOL     OW18148   6.665   6.313   4.634
 5750SOL    HW118149   6.759   6.306   4.601
 5750SOL    HW218150   6.618   6.387   4.586
 5751SOL     OW18151   2.575   2.516   4.281
 5751SOL    HW118152   2.514   2.524   4.202
 5751SOL    HW218153   2.532   2.558   4.361
 5752SOL     OW18154   6.623   0.411   0.331
 5752SOL    HW118155   6.684   0.359   0.271
 5752SOL    HW218156   6.677   0.455   0.403
 5753SOL     OW18157   3.666   3.358   4.260
 5753SOL    HW118158   3.710   3.377   4.172
 5753SOL    HW218159   3.710   3.413   4.332
 5754SOL     OW18160   6.864   4.620   1.573
 5754SOL    HW118161   6.789   4.667   1.526
 5754SOL    HW218162   6.921   4.686   1.621
 5755SOL     OW18163   2.352   2.842   6.030
 5755SOL    HW118164   2.327   2.846   5.933
 5755SOL    HW218165   2.396   2.927   6.057
 5756SOL     OW18166   6.093   0.294   3.131
 5756SOL    HW118167   6.175   0.240   3.110
 5756SOL    HW218168   6.093   0.318   3.228
 5757SOL     OW18169   6.952   6.810   3.378
 5757SOL    HW118170   6.924   6.762   3.461
 5757SOL    HW218171   0.008   6.864   3.397
 5758SOL     OW18172   2.567   0.918   4.731
 5758SOL    HW118173   2.581   1.003   4.780
 5758SOL    HW218174   2.520   0.937   4.644
 5759SOL     OW18175   4.830   1.603   6.908
 5759SOL    HW118176   4.749   1.622   6.963
 5759SOL    HW218177   4.872   1.689   6.879
 5760SOL     OW18178   0.191   4.322   0.686
 5760SOL    HW118179   0.169   4.325   0.589
 5760SOL    HW218180   0.221   4.413   0.716
 5761SOL     OW18181   5.808   5.758   6.260
 5761SOL    HW118182   5.863   5.685   6.222
 5761SOL    HW218183   5.825   5.843   6.210
 5762SOL     OW18184   4.657   4.650   0.361
 5762SOL    HW118185   4.648   4.608   0.270
 5762SOL    HW218186   4.571   4.639   0.411
 5763SOL     OW18187   0.254   0.092   0.318
 5763SOL    HW118188   0.317   0.089   0.241
 5763SOL    HW218189   0.258   0.005   0.368
 5764SOL     OW18190   5.261   5.084   5.541
 5764SOL    HW118191   5.276   5.128   5.629
 5764SOL    HW218192   5.184   5.128   5.494
 5765SOL     OW18193   5.679   2.797   0.137
 5765SOL    HW118194   5.697   2.779   0.234
 5765SOL    HW218195   5.603   2.741   0.106
 5766SOL     OW18196   2.363   2.137   6.731
 5766SOL    HW118197   2.451   2.094   6.753
 5766SOL    HW218198   2.294   2.106   6.796
 5767SOL     OW18199   2.135   1.509   6.997
 5767SOL    HW118200   2.163   1.604   7.013
 5767SOL    HW218201   2.050   1.491   0.018
 5768SOL     OW18202   0.866   6.366   3.537
 5768SOL    HW118203   0.894   6.297   3.471
 5768SOL    HW218204   0.943   6.389   3.597
 5769SOL     OW18205   2.174   5.821   4.674
 5769SOL    HW118206   2.202   5.746   4.734
 5769SOL    HW218207   2.221   5.905   4.702
 5770SOL     OW18208   6.189   6.383   0.188
 5770SOL    HW118209   6.255   6.396   0.261
 5770SOL    HW218210   6.217   6.437   0.108
 5771SOL     OW18211   1.635   6.911   3.566
 5771SOL    HW118212   1.692   6.981   3.609
 5771SOL    HW218213   1.547   6.905   3.614
 5772SOL     OW18214   5.905   1.960   0.819
 5772SOL    HW118215   5.988   1.926   0.861
 5772SOL    HW218216   5.917   1.966   0.720
 5773SOL     OW18217   4.612   0.711   3.553
 5773SOL    HW118218   4.705   0.697   3.589
 5773SOL    HW218219   4.617   0.725   3.454
 5774SOL     OW18220   2.824   5.788   3.379
 5774SOL    HW118221   2.767   5.807   3.300
 5774SOL    HW218222   2.911   5.749   3.350
 5775SOL     OW18223   1.262   0.901   2.124
 5775SOL    HW118224   1.279   0.806   2.097
 5775SOL    HW218225   1.240   0.955   2.043
 5776SOL     OW18226   0.108   0.505   5.047
 5776SOL    HW118227   0.066   0.543   4.964
 5776SOL    HW218228   0.041   0.506   5.121
 5777SOL     OW18229   6.178   0.206   5.429
 5777SOL    HW118230   6.152   0.300   5.406
 5777SOL    HW218231   6.223   0.206   5.519
 5778SOL     OW18232   1.578   0.858   1.624
 5778SOL    HW118233   1.585   0.760   1.640
 5778SOL    HW218234   1.535   0.902   1.703
 5779SOL     OW18235   4.963   2.254   0.165
 5779SOL    HW118236   4.864   2.244   0.176
 5779SOL    HW218237   4.986   2.351   0.159
 5780SOL     OW18238   6.064   5.431   3.492
 5780SOL    HW118239   6.054   5.390   3.582
 5780SOL    HW218240   6.137   5.385   3.442
 5781SOL     OW18241   0.284   4.654   4.028
 5781SOL    HW118242   0.374   4.609   4.027
 5781SOL    HW218243   0.213   4.585   4.014
 5782SOL     OW18244   0.962   1.365   0.343
 5782SOL    HW118245   0.904   1.424   0.288
 5782SOL    HW218246   1.030   1.420   0.391
 5783SOL     OW18247   2.003   0.620   1.628
 5783SOL    HW118248   2.014   0.714   1.594
 5783SOL    HW218249   2.075   0.600   1.694
 5784SOL     OW18250   0.159   6.086   0.387
 5784SOL    HW118251   0.192   6.015   0.326
 5784SOL    HW218252   0.111   6.156   0.334
 5785SOL     OW18253   1.943   2.280   0.484
 5785SOL    HW118254   1.912   2.240   0.398
 5785SOL    HW218255   1.879   2.350   0.514
 5786SOL     OW18256   0.579   4.571   1.035
 5786SOL    HW118257   0.508   4.505   1.012
 5786SOL    HW218258   0.626   4.542   1.119
 5787SOL     OW18259   4.092   2.027   5.250
 5787SOL    HW118260   4.161   2.011   5.321
 5787SOL    HW218261   4.037   2.107   5.275
 5788SOL     OW18262   3.333   1.589   1.511
 5788SOL    HW118263   3.327   1.689   1.516
 5788SOL    HW218264   3.398   1.564   1.439
 5789SOL     OW18265   2.837   4.428   0.518
 5789SOL    HW118266   2.892   4.464   0.443
 5789SOL    HW218267   2.749   4.396   0.483
 5790SOL     OW18268   0.454   4.704   4.715
 5790SOL    HW118269   0.440   4.716   4.617
 5790SOL    HW218270   0.373   4.735   4.765
 5791SOL     OW18271   3.300   1.683   2.453
 5791SOL    HW118272   3.398   1.689   2.471
 5791SOL    HW218273   3.256   1.768   2.480
 5792SOL     OW18274   5.524   2.841   2.339
 5792SOL    HW118275   5.468   2.757   2.340
 5792SOL    HW218276   5.535   2.873   2.245
 5793SOL     OW18277   5.297   0.734   4.183
 5793SOL    HW118278   5.228   0.669   4.153
 5793SOL    HW218279   5.376   0.684   4.221
 5794SOL     OW18280   2.151   0.933   6.639
 5794SOL    HW118281   2.088   0.987   6.583
 5794SOL    HW218282   2.232   0.987   6.660
 5795SOL     OW18283   0.210   6.906   6.982
 5795SOL    HW118284   0.183   6.816   6.947
 5795SOL    HW218285   0.254   6.894   0.044
 5796SOL     OW18286   5.147   0.431   6.056
 5796SOL    HW118287   5.077   0.490   6.095
 5796SOL    HW218288   5.161   0.352   6.115
 5797SOL     OW18289   4.652   2.253   0.199
 5797SOL    HW118290   4.649   2.203   0.286
 5797SOL    HW218291   4.559   2.272   0.168
 5798SOL     OW18292   6.649   5.183   3.974
 5798SOL    HW118293   6.585   5.247   4.017
 5798SOL    HW218294   6.599   5.125   3.909
 5799SOL     OW18295   0.194   0.879   4.247
 5799SOL    HW118296   0.286   0.842   4.233
 5799SOL    HW218297   0.134   0.807   4.283
 5800SOL     OW18298   6.356   7.000   1.962
 5800SOL    HW118299   6.271   0.024   1.947
 5800SOL    HW218300   6.369   6.934   1.887
 5801SOL     OW18301   1.751   2.839   3.574
 5801SOL    HW118302   1.747   2.741   3.557
 5801SOL    HW218303   1.663   2.881   3.551
 5802SOL     OW18304   6.770   3.337   2.391
 5802SOL    HW118305   6.757   3.330   2.292
 5802SOL    HW218306   6.868   3.334   2.413
 5803SOL     OW18307   2.035   5.729   2.566
 5803SOL    HW118308   2.055   5.640   2.606
 5803SOL    HW218309   1.939   5.731   2.536
 5804SOL     OW18310   0.281   4.901   3.117
 5804SOL    HW118311   0.327   4.986   3.142
 5804SOL    HW218312   0.271   4.844   3.199
 5805SOL     OW18313   2.215   2.943   0.541
 5805SOL    HW118314   2.309   2.978   0.548
 5805SOL    HW218315   2.151   3.019   0.540
 5806SOL     OW18316   6.214   5.689   4.433
 5806SOL    HW118317   6.245   5.783   4.447
 5806SOL    HW218318   6.142   5.688   4.363
 5807SOL     OW18319   0.825   4.572   0.881
 5807SOL    HW118320   0.880   4.645   0.840
 5807SOL    HW218321   0.750   4.612   0.933
 5808SOL     OW18322   6.561   5.495   4.040
 5808SOL    HW118323   6.617   5.520   4.118
 5808SOL    HW218324   6.474   5.458   4.072
 5809SOL     OW18325   6.545   1.775   4.995
 5809SOL    HW118326   6.527   1.726   5.080
 5809SOL    HW218327   6.566   1.709   4.923
 5810SOL     OW18328   4.899   1.338   5.665
 5810SOL    HW118329   4.810   1.292   5.673
 5810SOL    HW218330   4.963   1.278   5.617
 5811SOL     OW18331   3.827   0.816   4.607
 5811SOL    HW118332   3.879   0.896   4.637
 5811SOL    HW218333   3.867   0.734   4.648
 5812SOL     OW18334   5.834   3.642   4.986
 5812SOL    HW118335   5.774   3.563   4.970
 5812SOL    HW218336   5.808   3.717   4.925
 5813SOL     OW18337   1.980   1.483   1.314
 5813SOL    HW118338   1.918   1.528   1.249
 5813SOL    HW218339   1.929   1.455   1.395
 5814SOL     OW18340   6.309   3.591   2.381
 5814SOL    HW118341   6.392   3.641   2.408
 5814SOL    HW218342   6.324   3.493   2.394
 5815SOL     OW18343   4.018   1.760   3.880
 5815SOL    HW118344   3.994   1.807   3.795
 5815SOL    HW218345   4.109   1.721   3.871
 5816SOL     OW18346   5.023   4.450   0.781
 5816SOL    HW118347   4.931   4.454   0.820
 5816SOL    HW218348   5.036   4.364   0.733
 5817SOL     OW18349   5.997   4.388   5.832
 5817SOL    HW118350   6.036   4.338   5.754
 5817SOL    HW218351   5.933   4.457   5.798
 5818SOL     OW18352   6.362   4.974   5.301
 5818SOL    HW118353   6.402   4.903   5.359
 5818SOL    HW218354   6.388   4.958   5.206
 5819SOL     OW18355   3.946   0.457   6.848
 5819SOL    HW118356   3.877   0.528   6.863
 5819SOL    HW218357   3.962   0.407   6.932
 5820SOL     OW18358   4.443   4.603   3.662
 5820SOL    HW118359   4.534   4.561   3.659
 5820SOL    HW218360   4.394   4.569   3.742
 5821SOL     OW18361   0.231   0.984   2.042
 5821SOL    HW118362   0.175   1.067   2.043
 5821SOL    HW218363   0.199   0.923   1.969
 5822SOL     OW18364   1.372   2.705   1.417
 5822SOL    HW118365   1.408   2.771   1.483
 5822SOL    HW218366   1.381   2.742   1.324
 5823SOL     OW18367   2.898   0.427   4.623
 5823SOL    HW118368   2.937   0.483   4.550
 5823SOL    HW218369   2.946   0.339   4.626
 5824SOL     OW18370   0.033   5.736   2.535
 5824SOL    HW118371   0.132   5.747   2.547
 5824SOL    HW218372   0.015   5.694   2.446
 5825SOL     OW18373   0.114   6.766   4.727
 5825SOL    HW118374   0.118   6.845   4.666
 5825SOL    HW218375   0.205   6.749   4.765
 5826SOL     OW18376   0.222   5.193   6.257
 5826SOL    HW118377   0.191   5.197   6.161
 5826SOL    HW218378   0.270   5.277   6.279
 5827SOL     OW18379   1.819   3.918   5.432
 5827SOL    HW118380   1.743   3.885   5.376
 5827SOL    HW218381   1.902   3.925   5.375
 5828SOL     OW18382   6.008   1.811   2.153
 5828SOL    HW118383   6.022   1.907   2.176
 5828SOL    HW218384   6.073   1.754   2.204
 5829SOL     OW18385   1.947   0.464   4.250
 5829SOL    HW118386   2.044   0.474   4.268
 5829SOL    HW218387   1.910   0.551   4.215
 5830SOL     OW18388   5.794   6.512   5.788
 5830SOL    HW118389   5.819   6.452   5.712
 5830SOL    HW218390   5.703   6.489   5.820
 5831SOL     OW18391   1.228   0.735   5.981
 5831SOL    HW118392   1.200   0.680   6.060
 5831SOL    HW218393   1.231   0.678   5.899
 5832SOL     OW18394   3.348   5.266   0.157
 5832SOL    HW118395   3.374   5.178   0.198
 5832SOL    HW218396   3.429   5.311   0.120
 5833SOL     OW18397   3.958   4.009   4.782
 5833SOL    HW118398   3.936   4.087   4.724
 5833SOL    HW218399   3.980   4.040   4.874
 5834SOL     OW18400   0.341   2.776   0.210
 5834SOL    HW118401   0.429   2.751   0.249
 5834SOL    HW218402   0.308   2.702   0.151
 5835SOL     OW18403   5.089   2.863   3.220
 5835SOL    HW118404   5.019   2.864   3.291
 5835SOL    HW218405   5.110   2.957   3.193
 5836SOL     OW18406   2.731   0.325   1.679
 5836SOL    HW118407   2.706   0.274   1.597
 5836SOL    HW218408   2.762   0.417   1.655
 5837SOL     OW18409   3.046   4.000   6.940
 5837SOL    HW118410   3.132   4.032   6.979
 5837SOL    HW218411   3.063   3.920   6.883
 5838SOL     OW18412   3.085   2.114   0.811
 5838SOL    HW118413   3.082   2.178   0.887
 5838SOL    HW218414   3.054   2.024   0.841
 5839SOL     OW18415   0.978   2.022   2.069
 5839SOL    HW118416   1.008   2.059   2.157
 5839SOL    HW218417   1.050   1.962   2.033
 5840SOL     OW18418   1.724   4.989   6.396
 5840SOL    HW118419   1.682   4.981   6.487
 5840SOL    HW218420   1.780   5.071   6.393
 5841SOL     OW18421   4.662   1.226   2.469
 5841SOL    HW118422   4.596   1.170   2.418
 5841SOL    HW218423   4.639   1.224   2.566
 5842SOL     OW18424   4.792   2.846   1.549
 5842SOL    HW118425   4.783   2.905   1.469
 5842SOL    HW218426   4.863   2.882   1.609
 5843SOL     OW18427   1.747   4.369   2.098
 5843SOL    HW118428   1.820   4.302   2.110
 5843SOL    HW218429   1.664   4.323   2.068
 5844SOL     OW18430   1.636   5.768   5.807
 5844SOL    HW118431   1.651   5.689   5.746
 5844SOL    HW218432   1.723   5.813   5.824
 5845SOL     OW18433   0.442   0.540   2.419
 5845SOL    HW118434   0.476   0.624   2.376
 5845SOL    HW218435   0.397   0.562   2.505
 5846SOL     OW18436   5.699   3.855   6.256
 5846SOL    HW118437   5.684   3.759   6.233
 5846SOL    HW218438   5.726   3.862   6.353
 5847SOL     OW18439   2.837   2.207   2.291
 5847SOL    HW118440   2.857   2.238   2.198
 5847SOL    HW218441   2.772   2.130   2.287
 5848SOL     OW18442   1.651   5.892   3.092
 5848SOL    HW118443   1.688   5.971   3.043
 5848SOL    HW218444   1.650   5.911   3.190
 5849SOL     OW18445   1.384   0.311   5.439
 5849SOL    HW118446   1.431   0.238   5.389
 5849SOL    HW218447   1.373   0.390   5.379
 5850SOL     OW18448   6.647   3.118   1.681
 5850SOL    HW118449   6.702   3.154   1.605
 5850SOL    HW218450   6.642   3.186   1.754
 5851SOL     OW18451   5.081   3.101   2.904
 5851SOL    HW118452   5.042   3.013   2.929
 5851SOL    HW218453   5.125   3.142   2.984
 5852SOL     OW18454   5.946   6.511   3.109
 5852SOL    HW118455   5.950   6.588   3.172
 5852SOL    HW218456   5.897   6.435   3.151
 5853SOL     OW18457   3.434   5.561   5.231
 5853SOL    HW118458   3.414   5.522   5.320
 5853SOL    HW218459   3.429   5.490   5.161
 5854SOL     OW18460   4.464   4.467   6.529
 5854SOL    HW118461   4.439   4.547   6.475
 5854SOL    HW218462   4.508   4.496   6.613
 5855SOL     OW18463   1.429   1.008   4.844
 5855SOL    HW118464   1.498   1.059   4.791
 5855SOL    HW218465   1.459   1.001   4.939
 5856SOL     OW18466   2.174   5.822   3.549
 5856SOL    HW118467   2.221   5.908   3.531
 5856SOL    HW218468   2.221   5.747   3.503
 5857SOL     OW18469   6.410   2.308   5.387
 5857SOL    HW118470   6.507   2.309   5.408
 5857SOL    HW218471   6.374   2.216   5.401
 5858SOL     OW18472   2.433   2.133   2.722
 5858SOL    HW118473   2.470   2.065   2.659
 5858SOL    HW218474   2.447   2.104   2.816
 5859SOL     OW18475   6.403   5.815   1.636
 5859SOL    HW118476   6.417   5.737   1.698
 5859SOL    HW218477   6.409   5.900   1.688
 5860SOL     OW18478   0.370   3.862   3.097
 5860SOL    HW118479   0.388   3.845   3.000
 5860SOL    HW218480   0.357   3.960   3.112
 5861SOL     OW18481   4.514   1.820   4.451
 5861SOL    HW118482   4.596   1.763   4.441
 5861SOL    HW218483   4.533   1.896   4.512
 5862SOL     OW18484   6.083   5.554   0.900
 5862SOL    HW118485   6.131   5.507   0.974
 5862SOL    HW218486   6.056   5.645   0.930
 5863SOL     OW18487   2.913   2.156   5.109
 5863SOL    HW118488   2.969   2.226   5.066
 5863SOL    HW218489   2.937   2.150   5.206
 5864SOL     OW18490   3.798   3.951   2.480
 5864SOL    HW118491   3.888   3.971   2.440
 5864SOL    HW218492   3.803   3.959   2.579
 5865SOL     OW18493   6.010   6.969   5.620
 5865SOL    HW118494   6.015   6.927   5.530
 5865SOL    HW218495   5.969   0.033   5.613
 5866SOL     OW18496   3.248   4.365   0.339
 5866SOL    HW118497   3.172   4.318   0.384
 5866SOL    HW218498   3.284   4.435   0.399
 5867SOL     OW18499   2.512   3.294   1.184
 5867SOL    HW118500   2.429   3.262   1.138
 5867SOL    HW218501   2.549   3.372   1.133
 5868SOL     OW18502   1.849   1.678   5.328
 5868SOL    HW118503   1.788   1.606   5.298
 5868SOL    HW218504   1.942   1.642   5.336
 5869SOL     OW18505   2.188   6.335   3.142
 5869SOL    HW118506   2.172   6.433   3.145
 5869SOL    HW218507   2.134   6.295   3.067
 5870SOL     OW18508   4.529   6.773   4.948
 5870SOL    HW118509   4.464   6.845   4.971
 5870SOL    HW218510   4.509   6.737   4.857
 5871SOL     OW18511   3.217   3.517   1.302
 5871SOL    HW118512   3.201   3.540   1.399
 5871SOL    HW218513   3.153   3.446   1.274
 5872SOL     OW18514   4.488   6.243   1.132
 5872SOL    HW118515   4.392   6.246   1.104
 5872SOL    HW218516   4.531   6.331   1.111
 5873SOL     OW18517   3.873   1.280   2.174
 5873SOL    HW118518   3.937   1.344   2.215
 5873SOL    HW218519   3.919   1.193   2.157
 5874SOL     OW18520   2.927   4.726   6.354
 5874SOL    HW118521   3.017   4.708   6.316
 5874SOL    HW218522   2.931   4.719   6.454
 5875SOL     OW18523   4.135   1.333   0.404
 5875SOL    HW118524   4.059   1.286   0.449
 5875SOL    HW218525   4.127   1.432   0.419
 5876SOL     OW18526   3.874   3.137   0.667
 5876SOL    HW118527   3.941   3.065   0.683
 5876SOL    HW218528   3.807   3.137   0.740
 5877SOL     OW18529   0.620   6.932   1.644
 5877SOL    HW118530   0.548   6.954   1.579
 5877SOL    HW218531   0.708   6.927   1.596
 5878SOL     OW18532   6.285   5.220   3.758
 5878SOL    HW118533   6.207   5.274   3.727
 5878SOL    HW218534   6.254   5.129   3.785
 5879SOL     OW18535   1.369   3.790   6.587
 5879SOL    HW118536   1.416   3.702   6.588
 5879SOL    HW218537   1.397   3.842   6.507
 5880SOL     OW18538   4.579   4.512   5.927
 5880SOL    HW118539   4.546   4.534   5.835
 5880SOL    HW218540   4.663   4.563   5.946
 5881SOL     OW18541   0.825   0.117   2.454
 5881SOL    HW118542   0.910   0.169   2.443
 5881SOL    HW218543   0.814   0.092   2.550
 5882SOL     OW18544   6.910   5.378   0.618
 5882SOL    HW118545   6.935   5.284   0.595
 5882SOL    HW218546   6.962   5.441   0.561
 5883SOL     OW18547   1.257   1.221   6.560
 5883SOL    HW118548   1.349   1.256   6.541
 5883SOL    HW218549   1.247   1.130   6.519
 5884SOL     OW18550   4.171   1.345   4.335
 5884SOL    HW118551   4.126   1.281   4.398
 5884SOL    HW218552   4.110   1.365   4.258
 5885SOL     OW18553   0.711   6.819   2.559
 5885SOL    HW118554   0.702   6.858   2.467
 5885SOL    HW218555   0.638   6.855   2.618
 5886SOL     OW18556   0.168   2.342   4.742
 5886SOL    HW118557   0.241   2.374   4.681
 5886SOL    HW218558   0.095   2.299   4.688
 5887SOL     OW18559   2.844   1.948   2.080
 5887SOL    HW118560   2.823   2.034   2.032
 5887SOL    HW218561   2.841   1.872   2.015
 5888SOL     OW18562   3.151   0.623   1.331
 5888SOL    HW118563   3.230   0.681   1.313
 5888SOL    HW218564   3.152   0.545   1.268
 5889SOL     OW18565   0.844   0.518   0.656
 5889SOL    HW118566   0.766   0.512   0.594
 5889SOL    HW218567   0.837   0.602   0.710
 5890SOL     OW18568   2.451   1.223   3.128
 5890SOL    HW118569   2.525   1.245   3.065
 5890SOL    HW218570   2.441   1.296   3.195
 5891SOL     OW18571   3.235   3.232   6.618
 5891SOL    HW118572   3.248   3.199   6.525
 5891SOL    HW218573   3.188   3.162   6.672
 5892SOL     OW18574   1.006   5.675   1.898
 5892SOL    HW118575   0.945   5.673   1.977
 5892SOL    HW218576   1.071   5.751   1.908
 5893SOL     OW18577   2.567   4.621   4.043
 5893SOL    HW118578   2.475   4.632   4.006
 5893SOL    HW218579   2.630   4.682   3.995
 5894SOL     OW18580   6.798   5.854   4.108
 5894SOL    HW118581   6.840   5.943   4.124
 5894SOL    HW218582   6.818   5.822   4.016
 5895SOL     OW18583   5.588   3.746   4.145
 5895SOL    HW118584   5.520   3.687   4.101
 5895SOL    HW218585   5.679   3.703   4.139
 5896SOL     OW18586   3.313   0.888   0.538
 5896SOL    HW118587   3.219   0.896   0.571
 5896SOL    HW218588   3.313   0.845   0.448
 5897SOL     OW18589   4.258   0.061   1.140
 5897SOL    HW118590   4.264   7.006   1.082
 5897SOL    HW218591   4.217   0.036   1.228
 5898SOL     OW18592   2.420   6.859   3.533
 5898SOL    HW118593   2.359   6.843   3.610
 5898SOL    HW218594   2.484   6.782   3.524
 5899SOL     OW18595   6.218   5.600   0.073
 5899SOL    HW118596   6.233   5.685   0.125
 5899SOL    HW218597   6.229   5.619   7.002
 5900SOL     OW18598   6.516   5.321   3.540
 5900SOL    HW118599   6.490   5.269   3.622
 5900SOL    HW218600   6.612   5.301   3.518
 5901SOL     OW18601   2.386   1.684   6.886
 5901SOL    HW118602   2.365   1.593   6.919
 5901SOL    HW218603   2.467   1.680   6.827
 5902SOL     OW18604   6.239   1.928   5.237
 5902SOL    HW118605   6.318   1.951   5.295
 5902SOL    HW218606   6.160   1.980   5.266
 5903SOL     OW18607   4.885   4.454   6.972
 5903SOL    HW118608   4.954   4.432   6.902
 5903SOL    HW218609   4.901   4.398   0.026
 5904SOL     OW18610   0.855   4.591   1.618
 5904SOL    HW118611   0.781   4.650   1.585
 5904SOL    HW218612   0.869   4.607   1.716
 5905SOL     OW18613   6.407   7.008   3.728
 5905SOL    HW118614   6.410   6.927   3.785
 5905SOL    HW218615   6.330   7.003   3.665
 5906SOL     OW18616   3.949   2.040   4.033
 5906SOL    HW118617   3.920   1.971   3.967
 5906SOL    HW218618   4.029   2.006   4.084
 5907SOL     OW18619   1.395   4.659   0.777
 5907SOL    HW118620   1.368   4.749   0.743
 5907SOL    HW218621   1.313   4.603   0.791
 5908SOL     OW18622   0.218   3.177   6.800
 5908SOL    HW118623   0.250   3.200   6.708
 5908SOL    HW218624   0.252   3.245   6.865
 5909SOL     OW18625   6.961   5.183   0.887
 5909SOL    HW118626   6.975   5.282   0.896
 5909SOL    HW218627   6.968   5.157   0.791
 5910SOL     OW18628   0.627   4.429   3.506
 5910SOL    HW118629   0.717   4.458   3.472
 5910SOL    HW218630   0.622   4.329   3.505
 5911SOL     OW18631   0.003   5.398   6.571
 5911SOL    HW118632   6.987   5.428   6.486
 5911SOL    HW218633   7.011   5.301   6.586
 5912SOL     OW18634   5.957   1.375   6.529
 5912SOL    HW118635   5.894   1.445   6.561
 5912SOL    HW218636   5.985   1.318   6.607
 5913SOL     OW18637   5.361   3.092   6.344
 5913SOL    HW118638   5.303   3.101   6.425
 5913SOL    HW218639   5.343   3.004   6.299
 5914SOL     OW18640   1.447   5.534   5.897
 5914SOL    HW118641   1.530   5.525   5.952
 5914SOL    HW218642   1.455   5.615   5.838
 5915SOL     OW18643   4.650   5.369   1.197
 5915SOL    HW118644   4.615   5.448   1.246
 5915SOL    HW218645   4.580   5.335   1.134
 5916SOL     OW18646   5.248   6.897   4.065
 5916SOL    HW118647   5.219   6.863   3.976
 5916SOL    HW218648   5.170   6.934   4.115
 5917SOL     OW18649   2.986   3.519   3.933
 5917SOL    HW118650   3.067   3.549   3.882
 5917SOL    HW218651   2.993   3.421   3.951
 5918SOL     OW18652   1.763   3.730   6.227
 5918SOL    HW118653   1.836   3.665   6.246
 5918SOL    HW218654   1.782   3.816   6.275
 5919SOL     OW18655   3.741   3.436   2.764
 5919SOL    HW118656   3.762   3.528   2.730
 5919SOL    HW218657   3.769   3.369   2.695
 5920SOL     OW18658   4.657   0.290   6.649
 5920SOL    HW118659   4.678   0.306   6.745
 5920SOL    HW218660   4.562   0.262   6.639
 5921SOL     OW18661   3.527   5.084   6.844
 5921SOL    HW118662   3.521   5.002   6.900
 5921SOL    HW218663   3.435   5.118   6.823
 5922SOL     OW18664   5.327   5.087   3.146
 5922SOL    HW118665   5.409   5.075   3.202
 5922SOL    HW218666   5.323   5.180   3.111
 5923SOL     OW18667   6.400   1.547   1.400
 5923SOL    HW118668   6.380   1.466   1.455
 5923SOL    HW218669   6.413   1.520   1.305
 5924SOL     OW18670   6.382   0.518   2.984
 5924SOL    HW118671   6.436   0.555   2.908
 5924SOL    HW218672   6.285   0.530   2.965
 5925SOL     OW18673   3.990   6.919   2.193
 5925SOL    HW118674   3.971   6.953   2.285
 5925SOL    HW218675   3.970   6.991   2.126
 5926SOL     OW18676   3.893   5.809   1.376
 5926SOL    HW118677   3.863   5.786   1.468
 5926SOL    HW218678   3.852   5.896   1.348
 5927SOL     OW18679   1.426   4.232   2.476
 5927SOL    HW118680   1.395   4.216   2.382
 5927SOL    HW218681   1.353   4.209   2.540
 5928SOL     OW18682   3.768   0.596   0.905
 5928SOL    HW118683   3.750   0.617   1.001
 5928SOL    HW218684   3.699   0.532   0.871
 5929SOL     OW18685   0.368   6.984   6.776
 5929SOL    HW118686   0.327   6.981   6.867
 5929SOL    HW218687   0.329   6.911   6.720
 5930SOL     OW18688   6.902   3.601   3.619
 5930SOL    HW118689   6.906   3.546   3.702
 5930SOL    HW218690   6.845   3.681   3.634
 5931SOL     OW18691   0.033   5.467   2.769
 5931SOL    HW118692   7.004   5.431   2.694
 5931SOL    HW218693   0.110   5.405   2.786
 5932SOL     OW18694   2.997   0.434   0.646
 5932SOL    HW118695   3.090   0.404   0.624
 5932SOL    HW218696   2.946   0.359   0.688
 5933SOL     OW18697   6.652   6.148   2.832
 5933SOL    HW118698   6.638   6.076   2.900
 5933SOL    HW218699   6.631   6.237   2.873
 5934SOL     OW18700   3.869   3.068   4.615
 5934SOL    HW118701   3.858   3.166   4.631
 5934SOL    HW218702   3.880   3.021   4.703
 5935SOL     OW18703   5.227   5.142   6.588
 5935SOL    HW118704   5.250   5.125   6.492
 5935SOL    HW218705   5.189   5.059   6.629
 5936SOL     OW18706   3.849   2.809   1.255
 5936SOL    HW118707   3.825   2.905   1.240
 5936SOL    HW218708   3.879   2.796   1.349
 5937SOL     OW18709   0.171   4.234   2.188
 5937SOL    HW118710   0.146   4.274   2.276
 5937SOL    HW218711   0.267   4.209   2.188
 5938SOL     OW18712   6.994   5.961   2.681
 5938SOL    HW118713   7.001   5.874   2.633
 5938SOL    HW218714   0.058   6.002   2.690
 5939SOL     OW18715   2.919   0.081   2.897
 5939SOL    HW118716   2.985   0.023   2.850
 5939SOL    HW218717   2.842   0.101   2.836
 5940SOL     OW18718   5.290   5.452   1.552
 5940SOL    HW118719   5.305   5.481   1.458
 5940SOL    HW218720   5.192   5.441   1.569
 5941SOL     OW18721   5.927   2.865   2.147
 5941SOL    HW118722   5.948   2.907   2.235
 5941SOL    HW218723   5.954   2.927   2.073
 5942SOL     OW18724   5.063   3.491   6.945
 5942SOL    HW118725   4.995   3.544   6.995
 5942SOL    HW218726   5.120   3.552   6.890
 5943SOL     OW18727   3.239   4.884   6.852
 5943SOL    HW118728   3.175   4.961   6.857
 5943SOL    HW218729   3.202   4.814   6.791
 5944SOL     OW18730   6.338   3.015   1.304
 5944SOL    HW118731   6.313   3.107   1.336
 5944SOL    HW218732   6.255   2.963   1.285
 5945SOL     OW18733   6.408   5.451   4.478
 5945SOL    HW118734   6.364   5.376   4.527
 5945SOL    HW218735   6.341   5.500   4.423
 5946SOL     OW18736   3.865   3.547   6.174
 5946SOL    HW118737   3.790   3.505   6.225
 5946SOL    HW218738   3.891   3.633   6.218
 5947SOL     OW18739   3.472   3.743   2.230
 5947SOL    HW118740   3.414   3.669   2.264
 5947SOL    HW218741   3.472   3.741   2.130
 5948SOL     OW18742   4.373   5.396   3.643
 5948SOL    HW118743   4.306   5.464   3.612
 5948SOL    HW218744   4.337   5.305   3.626
 5949SOL     OW18745   5.168   3.726   1.975
 5949SOL    HW118746   5.073   3.694   1.978
 5949SOL    HW218747   5.192   3.769   2.062
 5950SOL     OW18748   4.893   1.402   5.929
 5950SOL    HW118749   4.877   1.405   5.830
 5950SOL    HW218750   4.813   1.439   5.977
 5951SOL     OW18751   1.466   6.108   3.993
 5951SOL    HW118752   1.369   6.092   3.973
 5951SOL    HW218753   1.523   6.050   3.935
 5952SOL     OW18754   5.539   5.091   3.465
 5952SOL    HW118755   5.583   5.151   3.398
 5952SOL    HW218756   5.449   5.127   3.487
 5953SOL     OW18757   6.189   2.723   5.383
 5953SOL    HW118758   6.276   2.748   5.425
 5953SOL    HW218759   6.167   2.628   5.405
 5954SOL     OW18760   6.946   4.201   5.896
 5954SOL    HW118761   7.020   4.238   5.840
 5954SOL    HW218762   6.867   4.182   5.838
 5955SOL     OW18763   4.575   5.868   2.645
 5955SOL    HW118764   4.495   5.811   2.661
 5955SOL    HW218765   4.653   5.830   2.695
 5956SOL     OW18766   4.449   1.418   4.868
 5956SOL    HW118767   4.455   1.401   4.769
 5956SOL    HW218768   4.510   1.356   4.916
 5957SOL     OW18769   4.651   0.609   5.441
 5957SOL    HW118770   4.553   0.610   5.417
 5957SOL    HW218771   4.701   0.559   5.370
 5958SOL     OW18772   5.816   6.816   2.506
 5958SOL    HW118773   5.915   6.808   2.517
 5958SOL    HW218774   5.770   6.783   2.588
 5959SOL     OW18775   4.224   2.760   5.329
 5959SOL    HW118776   4.128   2.787   5.325
 5959SOL    HW218777   4.237   2.674   5.281
 5960SOL     OW18778   3.896   5.364   4.893
 5960SOL    HW118779   3.869   5.304   4.818
 5960SOL    HW218780   3.958   5.314   4.955
 5961SOL     OW18781   5.137   1.522   2.756
 5961SOL    HW118782   5.163   1.609   2.796
 5961SOL    HW218783   5.193   1.449   2.794
 5962SOL     OW18784   5.942   6.306   0.401
 5962SOL    HW118785   6.024   6.251   0.415
 5962SOL    HW218786   5.878   6.289   0.475
 5963SOL     OW18787   3.955   3.744   5.395
 5963SOL    HW118788   3.914   3.826   5.435
 5963SOL    HW218789   4.029   3.771   5.333
 5964SOL     OW18790   0.715   5.567   5.566
 5964SOL    HW118791   0.662   5.651   5.557
 5964SOL    HW218792   0.812   5.587   5.558
 5965SOL     OW18793   1.837   2.228   6.439
 5965SOL    HW118794   1.793   2.153   6.489
 5965SOL    HW218795   1.769   2.297   6.417
 5966SOL     OW18796   2.604   5.939   5.404
 5966SOL    HW118797   2.631   5.843   5.419
 5966SOL    HW218798   2.684   5.992   5.376
 5967SOL     OW18799   4.197   6.654   6.633
 5967SOL    HW118800   4.276   6.674   6.690
 5967SOL    HW218801   4.210   6.696   6.543
 5968SOL     OW18802   5.320   2.102   1.059
 5968SOL    HW118803   5.321   2.016   1.110
 5968SOL    HW218804   5.247   2.099   0.991
 5969SOL     OW18805   6.909   6.698   6.513
 5969SOL    HW118806   6.951   6.744   6.435
 5969SOL    HW218807   6.817   6.668   6.490
 5970SOL     OW18808   0.361   4.143   2.534
 5970SOL    HW118809   0.273   4.096   2.525
 5970SOL    HW218810   0.414   4.101   2.609
 5971SOL     OW18811   0.408   1.298   2.624
 5971SOL    HW118812   0.453   1.213   2.651
 5971SOL    HW218813   0.336   1.278   2.558
 5972SOL     OW18814   5.838   5.350   5.934
 5972SOL    HW118815   5.930   5.389   5.937
 5972SOL    HW218816   5.770   5.421   5.951
 5973SOL     OW18817   1.603   3.704   2.921
 5973SOL    HW118818   1.543   3.630   2.889
 5973SOL    HW218819   1.687   3.703   2.866
 5974SOL     OW18820   5.452   5.231   6.135
 5974SOL    HW118821   5.376   5.174   6.167
 5974SOL    HW218822   5.526   5.230   6.202
 5975SOL     OW18823   4.682   0.191   0.511
 5975SOL    HW118824   4.719   0.136   0.586
 5975SOL    HW218825   4.635   0.130   0.446
 5976SOL     OW18826   3.783   2.498   5.695
 5976SOL    HW118827   3.867   2.516   5.643
 5976SOL    HW218828   3.737   2.417   5.658
 5977SOL     OW18829   1.675   5.485   6.543
 5977SOL    HW118830   1.675   5.583   6.563
 5977SOL    HW218831   1.619   5.467   6.462
 5978SOL     OW18832   4.332   5.618   2.089
 5978SOL    HW118833   4.295   5.526   2.075
 5978SOL    HW218834   4.390   5.618   2.170
 5979SOL     OW18835   5.567   1.082   2.964
 5979SOL    HW118836   5.667   1.082   2.967
 5979SOL    HW218837   5.535   1.173   2.937
 5980SOL     OW18838   4.098   4.033   0.996
 5980SOL    HW118839   4.045   3.996   0.920
 5980SOL    HW218840   4.189   4.060   0.963
 5981SOL     OW18841   5.291   2.360   1.585
 5981SOL    HW118842   5.217   2.378   1.651
 5981SOL    HW218843   5.349   2.441   1.578
 5982SOL     OW18844   6.416   3.346   2.484
 5982SOL    HW118845   6.414   3.397   2.570
 5982SOL    HW218846   6.509   3.316   2.465
 5983SOL     OW18847   1.333   1.541   3.969
 5983SOL    HW118848   1.331   1.449   4.006
 5983SOL    HW218849   1.323   1.537   3.869
 5984SOL     OW18850   6.715   5.824   3.435
 5984SOL    HW118851   6.702   5.756   3.363
 5984SOL    HW218852   6.696   5.784   3.524
 5985SOL     OW18853   0.008   2.619   4.356
 5985SOL    HW118854   6.937   2.634   4.347
 5985SOL    HW218855   0.031   2.527   4.324
 5986SOL     OW18856   2.885   3.769   3.959
 5986SOL    HW118857   2.799   3.770   4.010
 5986SOL    HW218858   2.913   3.675   3.942
 5987SOL     OW18859   5.357   0.057   3.869
 5987SOL    HW118860   5.357   0.010   3.781
 5987SOL    HW218861   5.330   7.021   3.941
 5988SOL     OW18862   4.811   6.841   5.464
 5988SOL    HW118863   4.794   6.755   5.513
 5988SOL    HW218864   4.897   6.881   5.496
 5989SOL     OW18865   2.018   6.296   6.531
 5989SOL    HW118866   1.980   6.381   6.568
 5989SOL    HW218867   2.086   6.260   6.595
 5990SOL     OW18868   3.480   3.908   0.124
 5990SOL    HW118869   3.516   3.836   0.184
 5990SOL    HW218870   3.542   3.921   0.047
 5991SOL     OW18871   3.173   5.449   0.268
 5991SOL    HW118872   3.135   5.489   0.185
 5991SOL    HW218873   3.236   5.375   0.243
 5992SOL     OW18874   3.437   0.447   2.344
 5992SOL    HW118875   3.490   0.522   2.382
 5992SOL    HW218876   3.445   0.446   2.245
 5993SOL     OW18877   3.254   5.553   6.414
 5993SOL    HW118878   3.299   5.642   6.409
 5993SOL    HW218879   3.159   5.566   6.444
 5994SOL     OW18880   5.575   2.833   2.639
 5994SOL    HW118881   5.485   2.839   2.684
 5994SOL    HW218882   5.565   2.857   2.543
 5995SOL     OW18883   4.950   3.663   2.397
 5995SOL    HW118884   4.982   3.752   2.363
 5995SOL    HW218885   4.920   3.607   2.320
 5996SOL     OW18886   1.197   6.450   0.920
 5996SOL    HW118887   1.164   6.356   0.913
 5996SOL    HW218888   1.237   6.478   0.832
 5997SOL     OW18889   0.246   6.028   2.500
 5997SOL    HW118890   0.224   6.113   2.547
 5997SOL    HW218891   0.213   6.032   2.406
 5998SOL     OW18892   5.959   1.069   3.486
 5998SOL    HW118893   5.958   0.994   3.420
 5998SOL    HW218894   5.867   1.085   3.520
 5999SOL     OW18895   1.154   1.261   2.603
 5999SOL    HW118896   1.167   1.325   2.678
 5999SOL    HW218897   1.113   1.176   2.639
 6000SOL     OW18898   4.151   7.012   0.844
 6000SOL    HW118899   4.088   6.976   0.912
 6000SOL    HW218900   4.164   6.944   0.772
 6001SOL     OW18901   0.739   4.107   0.230
 6001SOL    HW118902   0.699   4.062   0.150
 6001SOL    HW218903   0.685   4.086   0.311
 6002SOL     OW18904   5.727   0.392   0.515
 6002SOL    HW118905   5.755   0.368   0.422
 6002SOL    HW218906   5.651   0.457   0.510
 6003SOL     OW18907   5.747   2.774   5.092
 6003SOL    HW118908   5.814   2.699   5.091
 6003SOL    HW218909   5.756   2.827   5.008
 6004SOL     OW18910   6.875   3.852   2.668
 6004SOL    HW118911   6.826   3.816   2.588
 6004SOL    HW218912   6.823   3.927   2.708
 6005SOL     OW18913   4.778   5.590   4.488
 6005SOL    HW118914   4.814   5.656   4.422
 6005SOL    HW218915   4.681   5.576   4.472
 6006SOL     OW18916   2.762   1.155   5.698
 6006SOL    HW118917   2.706   1.124   5.774
 6006SOL    HW218918   2.712   1.224   5.645
 6007SOL     OW18919   4.510   3.675   5.760
 6007SOL    HW118920   4.432   3.614   5.772
 6007SOL    HW218921   4.570   3.669   5.839
 6008SOL     OW18922   2.559   4.374   5.541
 6008SOL    HW118923   2.602   4.360   5.452
 6008SOL    HW218924   2.474   4.424   5.530
 6009SOL     OW18925   2.508   0.478   3.003
 6009SOL    HW118926   2.515   0.537   2.923
 6009SOL    HW218927   2.532   0.530   3.085
 6010SOL     OW18928   1.144   4.798   4.310
 6010SOL    HW118929   1.230   4.850   4.311
 6010SOL    HW218930   1.156   4.714   4.363
 6011SOL     OW18931   4.656   2.631   2.815
 6011SOL    HW118932   4.626   2.571   2.888
 6011SOL    HW218933   4.639   2.726   2.840
 6012SOL     OW18934   5.400   0.925   0.143
 6012SOL    HW118935   5.332   0.892   0.077
 6012SOL    HW218936   5.449   0.848   0.183
 6013SOL     OW18937   4.959   1.813   2.422
 6013SOL    HW118938   4.868   1.846   2.398
 6013SOL    HW218939   4.950   1.727   2.473
 6014SOL     OW18940   3.790   3.280   1.817
 6014SOL    HW118941   3.865   3.324   1.766
 6014SOL    HW218942   3.707   3.283   1.762
 6015SOL     OW18943   5.971   4.052   3.902
 6015SOL    HW118944   5.988   3.984   3.830
 6015SOL    HW218945   6.041   4.043   3.973
 6016SOL     OW18946   6.494   2.029   5.907
 6016SOL    HW118947   6.459   2.107   5.856
 6016SOL    HW218948   6.461   1.944   5.865
 6017SOL     OW18949   6.686   4.002   3.250
 6017SOL    HW118950   6.716   4.059   3.327
 6017SOL    HW218951   6.588   4.015   3.235
 6018SOL     OW18952   3.875   0.397   6.583
 6018SOL    HW118953   3.862   0.406   6.682
 6018SOL    HW218954   3.786   0.392   6.538
 6019SOL     OW18955   6.816   1.421   4.227
 6019SOL    HW118956   6.882   1.444   4.299
 6019SOL    HW218957   6.725   1.412   4.267
 6020SOL     OW18958   0.982   4.773   0.791
 6020SOL    HW118959   1.013   4.820   0.709
 6020SOL    HW218960   0.954   4.840   0.860
 6021SOL     OW18961   4.895   0.209   2.895
 6021SOL    HW118962   4.845   0.123   2.884
 6021SOL    HW218963   4.940   0.212   2.984
 6022SOL     OW18964   5.052   2.555   4.259
 6022SOL    HW118965   4.990   2.536   4.183
 6022SOL    HW218966   5.008   2.619   4.322
 6023SOL     OW18967   5.953   0.551   2.113
 6023SOL    HW118968   6.029   0.578   2.053
 6023SOL    HW218969   5.951   0.612   2.193
 6024SOL     OW18970   1.117   4.543   3.138
 6024SOL    HW118971   1.122   4.614   3.068
 6024SOL    HW218972   1.171   4.570   3.218
 6025SOL     OW18973   3.984   1.742   2.846
 6025SOL    HW118974   3.893   1.746   2.804
 6025SOL    HW218975   3.976   1.721   2.943
 6026SOL     OW18976   0.573   4.265   5.480
 6026SOL    HW118977   0.483   4.306   5.472
 6026SOL    HW218978   0.636   4.310   5.416
 6027SOL     OW18979   1.035   3.557   6.143
 6027SOL    HW118980   0.984   3.642   6.125
 6027SOL    HW218981   1.124   3.562   6.098
 6028SOL     OW18982   6.574   5.100   0.178
 6028SOL    HW118983   6.600   5.148   0.094
 6028SOL    HW218984   6.590   5.160   0.256
 6029SOL     OW18985   2.268   6.266   4.866
 6029SOL    HW118986   2.173   6.281   4.894
 6029SOL    HW218987   2.280   6.294   4.771
 6030SOL     OW18988   3.906   5.689   2.653
 6030SOL    HW118989   3.895   5.643   2.564
 6030SOL    HW218990   3.994   5.736   2.655
 6031SOL     OW18991   2.816   5.268   3.790
 6031SOL    HW118992   2.761   5.217   3.857
 6031SOL    HW218993   2.913   5.254   3.809
 6032SOL     OW18994   2.190   4.579   2.838
 6032SOL    HW118995   2.146   4.498   2.878
 6032SOL    HW218996   2.134   4.614   2.764
 6033SOL     OW18997   3.073   2.205   3.404
 6033SOL    HW118998   3.001   2.223   3.337
 6033SOL    HW218999   3.037   2.221   3.496
 6034SOL     OW19000   1.228   5.669   4.690
 6034SOL    HW119001   1.268   5.759   4.675
 6034SOL    HW219002   1.298   5.606   4.724
 6035SOL     OW19003   0.139   1.246   2.514
 6035SOL    HW119004   0.200   1.270   2.438
 6035SOL    HW219005   0.084   1.326   2.539
 6036SOL     OW19006   4.989   5.719   3.539
 6036SOL    HW119007   4.974   5.664   3.456
 6036SOL    HW219008   5.059   5.675   3.595
 6037SOL     OW19009   4.300   5.451   0.141
 6037SOL    HW119010   4.226   5.406   0.091
 6037SOL    HW219011   4.273   5.546   0.161
 6038SOL     OW19012   1.617   2.105   5.648
 6038SOL    HW119013   1.570   2.130   5.563
 6038SOL    HW219014   1.582   2.018   5.681
 6039SOL     OW19015   3.012   3.565   2.255
 6039SOL    HW119016   2.977   3.658   2.252
 6039SOL    HW219017   2.957   3.510   2.317
 6040SOL     OW19018   0.820   1.714   0.003
 6040SOL    HW119019   0.721   1.716   0.016
 6040SOL    HW219020   0.845   1.632   6.978
 6041SOL     OW19021   2.983   0.594   5.246
 6041SOL    HW119022   2.936   0.506   5.258
 6041SOL    HW219023   3.082   0.579   5.254
 6042SOL     OW19024   4.778   6.130   2.447
 6042SOL    HW119025   4.793   6.043   2.400
 6042SOL    HW219026   4.680   6.144   2.460
 6043SOL     OW19027   0.997   4.147   5.071
 6043SOL    HW119028   1.022   4.222   5.132
 6043SOL    HW219029   0.911   4.106   5.102
 6044SOL     OW19030   1.039   2.161   1.280
 6044SOL    HW119031   1.009   2.096   1.349
 6044SOL    HW219032   1.091   2.235   1.323
 6045SOL     OW19033   5.808   4.547   2.417
 6045SOL    HW119034   5.748   4.496   2.479
 6045SOL    HW219035   5.757   4.625   2.379
 6046SOL     OW19036   3.768   2.103   0.409
 6046SOL    HW119037   3.695   2.047   0.449
 6046SOL    HW219038   3.781   2.078   0.314
 6047SOL     OW19039   4.713   2.010   2.040
 6047SOL    HW119040   4.803   2.018   2.083
 6047SOL    HW219041   4.700   1.917   2.007
 6048SOL     OW19042   4.598   5.365   4.983
 6048SOL    HW119043   4.530   5.426   5.025
 6048SOL    HW219044   4.682   5.365   5.037
 6049SOL     OW19045   5.185   2.869   6.633
 6049SOL    HW119046   5.239   2.855   6.715
 6049SOL    HW219047   5.135   2.785   6.611
 6050SOL     OW19048   3.670   5.734   5.196
 6050SOL    HW119049   3.677   5.699   5.289
 6050SOL    HW219050   3.660   5.658   5.132
 6051SOL     OW19051   2.704   0.309   4.192
 6051SOL    HW119052   2.658   0.376   4.133
 6051SOL    HW219053   2.744   0.356   4.270
 6052SOL     OW19054   6.786   0.525   0.518
 6052SOL    HW119055   6.824   0.601   0.465
 6052SOL    HW219056   6.787   0.549   0.615
 6053SOL     OW19057   3.928   1.502   6.487
 6053SOL    HW119058   3.876   1.420   6.463
 6053SOL    HW219059   4.017   1.476   6.524
 6054SOL     OW19060   2.060   3.354   0.175
 6054SOL    HW119061   2.010   3.269   0.161
 6054SOL    HW219062   2.099   3.355   0.267
 6055SOL     OW19063   4.710   0.494   5.186
 6055SOL    HW119064   4.620   0.465   5.154
 6055SOL    HW219065   4.778   0.426   5.159
 6056SOL     OW19066   5.097   3.065   4.739
 6056SOL    HW119067   5.032   3.119   4.686
 6056SOL    HW219068   5.164   3.024   4.678
 6057SOL     OW19069   5.816   3.305   3.860
 6057SOL    HW119070   5.779   3.237   3.922
 6057SOL    HW219071   5.819   3.394   3.906
 6058SOL     OW19072   5.110   2.675   1.923
 6058SOL    HW119073   5.078   2.613   1.995
 6058SOL    HW219074   5.087   2.769   1.948
 6059SOL     OW19075   5.309   4.570   4.728
 6059SOL    HW119076   5.284   4.561   4.632
 6059SOL    HW219077   5.236   4.533   4.785
 6060SOL     OW19078   3.202   4.382   6.928
 6060SOL    HW119079   3.230   4.331   6.846
 6060SOL    HW219080   3.274   4.375   6.997
 6061SOL     OW19081   4.040   2.305   1.139
 6061SOL    HW119082   4.067   2.209   1.140
 6061SOL    HW219083   4.085   2.350   1.061
 6062SOL     OW19084   2.708   1.214   5.263
 6062SOL    HW119085   2.677   1.309   5.260
 6062SOL    HW219086   2.791   1.208   5.319
 6063SOL     OW19087   3.818   1.827   5.794
 6063SOL    HW119088   3.800   1.882   5.876
 6063SOL    HW219089   3.762   1.744   5.797
 6064SOL     OW19090   2.207   6.058   0.775
 6064SOL    HW119091   2.111   6.051   0.748
 6064SOL    HW219092   2.265   6.062   0.694
 6065SOL     OW19093   6.664   0.059   1.925
 6065SOL    HW119094   6.572   0.061   1.963
 6065SOL    HW219095   6.729   0.033   1.996
 6066SOL     OW19096   4.699   1.094   6.114
 6066SOL    HW119097   4.627   1.161   6.100
 6066SOL    HW219098   4.722   1.051   6.027
 6067SOL     OW19099   5.621   0.822   5.505
 6067SOL    HW119100   5.690   0.794   5.571
 6067SOL    HW219101   5.666   0.861   5.424
 6068SOL     OW19102   5.301   3.610   4.345
 6068SOL    HW119103   5.366   3.686   4.346
 6068SOL    HW219104   5.265   3.596   4.437
 6069SOL     OW19105   6.715   2.591   5.352
 6069SOL    HW119106   6.668   2.595   5.264
 6069SOL    HW219107   6.813   2.607   5.338
 6070SOL     OW19108   3.093   2.731   0.196
 6070SOL    HW119109   3.001   2.701   0.168
 6070SOL    HW219110   3.121   2.808   0.140
 6071SOL     OW19111   5.202   5.465   4.100
 6071SOL    HW119112   5.132   5.527   4.064
 6071SOL    HW219113   5.277   5.458   4.035
 6072SOL     OW19114   0.246   0.559   1.779
 6072SOL    HW119115   0.235   0.459   1.781
 6072SOL    HW219116   0.192   0.600   1.852
 6073SOL     OW19117   5.827   3.709   6.923
 6073SOL    HW119118   5.759   3.735   6.854
 6073SOL    HW219119   5.780   3.682   7.007
 6074SOL     OW19120   1.598   6.670   3.937
 6074SOL    HW119121   1.666   6.721   3.991
 6074SOL    HW219122   1.632   6.658   3.844
 6075SOL     OW19123   6.616   1.389   6.258
 6075SOL    HW119124   6.613   1.447   6.339
 6075SOL    HW219125   6.637   1.445   6.178
 6076SOL     OW19126   2.665   5.216   4.328
 6076SOL    HW119127   2.585   5.216   4.388
 6076SOL    HW219128   2.637   5.241   4.235
 6077SOL     OW19129   6.153   5.979   1.045
 6077SOL    HW119130   6.086   6.037   1.091
 6077SOL    HW219131   6.239   6.030   1.032
 6078SOL     OW19132   4.134   4.832   0.357
 6078SOL    HW119133   4.126   4.770   0.278
 6078SOL    HW219134   4.134   4.927   0.325
 6079SOL     OW19135   3.910   3.685   5.962
 6079SOL    HW119136   4.000   3.720   5.939
 6079SOL    HW219137   3.916   3.630   6.046
 6080SOL     OW19138   6.970   0.741   1.125
 6080SOL    HW119139   6.951   0.792   1.041
 6080SOL    HW219140   0.032   0.696   1.117
 6081SOL     OW19141   6.589   3.544   6.082
 6081SOL    HW119142   6.512   3.606   6.094
 6081SOL    HW219143   6.672   3.597   6.063
 6082SOL     OW19144   2.357   1.783   4.072
 6082SOL    HW119145   2.405   1.718   4.013
 6082SOL    HW219146   2.367   1.876   4.035
 6083SOL     OW19147   6.839   5.081   6.970
 6083SOL    HW119148   6.931   5.115   6.989
 6083SOL    HW219149   6.798   5.134   6.896
 6084SOL     OW19150   0.999   0.118   3.919
 6084SOL    HW119151   1.088   0.160   3.904
 6084SOL    HW219152   1.008   0.018   3.915
 6085SOL     OW19153   0.742   4.689   0.531
 6085SOL    HW119154   0.812   4.729   0.590
 6085SOL    HW219155   0.786   4.635   0.460
 6086SOL     OW19156   4.141   0.268   6.250
 6086SOL    HW119157   4.082   0.339   6.212
 6086SOL    HW219158   4.196   0.227   6.178
 6087SOL     OW19159   3.710   5.231   0.736
 6087SOL    HW119160   3.782   5.290   0.773
 6087SOL    HW219161   3.750   5.145   0.704
 6088SOL     OW19162   5.924   5.930   3.934
 6088SOL    HW119163   5.906   5.845   3.884
 6088SOL    HW219164   5.885   5.923   4.026
 6089SOL     OW19165   5.413   3.395   0.543
 6089SOL    HW119166   5.429   3.365   0.449
 6089SOL    HW219167   5.397   3.316   0.602
 6090SOL     OW19168   2.209   5.810   5.800
 6090SOL    HW119169   2.248   5.901   5.812
 6090SOL    HW219170   2.276   5.751   5.754
 6091SOL     OW19171   1.779   1.427   0.740
 6091SOL    HW119172   1.792   1.508   0.684
 6091SOL    HW219173   1.688   1.428   0.781
 6092SOL     OW19174   3.880   6.903   2.891
 6092SOL    HW119175   3.800   6.879   2.945
 6092SOL    HW219176   3.872   6.998   2.860
 6093SOL     OW19177   1.714   3.809   2.340
 6093SOL    HW119178   1.650   3.743   2.301
 6093SOL    HW219179   1.808   3.775   2.329
 6094SOL     OW19180   2.981   6.805   1.329
 6094SOL    HW119181   2.954   6.902   1.336
 6094SOL    HW219182   2.912   6.748   1.374
 6095SOL     OW19183   4.797   3.928   0.557
 6095SOL    HW119184   4.763   3.849   0.508
 6095SOL    HW219185   4.867   3.899   0.623
 6096SOL     OW19186   6.895   6.941   3.129
 6096SOL    HW119187   6.807   6.987   3.116
 6096SOL    HW219188   6.898   6.901   3.220
 6097SOL     OW19189   2.526   0.026   2.446
 6097SOL    HW119190   2.438   0.072   2.438
 6097SOL    HW219191   2.590   0.063   2.378
 6098SOL     OW19192   1.653   2.562   5.593
 6098SOL    HW119193   1.687   2.656   5.602
 6098SOL    HW219194   1.730   2.500   5.583
 6099SOL     OW19195   6.528   6.669   6.993
 6099SOL    HW119196   6.549   6.726   6.913
 6099SOL    HW219197   6.429   6.658   7.000
 6100SOL     OW19198   4.836   4.776   0.181
 6100SOL    HW119199   4.809   4.721   0.102
 6100SOL    HW219200   4.771   4.761   0.255
 6101SOL     OW19201   6.270   2.699   4.610
 6101SOL    HW119202   6.212   2.706   4.691
 6101SOL    HW219203   6.305   2.606   4.602
 6102SOL     OW19204   3.701   6.716   3.463
 6102SOL    HW119205   3.733   6.809   3.446
 6102SOL    HW219206   3.617   6.720   3.519
 6103SOL     OW19207   6.683   2.591   2.458
 6103SOL    HW119208   6.664   2.513   2.517
 6103SOL    HW219209   6.618   2.594   2.383
 6104SOL     OW19210   6.152   0.481   5.367
 6104SOL    HW119211   6.192   0.501   5.277
 6104SOL    HW219212   6.199   0.535   5.437
 6105SOL     OW19213   3.072   6.808   6.031
 6105SOL    HW119214   3.102   6.716   6.056
 6105SOL    HW219215   2.975   6.819   6.056
 6106SOL     OW19216   2.879   4.329   6.030
 6106SOL    HW119217   2.877   4.390   5.950
 6106SOL    HW219218   2.971   4.327   6.068
 6107SOL     OW19219   2.729   5.195   4.815
 6107SOL    HW119220   2.711   5.293   4.811
 6107SOL    HW219221   2.687   5.157   4.897
 6108SOL     OW19222   1.237   2.612   1.873
 6108SOL    HW119223   1.218   2.592   1.969
 6108SOL    HW219224   1.335   2.613   1.858
 6109SOL     OW19225   5.488   3.001   5.296
 6109SOL    HW119226   5.408   3.033   5.347
 6109SOL    HW219227   5.461   2.980   5.201
 6110SOL     OW19228   4.361   4.010   0.267
 6110SOL    HW119229   4.356   3.936   0.334
 6110SOL    HW219230   4.274   4.059   0.266
 6111SOL     OW19231   2.329   4.261   2.307
 6111SOL    HW119232   2.310   4.225   2.216
 6111SOL    HW219233   2.302   4.194   2.376
 6112SOL     OW19234   3.632   0.178   2.411
 6112SOL    HW119235   3.657   0.081   2.413
 6112SOL    HW219236   3.544   0.188   2.364
 6113SOL     OW19237   2.393   1.195   6.389
 6113SOL    HW119238   2.431   1.207   6.481
 6113SOL    HW219239   2.417   1.273   6.332
 6114SOL     OW19240   5.269   5.861   1.397
 6114SOL    HW119241   5.311   5.927   1.335
 6114SOL    HW219242   5.174   5.887   1.414
 6115SOL     OW19243   5.508   6.805   4.140
 6115SOL    HW119244   5.422   6.839   4.103
 6115SOL    HW219245   5.552   6.746   4.072
 6116SOL     OW19246   3.558   0.787   6.881
 6116SOL    HW119247   3.546   0.885   6.895
 6116SOL    HW219248   3.469   0.741   6.878
 6117SOL     OW19249   1.295   1.198   4.994
 6117SOL    HW119250   1.300   1.162   5.087
 6117SOL    HW219251   1.327   1.129   4.929
 6118SOL     OW19252   6.376   1.212   2.438
 6118SOL    HW119253   6.306   1.196   2.369
 6118SOL    HW219254   6.334   1.210   2.529
 6119SOL     OW19255   1.559   3.553   6.092
 6119SOL    HW119256   1.613   3.469   6.096
 6119SOL    HW219257   1.616   3.631   6.117
 6120SOL     OW19258   3.831   6.775   4.807
 6120SOL    HW119259   3.767   6.824   4.866
 6120SOL    HW219260   3.786   6.751   4.721
 6121SOL     OW19261   1.205   3.385   5.780
 6121SOL    HW119262   1.216   3.445   5.859
 6121SOL    HW219263   1.108   3.363   5.768
 6122SOL     OW19264   4.257   6.221   0.545
 6122SOL    HW119265   4.267   6.239   0.643
 6122SOL    HW219266   4.348   6.215   0.503
 6123SOL     OW19267   6.498   0.034   6.553
 6123SOL    HW119268   6.552   6.991   6.506
 6123SOL    HW219269   6.481   0.111   6.491
 6124SOL     OW19270   2.177   0.271   6.191
 6124SOL    HW119271   2.218   0.342   6.247
 6124SOL    HW219272   2.221   0.183   6.210
 6125SOL     OW19273   1.296   5.675   0.385
 6125SOL    HW119274   1.256   5.697   0.296
 6125SOL    HW219275   1.354   5.594   0.377
 6126SOL     OW19276   0.926   0.095   4.205
 6126SOL    HW119277   0.958   0.153   4.280
 6126SOL    HW219278   0.960   0.131   4.118
 6127SOL     OW19279   4.105   6.771   1.249
 6127SOL    HW119280   4.180   6.784   1.184
 6127SOL    HW219281   4.041   6.704   1.213
 6128SOL     OW19282   6.211   3.339   7.003
 6128SOL    HW119283   6.187   3.298   6.915
 6128SOL    HW219284   6.307   3.368   7.001
 6129SOL     OW19285   6.721   3.259   3.460
 6129SOL    HW119286   6.817   3.274   3.483
 6129SOL    HW219287   6.707   3.162   3.438
 6130SOL     OW19288   6.059   2.248   3.842
 6130SOL    HW119289   6.045   2.257   3.940
 6130SOL    HW219290   6.107   2.163   3.822
 6131SOL     OW19291   6.989   1.112   5.135
 6131SOL    HW119292   6.945   1.071   5.054
 6131SOL    HW219293   6.919   1.131   5.204
 6132SOL     OW19294   4.873   1.976   0.545
 6132SOL    HW119295   4.875   1.907   0.472
 6132SOL    HW219296   4.949   2.040   0.533
 6133SOL     OW19297   1.070   2.983   2.075
 6133SOL    HW119298   1.026   2.945   1.994
 6133SOL    HW219299   1.168   2.961   2.073
 6134SOL     OW19300   3.777   4.291   6.655
 6134SOL    HW119301   3.701   4.325   6.599
 6134SOL    HW219302   3.794   4.195   6.633
 6135SOL     OW19303   0.629   0.453   2.209
 6135SOL    HW119304   0.600   0.471   2.303
 6135SOL    HW219305   0.571   0.505   2.146
 6136SOL     OW19306   0.992   2.483   2.333
 6136SOL    HW119307   1.023   2.569   2.375
 6136SOL    HW219308   1.066   2.444   2.278
 6137SOL     OW19309   6.381   2.273   3.970
 6137SOL    HW119310   6.391   2.330   3.888
 6137SOL    HW219311   6.336   2.326   4.042
 6138SOL     OW19312   4.082   6.928   3.137
 6138SOL    HW119313   4.027   6.962   3.060
 6138SOL    HW219314   4.179   6.932   3.113
 6139SOL     OW19315   1.322   0.391   6.547
 6139SOL    HW119316   1.402   0.421   6.496
 6139SOL    HW219317   1.329   0.422   6.642
 6140SOL     OW19318   0.583   6.626   1.587
 6140SOL    HW119319   0.579   6.725   1.593
 6140SOL    HW219320   0.677   6.598   1.567
 6141SOL     OW19321   0.054   6.250   5.852
 6141SOL    HW119322   0.036   6.282   5.945
 6141SOL    HW219323   0.021   6.318   5.787
 6142SOL     OW19324   1.286   5.848   0.616
 6142SOL    HW119325   1.271   5.782   0.543
 6142SOL    HW219326   1.198   5.874   0.656
 6143SOL     OW19327   6.546   3.738   1.205
 6143SOL    HW119328   6.548   3.723   1.106
 6143SOL    HW219329   6.592   3.825   1.226
 6144SOL     OW19330   5.313   4.333   3.168
 6144SOL    HW119331   5.292   4.240   3.196
 6144SOL    HW219332   5.329   4.390   3.249
 6145SOL     OW19333   4.903   5.357   3.263
 6145SOL    HW119334   4.970   5.284   3.249
 6145SOL    HW219335   4.817   5.317   3.295
 6146SOL     OW19336   2.471   6.083   3.447
 6146SOL    HW119337   2.402   6.113   3.513
 6146SOL    HW219338   2.562   6.099   3.485
 6147SOL     OW19339   1.637   3.333   4.549
 6147SOL    HW119340   1.672   3.406   4.491
 6147SOL    HW219341   1.554   3.295   4.509
 6148SOL     OW19342   5.971   6.998   3.790
 6148SOL    HW119343   5.886   6.954   3.819
 6148SOL    HW219344   5.981   0.059   3.836
 6149SOL     OW19345   2.862   5.692   1.166
 6149SOL    HW119346   2.846   5.598   1.196
 6149SOL    HW219347   2.831   5.756   1.236
 6150SOL     OW19348   4.659   4.908   0.492
 6150SOL    HW119349   4.661   4.936   0.396
 6150SOL    HW219350   4.701   4.818   0.502
 6151SOL     OW19351   5.903   4.421   6.281
 6151SOL    HW119352   5.957   4.347   6.320
 6151SOL    HW219353   5.840   4.457   6.349
 6152SOL     OW19354   6.078   5.118   4.640
 6152SOL    HW119355   6.001   5.173   4.673
 6152SOL    HW219356   6.086   5.128   4.541
 6153SOL     OW19357   5.568   4.395   1.177
 6153SOL    HW119358   5.554   4.493   1.169
 6153SOL    HW219359   5.611   4.361   1.093
 6154SOL     OW19360   6.399   2.340   2.746
 6154SOL    HW119361   6.390   2.286   2.830
 6154SOL    HW219362   6.430   2.432   2.769
 6155SOL     OW19363   1.786   1.828   4.355
 6155SOL    HW119364   1.876   1.792   4.329
 6155SOL    HW219365   1.774   1.919   4.314
 6156SOL     OW19366   3.927   4.642   1.655
 6156SOL    HW119367   3.955   4.547   1.641
 6156SOL    HW219368   3.843   4.659   1.604
 6157SOL     OW19369   1.221   0.356   4.339
 6157SOL    HW119370   1.194   0.374   4.245
 6157SOL    HW219371   1.245   0.442   4.384
 6158SOL     OW19372   3.985   1.293   6.236
 6158SOL    HW119373   3.924   1.253   6.304
 6158SOL    HW219374   3.934   1.359   6.180
 6159SOL     OW19375   4.772   2.601   2.322
 6159SOL    HW119376   4.725   2.574   2.406
 6159SOL    HW219377   4.868   2.621   2.342
 6160SOL     OW19378   4.639   1.403   6.679
 6160SOL    HW119379   4.569   1.371   6.743
 6160SOL    HW219380   4.724   1.421   6.728
 6161SOL     OW19381   4.675   1.379   4.584
 6161SOL    HW119382   4.578   1.353   4.580
 6161SOL    HW219383   4.721   1.323   4.654
 6162SOL     OW19384   0.873   6.591   3.805
 6162SOL    HW119385   0.790   6.619   3.852
 6162SOL    HW219386   0.861   6.603   3.706
 6163SOL     OW19387   6.410   6.516   0.799
 6163SOL    HW119388   6.503   6.543   0.773
 6163SOL    HW219389   6.363   6.594   0.840
 6164SOL     OW19390   3.488   2.948   1.895
 6164SOL    HW119391   3.548   2.870   1.907
 6164SOL    HW219392   3.399   2.928   1.936
 6165SOL     OW19393   4.820   1.072   6.793
 6165SOL    HW119394   4.844   1.162   6.829
 6165SOL    HW219395   4.857   1.062   6.701
 6166SOL     OW19396   5.081   1.107   5.818
 6166SOL    HW119397   5.051   1.025   5.769
 6166SOL    HW219398   5.011   1.133   5.885
 6167SOL     OW19399   0.843   5.168   3.541
 6167SOL    HW119400   0.906   5.119   3.601
 6167SOL    HW219401   0.870   5.264   3.535
 6168SOL     OW19402   0.861   3.975   1.584
 6168SOL    HW119403   0.771   3.996   1.547
 6168SOL    HW219404   0.932   4.019   1.529
 6169SOL     OW19405   1.457   2.340   0.848
 6169SOL    HW119406   1.359   2.320   0.849
 6169SOL    HW219407   1.507   2.262   0.810
 6170SOL     OW19408   1.006   4.324   5.801
 6170SOL    HW119409   1.072   4.264   5.756
 6170SOL    HW219410   1.029   4.420   5.781
 6171SOL     OW19411   0.388   3.034   1.108
 6171SOL    HW119412   0.332   2.952   1.102
 6171SOL    HW219413   0.457   3.033   1.036
 6172SOL     OW19414   2.222   3.073   2.374
 6172SOL    HW119415   2.227   2.988   2.426
 6172SOL    HW219416   2.310   3.091   2.330
 6173SOL     OW19417   0.196   5.706   1.835
 6173SOL    HW119418   0.160   5.795   1.863
 6173SOL    HW219419   0.162   5.635   1.896
 6174SOL     OW19420   4.740   5.693   3.950
 6174SOL    HW119421   4.783   5.731   3.868
 6174SOL    HW219422   4.656   5.742   3.970
 6175SOL     OW19423   4.555   0.334   3.614
 6175SOL    HW119424   4.592   0.374   3.698
 6175SOL    HW219425   4.467   0.291   3.634
 6176SOL     OW19426   4.941   4.285   5.415
 6176SOL    HW119427   4.995   4.301   5.497
 6176SOL    HW219428   4.981   4.209   5.363
 6177SOL     OW19429   5.900   1.013   0.794
 6177SOL    HW119430   5.861   1.003   0.886
 6177SOL    HW219431   5.909   1.110   0.773
 6178SOL     OW19432   4.410   4.508   2.360
 6178SOL    HW119433   4.338   4.534   2.423
 6178SOL    HW219434   4.373   4.449   2.288
 6179SOL     OW19435   6.223   4.971   3.818
 6179SOL    HW119436   6.127   4.992   3.833
 6179SOL    HW219437   6.234   4.875   3.792
 6180SOL     OW19438   2.900   4.412   1.212
 6180SOL    HW119439   2.806   4.380   1.225
 6180SOL    HW219440   2.958   4.334   1.186
 6181SOL     OW19441   4.603   6.402   0.055
 6181SOL    HW119442   4.666   6.414   7.005
 6181SOL    HW219443   4.650   6.357   0.130
 6182SOL     OW19444   5.621   3.642   5.632
 6182SOL    HW119445   5.668   3.675   5.713
 6182SOL    HW219446   5.548   3.578   5.659
 6183SOL     OW19447   1.224   2.845   3.771
 6183SOL    HW119448   1.149   2.905   3.741
 6183SOL    HW219449   1.279   2.893   3.840
 6184SOL     OW19450   2.553   6.325   6.542
 6184SOL    HW119451   2.610   6.400   6.509
 6184SOL    HW219452   2.485   6.301   6.473
 6185SOL     OW19453   0.418   3.600   6.290
 6185SOL    HW119454   0.337   3.653   6.318
 6185SOL    HW219455   0.425   3.601   6.190
 6186SOL     OW19456   0.290   0.727   0.376
 6186SOL    HW119457   0.290   0.637   0.418
 6186SOL    HW219458   0.282   0.797   0.447
 6187SOL     OW19459   5.432   4.328   3.986
 6187SOL    HW119460   5.485   4.278   3.917
 6187SOL    HW219461   5.335   4.316   3.969
 6188SOL     OW19462   2.476   1.613   6.500
 6188SOL    HW119463   2.560   1.561   6.511
 6188SOL    HW219464   2.403   1.572   6.555
 6189SOL     OW19465   4.319   4.606   2.795
 6189SOL    HW119466   4.259   4.686   2.797
 6189SOL    HW219467   4.295   4.549   2.716
 6190SOL     OW19468   0.992   3.740   5.596
 6190SOL    HW119469   0.984   3.821   5.539
 6190SOL    HW219470   1.083   3.737   5.637
 6191SOL     OW19471   2.842   2.462   6.859
 6191SOL    HW119472   2.768   2.408   6.899
 6191SOL    HW219473   2.929   2.439   6.904
 6192SOL     OW19474   2.924   2.410   6.054
 6192SOL    HW119475   2.970   2.350   5.988
 6192SOL    HW219476   2.835   2.371   6.077
 6193SOL     OW19477   4.694   6.841   1.807
 6193SOL    HW119478   4.623   6.771   1.803
 6193SOL    HW219479   4.781   6.798   1.832
 6194SOL     OW19480   0.908   0.165   1.272
 6194SOL    HW119481   0.851   0.247   1.265
 6194SOL    HW219482   0.864   0.089   1.226
 6195SOL     OW19483   4.480   5.712   4.730
 6195SOL    HW119484   4.471   5.631   4.672
 6195SOL    HW219485   4.415   5.782   4.701
 6196SOL     OW19486   5.853   3.270   2.038
 6196SOL    HW119487   5.780   3.211   2.006
 6196SOL    HW219488   5.833   3.302   2.131
 6197SOL     OW19489   3.605   5.001   0.963
 6197SOL    HW119490   3.654   5.088   0.959
 6197SOL    HW219491   3.526   5.004   0.902
 6198SOL     OW19492   4.239   6.689   1.550
 6198SOL    HW119493   4.146   6.655   1.538
 6198SOL    HW219494   4.273   6.725   1.463
 6199SOL     OW19495   1.404   1.767   0.549
 6199SOL    HW119496   1.439   1.789   0.458
 6199SOL    HW219497   1.378   1.671   0.552
 6200SOL     OW19498   1.307   1.092   5.758
 6200SOL    HW119499   1.251   1.175   5.762
 6200SOL    HW219500   1.250   1.014   5.734
 6201SOL     OW19501   0.379   4.355   5.895
 6201SOL    HW119502   0.432   4.353   5.980
 6201SOL    HW219503   0.421   4.294   5.828
 6202SOL     OW19504   4.695   1.345   1.357
 6202SOL    HW119505   4.786   1.385   1.370
 6202SOL    HW219506   4.647   1.343   1.445
 6203SOL     OW19507   6.508   5.495   1.832
 6203SOL    HW119508   6.446   5.572   1.841
 6203SOL    HW219509   6.488   5.428   1.904
 6204SOL     OW19510   0.132   5.359   3.997
 6204SOL    HW119511   0.034   5.367   3.983
 6204SOL    HW219512   0.152   5.358   4.095
 6205SOL     OW19513   6.714   5.511   1.047
 6205SOL    HW119514   6.669   5.536   0.961
 6205SOL    HW219515   6.715   5.589   1.109
 6206SOL     OW19516   5.515   2.252   3.257
 6206SOL    HW119517   5.561   2.263   3.345
 6206SOL    HW219518   5.578   2.207   3.193
 6207SOL     OW19519   1.589   5.104   5.473
 6207SOL    HW119520   1.613   5.186   5.419
 6207SOL    HW219521   1.673   5.058   5.501
 6208SOL     OW19522   5.427   3.020   5.707
 6208SOL    HW119523   5.403   2.947   5.643
 6208SOL    HW219524   5.344   3.051   5.754
 6209SOL     OW19525   3.445   6.184   6.895
 6209SOL    HW119526   3.359   6.199   6.943
 6209SOL    HW219527   3.429   6.174   6.797
 6210SOL     OW19528   5.033   3.298   4.168
 6210SOL    HW119529   5.006   3.207   4.201
 6210SOL    HW219530   5.049   3.294   4.070
 6211SOL     OW19531   3.030   6.088   6.045
 6211SOL    HW119532   2.994   6.178   6.073
 6211SOL    HW219533   3.032   6.027   6.124
 6212SOL     OW19534   2.550   4.589   4.917
 6212SOL    HW119535   2.630   4.610   4.973
 6212SOL    HW219536   2.530   4.491   4.922
 6213SOL     OW19537   6.076   0.003   6.974
 6213SOL    HW119538   6.049   0.069   6.905
 6213SOL    HW219539   6.126   6.954   6.931
 6214SOL     OW19540   5.049   5.423   4.605
 6214SOL    HW119541   5.010   5.499   4.657
 6214SOL    HW219542   5.147   5.417   4.622
 6215SOL     OW19543   4.188   2.488   6.364
 6215SOL    HW119544   4.230   2.405   6.401
 6215SOL    HW219545   4.205   2.494   6.266
 6216SOL     OW19546   6.629   2.110   3.017
 6216SOL    HW119547   6.614   2.104   3.116
 6216SOL    HW219548   6.647   2.205   2.992
 6217SOL     OW19549   0.723   3.778   2.287
 6217SOL    HW119550   0.738   3.800   2.191
 6217SOL    HW219551   0.810   3.778   2.336
 6218SOL     OW19552   3.889   6.585   6.357
 6218SOL    HW119553   3.796   6.622   6.353
 6218SOL    HW219554   3.898   6.525   6.436
 6219SOL     OW19555   1.490   1.838   4.803
 6219SOL    HW119556   1.565   1.775   4.779
 6219SOL    HW219557   1.403   1.790   4.796
 6220SOL     OW19558   2.849   1.153   5.042
 6220SOL    HW119559   2.816   1.165   5.136
 6220SOL    HW219560   2.898   1.066   5.035
 6221SOL     OW19561   5.867   6.997   0.113
 6221SOL    HW119562   5.939   7.026   0.050
 6221SOL    HW219563   5.901   6.998   0.207
 6222SOL     OW19564   1.615   7.009   1.889
 6222SOL    HW119565   1.684   6.977   1.954
 6222SOL    HW219566   1.649   0.063   1.841
 6223SOL     OW19567   1.228   5.172   3.758
 6223SOL    HW119568   1.166   5.248   3.740
 6223SOL    HW219569   1.231   5.112   3.678
 6224SOL     OW19570   3.942   0.955   5.955
 6224SOL    HW119571   3.876   0.948   6.030
 6224SOL    HW219572   3.894   0.955   5.868
 6225SOL     OW19573   3.984   3.402   6.474
 6225SOL    HW119574   3.980   3.361   6.383
 6225SOL    HW219575   4.034   3.341   6.536
 6226SOL     OW19576   0.853   1.729   4.626
 6226SOL    HW119577   0.816   1.716   4.719
 6226SOL    HW219578   0.946   1.692   4.622
 6227SOL     OW19579   3.379   4.920   4.914
 6227SOL    HW119580   3.281   4.906   4.903
 6227SOL    HW219581   3.406   4.899   5.008
 6228SOL     OW19582   0.605   3.561   2.136
 6228SOL    HW119583   0.506   3.571   2.130
 6228SOL    HW219584   0.640   3.620   2.208
 6229SOL     OW19585   0.919   2.094   4.595
 6229SOL    HW119586   0.950   2.051   4.679
 6229SOL    HW219587   0.864   2.029   4.542
 6230SOL     OW19588   0.753   2.378   4.306
 6230SOL    HW119589   0.778   2.295   4.257
 6230SOL    HW219590   0.692   2.433   4.249
 6231SOL     OW19591   6.482   5.809   0.324
 6231SOL    HW119592   6.389   5.802   0.289
 6231SOL    HW219593   6.526   5.891   0.286
 6232SOL     OW19594   6.523   1.048   0.865
 6232SOL    HW119595   6.554   1.092   0.949
 6232SOL    HW219596   6.452   0.980   0.887
 6233SOL     OW19597   6.683   2.327   1.586
 6233SOL    HW119598   6.737   2.245   1.604
 6233SOL    HW219599   6.744   2.406   1.577
 6234SOL     OW19600   6.935   0.313   5.410
 6234SOL    HW119601   6.923   0.289   5.313
 6234SOL    HW219602   6.937   0.412   5.419
 6235SOL     OW19603   6.954   0.055   1.270
 6235SOL    HW119604   6.999   7.024   1.338
 6235SOL    HW219605   6.856   0.060   1.290
 6236SOL     OW19606   0.428   4.720   1.221
 6236SOL    HW119607   0.475   4.666   1.151
 6236SOL    HW219608   0.350   4.767   1.180
 6237SOL     OW19609   3.652   0.035   6.809
 6237SOL    HW119610   3.674   0.005   6.716
 6237SOL    HW219611   3.554   0.054   6.816
 6238SOL     OW19612   4.794   5.484   2.542
 6238SOL    HW119613   4.794   5.385   2.548
 6238SOL    HW219614   4.751   5.522   2.624
 6239SOL     OW19615   4.027   1.417   1.652
 6239SOL    HW119616   4.084   1.497   1.636
 6239SOL    HW219617   3.948   1.419   1.591
 6240SOL     OW19618   2.277   3.609   5.624
 6240SOL    HW119619   2.303   3.590   5.529
 6240SOL    HW219620   2.352   3.581   5.684
 6241SOL     OW19621   3.217   0.711   2.107
 6241SOL    HW119622   3.186   0.800   2.074
 6241SOL    HW219623   3.230   0.650   2.029
 6242SOL     OW19624   3.858   0.194   3.679
 6242SOL    HW119625   3.915   0.232   3.605
 6242SOL    HW219626   3.772   0.160   3.641
 6243SOL     OW19627   0.172   6.559   5.222
 6243SOL    HW119628   0.125   6.518   5.301
 6243SOL    HW219629   0.253   6.608   5.254
 6244SOL     OW19630   5.806   3.391   3.171
 6244SOL    HW119631   5.818   3.345   3.259
 6244SOL    HW219632   5.735   3.345   3.118
 6245SOL     OW19633   1.369   3.502   0.881
 6245SOL    HW119634   1.417   3.534   0.962
 6245SOL    HW219635   1.322   3.578   0.836
 6246SOL     OW19636   1.040   1.877   5.462
 6246SOL    HW119637   1.005   1.959   5.417
 6246SOL    HW219638   0.974   1.844   5.528
 6247SOL     OW19639   0.123   6.252   3.797
 6247SOL    HW119640   0.096   6.342   3.761
 6247SOL    HW219641   0.217   6.233   3.767
 6248SOL     OW19642   3.962   3.753   6.793
 6248SOL    HW119643   3.979   3.750   6.694
 6248SOL    HW219644   4.045   3.730   6.842
 6249SOL     OW19645   7.006   3.346   0.801
 6249SOL    HW119646   6.974   3.311   0.889
 6249SOL    HW219647   7.008   3.446   0.804
 6250SOL     OW19648   6.671   0.053   1.133
 6250SOL    HW119649   6.708   0.136   1.090
 6250SOL    HW219650   6.673   0.065   1.233
 6251SOL     OW19651   4.221   5.405   5.186
 6251SOL    HW119652   4.163   5.472   5.232
 6251SOL    HW219653   4.308   5.448   5.162
 6252SOL     OW19654   2.774   6.198   6.348
 6252SOL    HW119655   2.698   6.260   6.369
 6252SOL    HW219656   2.812   6.221   6.259
 6253SOL     OW19657   2.804   4.774   4.270
 6253SOL    HW119658   2.725   4.720   4.299
 6253SOL    HW219659   2.833   4.743   4.179
 6254SOL     OW19660   5.875   0.999   1.261
 6254SOL    HW119661   5.803   1.033   1.200
 6254SOL    HW219662   5.836   0.983   1.352
 6255SOL     OW19663   3.013   0.820   0.939
 6255SOL    HW119664   2.993   0.915   0.961
 6255SOL    HW219665   2.983   0.761   1.015
 6256SOL     OW19666   3.309   5.139   2.466
 6256SOL    HW119667   3.268   5.051   2.491
 6256SOL    HW219668   3.409   5.133   2.475
 6257SOL     OW19669   4.775   2.792   0.652
 6257SOL    HW119670   4.827   2.871   0.619
 6257SOL    HW219671   4.798   2.775   0.748
 6258SOL     OW19672   2.973   0.672   3.536
 6258SOL    HW119673   2.900   0.620   3.493
 6258SOL    HW219674   3.041   0.697   3.468
 6259SOL     OW19675   1.338   1.812   6.954
 6259SOL    HW119676   1.320   1.786   6.859
 6259SOL    HW219677   1.290   1.897   6.974
 6260SOL     OW19678   3.610   6.156   0.389
 6260SOL    HW119679   3.567   6.163   0.479
 6260SOL    HW219680   3.677   6.229   0.379
 6261SOL     OW19681   4.745   0.608   6.869
 6261SOL    HW119682   4.738   0.509   6.880
 6261SOL    HW219683   4.782   0.649   6.952
 6262SOL     OW19684   2.269   6.750   1.537
 6262SOL    HW119685   2.215   6.807   1.600
 6262SOL    HW219686   2.208   6.690   1.486
 6263SOL     OW19687   0.636   6.916   4.448
 6263SOL    HW119688   0.572   6.907   4.372
 6263SOL    HW219689   0.688   6.831   4.458
 6264SOL     OW19690   1.814   0.680   1.866
 6264SOL    HW119691   1.768   0.591   1.859
 6264SOL    HW219692   1.886   0.685   1.797
 6265SOL     OW19693   3.916   3.546   0.088
 6265SOL    HW119694   4.008   3.506   0.081
 6265SOL    HW219695   3.909   3.622   0.024
 6266SOL     OW19696   4.817   0.142   3.627
 6266SOL    HW119697   4.861   0.104   3.708
 6266SOL    HW219698   4.768   0.225   3.651
 6267SOL     OW19699   2.345   0.026   5.038
 6267SOL    HW119700   2.324   6.956   5.049
 6267SOL    HW219701   2.365   0.067   5.127
 6268SOL     OW19702   3.115   0.960   2.424
 6268SOL    HW119703   3.166   1.018   2.359
 6268SOL    HW219704   3.122   0.865   2.396
 6269SOL     OW19705   6.580   6.545   2.282
 6269SOL    HW119706   6.493   6.509   2.251
 6269SOL    HW219707   6.599   6.631   2.234
 6270SOL     OW19708   0.473   0.579   6.348
 6270SOL    HW119709   0.531   0.528   6.284
 6270SOL    HW219710   0.378   0.553   6.334
 6271SOL     OW19711   5.997   2.258   5.703
 6271SOL    HW119712   6.089   2.231   5.730
 6271SOL    HW219713   5.955   2.312   5.775
 6272SOL     OW19714   0.742   2.415   0.163
 6272SOL    HW119715   0.754   2.444   0.068
 6272SOL    HW219716   0.739   2.496   0.222
 6273SOL     OW19717   0.366   6.531   2.509
 6273SOL    HW119718   0.406   6.445   2.539
 6273SOL    HW219719   0.424   6.571   2.437
 6274SOL     OW19720   3.077   6.559   5.609
 6274SOL    HW119721   3.013   6.588   5.537
 6274SOL    HW219722   3.141   6.492   5.571
 6275SOL     OW19723   1.939   6.162   0.265
 6275SOL    HW119724   2.002   6.224   0.219
 6275SOL    HW219725   1.951   6.169   0.364
 6276SOL     OW19726   2.142   4.946   3.836
 6276SOL    HW119727   2.160   4.981   3.928
 6276SOL    HW219728   2.080   5.009   3.788
 6277SOL     OW19729   4.665   2.958   1.225
 6277SOL    HW119730   4.566   2.967   1.237
 6277SOL    HW219731   4.706   3.048   1.209
 6278SOL     OW19732   4.638   6.921   4.718
 6278SOL    HW119733   4.636   6.843   4.780
 6278SOL    HW219734   4.670   7.002   4.768
 6279SOL     OW19735   3.404   6.303   0.228
 6279SOL    HW119736   3.322   6.280   0.177
 6279SOL    HW219737   3.461   6.221   0.238
 6280SOL     OW19738   6.982   1.041   6.296
 6280SOL    HW119739   6.941   1.132   6.309
 6280SOL    HW219740   0.037   1.033   6.353
 6281SOL     OW19741   6.948   5.181   4.298
 6281SOL    HW119742   6.887   5.137   4.234
 6281SOL    HW219743   0.013   5.141   4.291
 6282SOL     OW19744   6.166   5.267   5.721
 6282SOL    HW119745   6.241   5.314   5.767
 6282SOL    HW219746   6.203   5.205   5.651
 6283SOL     OW19747   0.039   3.901   4.366
 6283SOL    HW119748   0.003   3.891   4.459
 6283SOL    HW219749   0.137   3.884   4.367
 6284SOL     OW19750   1.719   4.512   5.073
 6284SOL    HW119751   1.738   4.482   5.166
 6284SOL    HW219752   1.633   4.564   5.071
 6285SOL     OW19753   0.187   3.287   3.710
 6285SOL    HW119754   0.100   3.294   3.663
 6285SOL    HW219755   0.248   3.225   3.661
 6286SOL     OW19756   6.386   2.448   4.669
 6286SOL    HW119757   6.457   2.507   4.707
 6286SOL    HW219758   6.367   2.372   4.732
 6287SOL     OW19759   3.153   4.884   4.544
 6287SOL    HW119760   3.155   4.814   4.615
 6287SOL    HW219761   3.058   4.898   4.514
 6288SOL     OW19762   5.023   4.554   2.169
 6288SOL    HW119763   4.935   4.574   2.211
 6288SOL    HW219764   5.014   4.476   2.107
 6289SOL     OW19765   1.906   5.075   6.783
 6289SOL    HW119766   1.927   4.983   6.816
 6289SOL    HW219767   1.852   5.123   6.853
 6290SOL     OW19768   6.048   4.699   6.375
 6290SOL    HW119769   6.058   4.752   6.460
 6290SOL    HW219770   5.967   4.731   6.326
 6291SOL     OW19771   3.969   3.778   3.705
 6291SOL    HW119772   3.992   3.725   3.623
 6291SOL    HW219773   4.033   3.756   3.778
 6292SOL     OW19774   2.205   2.226   5.124
 6292SOL    HW119775   2.128   2.289   5.136
 6292SOL    HW219776   2.171   2.132   5.119
 6293SOL     OW19777   4.532   1.533   1.239
 6293SOL    HW119778   4.454   1.516   1.300
 6293SOL    HW219779   4.610   1.477   1.268
 6294SOL     OW19780   3.922   0.546   3.662
 6294SOL    HW119781   3.990   0.492   3.613
 6294SOL    HW219782   3.966   0.603   3.730
 6295SOL     OW19783   4.974   4.723   4.656
 6295SOL    HW119784   5.048   4.784   4.627
 6295SOL    HW219785   4.892   4.742   4.601
 6296SOL     OW19786   6.577   5.037   6.059
 6296SOL    HW119787   6.530   5.040   5.971
 6296SOL    HW219788   6.575   4.944   6.095
 6297SOL     OW19789   5.479   0.564   5.420
 6297SOL    HW119790   5.477   0.464   5.414
 6297SOL    HW219791   5.529   0.592   5.502
 6298SOL     OW19792   1.244   3.370   6.492
 6298SOL    HW119793   1.266   3.273   6.479
 6298SOL    HW219794   1.321   3.426   6.463
 6299SOL     OW19795   6.098   2.401   2.029
 6299SOL    HW119796   6.189   2.366   2.052
 6299SOL    HW219797   6.055   2.340   1.962
 6300SOL     OW19798   6.588   1.126   6.521
 6300SOL    HW119799   6.634   1.206   6.561
 6300SOL    HW219800   6.657   1.062   6.487
 6301SOL     OW19801   2.903   6.902   7.003
 6301SOL    HW119802   2.964   6.858   6.937
 6301SOL    HW219803   2.888   6.840   0.053
 6302SOL     OW19804   1.780   2.221   5.272
 6302SOL    HW119805   1.823   2.140   5.313
 6302SOL    HW219806   1.843   2.264   5.207
 6303SOL     OW19807   0.967   0.584   5.224
 6303SOL    HW119808   0.942   0.678   5.204
 6303SOL    HW219809   1.010   0.579   5.314
 6304SOL     OW19810   3.414   0.927   1.750
 6304SOL    HW119811   3.317   0.904   1.741
 6304SOL    HW219812   3.426   1.026   1.747
 6305SOL     OW19813   5.774   6.315   0.606
 6305SOL    HW119814   5.823   6.370   0.674
 6305SOL    HW219815   5.702   6.263   0.652
 6306SOL     OW19816   6.832   4.419   4.202
 6306SOL    HW119817   6.755   4.365   4.169
 6306SOL    HW219818   6.848   4.495   4.139
 6307SOL     OW19819   3.871   3.962   3.891
 6307SOL    HW119820   3.894   3.951   3.795
 6307SOL    HW219821   3.816   4.045   3.902
 6308SOL     OW19822   1.636   2.749   4.520
 6308SOL    HW119823   1.628   2.726   4.423
 6308SOL    HW219824   1.548   2.737   4.565
 6309SOL     OW19825   6.952   6.077   4.151
 6309SOL    HW119826   6.989   6.105   4.240
 6309SOL    HW219827   6.916   6.157   4.103
 6310SOL     OW19828   1.957   6.200   2.410
 6310SOL    HW119829   1.874   6.155   2.378
 6310SOL    HW219830   1.954   6.297   2.387
 6311SOL     OW19831   5.126   1.533   6.032
 6311SOL    HW119832   5.142   1.472   6.109
 6311SOL    HW219833   5.044   1.504   5.983
 6312SOL     OW19834   7.011   6.441   5.062
 6312SOL    HW119835   6.961   6.507   5.006
 6312SOL    HW219836   0.051   6.490   5.119
 6313SOL     OW19837   6.898   5.858   3.855
 6313SOL    HW119838   6.930   5.949   3.831
 6313SOL    HW219839   6.810   5.841   3.810
 6314SOL     OW19840   3.908   6.695   1.758
 6314SOL    HW119841   3.837   6.627   1.738
 6314SOL    HW219842   3.962   6.664   1.836
 6315SOL     OW19843   3.252   1.910   5.903
 6315SOL    HW119844   3.211   1.961   5.978
 6315SOL    HW219845   3.230   1.954   5.816
 6316SOL     OW19846   4.754   1.970   6.157
 6316SOL    HW119847   4.831   2.012   6.205
 6316SOL    HW219848   4.675   2.031   6.160
 6317SOL     OW19849   5.270   4.817   1.982
 6317SOL    HW119850   5.326   4.799   1.902
 6317SOL    HW219851   5.286   4.748   2.052
 6318SOL     OW19852   4.327   6.860   5.742
 6318SOL    HW119853   4.414   6.907   5.756
 6318SOL    HW219854   4.270   6.869   5.823
 6319SOL     OW19855   6.528   2.017   5.575
 6319SOL    HW119856   6.625   2.017   5.552
 6319SOL    HW219857   6.509   2.089   5.642
 6320SOL     OW19858   6.746   6.308   5.041
 6320SOL    HW119859   6.835   6.339   5.073
 6320SOL    HW219860   6.738   6.209   5.054
 6321SOL     OW19861   4.528   3.310   0.977
 6321SOL    HW119862   4.565   3.311   0.884
 6321SOL    HW219863   4.593   3.265   1.038
 6322SOL     OW19864   2.221   2.836   1.277
 6322SOL    HW119865   2.293   2.856   1.211
 6322SOL    HW219866   2.147   2.786   1.232
 6323SOL     OW19867   1.995   2.340   1.890
 6323SOL    HW119868   2.081   2.290   1.902
 6323SOL    HW219869   1.996   2.387   1.802
 6324SOL     OW19870   4.870   1.079   0.653
 6324SOL    HW119871   4.862   1.115   0.560
 6324SOL    HW219872   4.928   0.998   0.653
 6325SOL     OW19873   1.788   3.524   2.657
 6325SOL    HW119874   1.721   3.591   2.625
 6325SOL    HW219875   1.783   3.443   2.599
 6326SOL     OW19876   5.454   5.035   1.247
 6326SOL    HW119877   5.542   4.995   1.222
 6326SOL    HW219878   5.458   5.134   1.236
 6327SOL     OW19879   6.912   1.766   4.904
 6327SOL    HW119880   6.923   1.712   4.821
 6327SOL    HW219881   6.931   1.862   4.884
 6328SOL     OW19882   4.204   3.770   0.157
 6328SOL    HW119883   4.211   3.695   0.222
 6328SOL    HW219884   4.296   3.802   0.134
 6329SOL     OW19885   1.529   2.990   3.958
 6329SOL    HW119886   1.608   3.044   3.988
 6329SOL    HW219887   1.450   3.014   4.014
 6330SOL     OW19888   5.840   0.032   1.934
 6330SOL    HW119889   5.873   6.967   1.957
 6330SOL    HW219890   5.765   0.025   1.868
 6331SOL     OW19891   6.760   3.454   5.334
 6331SOL    HW119892   6.688   3.511   5.374
 6331SOL    HW219893   6.718   3.379   5.282
 6332SOL     OW19894   0.660   2.541   0.876
 6332SOL    HW119895   0.623   2.479   0.945
 6332SOL    HW219896   0.755   2.518   0.857
 6333SOL     OW19897   4.307   6.663   5.349
 6333SOL    HW119898   4.372   6.608   5.297
 6333SOL    HW219899   4.309   6.758   5.316
 6334SOL     OW19900   3.325   1.202   2.614
 6334SOL    HW119901   3.373   1.261   2.679
 6334SOL    HW219902   3.358   1.108   2.624
 6335SOL     OW19903   4.043   0.450   0.805
 6335SOL    HW119904   3.973   0.458   0.875
 6335SOL    HW219905   4.054   0.354   0.779
 6336SOL     OW19906   1.303   2.285   6.659
 6336SOL    HW119907   1.206   2.292   6.680
 6336SOL    HW219908   1.316   2.292   6.560
 6337SOL     OW19909   4.680   5.294   5.563
 6337SOL    HW119910   4.770   5.312   5.522
 6337SOL    HW219911   4.679   5.202   5.602
 6338SOL     OW19912   3.074   2.167   4.174
 6338SOL    HW119913   3.164   2.166   4.130
 6338SOL    HW219914   3.009   2.217   4.117
 6339SOL     OW19915   1.122   3.729   3.712
 6339SOL    HW119916   1.063   3.691   3.783
 6339SOL    HW219917   1.143   3.825   3.734
 6340SOL     OW19918   1.628   5.085   1.734
 6340SOL    HW119919   1.599   5.105   1.828
 6340SOL    HW219920   1.597   4.994   1.709
 6341SOL     OW19921   6.643   4.025   4.317
 6341SOL    HW119922   6.724   4.002   4.263
 6341SOL    HW219923   6.607   4.113   4.285
 6342SOL     OW19924   2.611   1.676   0.908
 6342SOL    HW119925   2.690   1.678   0.970
 6342SOL    HW219926   2.534   1.723   0.952
 6343SOL     OW19927   4.597   0.747   6.154
 6343SOL    HW119928   4.679   0.796   6.184
 6343SOL    HW219929   4.530   0.745   6.229
 6344SOL     OW19930   5.157   2.344   4.692
 6344SOL    HW119931   5.231   2.397   4.733
 6344SOL    HW219932   5.176   2.329   4.595
 6345SOL     OW19933   5.830   2.533   2.478
 6345SOL    HW119934   5.737   2.539   2.515
 6345SOL    HW219935   5.826   2.500   2.384
 6346SOL     OW19936   6.416   5.722   3.800
 6346SOL    HW119937   6.491   5.656   3.802
 6346SOL    HW219938   6.328   5.674   3.800
 6347SOL     OW19939   2.259   1.240   6.981
 6347SOL    HW119940   2.207   1.325   6.970
 6347SOL    HW219941   2.343   1.258   0.005
 6348SOL     OW19942   1.737   2.983   6.047
 6348SOL    HW119943   1.647   2.941   6.064
 6348SOL    HW219944   1.736   3.029   5.958
 6349SOL     OW19945   1.776   0.708   0.859
 6349SOL    HW119946   1.707   0.682   0.791
 6349SOL    HW219947   1.733   0.721   0.948
 6350SOL     OW19948   0.428   4.972   4.082
 6350SOL    HW119949   0.434   4.954   3.983
 6350SOL    HW219950   0.520   4.985   4.119
 6351SOL     OW19951   6.079   3.797   3.412
 6351SOL    HW119952   6.037   3.888   3.412
 6351SOL    HW219953   6.036   3.741   3.483
 6352SOL     OW19954   2.771   6.950   4.998
 6352SOL    HW119955   2.780   0.009   4.947
 6352SOL    HW219956   2.839   6.884   4.966
 6353SOL     OW19957   0.795   6.025   5.787
 6353SOL    HW119958   0.831   5.985   5.871
 6353SOL    HW219959   0.870   6.052   5.727
 6354SOL     OW19960   3.168   5.280   3.137
 6354SOL    HW119961   3.177   5.284   3.037
 6354SOL    HW219962   3.215   5.198   3.171
 6355SOL     OW19963   1.896   5.518   6.778
 6355SOL    HW119964   1.818   5.506   6.717
 6355SOL    HW219965   1.895   5.447   6.848
 6356SOL     OW19966   4.891   5.305   1.286
 6356SOL    HW119967   4.888   5.213   1.326
 6356SOL    HW219968   4.797   5.337   1.270
 6357SOL     OW19969   6.061   3.233   2.766
 6357SOL    HW119970   6.013   3.287   2.698
 6357SOL    HW219971   6.044   3.272   2.857
 6358SOL     OW19972   0.079   1.755   6.682
 6358SOL    HW119973   0.176   1.738   6.697
 6358SOL    HW219974   0.026   1.722   6.760
 6359SOL     OW19975   6.357   0.180   0.461
 6359SOL    HW119976   6.297   0.146   0.388
 6359SOL    HW219977   6.448   0.196   0.424
 6360SOL     OW19978   1.272   3.677   5.431
 6360SOL    HW119979   1.259   3.581   5.458
 6360SOL    HW219980   1.184   3.714   5.400
 6361SOL     OW19981   1.266   0.395   0.820
 6361SOL    HW119982   1.285   0.374   0.725
 6361SOL    HW219983   1.286   0.492   0.837
 6362SOL     OW19984   0.431   5.623   6.993
 6362SOL    HW119985   0.409   5.534   6.954
 6362SOL    HW219986   0.521   5.653   6.960
 6363SOL     OW19987   2.537   5.661   3.850
 6363SOL    HW119988   2.543   5.714   3.935
 6363SOL    HW219989   2.590   5.706   3.779
 6364SOL     OW19990   2.682   2.005   5.855
 6364SOL    HW119991   2.763   2.060   5.873
 6364SOL    HW219992   2.685   1.970   5.761
 6365SOL     OW19993   4.858   0.029   3.874
 6365SOL    HW119994   4.760   0.035   3.852
 6365SOL    HW219995   4.873   6.978   3.935
 6366SOL     OW19996   1.139   5.427   5.150
 6366SOL    HW119997   1.191   5.477   5.080
 6366SOL    HW219998   1.056   5.479   5.173
 6367SOL     OW19999   4.343   1.445   3.772
 6367SOL    HW120000   4.360   1.389   3.691
 6367SOL    HW220001   4.317   1.537   3.744
 6368SOL     OW20002   3.588   4.927   3.799
 6368SOL    HW120003   3.505   4.888   3.757
 6368SOL    HW220004   3.632   4.989   3.735
 6369SOL     OW20005   2.412   0.663   4.527
 6369SOL    HW120006   2.338   0.709   4.478
 6369SOL    HW220007   2.465   0.730   4.578
 6370SOL     OW20008   6.196   3.443   3.868
 6370SOL    HW120009   6.178   3.346   3.886
 6370SOL    HW220010   6.262   3.451   3.793
 6371SOL     OW20011   5.220   4.866   3.010
 6371SOL    HW120012   5.198   4.806   3.088
 6371SOL    HW220013   5.290   4.932   3.038
 6372SOL     OW20014   1.468   1.361   1.838
 6372SOL    HW120015   1.407   1.420   1.891
 6372SOL    HW220016   1.420   1.277   1.813
 6373SOL     OW20017   4.537   4.401   2.870
 6373SOL    HW120018   4.587   4.427   2.952
 6373SOL    HW220019   4.467   4.470   2.851
 6374SOL     OW20020   3.943   3.464   2.068
 6374SOL    HW120021   3.867   3.528   2.077
 6374SOL    HW220022   3.913   3.372   2.094
 6375SOL     OW20023   6.944   2.217   2.370
 6375SOL    HW120024   6.901   2.232   2.459
 6375SOL    HW220025   7.003   2.136   2.374
 6376SOL     OW20026   4.918   2.255   5.995
 6376SOL    HW120027   4.990   2.302   5.944
 6376SOL    HW220028   4.836   2.249   5.939
 6377SOL     OW20029   7.026   1.027   5.817
 6377SOL    HW120030   0.076   1.084   5.846
 6377SOL    HW220031   6.957   1.026   5.889
 6378SOL     OW20032   4.690   4.436   3.756
 6378SOL    HW120033   4.786   4.463   3.755
 6378SOL    HW220034   4.645   4.477   3.836
 6379SOL     OW20035   0.932   4.412   5.527
 6379SOL    HW120036   0.861   4.469   5.487
 6379SOL    HW220037   0.904   4.384   5.619
 6380SOL     OW20038   0.671   1.476   5.149
 6380SOL    HW120039   0.669   1.381   5.181
 6380SOL    HW220040   0.766   1.506   5.139
 6381SOL     OW20041   4.118   2.875   1.090
 6381SOL    HW120042   4.155   2.955   1.137
 6381SOL    HW220043   4.151   2.874   0.996
 6382SOL     OW20044   3.308   2.029   0.662
 6382SOL    HW120045   3.222   2.060   0.701
 6382SOL    HW220046   3.372   2.007   0.735
 6383SOL     OW20047   2.183   2.563   3.236
 6383SOL    HW120048   2.120   2.627   3.281
 6383SOL    HW220049   2.168   2.566   3.137
 6384SOL     OW20050   6.583   3.619   3.145
 6384SOL    HW120051   6.640   3.556   3.197
 6384SOL    HW220052   6.518   3.664   3.205
 6385SOL     OW20053   0.054   3.519   3.414
 6385SOL    HW120054   7.025   3.559   3.487
 6385SOL    HW220055   0.125   3.585   3.387
 6386SOL     OW20056   2.547   3.314   6.488
 6386SOL    HW120057   2.461   3.333   6.442
 6386SOL    HW220058   2.532   3.307   6.587
 6387SOL     OW20059   6.764   1.969   6.613
 6387SOL    HW120060   6.845   2.015   6.648
 6387SOL    HW220061   6.718   1.922   6.688
 6388SOL     OW20062   4.642   6.198   1.840
 6388SOL    HW120063   4.687   6.142   1.909
 6388SOL    HW220064   4.688   6.287   1.834
 6389SOL     OW20065   0.342   6.754   0.889
 6389SOL    HW120066   0.322   6.686   0.960
 6389SOL    HW220067   0.277   6.744   0.814
 6390SOL     OW20068   0.151   0.731   5.542
 6390SOL    HW120069   0.190   0.681   5.619
 6390SOL    HW220070   0.094   0.670   5.488
 6391SOL     OW20071   1.145   6.920   6.287
 6391SOL    HW120072   1.231   6.956   6.322
 6391SOL    HW220073   1.131   6.951   6.193
 6392SOL     OW20074   2.532   5.658   2.540
 6392SOL    HW120075   2.616   5.630   2.587
 6392SOL    HW220076   2.457   5.662   2.606
 6393SOL     OW20077   0.715   5.852   1.824
 6393SOL    HW120078   0.766   5.805   1.897
 6393SOL    HW220079   0.619   5.826   1.829
 6394SOL     OW20080   1.754   5.519   0.673
 6394SOL    HW120081   1.692   5.558   0.604
 6394SOL    HW220082   1.717   5.536   0.764
 6395SOL     OW20083   0.161   2.903   1.447
 6395SOL    HW120084   0.193   2.817   1.409
 6395SOL    HW220085   0.065   2.917   1.423
 6396SOL     OW20086   5.833   3.140   6.982
 6396SOL    HW120087   5.895   3.164   0.030
 6396SOL    HW220088   5.804   3.044   6.991
 6397SOL     OW20089   5.739   1.542   1.900
 6397SOL    HW120090   5.695   1.455   1.921
 6397SOL    HW220091   5.775   1.583   1.984
 6398SOL     OW20092   2.934   6.866   1.714
 6398SOL    HW120093   2.888   6.777   1.714
 6398SOL    HW220094   2.945   6.898   1.808
 6399SOL     OW20095   1.717   0.198   0.267
 6399SOL    HW120096   1.752   0.116   0.220
 6399SOL    HW220097   1.776   0.276   0.245
 6400SOL     OW20098   2.254   5.004   2.646
 6400SOL    HW120099   2.317   5.072   2.611
 6400SOL    HW220100   2.271   4.989   2.744
 6401SOL     OW20101   5.497   6.346   3.312
 6401SOL    HW120102   5.486   6.298   3.399
 6401SOL    HW220103   5.412   6.391   3.287
 6402SOL     OW20104   2.244   2.899   3.303
 6402SOL    HW120105   2.306   2.833   3.261
 6402SOL    HW220106   2.222   2.971   3.237
 6403SOL     OW20107   6.572   5.337   6.075
 6403SOL    HW120108   6.658   5.388   6.080
 6403SOL    HW220109   6.587   5.251   6.028
 6404SOL     OW20110   4.089   1.083   2.088
 6404SOL    HW120111   4.085   1.168   2.035
 6404SOL    HW220112   4.153   1.020   2.044
 6405SOL     OW20113   3.665   0.596   3.937
 6405SOL    HW120114   3.569   0.616   3.919
 6405SOL    HW220115   3.719   0.680   3.931
 6406SOL     OW20116   0.796   2.758   2.698
 6406SOL    HW120117   0.771   2.727   2.790
 6406SOL    HW220118   0.770   2.854   2.686
 6407SOL     OW20119   2.507   0.120   4.270
 6407SOL    HW120120   2.542   0.065   4.346
 6407SOL    HW220121   2.577   0.184   4.240
 6408SOL     OW20122   5.239   1.248   0.515
 6408SOL    HW120123   5.287   1.334   0.498
 6408SOL    HW220124   5.304   1.181   0.552
 6409SOL     OW20125   6.279   4.532   4.366
 6409SOL    HW120126   6.195   4.495   4.406
 6409SOL    HW220127   6.354   4.525   4.433
 6410SOL     OW20128   2.145   1.227   5.772
 6410SOL    HW120129   2.089   1.151   5.804
 6410SOL    HW220130   2.146   1.300   5.841
 6411SOL     OW20131   0.724   2.682   2.951
 6411SOL    HW120132   0.763   2.695   3.042
 6411SOL    HW220133   0.632   2.722   2.948
 6412SOL     OW20134   1.709   1.886   4.987
 6412SOL    HW120135   1.785   1.832   4.950
 6412SOL    HW220136   1.624   1.859   4.943
 6413SOL     OW20137   3.865   4.823   3.576
 6413SOL    HW120138   3.892   4.778   3.661
 6413SOL    HW220139   3.768   4.848   3.582
 6414SOL     OW20140   5.449   1.324   6.995
 6414SOL    HW120141   5.362   1.276   6.998
 6414SOL    HW220142   5.469   1.362   0.059
 6415SOL     OW20143   1.603   3.480   3.558
 6415SOL    HW120144   1.681   3.438   3.512
 6415SOL    HW220145   1.540   3.408   3.588
 6416SOL     OW20146   1.677   0.103   0.006
 6416SOL    HW120147   1.748   0.057   6.980
 6416SOL    HW220148   1.705   0.198   0.024
 6417SOL     OW20149   5.575   4.817   0.493
 6417SOL    HW120150   5.670   4.845   0.509
 6417SOL    HW220151   5.548   4.750   0.562
 6418SOL     OW20152   4.903   3.422   2.604
 6418SOL    HW120153   4.887   3.370   2.520
 6418SOL    HW220154   4.970   3.493   2.587
 6419SOL     OW20155   0.874   5.078   3.265
 6419SOL    HW120156   0.876   5.120   3.355
 6419SOL    HW220157   0.939   5.125   3.205
 6420SOL     OW20158   2.624   6.623   4.126
 6420SOL    HW120159   2.594   6.651   4.035
 6420SOL    HW220160   2.602   6.526   4.140
 6421SOL     OW20161   4.446   0.571   2.208
 6421SOL    HW120162   4.412   0.482   2.239
 6421SOL    HW220163   4.392   0.603   2.130
 6422SOL     OW20164   6.847   0.198   5.000
 6422SOL    HW120165   6.822   0.196   4.903
 6422SOL    HW220166   6.942   0.227   5.009
 6423SOL     OW20167   4.660   5.777   3.304
 6423SOL    HW120168   4.661   5.869   3.341
 6423SOL    HW220169   4.650   5.711   3.378
 6424SOL     OW20170   0.317   4.278   4.633
 6424SOL    HW120171   0.233   4.266   4.686
 6424SOL    HW220172   0.293   4.299   4.538
 6425SOL     OW20173   6.383   6.617   2.821
 6425SOL    HW120174   6.306   6.571   2.777
 6425SOL    HW220175   6.358   6.712   2.841
 6426SOL     OW20176   1.042   5.230   3.077
 6426SOL    HW120177   0.982   5.256   3.002
 6426SOL    HW220178   1.083   5.313   3.117
 6427SOL     OW20179   4.058   3.732   3.979
 6427SOL    HW120180   4.106   3.739   4.066
 6427SOL    HW220181   3.996   3.809   3.969
 6428SOL     OW20182   5.260   3.629   6.778
 6428SOL    HW120183   5.345   3.576   6.772
 6428SOL    HW220184   5.282   3.726   6.775
 6429SOL     OW20185   0.248   1.209   5.623
 6429SOL    HW120186   0.335   1.160   5.627
 6429SOL    HW220187   0.200   1.183   5.540
 6430SOL     OW20188   6.108   1.102   3.739
 6430SOL    HW120189   6.190   1.155   3.718
 6430SOL    HW220190   6.053   1.092   3.656
 6431SOL     OW20191   4.245   6.410   3.580
 6431SOL    HW120192   4.172   6.414   3.511
 6431SOL    HW220193   4.204   6.412   3.672
 6432SOL     OW20194   4.403   4.495   6.127
 6432SOL    HW120195   4.470   4.531   6.062
 6432SOL    HW220196   4.371   4.569   6.186
 6433SOL     OW20197   1.713   5.331   5.699
 6433SOL    HW120198   1.756   5.311   5.787
 6433SOL    HW220199   1.625   5.285   5.693
 6434SOL     OW20200   2.568   6.332   5.972
 6434SOL    HW120201   2.589   6.335   5.874
 6434SOL    HW220202   2.644   6.372   6.023
 6435SOL     OW20203   5.032   6.753   0.633
 6435SOL    HW120204   5.123   6.788   0.656
 6435SOL    HW220205   5.015   6.669   0.685
 6436SOL     OW20206   1.355   2.795   2.443
 6436SOL    HW120207   1.336   2.852   2.363
 6436SOL    HW220208   1.283   2.806   2.511
 6437SOL     OW20209   1.705   2.176   0.109
 6437SOL    HW120210   1.804   2.164   0.100
 6437SOL    HW220211   1.659   2.090   0.088
 6438SOL     OW20212   0.400   3.940   5.716
 6438SOL    HW120213   0.432   3.847   5.698
 6438SOL    HW220214   0.302   3.946   5.696
 6439SOL     OW20215   5.486   1.298   2.038
 6439SOL    HW120216   5.571   1.252   2.012
 6439SOL    HW220217   5.504   1.396   2.052
 6440SOL     OW20218   2.881   1.439   5.931
 6440SOL    HW120219   2.913   1.446   5.836
 6440SOL    HW220220   2.921   1.513   5.985
 6441SOL     OW20221   0.386   7.008   1.513
 6441SOL    HW120222   0.327   6.985   1.590
 6441SOL    HW220223   0.363   0.072   1.479
 6442SOL     OW20224   2.482   1.503   4.973
 6442SOL    HW120225   2.437   1.582   5.015
 6442SOL    HW220226   2.562   1.535   4.921
 6443SOL     OW20227   3.581   2.474   5.419
 6443SOL    HW120228   3.635   2.557   5.406
 6443SOL    HW220229   3.519   2.462   5.342
 6444SOL     OW20230   5.494   3.650   4.747
 6444SOL    HW120231   5.432   3.722   4.776
 6444SOL    HW220232   5.442   3.567   4.724
 6445SOL     OW20233   4.105   3.310   4.740
 6445SOL    HW120234   4.064   3.400   4.728
 6445SOL    HW220235   4.182   3.300   4.676
 6446SOL     OW20236   1.337   1.328   6.866
 6446SOL    HW120237   1.309   1.333   6.962
 6446SOL    HW220238   1.267   1.280   6.813
 6447SOL     OW20239   5.774   5.155   3.134
 6447SOL    HW120240   5.869   5.181   3.150
 6447SOL    HW220241   5.760   5.060   3.162
 6448SOL     OW20242   4.985   5.505   1.837
 6448SOL    HW120243   4.943   5.440   1.900
 6448SOL    HW220244   5.058   5.555   1.884
 6449SOL     OW20245   4.007   6.009   1.641
 6449SOL    HW120246   3.921   6.055   1.619
 6449SOL    HW220247   4.023   6.013   1.739
 6450SOL     OW20248   1.479   3.247   0.846
 6450SOL    HW120249   1.439   3.339   0.844
 6450SOL    HW220250   1.542   3.240   0.923
 6451SOL     OW20251   2.344   0.815   5.592
 6451SOL    HW120252   2.325   0.727   5.549
 6451SOL    HW220253   2.314   0.889   5.532
 6452SOL     OW20254   4.241   4.993   3.260
 6452SOL    HW120255   4.168   4.959   3.200
 6452SOL    HW220256   4.289   4.915   3.301
 6453SOL     OW20257   2.172   0.174   2.051
 6453SOL    HW120258   2.258   0.166   2.002
 6453SOL    HW220259   2.172   0.259   2.105
 6454SOL     OW20260   1.014   2.139   3.186
 6454SOL    HW120261   1.008   2.159   3.088
 6454SOL    HW220262   0.931   2.091   3.216
 6455SOL     OW20263   0.269   3.323   3.980
 6455SOL    HW120264   0.247   3.410   4.024
 6455SOL    HW220265   0.249   3.328   3.883
 6456SOL     OW20266   1.699   1.293   3.192
 6456SOL    HW120267   1.625   1.228   3.208
 6456SOL    HW220268   1.784   1.243   3.173
 6457SOL     OW20269   5.108   1.104   2.059
 6457SOL    HW120270   5.092   1.130   1.964
 6457SOL    HW220271   5.021   1.088   2.105
 6458SOL     OW20272   0.882   5.879   4.153
 6458SOL    HW120273   0.864   5.952   4.086
 6458SOL    HW220274   0.803   5.869   4.213
 6459SOL     OW20275   5.988   3.301   1.392
 6459SOL    HW120276   5.921   3.310   1.465
 6459SOL    HW220277   6.025   3.392   1.369
 6460SOL     OW20278   6.319   5.765   6.322
 6460SOL    HW120279   6.394   5.723   6.270
 6460SOL    HW220280   6.345   5.771   6.418
 6461SOL     OW20281   2.338   4.535   6.931
 6461SOL    HW120282   2.326   4.531   0.004
 6461SOL    HW220283   2.351   4.443   6.896
 6462SOL     OW20284   2.184   3.219   4.457
 6462SOL    HW120285   2.264   3.161   4.470
 6462SOL    HW220286   2.106   3.161   4.432
 6463SOL     OW20287   5.702   2.168   0.396
 6463SOL    HW120288   5.650   2.235   0.450
 6463SOL    HW220289   5.732   2.211   0.311
 6464SOL     OW20290   1.327   4.806   4.902
 6464SOL    HW120291   1.365   4.890   4.940
 6464SOL    HW220292   1.342   4.804   4.804
 6465SOL     OW20293   6.681   3.241   2.649
 6465SOL    HW120294   6.753   3.242   2.580
 6465SOL    HW220295   6.696   3.314   2.715
 6466SOL     OW20296   6.448   1.310   5.702
 6466SOL    HW120297   6.432   1.211   5.706
 6466SOL    HW220298   6.529   1.328   5.646
 6467SOL     OW20299   4.060   0.354   0.067
 6467SOL    HW120300   4.078   0.271   0.015
 6467SOL    HW220301   4.145   0.386   0.110
 6468SOL     OW20302   2.997   6.517   1.412
 6468SOL    HW120303   2.990   6.482   1.319
 6468SOL    HW220304   3.060   6.595   1.414
 6469SOL     OW20305   4.525   2.202   3.878
 6469SOL    HW120306   4.479   2.116   3.899
 6469SOL    HW220307   4.487   2.275   3.936
 6470SOL     OW20308   5.675   2.788   1.150
 6470SOL    HW120309   5.761   2.816   1.107
 6470SOL    HW220310   5.678   2.689   1.166
 6471SOL     OW20311   0.208   6.479   5.936
 6471SOL    HW120312   0.118   6.487   5.979
 6471SOL    HW220313   0.203   6.511   5.841
 6472SOL     OW20314   6.894   5.852   1.487
 6472SOL    HW120315   6.814   5.806   1.447
 6472SOL    HW220316   6.951   5.784   1.532
 6473SOL     OW20317   2.855   1.921   4.969
 6473SOL    HW120318   2.828   1.985   5.041
 6473SOL    HW220319   2.848   1.966   4.880
 6474SOL     OW20320   3.129   5.320   6.766
 6474SOL    HW120321   3.048   5.297   6.713
 6474SOL    HW220322   3.207   5.331   6.705
 6475SOL     OW20323   5.924   4.939   3.395
 6475SOL    HW120324   6.019   4.913   3.416
 6475SOL    HW220325   5.894   5.007   3.462
 6476SOL     OW20326   4.565   3.590   1.034
 6476SOL    HW120327   4.537   3.628   1.122
 6476SOL    HW220328   4.519   3.503   1.019
 6477SOL     OW20329   5.826   4.815   0.382
 6477SOL    HW120330   5.893   4.792   0.311
 6477SOL    HW220331   5.781   4.902   0.358
 6478SOL     OW20332   3.323   0.223   2.006
 6478SOL    HW120333   3.237   0.199   1.962
 6478SOL    HW220334   3.337   0.165   2.086
 6479SOL     OW20335   4.125   5.501   3.624
 6479SOL    HW120336   4.073   5.498   3.710
 6479SOL    HW220337   4.139   5.596   3.597
 6480SOL     OW20338   3.081   0.827   6.926
 6480SOL    HW120339   2.997   0.833   6.871
 6480SOL    HW220340   3.057   0.820   7.022
 6481SOL     OW20341   3.179   2.073   2.308
 6481SOL    HW120342   3.127   2.093   2.224
 6481SOL    HW220343   3.276   2.064   2.285
 6482SOL     OW20344   6.605   1.617   5.548
 6482SOL    HW120345   6.562   1.652   5.464
 6482SOL    HW220346   6.551   1.647   5.627
 6483SOL     OW20347   0.879   0.268   3.216
 6483SOL    HW120348   0.975   0.262   3.243
 6483SOL    HW220349   0.862   0.205   3.140
 6484SOL     OW20350   3.891   0.025   1.295
 6484SOL    HW120351   3.877   6.977   1.360
 6484SOL    HW220352   3.828   0.016   1.218
 6485SOL     OW20353   1.919   5.166   4.000
 6485SOL    HW120354   1.943   5.135   3.908
 6485SOL    HW220355   1.969   5.250   4.022
 6486SOL     OW20356   0.475   4.318   3.164
 6486SOL    HW120357   0.486   4.363   3.075
 6486SOL    HW220358   0.539   4.241   3.171
 6487SOL     OW20359   0.924   6.980   5.053
 6487SOL    HW120360   0.837   6.937   5.030
 6487SOL    HW220361   0.972   7.006   4.969
 6488SOL     OW20362   3.854   6.411   4.940
 6488SOL    HW120363   3.859   6.316   4.968
 6488SOL    HW220364   3.845   6.470   5.020
 6489SOL     OW20365   3.084   3.821   6.089
 6489SOL    HW120366   3.066   3.908   6.044
 6489SOL    HW220367   3.158   3.773   6.042
 6490SOL     OW20368   3.789   1.064   6.577
 6490SOL    HW120369   3.745   1.084   6.664
 6490SOL    HW220370   3.883   1.100   6.578
 6491SOL     OW20371   3.852   0.990   1.391
 6491SOL    HW120372   3.817   1.082   1.409
 6491SOL    HW220373   3.884   0.950   1.477
 6492SOL     OW20374   4.039   4.659   6.173
 6492SOL    HW120375   3.976   4.705   6.111
 6492SOL    HW220376   4.115   4.620   6.120
 6493SOL     OW20377   1.884   4.464   6.055
 6493SOL    HW120378   1.861   4.561   6.059
 6493SOL    HW220379   1.980   4.453   6.030
 6494SOL     OW20380   6.860   0.732   3.543
 6494SOL    HW120381   6.810   0.675   3.478
 6494SOL    HW220382   6.931   0.784   3.494
 6495SOL     OW20383   6.720   0.204   4.599
 6495SOL    HW120384   6.740   0.194   4.501
 6495SOL    HW220385   6.803   0.188   4.652
 6496SOL     OW20386   5.768   1.125   3.227
 6496SOL    HW120387   5.770   1.220   3.195
 6496SOL    HW220388   5.766   1.123   3.327
 6497SOL     OW20389   1.155   1.271   1.148
 6497SOL    HW120390   1.236   1.247   1.201
 6497SOL    HW220391   1.084   1.201   1.162
 6498SOL     OW20392   1.748   3.352   3.930
 6498SOL    HW120393   1.683   3.355   3.854
 6498SOL    HW220394   1.707   3.302   4.006
 6499SOL     OW20395   5.490   3.965   5.480
 6499SOL    HW120396   5.480   4.008   5.570
 6499SOL    HW220397   5.576   3.914   5.477
 6500SOL     OW20398   6.718   3.963   4.827
 6500SOL    HW120399   6.695   3.968   4.729
 6500SOL    HW220400   6.695   3.873   4.862
 6501SOL     OW20401   6.798   0.928   6.521
 6501SOL    HW120402   6.897   0.946   6.526
 6501SOL    HW220403   6.783   0.838   6.481
 6502SOL     OW20404   6.735   2.971   2.614
 6502SOL    HW120405   6.718   2.954   2.517
 6502SOL    HW220406   6.698   3.061   2.638
 6503SOL     OW20407   5.457   1.730   3.694
 6503SOL    HW120408   5.404   1.720   3.611
 6503SOL    HW220409   5.410   1.792   3.757
 6504SOL     OW20410   4.374   6.240   5.321
 6504SOL    HW120411   4.472   6.222   5.328
 6504SOL    HW220412   4.342   6.287   5.404
 6505SOL     OW20413   5.586   5.883   6.835
 6505SOL    HW120414   5.590   5.787   6.862
 6505SOL    HW220415   5.599   5.890   6.736
 6506SOL     OW20416   6.975   2.466   2.999
 6506SOL    HW120417   7.009   2.544   3.052
 6506SOL    HW220418   0.011   2.389   3.009
 6507SOL     OW20419   1.446   5.673   6.418
 6507SOL    HW120420   1.513   5.624   6.362
 6507SOL    HW220421   1.422   5.759   6.374
 6508SOL     OW20422   1.463   1.066   2.622
 6508SOL    HW120423   1.456   1.163   2.645
 6508SOL    HW220424   1.554   1.048   2.583
 6509SOL     OW20425   4.227   1.897   4.550
 6509SOL    HW120426   4.293   1.840   4.501
 6509SOL    HW220427   4.255   1.992   4.546
 6510SOL     OW20428   6.556   5.297   0.410
 6510SOL    HW120429   6.551   5.288   0.510
 6510SOL    HW220430   6.544   5.393   0.385
 6511SOL     OW20431   3.913   0.989   4.828
 6511SOL    HW120432   3.947   0.895   4.826
 6511SOL    HW220433   3.985   1.050   4.862
 6512SOL     OW20434   4.069   6.564   1.942
 6512SOL    HW120435   4.066   6.474   1.985
 6512SOL    HW220436   4.154   6.572   1.889
 6513SOL     OW20437   2.732   4.712   3.092
 6513SOL    HW120438   2.786   4.739   3.172
 6513SOL    HW220439   2.672   4.636   3.116
 6514SOL     OW20440   6.125   1.340   4.016
 6514SOL    HW120441   6.107   1.378   3.925
 6514SOL    HW220442   6.097   1.244   4.018
 6515SOL     OW20443   0.540   4.930   3.835
 6515SOL    HW120444   0.604   4.869   3.881
 6515SOL    HW220445   0.524   4.898   3.742
 6516SOL     OW20446   0.045   3.623   1.692
 6516SOL    HW120447   0.072   3.717   1.669
 6516SOL    HW220448   6.985   3.602   1.645
 6517SOL     OW20449   6.781   1.452   1.595
 6517SOL    HW120450   6.742   1.454   1.688
 6517SOL    HW220451   6.788   1.545   1.560
 6518SOL     OW20452   0.101   0.782   0.184
 6518SOL    HW120453   0.019   0.728   0.203
 6518SOL    HW220454   0.173   0.755   0.247
 6519SOL     OW20455   0.859   2.374   3.247
 6519SOL    HW120456   0.940   2.420   3.210
 6519SOL    HW220457   0.887   2.288   3.289
 6520SOL     OW20458   6.170   5.070   1.326
 6520SOL    HW120459   6.077   5.058   1.362
 6520SOL    HW220460   6.205   4.982   1.294
 6521SOL     OW20461   1.987   2.813   4.343
 6521SOL    HW120462   1.893   2.818   4.310
 6521SOL    HW220463   2.008   2.720   4.374
 6522SOL     OW20464   3.174   4.991   5.455
 6522SOL    HW120465   3.185   4.908   5.400
 6522SOL    HW220466   3.098   5.045   5.418
 6523SOL     OW20467   3.491   1.455   6.934
 6523SOL    HW120468   3.487   1.490   0.001
 6523SOL    HW220469   3.434   1.512   6.875
 6524SOL     OW20470   3.175   3.659   1.561
 6524SOL    HW120471   3.214   3.590   1.622
 6524SOL    HW220472   3.078   3.669   1.580
 6525SOL     OW20473   2.425   5.111   3.390
 6525SOL    HW120474   2.371   5.175   3.336
 6525SOL    HW220475   2.384   5.102   3.481
 6526SOL     OW20476   2.377   0.616   0.534
 6526SOL    HW120477   2.458   0.661   0.571
 6526SOL    HW220478   2.336   0.558   0.605
 6527SOL     OW20479   0.488   1.554   5.361
 6527SOL    HW120480   0.549   1.537   5.283
 6527SOL    HW220481   0.413   1.613   5.332
 6528SOL     OW20482   6.305   0.913   4.928
 6528SOL    HW120483   6.391   0.941   4.971
 6528SOL    HW220484   6.233   0.977   4.954
 6529SOL     OW20485   2.234   0.738   3.018
 6529SOL    HW120486   2.203   0.681   2.942
 6529SOL    HW220487   2.325   0.774   2.998
 6530SOL     OW20488   6.962   2.477   0.069
 6530SOL    HW120489   6.876   2.526   0.087
 6530SOL    HW220490   7.004   2.451   0.156
 6531SOL     OW20491   5.258   3.390   5.510
 6531SOL    HW120492   5.299   3.455   5.446
 6531SOL    HW220493   5.258   3.299   5.468
 6532SOL     OW20494   7.008   1.077   1.023
 6532SOL    HW120495   6.918   1.080   1.067
 6532SOL    HW220496   0.052   1.079   1.093
 6533SOL     OW20497   4.738   7.006   0.732
 6533SOL    HW120498   4.685   0.030   0.800
 6533SOL    HW220499   4.778   6.925   0.774
 6534SOL     OW20500   4.341   4.430   1.406
 6534SOL    HW120501   4.426   4.449   1.356
 6534SOL    HW220502   4.266   4.423   1.340
 6535SOL     OW20503   6.365   4.399   4.132
 6535SOL    HW120504   6.345   4.488   4.171
 6535SOL    HW220505   6.356   4.403   4.032
 6536SOL     OW20506   0.505   1.103   5.596
 6536SOL    HW120507   0.493   1.181   5.534
 6536SOL    HW220508   0.566   1.128   5.671
 6537SOL     OW20509   7.001   5.104   6.554
 6537SOL    HW120510   7.011   5.106   6.455
 6537SOL    HW220511   6.919   5.052   6.579
 6538SOL     OW20512   2.304   3.521   6.193
 6538SOL    HW120513   2.296   3.563   6.283
 6538SOL    HW220514   2.305   3.592   6.123
 6539SOL     OW20515   4.938   0.764   6.760
 6539SOL    HW120516   4.858   0.717   6.795
 6539SOL    HW220517   4.912   0.854   6.726
 6540SOL     OW20518   4.550   1.717   5.828
 6540SOL    HW120519   4.604   1.785   5.877
 6540SOL    HW220520   4.572   1.722   5.731
 6541SOL     OW20521   4.813   1.806   4.958
 6541SOL    HW120522   4.819   1.906   4.950
 6541SOL    HW220523   4.718   1.779   4.967
 6542SOL     OW20524   6.448   2.995   4.101
 6542SOL    HW120525   6.534   2.945   4.098
 6542SOL    HW220526   6.414   2.998   4.196
 6543SOL     OW20527   5.002   2.935   6.000
 6543SOL    HW120528   4.934   2.992   6.047
 6543SOL    HW220529   4.959   2.849   5.974
 6544SOL     OW20530   0.847   6.221   2.776
 6544SOL    HW120531   0.783   6.285   2.734
 6544SOL    HW220532   0.939   6.238   2.740
 6545SOL     OW20533   3.980   0.766   0.808
 6545SOL    HW120534   4.065   0.719   0.786
 6545SOL    HW220535   3.938   0.724   0.888
 6546SOL     OW20536   3.016   4.355   0.130
 6546SOL    HW120537   3.100   4.368   0.077
 6546SOL    HW220538   3.016   4.264   0.171
 6547SOL     OW20539   4.832   1.366   6.261
 6547SOL    HW120540   4.878   1.351   6.173
 6547SOL    HW220541   4.786   1.282   6.289
 6548SOL     OW20542   0.313   3.974   0.935
 6548SOL    HW120543   0.334   3.881   0.966
 6548SOL    HW220544   0.389   4.035   0.957
 6549SOL     OW20545   4.309   0.664   1.977
 6549SOL    HW120546   4.375   0.689   1.906
 6549SOL    HW220547   4.241   0.736   1.986
 6550SOL     OW20548   0.257   0.008   3.316
 6550SOL    HW120549   0.320   0.029   3.241
 6550SOL    HW220550   0.182   0.074   3.317
 6551SOL     OW20551   1.943   4.843   2.149
 6551SOL    HW120552   1.965   4.896   2.231
 6551SOL    HW220553   1.845   4.847   2.132
 6552SOL     OW20554   1.864   0.144   0.639
 6552SOL    HW120555   1.912   0.185   0.561
 6552SOL    HW220556   1.778   0.103   0.607
 6553SOL     OW20557   6.991   2.495   3.349
 6553SOL    HW120558   0.014   2.409   3.354
 6553SOL    HW220559   6.893   2.476   3.337
 6554SOL     OW20560   0.554   0.487   5.164
 6554SOL    HW120561   0.651   0.485   5.189
 6554SOL    HW220562   0.501   0.528   5.239
 6555SOL     OW20563   5.667   1.509   3.418
 6555SOL    HW120564   5.624   1.589   3.377
 6555SOL    HW220565   5.596   1.445   3.447
 6556SOL     OW20566   5.113   4.307   3.933
 6556SOL    HW120567   5.164   4.323   3.848
 6556SOL    HW220568   5.071   4.216   3.930
 6557SOL     OW20569   3.351   0.146   2.566
 6557SOL    HW120570   3.423   0.102   2.620
 6557SOL    HW220571   3.328   0.234   2.608
 6558SOL     OW20572   0.060   5.211   0.278
 6558SOL    HW120573   0.083   5.113   0.279
 6558SOL    HW220574   0.089   5.252   0.364
 6559SOL     OW20575   0.607   3.759   6.914
 6559SOL    HW120576   0.654   3.778   6.828
 6559SOL    HW220577   0.513   3.729   6.895
 6560SOL     OW20578   4.416   4.886   1.501
 6560SOL    HW120579   4.407   4.983   1.522
 6560SOL    HW220580   4.511   4.866   1.476
 6561SOL     OW20581   3.216   3.949   1.571
 6561SOL    HW120582   3.170   3.860   1.564
 6561SOL    HW220583   3.289   3.943   1.639
 6562SOL     OW20584   6.076   3.293   0.421
 6562SOL    HW120585   6.051   3.247   0.506
 6562SOL    HW220586   6.144   3.238   0.372
 6563SOL     OW20587   4.961   5.740   6.681
 6563SOL    HW120588   5.007   5.824   6.654
 6563SOL    HW220589   4.878   5.762   6.732
 6564SOL     OW20590   7.015   3.527   3.133
 6564SOL    HW120591   6.940   3.584   3.099
 6564SOL    HW220592   0.012   3.556   3.226
 6565SOL     OW20593   5.418   1.935   2.976
 6565SOL    HW120594   5.379   1.847   3.001
 6565SOL    HW220595   5.514   1.938   3.002
 6566SOL     OW20596   4.106   6.290   1.998
 6566SOL    HW120597   4.192   6.295   1.948
 6566SOL    HW220598   4.121   6.244   2.086
 6567SOL     OW20599   4.863   0.915   2.931
 6567SOL    HW120600   4.944   0.916   2.990
 6567SOL    HW220601   4.878   0.976   2.853
 6568SOL     OW20602   2.753   1.180   3.679
 6568SOL    HW120603   2.826   1.126   3.721
 6568SOL    HW220604   2.742   1.152   3.584
 6569SOL     OW20605   2.814   3.349   0.214
 6569SOL    HW120606   2.909   3.368   0.237
 6569SOL    HW220607   2.771   3.299   0.289
 6570SOL     OW20608   3.479   0.739   2.242
 6570SOL    HW120609   3.533   0.810   2.196
 6570SOL    HW220610   3.388   0.734   2.202
 6571SOL     OW20611   3.261   5.346   1.708
 6571SOL    HW120612   3.203   5.337   1.627
 6571SOL    HW220613   3.232   5.282   1.779
 6572SOL     OW20614   0.275   5.057   4.896
 6572SOL    HW120615   0.349   5.002   4.936
 6572SOL    HW220616   0.197   5.058   4.958
 6573SOL     OW20617   1.528   1.948   2.554
 6573SOL    HW120618   1.465   1.951   2.632
 6573SOL    HW220619   1.534   2.038   2.512
 6574SOL     OW20620   2.523   5.326   2.248
 6574SOL    HW120621   2.614   5.364   2.234
 6574SOL    HW220622   2.463   5.396   2.286
 6575SOL     OW20623   0.857   0.116   2.974
 6575SOL    HW120624   0.831   0.024   3.003
 6575SOL    HW220625   0.781   0.157   2.922
 6576SOL     OW20626   2.179   6.355   6.926
 6576SOL    HW120627   2.095   6.309   6.896
 6576SOL    HW220628   2.167   6.387   7.020
 6577SOL     OW20629   0.897   1.905   4.387
 6577SOL    HW120630   0.996   1.890   4.382
 6577SOL    HW220631   0.854   1.828   4.436
 6578SOL     OW20632   0.651   5.727   3.241
 6578SOL    HW120633   0.743   5.753   3.270
 6578SOL    HW220634   0.647   5.727   3.141
 6579SOL     OW20635   7.005   3.460   4.272
 6579SOL    HW120636   0.056   3.421   4.322
 6579SOL    HW220637   0.009   3.493   4.183
 6580SOL     OW20638   0.798   2.252   0.919
 6580SOL    HW120639   0.877   2.301   0.881
 6580SOL    HW220640   0.766   2.299   1.001
 6581SOL     OW20641   3.003   0.822   0.172
 6581SOL    HW120642   2.962   0.737   0.205
 6581SOL    HW220643   2.938   0.898   0.186
 6582SOL     OW20644   0.570   1.454   3.691
 6582SOL    HW120645   0.478   1.482   3.720
 6582SOL    HW220646   0.566   1.418   3.598
 6583SOL     OW20647   4.473   0.100   5.583
 6583SOL    HW120648   4.533   0.049   5.644
 6583SOL    HW220649   4.478   0.198   5.605
 6584SOL     OW20650   4.838   2.518   1.288
 6584SOL    HW120651   4.841   2.615   1.263
 6584SOL    HW220652   4.870   2.463   1.210
 6585SOL     OW20653   6.541   6.527   6.714
 6585SOL    HW120654   6.616   6.498   6.773
 6585SOL    HW220655   6.484   6.594   6.763
 6586SOL     OW20656   5.631   0.699   5.223
 6586SOL    HW120657   5.596   0.793   5.215
 6586SOL    HW220658   5.568   0.645   5.280
 6587SOL     OW20659   1.899   5.731   5.581
 6587SOL    HW120660   1.911   5.774   5.670
 6587SOL    HW220661   1.817   5.674   5.582
 6588SOL     OW20662   0.800   3.114   1.816
 6588SOL    HW120663   0.820   3.159   1.730
 6588SOL    HW220664   0.771   3.182   1.883
 6589SOL     OW20665   4.959   0.813   0.615
 6589SOL    HW120666   4.894   0.809   0.540
 6589SOL    HW220667   4.942   0.737   0.678
 6590SOL     OW20668   0.129   1.228   6.046
 6590SOL    HW120669   0.071   1.296   6.091
 6590SOL    HW220670   0.179   1.271   5.971
 6591SOL     OW20671   6.126   5.319   2.449
 6591SOL    HW120672   6.205   5.378   2.466
 6591SOL    HW220673   6.113   5.309   2.350
 6592SOL     OW20674   5.256   6.788   3.214
 6592SOL    HW120675   5.314   6.796   3.294
 6592SOL    HW220676   5.292   6.845   3.140
 6593SOL     OW20677   1.981   2.221   2.784
 6593SOL    HW120678   2.019   2.237   2.875
 6593SOL    HW220679   1.895   2.170   2.792
 6594SOL     OW20680   3.717   1.629   0.026
 6594SOL    HW120681   3.640   1.570   0.050
 6594SOL    HW220682   3.684   1.718   7.025
 6595SOL     OW20683   1.217   4.278   6.611
 6595SOL    HW120684   1.171   4.197   6.574
 6595SOL    HW220685   1.315   4.271   6.595
 6596SOL     OW20686   3.227   6.521   4.619
 6596SOL    HW120687   3.264   6.479   4.535
 6596SOL    HW220688   3.149   6.467   4.651
 6597SOL     OW20689   1.413   5.482   1.633
 6597SOL    HW120690   1.398   5.441   1.723
 6597SOL    HW220691   1.373   5.425   1.562
 6598SOL     OW20692   1.229   6.083   4.432
 6598SOL    HW120693   1.220   5.985   4.419
 6598SOL    HW220694   1.291   6.121   4.362
 6599SOL     OW20695   4.380   6.267   6.463
 6599SOL    HW120696   4.298   6.310   6.501
 6599SOL    HW220697   4.412   6.196   6.525
 6600SOL     OW20698   4.550   5.473   5.391
 6600SOL    HW120699   4.591   5.397   5.442
 6600SOL    HW220700   4.521   5.544   5.456
 6601SOL     OW20701   1.622   2.167   5.029
 6601SOL    HW120702   1.663   2.081   5.000
 6601SOL    HW220703   1.643   2.185   5.125
 6602SOL     OW20704   1.479   0.917   2.275
 6602SOL    HW120705   1.405   0.907   2.208
 6602SOL    HW220706   1.525   1.004   2.260
 6603SOL     OW20707   6.976   2.671   3.670
 6603SOL    HW120708   6.998   2.606   3.597
 6603SOL    HW220709   6.902   2.634   3.726
 6604SOL     OW20710   1.551   0.629   0.691
 6604SOL    HW120711   1.467   0.614   0.743
 6604SOL    HW220712   1.580   0.543   0.649
 6605SOL     OW20713   5.110   4.812   1.669
 6605SOL    HW120714   5.129   4.902   1.629
 6605SOL    HW220715   5.196   4.766   1.691
 6606SOL     OW20716   0.608   5.746   2.289
 6606SOL    HW120717   0.527   5.754   2.231
 6606SOL    HW220718   0.639   5.651   2.291
 6607SOL     OW20719   1.996   3.752   2.305
 6607SOL    HW120720   2.016   3.659   2.275
 6607SOL    HW220721   2.026   3.817   2.235
 6608SOL     OW20722   6.262   6.304   0.759
 6608SOL    HW120723   6.303   6.395   0.750
 6608SOL    HW220724   6.315   6.251   0.825
 6609SOL     OW20725   4.974   0.887   6.196
 6609SOL    HW120726   5.020   0.976   6.192
 6609SOL    HW220727   4.939   0.872   6.288
 6610SOL     OW20728   2.315   6.454   6.673
 6610SOL    HW120729   2.266   6.366   6.676
 6610SOL    HW220730   2.413   6.437   6.667
 6611SOL     OW20731   4.805   2.784   3.829
 6611SOL    HW120732   4.879   2.847   3.807
 6611SOL    HW220733   4.739   2.783   3.754
 6612SOL     OW20734   6.171   1.910   5.941
 6612SOL    HW120735   6.250   1.848   5.937
 6612SOL    HW220736   6.092   1.861   5.978
 6613SOL     OW20737   6.274   6.525   5.131
 6613SOL    HW120738   6.215   6.568   5.200
 6613SOL    HW220739   6.234   6.439   5.101
 6614SOL     OW20740   4.672   5.590   0.308
 6614SOL    HW120741   4.715   5.567   0.220
 6614SOL    HW220742   4.602   5.523   0.330
 6615SOL     OW20743   1.607   5.774   1.603
 6615SOL    HW120744   1.589   5.870   1.622
 6615SOL    HW220745   1.648   5.731   1.684
 6616SOL     OW20746   5.279   0.717   6.156
 6616SOL    HW120747   5.199   0.683   6.107
 6616SOL    HW220748   5.291   0.814   6.135
 6617SOL     OW20749   4.500   5.156   3.862
 6617SOL    HW120750   4.410   5.171   3.819
 6617SOL    HW220751   4.504   5.063   3.899
 6618SOL     OW20752   1.395   2.597   2.140
 6618SOL    HW120753   1.477   2.650   2.121
 6618SOL    HW220754   1.415   2.528   2.209
 6619SOL     OW20755   5.712   0.577   4.268
 6619SOL    HW120756   5.771   0.648   4.306
 6619SOL    HW220757   5.644   0.549   4.336
 6620SOL     OW20758   1.956   2.594   5.821
 6620SOL    HW120759   1.965   2.656   5.899
 6620SOL    HW220760   1.963   2.646   5.736
 6621SOL     OW20761   3.854   3.149   6.114
 6621SOL    HW120762   3.774   3.209   6.116
 6621SOL    HW220763   3.929   3.196   6.067
 6622SOL     OW20764   5.926   6.329   1.765
 6622SOL    HW120765   5.945   6.322   1.667
 6622SOL    HW220766   5.828   6.323   1.781
 6623SOL     OW20767   3.412   2.956   4.777
 6623SOL    HW120768   3.421   2.900   4.859
 6623SOL    HW220769   3.316   2.983   4.765
 6624SOL     OW20770   0.186   4.850   6.008
 6624SOL    HW120771   0.253   4.915   5.971
 6624SOL    HW220772   0.233   4.766   6.036
 6625SOL     OW20773   5.140   1.344   5.092
 6625SOL    HW120774   5.216   1.290   5.127
 6625SOL    HW220775   5.098   1.296   5.015
 6626SOL     OW20776   4.186   4.891   5.384
 6626SOL    HW120777   4.207   4.985   5.358
 6626SOL    HW220778   4.172   4.887   5.483
 6627SOL     OW20779   1.947   6.520   5.222
 6627SOL    HW120780   1.973   6.517   5.319
 6627SOL    HW220781   1.882   6.448   5.203
 6628SOL     OW20782   5.028   5.047   4.341
 6628SOL    HW120783   5.005   5.082   4.432
 6628SOL    HW220784   5.114   5.088   4.310
 6629SOL     OW20785   4.741   5.856   6.802
 6629SOL    HW120786   4.716   5.952   6.816
 6629SOL    HW220787   4.720   5.805   6.885
 6630SOL     OW20788   4.305   1.829   1.358
 6630SOL    HW120789   4.356   1.907   1.394
 6630SOL    HW220790   4.275   1.849   1.265
 6631SOL     OW20791   2.485   5.162   3.749
 6631SOL    HW120792   2.460   5.223   3.824
 6631SOL    HW220793   2.531   5.214   3.677
 6632SOL     OW20794   0.088   0.275   1.322
 6632SOL    HW120795   0.028   0.347   1.288
 6632SOL    HW220796   0.055   0.186   1.292
 6633SOL     OW20797   1.712   4.410   6.592
 6633SOL    HW120798   1.672   4.470   6.523
 6633SOL    HW220799   1.776   4.462   6.648
 6634SOL     OW20800   5.273   2.214   5.013
 6634SOL    HW120801   5.271   2.127   5.062
 6634SOL    HW220802   5.258   2.289   5.077
 6635SOL     OW20803   4.598   4.831   2.954
 6635SOL    HW120804   4.575   4.856   3.048
 6635SOL    HW220805   4.525   4.864   2.893
 6636SOL     OW20806   4.643   1.513   5.997
 6636SOL    HW120807   4.659   1.569   6.078
 6636SOL    HW220808   4.611   1.570   5.922
 6637SOL     OW20809   1.153   6.820   6.947
 6637SOL    HW120810   1.205   6.850   7.026
 6637SOL    HW220811   1.060   6.858   6.951
 6638SOL     OW20812   2.974   3.805   3.232
 6638SOL    HW120813   2.977   3.859   3.147
 6638SOL    HW220814   3.010   3.714   3.214
 6639SOL     OW20815   5.265   5.040   6.332
 6639SOL    HW120816   5.226   4.952   6.360
 6639SOL    HW220817   5.239   5.059   6.237
 6640SOL     OW20818   0.849   1.692   5.050
 6640SOL    HW120819   0.824   1.758   4.979
 6640SOL    HW220820   0.885   1.740   5.130
 6641SOL     OW20821   2.584   1.409   5.851
 6641SOL    HW120822   2.548   1.326   5.808
 6641SOL    HW220823   2.676   1.391   5.887
 6642SOL     OW20824   1.844   5.801   6.874
 6642SOL    HW120825   1.800   5.801   6.784
 6642SOL    HW220826   1.819   5.883   6.924
 6643SOL     OW20827   6.134   5.412   0.454
 6643SOL    HW120828   6.196   5.408   0.376
 6643SOL    HW220829   6.187   5.422   0.538
 6644SOL     OW20830   2.498   5.721   1.265
 6644SOL    HW120831   2.402   5.737   1.290
 6644SOL    HW220832   2.557   5.745   1.342
 6645SOL     OW20833   6.298   4.553   0.420
 6645SOL    HW120834   6.361   4.622   0.455
 6645SOL    HW220835   6.349   4.472   0.391
 6646SOL     OW20836   3.708   0.506   4.866
 6646SOL    HW120837   3.635   0.575   4.869
 6646SOL    HW220838   3.774   0.524   4.940
 6647SOL     OW20839   5.243   1.130   0.904
 6647SOL    HW120840   5.179   1.175   0.842
 6647SOL    HW220841   5.193   1.087   0.979
 6648SOL     OW20842   3.463   6.334   3.587
 6648SOL    HW120843   3.498   6.391   3.661
 6648SOL    HW220844   3.497   6.241   3.596
 6649SOL     OW20845   5.186   1.202   6.963
 6649SOL    HW120846   5.150   1.150   0.015
 6649SOL    HW220847   5.114   1.260   6.927
 6650SOL     OW20848   3.816   1.282   5.905
 6650SOL    HW120849   3.914   1.293   5.921
 6650SOL    HW220850   3.798   1.277   5.806
 6651SOL     OW20851   3.035   1.179   5.783
 6651SOL    HW120852   2.953   1.187   5.727
 6651SOL    HW220853   3.112   1.224   5.738
 6652SOL     OW20854   0.869   4.396   1.074
 6652SOL    HW120855   0.952   4.436   1.115
 6652SOL    HW220856   0.851   4.440   0.987
 6653SOL     OW20857   3.729   3.610   2.124
 6653SOL    HW120858   3.752   3.676   2.052
 6653SOL    HW220859   3.643   3.637   2.167
 6654SOL     OW20860   1.318   4.981   1.339
 6654SOL    HW120861   1.293   5.012   1.247
 6654SOL    HW220862   1.397   5.033   1.371
 6655SOL     OW20863   1.080   0.672   3.910
 6655SOL    HW120864   1.029   0.757   3.893
 6655SOL    HW220865   1.099   0.627   3.823
 6656SOL     OW20866   5.102   2.261   4.039
 6656SOL    HW120867   5.022   2.228   3.990
 6656SOL    HW220868   5.115   2.208   4.123
 6657SOL     OW20869   6.396   4.940   6.723
 6657SOL    HW120870   6.410   4.841   6.719
 6657SOL    HW220871   6.467   4.985   6.668
 6658SOL     OW20872   6.744   0.704   4.676
 6658SOL    HW120873   6.729   0.606   4.681
 6658SOL    HW220874   6.669   0.753   4.720
 6659SOL     OW20875   2.054   3.608   0.439
 6659SOL    HW120876   2.058   3.565   0.529
 6659SOL    HW220877   1.959   3.632   0.418
 6660SOL     OW20878   1.373   5.477   1.264
 6660SOL    HW120879   1.337   5.407   1.325
 6660SOL    HW220880   1.347   5.456   1.170
 6661SOL     OW20881   1.353   6.548   5.110
 6661SOL    HW120882   1.349   6.648   5.106
 6661SOL    HW220883   1.314   6.516   5.196
 6662SOL     OW20884   1.505   7.010   0.273
 6662SOL    HW120885   1.570   0.036   0.218
 6662SOL    HW220886   1.555   6.949   0.335
 6663SOL     OW20887   6.158   5.543   4.125
 6663SOL    HW120888   6.201   5.463   4.084
 6663SOL    HW220889   6.187   5.626   4.076
 6664SOL     OW20890   2.231   6.536   0.762
 6664SOL    HW120891   2.215   6.441   0.788
 6664SOL    HW220892   2.216   6.596   0.841
 6665SOL     OW20893   1.900   5.806   4.631
 6665SOL    HW120894   1.880   5.766   4.720
 6665SOL    HW220895   1.994   5.840   4.630
 6666SOL     OW20896   6.470   6.928   5.603
 6666SOL    HW120897   6.510   6.975   5.682
 6666SOL    HW220898   6.376   6.902   5.624
 6667SOL     OW20899   6.980   6.444   6.743
 6667SOL    HW120900   6.940   6.353   6.730
 6667SOL    HW220901   7.026   6.472   6.659
 6668SOL     OW20902   6.942   5.076   0.624
 6668SOL    HW120903   6.876   5.000   0.622
 6668SOL    HW220904   7.025   5.050   0.575
 6669SOL     OW20905   1.894   2.504   3.245
 6669SOL    HW120906   1.840   2.547   3.317
 6669SOL    HW220907   1.889   2.560   3.162
 6670SOL     OW20908   3.714   1.241   5.398
 6670SOL    HW120909   3.625   1.283   5.415
 6670SOL    HW220910   3.785   1.311   5.403
 6671SOL     OW20911   5.093   6.510   0.753
 6671SOL    HW120912   5.050   6.453   0.683
 6671SOL    HW220913   5.135   6.451   0.822
 6672SOL     OW20914   6.500   2.665   6.941
 6672SOL    HW120915   6.548   2.736   6.992
 6672SOL    HW220916   6.429   2.707   6.884
 6673SOL     OW20917   5.110   4.598   4.310
 6673SOL    HW120918   5.194   4.644   4.337
 6673SOL    HW220919   5.033   4.636   4.360
 6674SOL     OW20920   0.336   3.837   6.473
 6674SOL    HW120921   0.273   3.836   6.550
 6674SOL    HW220922   0.290   3.877   6.393
 6675SOL     OW20923   5.345   3.638   0.940
 6675SOL    HW120924   5.344   3.642   0.840
 6675SOL    HW220925   5.327   3.545   0.971
 6676SOL     OW20926   0.778   4.137   5.831
 6676SOL    HW120927   0.679   4.142   5.818
 6676SOL    HW220928   0.817   4.229   5.822
 6677SOL     OW20929   1.361   1.643   6.106
 6677SOL    HW120930   1.290   1.672   6.170
 6677SOL    HW220931   1.450   1.676   6.139
 6678SOL     OW20932   3.094   3.230   6.233
 6678SOL    HW120933   3.096   3.157   6.165
 6678SOL    HW220934   3.033   3.303   6.202
 6679SOL     OW20935   3.388   1.201   3.624
 6679SOL    HW120936   3.438   1.278   3.663
 6679SOL    HW220937   3.384   1.127   3.691
 6680SOL     OW20938   5.417   6.814   6.783
 6680SOL    HW120939   5.425   6.853   6.691
 6680SOL    HW220940   5.360   6.873   6.839
 6681SOL     OW20941   3.755   5.801   1.627
 6681SOL    HW120942   3.760   5.851   1.713
 6681SOL    HW220943   3.725   5.707   1.645
 6682SOL     OW20944   0.963   4.153   2.339
 6682SOL    HW120945   0.875   4.104   2.340
 6682SOL    HW220946   0.978   4.192   2.248
 6683SOL     OW20947   6.008   3.371   5.258
 6683SOL    HW120948   6.040   3.352   5.351
 6683SOL    HW220949   5.973   3.287   5.217
 6684SOL     OW20950   2.919   0.059   1.338
 6684SOL    HW120951   2.917   0.159   1.342
 6684SOL    HW220952   2.836   0.027   1.291
 6685SOL     OW20953   6.399   3.044   5.574
 6685SOL    HW120954   6.301   3.059   5.575
 6685SOL    HW220955   6.446   3.128   5.546
 6686SOL     OW20956   5.204   6.356   4.448
 6686SOL    HW120957   5.257   6.377   4.530
 6686SOL    HW220958   5.107   6.346   4.473
 6687SOL     OW20959   1.257   3.490   0.579
 6687SOL    HW120960   1.215   3.523   0.495
 6687SOL    HW220961   1.262   3.565   0.645
 6688SOL     OW20962   6.058   4.831   2.595
 6688SOL    HW120963   6.018   4.918   2.566
 6688SOL    HW220964   6.153   4.845   2.622
 6689SOL     OW20965   4.165   2.812   0.147
 6689SOL    HW120966   4.203   2.722   0.125
 6689SOL    HW220967   4.125   2.810   0.239
 6690SOL     OW20968   0.887   1.074   0.804
 6690SOL    HW120969   0.883   1.067   0.903
 6690SOL    HW220970   0.935   1.158   0.778
 6691SOL     OW20971   2.781   6.390   2.260
 6691SOL    HW120972   2.796   6.488   2.273
 6691SOL    HW220973   2.712   6.377   2.188
 6692SOL     OW20974   3.188   3.002   4.485
 6692SOL    HW120975   3.284   2.977   4.474
 6692SOL    HW220976   3.154   2.967   4.572
 6693SOL     OW20977   4.001   3.259   5.594
 6693SOL    HW120978   4.021   3.166   5.564
 6693SOL    HW220979   4.003   3.321   5.515
 6694SOL     OW20980   3.810   5.586   1.188
 6694SOL    HW120981   3.805   5.658   1.258
 6694SOL    HW220982   3.847   5.624   1.104
 6695SOL     OW20983   3.224   2.290   0.105
 6695SOL    HW120984   3.319   2.305   0.132
 6695SOL    HW220985   3.169   2.267   0.185
 6696SOL     OW20986   3.145   2.657   5.554
 6696SOL    HW120987   3.201   2.579   5.528
 6696SOL    HW220988   3.125   2.712   5.473
 6697SOL     OW20989   4.915   2.035   3.036
 6697SOL    HW120990   4.927   2.016   2.939
 6697SOL    HW220991   4.991   1.995   3.088
 6698SOL     OW20992   2.856   2.506   1.095
 6698SOL    HW120993   2.956   2.504   1.096
 6698SOL    HW220994   2.822   2.444   1.024
 6699SOL     OW20995   2.322   5.793   5.151
 6699SOL    HW120996   2.337   5.855   5.074
 6699SOL    HW220997   2.262   5.836   5.218
 6700SOL     OW20998   1.112   0.043   1.421
 6700SOL    HW120999   1.040   0.075   1.359
 6700SOL    HW221000   1.089   0.071   1.515
 6701SOL     OW21001   5.930   4.306   2.359
 6701SOL    HW121002   5.936   4.405   2.359
 6701SOL    HW221003   5.846   4.277   2.312
 6702SOL     OW21004   3.002   2.292   1.416
 6702SOL    HW121005   3.059   2.298   1.498
 6702SOL    HW221006   3.043   2.228   1.351
 6703SOL     OW21007   6.260   1.950   0.223
 6703SOL    HW121008   6.230   1.958   0.318
 6703SOL    HW221009   6.321   2.026   0.201
 6704SOL     OW21010   3.638   1.346   3.376
 6704SOL    HW121011   3.557   1.287   3.373
 6704SOL    HW221012   3.621   1.421   3.439
 6705SOL     OW21013   6.826   3.301   1.585
 6705SOL    HW121014   6.781   3.384   1.618
 6705SOL    HW221015   6.874   3.322   1.500
 6706SOL     OW21016   1.991   4.851   2.682
 6706SOL    HW121017   1.972   4.790   2.605
 6706SOL    HW221018   2.064   4.915   2.657
 6707SOL     OW21019   6.822   6.342   3.621
 6707SOL    HW121020   6.801   6.263   3.678
 6707SOL    HW221021   6.875   6.313   3.541
 6708SOL     OW21022   6.720   4.786   1.407
 6708SOL    HW121023   6.785   4.859   1.387
 6708SOL    HW221024   6.629   4.813   1.374
 6709SOL     OW21025   2.725   6.510   3.124
 6709SOL    HW121026   2.708   6.435   3.060
 6709SOL    HW221027   2.808   6.558   3.098
 6710SOL     OW21028   3.639   0.411   6.441
 6710SOL    HW121029   3.614   0.480   6.373
 6710SOL    HW221030   3.567   0.403   6.510
 6711SOL     OW21031   4.584   5.513   6.030
 6711SOL    HW121032   4.516   5.440   6.041
 6711SOL    HW221033   4.628   5.505   5.940
 6712SOL     OW21034   5.127   3.842   0.464
 6712SOL    HW121035   5.216   3.806   0.435
 6712SOL    HW221036   5.056   3.806   0.404
 6713SOL     OW21037   2.107   0.277   2.613
 6713SOL    HW121038   2.097   0.366   2.567
 6713SOL    HW221039   2.108   0.291   2.712
 6714SOL     OW21040   6.371   0.518   5.798
 6714SOL    HW121041   6.433   0.517   5.876
 6714SOL    HW221042   6.284   0.560   5.824
 6715SOL     OW21043   0.537   0.414   0.215
 6715SOL    HW121044   0.496   0.505   0.208
 6715SOL    HW221045   0.535   0.369   0.125
 6716SOL     OW21046   0.476   5.675   1.880
 6716SOL    HW121047   0.383   5.656   1.849
 6716SOL    HW221048   0.518   5.590   1.913
 6717SOL     OW21049   3.867   3.010   6.602
 6717SOL    HW121050   3.912   3.091   6.562
 6717SOL    HW221051   3.788   3.039   6.656
 6718SOL     OW21052   5.558   0.657   0.659
 6718SOL    HW121053   5.503   0.599   0.719
 6718SOL    HW221054   5.499   0.701   0.591
 6719SOL     OW21055   2.451   0.160   6.528
 6719SOL    HW121056   2.475   0.086   6.591
 6719SOL    HW221057   2.489   0.140   6.437
 6720SOL     OW21058   1.389   0.031   3.996
 6720SOL    HW121059   1.475   0.058   4.038
 6720SOL    HW221060   1.319   0.019   4.067
 6721SOL     OW21061   0.066   0.453   0.313
 6721SOL    HW121062   0.076   0.473   0.410
 6721SOL    HW221063   7.019   0.508   0.275
 6722SOL     OW21064   6.698   2.908   1.865
 6722SOL    HW121065   6.653   2.910   1.954
 6722SOL    HW221066   6.665   2.984   1.809
 6723SOL     OW21067   2.323   6.146   2.929
 6723SOL    HW121068   2.361   6.195   3.008
 6723SOL    HW221069   2.279   6.212   2.868
 6724SOL     OW21070   2.061   3.391   6.153
 6724SOL    HW121071   2.020   3.363   6.066
 6724SOL    HW221072   2.152   3.429   6.136
 6725SOL     OW21073   0.035   3.293   1.742
 6725SOL    HW121074   7.000   3.307   1.664
 6725SOL    HW221075   0.051   3.380   1.788
 6726SOL     OW21076   0.377   2.376   5.668
 6726SOL    HW121077   0.365   2.325   5.582
 6726SOL    HW221078   0.456   2.339   5.717
 6727SOL     OW21079   6.961   4.109   4.908
 6727SOL    HW121080   6.875   4.062   4.885
 6727SOL    HW221081   6.949   4.207   4.897
 6728SOL     OW21082   3.697   1.794   2.779
 6728SOL    HW121083   3.708   1.892   2.768
 6728SOL    HW221084   3.605   1.774   2.813
 6729SOL     OW21085   6.913   1.339   3.272
 6729SOL    HW121086   6.876   1.303   3.358
 6729SOL    HW221087   7.006   1.372   3.287
 6730SOL     OW21088   2.223   6.890   0.984
 6730SOL    HW121089   2.125   6.899   0.964
 6730SOL    HW221090   2.243   6.935   1.071
 6731SOL     OW21091   0.586   6.211   1.237
 6731SOL    HW121092   0.596   6.234   1.140
 6731SOL    HW221093   0.517   6.139   1.247
 6732SOL     OW21094   5.633   4.469   4.520
 6732SOL    HW121095   5.535   4.474   4.538
 6732SOL    HW221096   5.648   4.454   4.422
 6733SOL     OW21097   4.130   5.845   0.072
 6733SOL    HW121098   4.163   5.768   0.017
 6733SOL    HW221099   4.030   5.845   0.073
 6734SOL     OW21100   6.101   2.491   4.341
 6734SOL    HW121101   6.105   2.564   4.409
 6734SOL    HW221102   6.082   2.404   4.386
 6735SOL     OW21103   0.054   4.460   5.006
 6735SOL    HW121104   0.017   4.475   5.097
 6735SOL    HW221105   0.112   4.378   5.006
 6736SOL     OW21106   2.810   3.416   6.987
 6736SOL    HW121107   2.713   3.433   6.967
 6736SOL    HW221108   2.819   3.378   0.052
 6737SOL     OW21109   1.462   2.619   0.740
 6737SOL    HW121110   1.449   2.641   0.643
 6737SOL    HW221111   1.447   2.522   0.754
 6738SOL     OW21112   1.891   6.112   3.031
 6738SOL    HW121113   1.928   6.053   2.959
 6738SOL    HW221114   1.915   6.207   3.012
 6739SOL     OW21115   3.336   5.807   5.292
 6739SOL    HW121116   3.390   5.847   5.367
 6739SOL    HW221117   3.383   5.726   5.257
 6740SOL     OW21118   1.607   0.128   4.481
 6740SOL    HW121119   1.639   0.089   4.567
 6740SOL    HW221120   1.634   0.224   4.476
 6741SOL     OW21121   4.235   1.423   5.627
 6741SOL    HW121122   4.332   1.447   5.625
 6741SOL    HW221123   4.199   1.441   5.719
 6742SOL     OW21124   6.224   6.272   2.892
 6742SOL    HW121125   6.283   6.233   2.821
 6742SOL    HW221126   6.278   6.288   2.975
 6743SOL     OW21127   3.823   5.767   0.441
 6743SOL    HW121128   3.842   5.694   0.507
 6743SOL    HW221129   3.894   5.769   0.372
 6744SOL     OW21130   5.791   4.144   5.836
 6744SOL    HW121131   5.789   4.181   5.929
 6744SOL    HW221132   5.843   4.059   5.836
 6745SOL     OW21133   6.642   0.073   3.044
 6745SOL    HW121134   6.611   0.167   3.036
 6745SOL    HW221135   6.595   0.029   3.121
 6746SOL     OW21136   0.480   1.479   4.043
 6746SOL    HW121137   0.455   1.398   4.096
 6746SOL    HW221138   0.580   1.486   4.039
 6747SOL     OW21139   5.520   1.181   5.037
 6747SOL    HW121140   5.422   1.185   5.060
 6747SOL    HW221141   5.570   1.239   5.101
 6748SOL     OW21142   2.438   1.091   3.687
 6748SOL    HW121143   2.458   1.143   3.604
 6748SOL    HW221144   2.461   0.995   3.672
 6749SOL     OW21145   2.847   5.681   0.610
 6749SOL    HW121146   2.943   5.679   0.641
 6749SOL    HW221147   2.827   5.598   0.559
 6750SOL     OW21148   4.055   2.190   4.885
 6750SOL    HW121149   4.084   2.099   4.916
 6750SOL    HW221150   4.114   2.260   4.926
 6751SOL     OW21151   4.036   0.097   3.332
 6751SOL    HW121152   4.080   0.022   3.283
 6751SOL    HW221153   4.099   0.136   3.399
 6752SOL     OW21154   0.676   1.697   3.078
 6752SOL    HW121155   0.706   1.791   3.067
 6752SOL    HW221156   0.731   1.637   3.019
 6753SOL     OW21157   3.284   0.637   6.549
 6753SOL    HW121158   3.353   0.704   6.574
 6753SOL    HW221159   3.218   0.679   6.487
 6754SOL     OW21160   0.659   1.857   0.312
 6754SOL    HW121161   0.647   1.934   0.249
 6754SOL    HW221162   0.612   1.777   0.275
 6755SOL     OW21163   4.210   0.693   3.274
 6755SOL    HW121164   4.263   0.753   3.333
 6755SOL    HW221165   4.255   0.684   3.185
 6756SOL     OW21166   3.998   4.582   5.305
 6756SOL    HW121167   4.001   4.677   5.273
 6756SOL    HW221168   3.915   4.566   5.358
 6757SOL     OW21169   4.748   1.859   1.478
 6757SOL    HW121170   4.769   1.862   1.576
 6757SOL    HW221171   4.800   1.930   1.430
 6758SOL     OW21172   6.598   1.939   1.784
 6758SOL    HW121173   6.601   1.915   1.881
 6758SOL    HW221174   6.520   2.000   1.768
 6759SOL     OW21175   0.705   4.310   4.943
 6759SOL    HW121176   0.728   4.224   4.896
 6759SOL    HW221177   0.644   4.364   4.885
 6760SOL     OW21178   6.529   4.202   2.709
 6760SOL    HW121179   6.430   4.219   2.706
 6760SOL    HW221180   6.577   4.287   2.688
 6761SOL     OW21181   6.501   2.260   6.211
 6761SOL    HW121182   6.432   2.211   6.265
 6761SOL    HW221183   6.591   2.219   6.227
 6762SOL     OW21184   0.599   5.778   4.248
 6762SOL    HW121185   0.592   5.777   4.148
 6762SOL    HW221186   0.510   5.757   4.289
 6763SOL     OW21187   0.510   4.945   2.766
 6763SOL    HW121188   0.420   4.985   2.782
 6763SOL    HW221189   0.505   4.881   2.689
 6764SOL     OW21190   2.002   4.741   0.384
 6764SOL    HW121191   1.990   4.664   0.322
 6764SOL    HW221192   1.978   4.826   0.337
 6765SOL     OW21193   5.565   3.833   3.278
 6765SOL    HW121194   5.579   3.879   3.365
 6765SOL    HW221195   5.473   3.792   3.276
 6766SOL     OW21196   4.989   6.453   6.234
 6766SOL    HW121197   5.005   6.529   6.297
 6766SOL    HW221198   5.073   6.399   6.226
 6767SOL     OW21199   1.517   2.527   1.085
 6767SOL    HW121200   1.563   2.438   1.087
 6767SOL    HW221201   1.456   2.532   1.005
 6768SOL     OW21202   1.317   6.639   3.848
 6768SOL    HW121203   1.415   6.650   3.831
 6768SOL    HW221204   1.303   6.582   3.928
 6769SOL     OW21205   2.534   0.377   5.250
 6769SOL    HW121206   2.543   0.418   5.159
 6769SOL    HW221207   2.530   0.449   5.319
 6770SOL     OW21208   4.737   2.099   3.428
 6770SOL    HW121209   4.818   2.156   3.411
 6770SOL    HW221210   4.764   2.002   3.430
 6771SOL     OW21211   4.175   1.095   2.333
 6771SOL    HW121212   4.116   1.141   2.399
 6771SOL    HW221213   4.135   1.101   2.242
 6772SOL     OW21214   4.484   2.348   2.409
 6772SOL    HW121215   4.529   2.430   2.445
 6772SOL    HW221216   4.532   2.318   2.326
 6773SOL     OW21217   0.783   6.508   2.181
 6773SOL    HW121218   0.729   6.435   2.140
 6773SOL    HW221219   0.782   6.588   2.122
 6774SOL     OW21220   2.052   3.536   4.819
 6774SOL    HW121221   1.957   3.514   4.798
 6774SOL    HW221222   2.071   3.631   4.796
 6775SOL     OW21223   1.489   2.768   3.322
 6775SOL    HW121224   1.475   2.798   3.417
 6775SOL    HW221225   1.405   2.724   3.289
 6776SOL     OW21226   4.243   3.474   0.494
 6776SOL    HW121227   4.242   3.491   0.395
 6776SOL    HW221228   4.157   3.430   0.521
 6777SOL     OW21229   4.800   5.032   1.081
 6777SOL    HW121230   4.719   5.043   1.023
 6777SOL    HW221231   4.881   5.061   1.030
 6778SOL     OW21232   6.877   4.850   1.939
 6778SOL    HW121233   6.820   4.883   1.864
 6778SOL    HW221234   6.947   4.918   1.961
 6779SOL     OW21235   5.803   4.837   6.291
 6779SOL    HW121236   5.815   4.932   6.261
 6779SOL    HW221237   5.762   4.837   6.382
 6780SOL     OW21238   1.129   2.844   2.671
 6780SOL    HW121239   1.051   2.830   2.731
 6780SOL    HW221240   1.097   2.875   2.581
 6781SOL     OW21241   6.219   1.292   4.811
 6781SOL    HW121242   6.122   1.271   4.824
 6781SOL    HW221243   6.249   1.357   4.881
 6782SOL     OW21244   1.007   1.336   3.399
 6782SOL    HW121245   1.097   1.300   3.376
 6782SOL    HW221246   1.010   1.435   3.403
 6783SOL     OW21247   0.852   1.817   5.684
 6783SOL    HW121248   0.771   1.873   5.697
 6783SOL    HW221249   0.826   1.721   5.676
 6784SOL     OW21250   2.431   4.013   0.463
 6784SOL    HW121251   2.421   3.991   0.560
 6784SOL    HW221252   2.462   3.932   0.413
 6785SOL     OW21253   5.951   5.149   5.085
 6785SOL    HW121254   6.024   5.218   5.079
 6785SOL    HW221255   5.958   5.087   5.006
 6786SOL     OW21256   1.090   2.336   0.325
 6786SOL    HW121257   1.071   2.243   0.356
 6786SOL    HW221258   1.188   2.345   0.303
 6787SOL     OW21259   3.435   3.657   0.374
 6787SOL    HW121260   3.433   3.601   0.291
 6787SOL    HW221261   3.346   3.701   0.387
 6788SOL     OW21262   0.900   4.668   2.095
 6788SOL    HW121263   0.840   4.660   2.174
 6788SOL    HW221264   0.946   4.581   2.078
 6789SOL     OW21265   0.292   4.773   3.780
 6789SOL    HW121266   0.328   4.763   3.873
 6789SOL    HW221267   0.351   4.724   3.716
 6790SOL     OW21268   0.977   3.447   0.158
 6790SOL    HW121269   0.945   3.363   0.114
 6790SOL    HW221270   1.047   3.423   0.226
 6791SOL     OW21271   3.832   2.123   2.254
 6791SOL    HW121272   3.785   2.161   2.175
 6791SOL    HW221273   3.803   2.173   2.336
 6792SOL     OW21274   5.318   6.978   5.228
 6792SOL    HW121275   5.413   6.949   5.217
 6792SOL    HW221276   5.316   0.047   5.259
 6793SOL     OW21277   2.629   1.004   6.589
 6793SOL    HW121278   2.576   0.957   6.660
 6793SOL    HW221279   2.613   0.959   6.501
 6794SOL     OW21280   5.680   1.289   5.247
 6794SOL    HW121281   5.720   1.261   5.334
 6794SOL    HW221282   5.707   1.383   5.226
 6795SOL     OW21283   1.076   6.076   1.540
 6795SOL    HW121284   1.010   6.036   1.477
 6795SOL    HW221285   1.066   6.176   1.541
 6796SOL     OW21286   6.339   0.893   3.040
 6796SOL    HW121287   6.332   0.906   2.941
 6796SOL    HW221288   6.261   0.938   3.085
 6797SOL     OW21289   0.258   2.182   1.888
 6797SOL    HW121290   0.242   2.259   1.949
 6797SOL    HW221291   0.200   2.192   1.807
 6798SOL     OW21292   6.309   6.436   1.606
 6798SOL    HW121293   6.393   6.487   1.621
 6798SOL    HW221294   6.278   6.449   1.512
 6799SOL     OW21295   6.105   0.845   2.103
 6799SOL    HW121296   6.110   0.768   2.039
 6799SOL    HW221297   6.196   0.881   2.118
 6800SOL     OW21298   2.305   2.725   2.182
 6800SOL    HW121299   2.261   2.781   2.252
 6800SOL    HW221300   2.305   2.774   2.095
 6801SOL     OW21301   1.218   0.538   3.312
 6801SOL    HW121302   1.255   0.543   3.405
 6801SOL    HW221303   1.140   0.599   3.303
 6802SOL     OW21304   3.483   5.839   1.802
 6802SOL    HW121305   3.484   5.791   1.714
 6802SOL    HW221306   3.532   5.785   1.870
 6803SOL     OW21307   4.344   4.034   6.598
 6803SOL    HW121308   4.340   3.934   6.592
 6803SOL    HW221309   4.258   4.069   6.636
 6804SOL     OW21310   3.798   5.145   3.165
 6804SOL    HW121311   3.775   5.236   3.128
 6804SOL    HW221312   3.877   5.108   3.116
 6805SOL     OW21313   0.865   4.189   6.275
 6805SOL    HW121314   0.925   4.150   6.205
 6805SOL    HW221315   0.802   4.253   6.232
 6806SOL     OW21316   6.408   1.462   3.266
 6806SOL    HW121317   6.465   1.418   3.335
 6806SOL    HW221318   6.363   1.542   3.306
 6807SOL     OW21319   3.252   3.192   1.688
 6807SOL    HW121320   3.309   3.119   1.651
 6807SOL    HW221321   3.156   3.165   1.686
 6808SOL     OW21322   6.734   2.153   5.782
 6808SOL    HW121323   6.783   2.207   5.850
 6808SOL    HW221324   6.636   2.160   5.799
 6809SOL     OW21325   6.535   3.471   1.204
 6809SOL    HW121326   6.528   3.567   1.231
 6809SOL    HW221327   6.594   3.463   1.123
 6810SOL     OW21328   3.255   1.267   2.351
 6810SOL    HW121329   3.279   1.255   2.447
 6810SOL    HW221330   3.290   1.354   2.319
 6811SOL     OW21331   6.142   3.608   2.123
 6811SOL    HW121332   6.224   3.613   2.181
 6811SOL    HW221333   6.060   3.606   2.180
 6812SOL     OW21334   3.208   3.923   5.047
 6812SOL    HW121335   3.110   3.934   5.031
 6812SOL    HW221336   3.250   3.874   4.971
 6813SOL     OW21337   5.587   3.425   2.560
 6813SOL    HW121338   5.502   3.468   2.531
 6813SOL    HW221339   5.593   3.333   2.522
 6814SOL     OW21340   4.232   1.899   6.150
 6814SOL    HW121341   4.300   1.954   6.101
 6814SOL    HW221342   4.252   1.802   6.138
 6815SOL     OW21343   2.300   6.114   7.022
 6815SOL    HW121344   2.351   6.078   6.944
 6815SOL    HW221345   2.246   6.194   6.993
 6816SOL     OW21346   6.716   0.730   5.505
 6816SOL    HW121347   6.647   0.659   5.500
 6816SOL    HW221348   6.677   0.811   5.550
 6817SOL     OW21349   2.377   2.728   3.794
 6817SOL    HW121350   2.368   2.820   3.834
 6817SOL    HW221351   2.424   2.734   3.706
 6818SOL     OW21352   2.045   6.275   0.716
 6818SOL    HW121353   1.970   6.340   0.724
 6818SOL    HW221354   2.097   6.274   0.802
 6819SOL     OW21355   4.168   1.429   2.894
 6819SOL    HW121356   4.097   1.480   2.942
 6819SOL    HW221357   4.127   1.376   2.820
 6820SOL     OW21358   1.967   5.918   1.318
 6820SOL    HW121359   1.929   5.956   1.402
 6820SOL    HW221360   2.003   5.993   1.262
 6821SOL     OW21361   3.986   2.499   5.373
 6821SOL    HW121362   4.061   2.504   5.307
 6821SOL    HW221363   3.964   2.403   5.391
 6822SOL     OW21364   5.926   2.040   5.533
 6822SOL    HW121365   5.947   2.104   5.606
 6822SOL    HW221366   5.876   2.086   5.460
 6823SOL     OW21367   5.428   3.908   5.929
 6823SOL    HW121368   5.475   3.942   6.010
 6823SOL    HW221369   5.341   3.866   5.956
 6824SOL     OW21370   0.944   1.642   0.658
 6824SOL    HW121371   1.001   1.662   0.737
 6824SOL    HW221372   0.882   1.718   0.641
 6825SOL     OW21373   5.760   0.329   6.976
 6825SOL    HW121374   5.726   0.417   6.942
 6825SOL    HW221375   5.839   0.301   6.922
 6826SOL     OW21376   1.911   3.560   3.652
 6826SOL    HW121377   1.913   3.469   3.692
 6826SOL    HW221378   1.902   3.553   3.553
 6827SOL     OW21379   5.198   5.058   6.087
 6827SOL    HW121380   5.134   5.118   6.039
 6827SOL    HW221381   5.220   4.980   6.029
 6828SOL     OW21382   3.788   1.516   1.537
 6828SOL    HW121383   3.760   1.519   1.633
 6828SOL    HW221384   3.780   1.607   1.497
 6829SOL     OW21385   5.475   6.036   6.014
 6829SOL    HW121386   5.398   6.027   5.951
 6829SOL    HW221387   5.542   6.100   5.976
 6830SOL     OW21388   5.555   0.573   3.283
 6830SOL    HW121389   5.554   0.473   3.279
 6830SOL    HW221390   5.642   0.607   3.245
 6831SOL     OW21391   1.922   1.504   6.082
 6831SOL    HW121392   1.891   1.595   6.054
 6831SOL    HW221393   1.990   1.471   6.017
 6832SOL     OW21394   2.163   4.161   0.753
 6832SOL    HW121395   2.150   4.134   0.658
 6832SOL    HW221396   2.100   4.236   0.776
 6833SOL     OW21397   2.438   4.893   0.085
 6833SOL    HW121398   2.490   4.872   0.003
 6833SOL    HW221399   2.347   4.927   0.060
 6834SOL     OW21400   6.701   0.070   0.643
 6834SOL    HW121401   6.644   7.015   0.634
 6834SOL    HW221402   6.759   0.079   0.562
 6835SOL     OW21403   4.052   1.190   4.514
 6835SOL    HW121404   3.996   1.132   4.454
 6835SOL    HW221405   3.995   1.225   4.589
 6836SOL     OW21406   2.950   4.707   6.618
 6836SOL    HW121407   3.007   4.789   6.614
 6836SOL    HW221408   2.967   4.659   6.704
 6837SOL     OW21409   0.654   2.494   3.397
 6837SOL    HW121410   0.730   2.465   3.339
 6837SOL    HW221411   0.639   2.593   3.385
 6838SOL     OW21412   3.109   6.032   6.300
 6838SOL    HW121413   3.193   6.082   6.282
 6838SOL    HW221414   3.106   6.006   6.396
 6839SOL     OW21415   5.394   0.907   5.384
 6839SOL    HW121416   5.471   0.870   5.435
 6839SOL    HW221417   5.413   0.902   5.286
 6840SOL     OW21418   3.362   6.772   4.687
 6840SOL    HW121419   3.347   6.686   4.639
 6840SOL    HW221420   3.372   6.754   4.785
 6841SOL     OW21421   3.685   4.781   0.372
 6841SOL    HW121422   3.749   4.706   0.388
 6841SOL    HW221423   3.644   4.808   0.460
 6842SOL     OW21424   2.527   2.928   0.784
 6842SOL    HW121425   2.428   2.935   0.789
 6842SOL    HW221426   2.557   2.847   0.835
 6843SOL     OW21427   5.592   0.282   1.742
 6843SOL    HW121428   5.513   0.342   1.738
 6843SOL    HW221429   5.587   0.224   1.823
 6844SOL     OW21430   5.578   0.032   3.645
 6844SOL    HW121431   5.483   0.012   3.623
 6844SOL    HW221432   5.590   0.131   3.655
 6845SOL     OW21433   5.582   5.107   2.900
 6845SOL    HW121434   5.584   5.025   2.842
 6845SOL    HW221435   5.666   5.110   2.954
 6846SOL     OW21436   4.268   3.308   1.078
 6846SOL    HW121437   4.364   3.318   1.051
 6846SOL    HW221438   4.213   3.282   0.999
 6847SOL     OW21439   6.785   4.778   2.978
 6847SOL    HW121440   6.725   4.739   3.047
 6847SOL    HW221441   6.856   4.833   3.023
 6848SOL     OW21442   3.444   6.488   3.836
 6848SOL    HW121443   3.398   6.413   3.883
 6848SOL    HW221444   3.463   6.561   3.902
 6849SOL     OW21445   3.382   5.369   5.049
 6849SOL    HW121446   3.323   5.332   5.121
 6849SOL    HW221447   3.408   5.296   4.987
 6850SOL     OW21448   5.750   3.675   2.057
 6850SOL    HW121449   5.669   3.640   2.011
 6850SOL    HW221450   5.826   3.677   1.992
 6851SOL     OW21451   0.874   2.712   3.562
 6851SOL    HW121452   0.932   2.789   3.588
 6851SOL    HW221453   0.830   2.731   3.474
 6852SOL     OW21454   1.701   4.958   0.623
 6852SOL    HW121455   1.739   4.929   0.710
 6852SOL    HW221456   1.608   4.991   0.637
 6853SOL     OW21457   6.803   3.799   6.898
 6853SOL    HW121458   6.827   3.873   6.834
 6853SOL    HW221459   6.720   3.825   6.948
 6854SOL     OW21460   4.767   1.860   5.894
 6854SOL    HW121461   4.847   1.805   5.872
 6854SOL    HW221462   4.785   1.916   5.975
 6855SOL     OW21463   3.052   5.679   3.264
 6855SOL    HW121464   3.053   5.649   3.169
 6855SOL    HW221465   3.126   5.633   3.314
 6856SOL     OW21466   4.779   4.006   5.596
 6856SOL    HW121467   4.822   4.003   5.506
 6856SOL    HW221468   4.686   3.970   5.590
 6857SOL     OW21469   3.101   2.366   6.908
 6857SOL    HW121470   3.166   2.358   6.833
 6857SOL    HW221471   3.147   2.343   6.994
 6858SOL     OW21472   3.661   3.698   4.096
 6858SOL    HW121473   3.662   3.628   4.168
 6858SOL    HW221474   3.726   3.770   4.118
 6859SOL     OW21475   0.598   0.791   0.938
 6859SOL    HW121476   0.526   0.821   1.001
 6859SOL    HW221477   0.557   0.757   0.854
 6860SOL     OW21478   6.387   5.283   0.869
 6860SOL    HW121479   6.422   5.190   0.859
 6860SOL    HW221480   6.329   5.288   0.950
 6861SOL     OW21481   5.013   3.860   0.710
 6861SOL    HW121482   5.050   3.857   0.617
 6861SOL    HW221483   5.029   3.772   0.754
 6862SOL     OW21484   2.014   4.455   5.551
 6862SOL    HW121485   2.054   4.364   5.562
 6862SOL    HW221486   1.946   4.453   5.478
 6863SOL     OW21487   5.812   0.760   5.697
 6863SOL    HW121488   5.812   0.764   5.796
 6863SOL    HW221489   5.797   0.666   5.667
 6864SOL     OW21490   2.755   5.747   4.343
 6864SOL    HW121491   2.733   5.650   4.335
 6864SOL    HW221492   2.851   5.758   4.367
 6865SOL     OW21493   0.178   5.975   2.922
 6865SOL    HW121494   0.219   6.061   2.954
 6865SOL    HW221495   0.084   5.969   2.957
 6866SOL     OW21496   6.581   4.972   3.011
 6866SOL    HW121497   6.651   4.935   2.949
 6866SOL    HW221498   6.508   4.905   3.022
 6867SOL     OW21499   1.809   4.591   1.491
 6867SOL    HW121500   1.789   4.502   1.532
 6867SOL    HW221501   1.906   4.597   1.468
 6868SOL     OW21502   1.024   5.418   6.387
 6868SOL    HW121503   0.950   5.392   6.324
 6868SOL    HW221504   1.112   5.406   6.342
 6869SOL     OW21505   4.897   0.398   4.845
 6869SOL    HW121506   4.800   0.394   4.871
 6869SOL    HW221507   4.905   0.388   4.746
 6870SOL     OW21508   6.879   4.739   2.300
 6870SOL    HW121509   6.939   4.817   2.281
 6870SOL    HW221510   6.874   4.681   2.219
 6871SOL     OW21511   6.410   4.774   3.039
 6871SOL    HW121512   6.466   4.741   3.115
 6871SOL    HW221513   6.322   4.727   3.040
 6872SOL     OW21514   0.596   2.994   1.295
 6872SOL    HW121515   0.559   3.051   1.369
 6872SOL    HW221516   0.533   2.997   1.217
 6873SOL     OW21517   0.007   3.929   5.135
 6873SOL    HW121518   6.991   4.017   5.112
 6873SOL    HW221519   0.005   3.870   5.054
 6874SOL     OW21520   0.673   6.027   2.337
 6874SOL    HW121521   0.740   6.029   2.262
 6874SOL    HW221522   0.636   5.935   2.346
 6875SOL     OW21523   1.703   2.584   3.448
 6875SOL    HW121524   1.675   2.523   3.521
 6875SOL    HW221525   1.623   2.614   3.397
 6876SOL     OW21526   3.880   6.235   3.672
 6876SOL    HW121527   3.853   6.228   3.768
 6876SOL    HW221528   3.866   6.329   3.640
 6877SOL     OW21529   2.919   3.781   0.709
 6877SOL    HW121530   2.965   3.714   0.767
 6877SOL    HW221531   2.903   3.742   0.619
 6878SOL     OW21532   3.230   1.675   5.631
 6878SOL    HW121533   3.174   1.746   5.675
 6878SOL    HW221534   3.321   1.711   5.612
 6879SOL     OW21535   1.228   1.994   0.187
 6879SOL    HW121536   1.206   2.045   0.270
 6879SOL    HW221537   1.144   1.967   0.141
 6880SOL     OW21538   2.228   4.176   5.318
 6880SOL    HW121539   2.302   4.140   5.261
 6880SOL    HW221540   2.237   4.275   5.326
 6881SOL     OW21541   1.036   3.353   1.597
 6881SOL    HW121542   1.061   3.411   1.675
 6881SOL    HW221543   1.048   3.405   1.512
 6882SOL     OW21544   3.049   0.273   7.014
 6882SOL    HW121545   2.950   0.270   7.027
 6882SOL    HW221546   3.081   0.183   6.985
 6883SOL     OW21547   4.184   1.610   0.480
 6883SOL    HW121548   4.178   1.706   0.453
 6883SOL    HW221549   4.211   1.604   0.576
 6884SOL     OW21550   1.910   4.098   4.522
 6884SOL    HW121551   1.933   4.124   4.616
 6884SOL    HW221552   1.817   4.127   4.501
 6885SOL     OW21553   3.706   5.781   3.987
 6885SOL    HW121554   3.703   5.711   4.059
 6885SOL    HW221555   3.695   5.872   4.029
 6886SOL     OW21556   6.471   0.516   4.128
 6886SOL    HW121557   6.539   0.576   4.084
 6886SOL    HW221558   6.506   0.487   4.217
 6887SOL     OW21559   5.326   6.131   5.648
 6887SOL    HW121560   5.285   6.111   5.559
 6887SOL    HW221561   5.271   6.090   5.721
 6888SOL     OW21562   5.465   6.141   6.376
 6888SOL    HW121563   5.495   6.211   6.312
 6888SOL    HW221564   5.414   6.070   6.328
 6889SOL     OW21565   2.051   2.014   5.018
 6889SOL    HW121566   2.085   2.017   4.924
 6889SOL    HW221567   1.963   2.061   5.023
 6890SOL     OW21568   4.185   6.344   1.616
 6890SOL    HW121569   4.242   6.400   1.676
 6890SOL    HW221570   4.220   6.250   1.616
 6891SOL     OW21571   2.045   4.730   3.538
 6891SOL    HW121572   2.027   4.633   3.521
 6891SOL    HW221573   2.034   4.749   3.636
 6892SOL     OW21574   3.156   2.160   3.727
 6892SOL    HW121575   3.202   2.139   3.641
 6892SOL    HW221576   3.063   2.191   3.708
 6893SOL     OW21577   4.637   4.443   6.779
 6893SOL    HW121578   4.687   4.525   6.751
 6893SOL    HW221579   4.690   4.362   6.756
 6894SOL     OW21580   6.177   4.579   7.017
 6894SOL    HW121581   6.204   4.649   0.057
 6894SOL    HW221582   6.160   4.622   6.928
 6895SOL     OW21583   2.809   6.088   6.873
 6895SOL    HW121584   2.848   6.179   6.887
 6895SOL    HW221585   2.735   6.094   6.805
 6896SOL     OW21586   1.856   0.115   3.660
 6896SOL    HW121587   1.860   0.213   3.642
 6896SOL    HW221588   1.816   0.099   3.750
 6897SOL     OW21589   3.225   3.492   6.241
 6897SOL    HW121590   3.320   3.480   6.269
 6897SOL    HW221591   3.179   3.404   6.238
 6898SOL     OW21592   3.903   1.832   2.218
 6898SOL    HW121593   3.851   1.912   2.249
 6898SOL    HW221594   3.850   1.749   2.235
 6899SOL     OW21595   5.898   0.003   1.016
 6899SOL    HW121596   5.908   7.006   1.113
 6899SOL    HW221597   5.885   0.102   1.007
 6900SOL     OW21598   6.742   6.783   5.555
 6900SOL    HW121599   6.815   6.852   5.554
 6900SOL    HW221600   6.661   6.822   5.598
 6901SOL     OW21601   0.220   6.553   6.265
 6901SOL    HW121602   0.243   6.572   6.170
 6901SOL    HW221603   0.260   6.466   6.292
 6902SOL     OW21604   5.849   6.410   0.009
 6902SOL    HW121605   5.949   6.405   0.006
 6902SOL    HW221606   5.811   6.360   6.958
 6903SOL     OW21607   3.687   5.841   4.621
 6903SOL    HW121608   3.705   5.847   4.719
 6903SOL    HW221609   3.764   5.797   4.575
 6904SOL     OW21610   6.119   1.287   4.527
 6904SOL    HW121611   6.129   1.213   4.460
 6904SOL    HW221612   6.181   1.271   4.604
 6905SOL     OW21613   5.895   6.129   6.640
 6905SOL    HW121614   5.816   6.108   6.582
 6905SOL    HW221615   5.963   6.057   6.632
 6906SOL     OW21616   5.002   1.303   3.985
 6906SOL    HW121617   5.072   1.308   3.913
 6906SOL    HW221618   4.997   1.391   4.031
 6907SOL     OW21619   5.014   2.502   1.517
 6907SOL    HW121620   4.994   2.468   1.425
 6907SOL    HW221621   4.928   2.513   1.567
 6908SOL     OW21622   0.786   5.867   6.178
 6908SOL    HW121623   0.807   5.953   6.224
 6908SOL    HW221624   0.813   5.790   6.237
 6909SOL     OW21625   6.490   4.645   1.226
 6909SOL    HW121626   6.510   4.585   1.149
 6909SOL    HW221627   6.571   4.651   1.285
 6910SOL     OW21628   6.567   2.909   3.617
 6910SOL    HW121629   6.655   2.948   3.643
 6910SOL    HW221630   6.501   2.921   3.691
 6911SOL     OW21631   4.380   6.011   3.451
 6911SOL    HW121632   4.405   6.097   3.495
 6911SOL    HW221633   4.409   5.935   3.509
 6912SOL     OW21634   3.144   5.321   0.520
 6912SOL    HW121635   3.137   5.372   0.435
 6912SOL    HW221636   3.197   5.375   0.587
 6913SOL     OW21637   4.563   4.817   4.802
 6913SOL    HW121638   4.645   4.760   4.802
 6913SOL    HW221639   4.584   4.905   4.759
 6914SOL     OW21640   6.179   4.032   5.837
 6914SOL    HW121641   6.081   4.033   5.818
 6914SOL    HW221642   6.199   4.095   5.912
 6915SOL     OW21643   6.095   3.834   1.754
 6915SOL    HW121644   6.175   3.801   1.704
 6915SOL    HW221645   6.033   3.881   1.692
 6916SOL     OW21646   6.693   3.232   0.052
 6916SOL    HW121647   6.707   3.268   0.144
 6916SOL    HW221648   6.781   3.208   0.011
 6917SOL     OW21649   2.993   6.132   1.237
 6917SOL    HW121650   2.983   6.231   1.231
 6917SOL    HW221651   3.050   6.100   1.162
 6918SOL     OW21652   6.574   3.155   4.723
 6918SOL    HW121653   6.642   3.228   4.728
 6918SOL    HW221654   6.602   3.089   4.653
 6919SOL     OW21655   0.220   6.127   2.233
 6919SOL    HW121656   0.299   6.183   2.258
 6919SOL    HW221657   0.225   6.103   2.136
 6920SOL     OW21658   4.838   5.064   5.587
 6920SOL    HW121659   4.907   5.077   5.515
 6920SOL    HW221660   4.882   5.023   5.667
 6921SOL     OW21661   5.423   6.067   3.176
 6921SOL    HW121662   5.466   6.148   3.217
 6921SOL    HW221663   5.326   6.065   3.199
 6922SOL     OW21664   2.068   5.859   6.265
 6922SOL    HW121665   2.057   5.909   6.351
 6922SOL    HW221666   1.983   5.867   6.212
 6923SOL     OW21667   4.776   5.167   3.593
 6923SOL    HW121668   4.697   5.115   3.560
 6923SOL    HW221669   4.746   5.254   3.632
 6924SOL     OW21670   1.769   3.799   6.665
 6924SOL    HW121671   1.688   3.743   6.653
 6924SOL    HW221672   1.849   3.741   6.676
 6925SOL     OW21673   4.243   5.949   4.913
 6925SOL    HW121674   4.315   6.005   4.872
 6925SOL    HW221675   4.245   5.857   4.874
 6926SOL     OW21676   3.525   2.960   1.348
 6926SOL    HW121677   3.473   2.888   1.303
 6926SOL    HW221678   3.600   2.989   1.289
 6927SOL     OW21679   5.280   2.898   6.166
 6927SOL    HW121680   5.218   2.958   6.115
 6927SOL    HW221681   5.342   2.853   6.102
 6928SOL     OW21682   6.435   5.995   0.804
 6928SOL    HW121683   6.442   5.904   0.843
 6928SOL    HW221684   6.518   6.015   0.752
 6929SOL     OW21685   5.629   4.888   0.875
 6929SOL    HW121686   5.681   4.817   0.921
 6929SOL    HW221687   5.531   4.876   0.893
 6930SOL     OW21688   0.305   6.573   2.139
 6930SOL    HW121689   0.358   6.575   2.054
 6930SOL    HW221690   0.244   6.494   2.139
 6931SOL     OW21691   2.013   0.712   2.189
 6931SOL    HW121692   2.032   0.666   2.102
 6931SOL    HW221693   1.936   0.774   2.178
 6932SOL     OW21694   3.867   0.013   0.583
 6932SOL    HW121695   3.862   6.941   0.598
 6932SOL    HW221696   3.809   0.060   0.650
 6933SOL     OW21697   3.015   6.720   4.688
 6933SOL    HW121698   2.958   6.676   4.619
 6933SOL    HW221699   3.110   6.724   4.656
 6934SOL     OW21700   4.666   3.272   6.201
 6934SOL    HW121701   4.631   3.285   6.108
 6934SOL    HW221702   4.684   3.361   6.243
 6935SOL     OW21703   3.996   4.954   3.094
 6935SOL    HW121704   4.003   4.984   2.999
 6935SOL    HW221705   4.044   4.867   3.105
 6936SOL     OW21706   6.401   2.343   4.409
 6936SOL    HW121707   6.415   2.420   4.347
 6936SOL    HW221708   6.403   2.376   4.503
 6937SOL     OW21709   6.972   6.559   0.049
 6937SOL    HW121710   0.007   6.514   7.011
 6937SOL    HW221711   7.012   6.555   0.140
 6938SOL     OW21712   5.205   3.618   5.707
 6938SOL    HW121713   5.209   3.573   5.796
 6938SOL    HW221714   5.147   3.700   5.714
 6939SOL     OW21715   0.695   4.422   2.240
 6939SOL    HW121716   0.633   4.392   2.312
 6939SOL    HW221717   0.765   4.482   2.279
 6940SOL     OW21718   4.507   0.667   0.241
 6940SOL    HW121719   4.560   0.585   0.263
 6940SOL    HW221720   4.497   0.723   0.323
 6941SOL     OW21721   3.664   3.157   2.291
 6941SOL    HW121722   3.616   3.076   2.324
 6941SOL    HW221723   3.654   3.163   2.191
 6942SOL     OW21724   5.533   1.626   1.481
 6942SOL    HW121725   5.534   1.557   1.553
 6942SOL    HW221726   5.618   1.679   1.485
 6943SOL     OW21727   4.254   5.987   6.658
 6943SOL    HW121728   4.254   5.894   6.622
 6943SOL    HW221729   4.195   6.045   6.603
 6944SOL     OW21730   0.973   3.290   6.603
 6944SOL    HW121731   0.974   3.242   6.691
 6944SOL    HW221732   1.064   3.328   6.586
 6945SOL     OW21733   6.400   2.570   6.526
 6945SOL    HW121734   6.334   2.555   6.600
 6945SOL    HW221735   6.411   2.668   6.511
 6946SOL     OW21736   5.934   6.534   1.334
 6946SOL    HW121737   5.953   6.441   1.303
 6946SOL    HW221738   5.994   6.598   1.287
 6947SOL     OW21739   3.812   6.078   6.345
 6947SOL    HW121740   3.909   6.103   6.340
 6947SOL    HW221741   3.762   6.126   6.273
 6948SOL     OW21742   6.814   0.703   6.854
 6948SOL    HW121743   6.788   0.669   6.944
 6948SOL    HW221744   6.814   0.627   6.789
 6949SOL     OW21745   4.975   6.606   2.836
 6949SOL    HW121746   4.935   6.689   2.874
 6949SOL    HW221747   4.949   6.596   2.740
 6950SOL     OW21748   2.758   1.235   4.605
 6950SOL    HW121749   2.719   1.232   4.698
 6950SOL    HW221750   2.688   1.206   4.539
 6951SOL     OW21751   6.699   5.866   5.553
 6951SOL    HW121752   6.777   5.858   5.615
 6951SOL    HW221753   6.677   5.776   5.516
 6952SOL     OW21754   0.365   6.269   3.654
 6952SOL    HW121755   0.445   6.253   3.712
 6952SOL    HW221756   0.395   6.302   3.565
 6953SOL     OW21757   4.967   6.013   0.544
 6953SOL    HW121758   5.051   6.064   0.526
 6953SOL    HW221759   4.948   6.013   0.642
 6954SOL     OW21760   0.011   3.690   3.891
 6954SOL    HW121761   6.991   3.778   3.897
 6954SOL    HW221762   6.971   3.617   3.884
 6955SOL     OW21763   6.665   0.905   1.770
 6955SOL    HW121764   6.650   1.002   1.748
 6955SOL    HW221765   6.579   0.865   1.802
 6956SOL     OW21766   4.816   6.326   3.248
 6956SOL    HW121767   4.735   6.270   3.231
 6956SOL    HW221768   4.853   6.305   3.338
 6957SOL     OW21769   6.208   4.857   0.950
 6957SOL    HW121770   6.227   4.902   0.863
 6957SOL    HW221771   6.292   4.814   0.984
 6958SOL     OW21772   2.940   3.320   4.282
 6958SOL    HW121773   3.016   3.261   4.255
 6958SOL    HW221774   2.864   3.308   4.218
 6959SOL     OW21775   1.912   1.414   4.460
 6959SOL    HW121776   2.006   1.445   4.479
 6959SOL    HW221777   1.848   1.489   4.478
 6960SOL     OW21778   2.184   5.770   1.778
 6960SOL    HW121779   2.130   5.711   1.838
 6960SOL    HW221780   2.126   5.809   1.707
 6961SOL     OW21781   5.778   2.007   4.434
 6961SOL    HW121782   5.863   2.008   4.488
 6961SOL    HW221783   5.743   1.913   4.428
 6962SOL     OW21784   5.104   5.921   1.998
 6962SOL    HW121785   5.086   5.947   1.903
 6962SOL    HW221786   5.182   5.974   2.032
 6963SOL     OW21787   5.949   6.153   1.523
 6963SOL    HW121788   6.039   6.170   1.483
 6963SOL    HW221789   5.942   6.057   1.551
 6964SOL     OW21790   3.289   0.471   5.025
 6964SOL    HW121791   3.303   0.512   4.935
 6964SOL    HW221792   3.356   0.397   5.038
 6965SOL     OW21793   0.545   3.453   1.120
 6965SOL    HW121794   0.458   3.421   1.084
 6965SOL    HW221795   0.528   3.518   1.195
 6966SOL     OW21796   0.361   2.218   3.145
 6966SOL    HW121797   0.329   2.138   3.093
 6966SOL    HW221798   0.438   2.260   3.096
 6967SOL     OW21799   1.913   6.450   4.765
 6967SOL    HW121800   1.915   6.384   4.691
 6967SOL    HW221801   1.906   6.543   4.727
 6968SOL     OW21802   4.505   6.366   2.625
 6968SOL    HW121803   4.514   6.287   2.565
 6968SOL    HW221804   4.427   6.353   2.686
 6969SOL     OW21805   2.671   2.489   1.276
 6969SOL    HW121806   2.748   2.504   1.214
 6969SOL    HW221807   2.705   2.475   1.369
 6970SOL     OW21808   3.260   4.445   6.512
 6970SOL    HW121809   3.200   4.367   6.494
 6970SOL    HW221810   3.271   4.498   6.428
 6971SOL     OW21811   6.207   4.800   1.595
 6971SOL    HW121812   6.153   4.879   1.624
 6971SOL    HW221813   6.279   4.782   1.662
 6972SOL     OW21814   5.044   4.139   3.279
 6972SOL    HW121815   4.986   4.066   3.243
 6972SOL    HW221816   5.027   4.223   3.227
 6973SOL     OW21817   0.213   3.449   4.429
 6973SOL    HW121818   0.301   3.427   4.387
 6973SOL    HW221819   0.207   3.548   4.441
 6974SOL     OW21820   3.271   3.579   2.345
 6974SOL    HW121821   3.182   3.558   2.305
 6974SOL    HW221822   3.262   3.582   2.445
 6975SOL     OW21823   2.097   6.583   6.574
 6975SOL    HW121824   2.074   6.658   6.636
 6975SOL    HW221825   2.178   6.535   6.610
 6976SOL     OW21826   4.697   6.062   5.117
 6976SOL    HW121827   4.669   6.071   5.022
 6976SOL    HW221828   4.669   5.973   5.153
 6977SOL     OW21829   4.200   2.584   1.587
 6977SOL    HW121830   4.244   2.668   1.619
 6977SOL    HW221831   4.268   2.511   1.580
 6978SOL     OW21832   4.008   1.059   2.654
 6978SOL    HW121833   4.023   1.153   2.685
 6978SOL    HW221834   3.929   1.056   2.593
 6979SOL     OW21835   1.194   4.287   1.469
 6979SOL    HW121836   1.289   4.318   1.456
 6979SOL    HW221837   1.134   4.366   1.475
 6980SOL     OW21838   1.737   1.078   3.818
 6980SOL    HW121839   1.777   1.168   3.833
 6980SOL    HW221840   1.769   1.042   3.731
 6981SOL     OW21841   3.999   2.670   5.613
 6981SOL    HW121842   4.005   2.620   5.526
 6981SOL    HW221843   4.089   2.708   5.636
 6982SOL     OW21844   1.590   0.436   4.528
 6982SOL    HW121845   1.653   0.400   4.597
 6982SOL    HW221846   1.501   0.455   4.571
 6983SOL     OW21847   3.903   2.125   3.676
 6983SOL    HW121848   3.975   2.107   3.743
 6983SOL    HW221849   3.814   2.100   3.715
 6984SOL     OW21850   2.384   1.801   3.378
 6984SOL    HW121851   2.446   1.740   3.328
 6984SOL    HW221852   2.371   1.766   3.471
 6985SOL     OW21853   4.342   5.281   1.783
 6985SOL    HW121854   4.352   5.239   1.693
 6985SOL    HW221855   4.296   5.369   1.774
 6986SOL     OW21856   1.720   6.804   6.634
 6986SOL    HW121857   1.642   6.822   6.695
 6986SOL    HW221858   1.688   6.800   6.540
 6987SOL     OW21859   6.820   1.336   5.875
 6987SOL    HW121860   6.756   1.260   5.882
 6987SOL    HW221861   6.773   1.422   5.895
 6988SOL     OW21862   0.601   0.323   5.417
 6988SOL    HW121863   0.618   0.259   5.492
 6988SOL    HW221864   0.653   0.407   5.434
 6989SOL     OW21865   0.928   4.497   2.629
 6989SOL    HW121866   0.829   4.482   2.635
 6989SOL    HW221867   0.972   4.412   2.599
 6990SOL     OW21868   4.875   2.778   1.172
 6990SOL    HW121869   4.959   2.815   1.211
 6990SOL    HW221870   4.798   2.835   1.200
 6991SOL     OW21871   3.121   4.942   3.902
 6991SOL    HW121872   3.097   4.942   3.805
 6991SOL    HW221873   3.069   4.871   3.949
 6992SOL     OW21874   5.352   5.939   6.239
 6992SOL    HW121875   5.253   5.938   6.228
 6992SOL    HW221876   5.395   5.972   6.155
 6993SOL     OW21877   6.026   0.783   2.990
 6993SOL    HW121878   6.078   0.839   3.056
 6993SOL    HW221879   6.071   0.695   2.980
 6994SOL     OW21880   0.385   2.434   4.575
 6994SOL    HW121881   0.360   2.393   4.487
 6994SOL    HW221882   0.363   2.532   4.573
 6995SOL     OW21883   6.823   4.664   5.965
 6995SOL    HW121884   6.820   4.662   6.064
 6995SOL    HW221885   6.904   4.716   5.935
 6996SOL     OW21886   1.532   6.832   6.845
 6996SOL    HW121887   1.536   6.842   6.945
 6996SOL    HW221888   1.459   6.891   6.809
 6997SOL     OW21889   6.585   5.628   4.992
 6997SOL    HW121890   6.636   5.561   5.047
 6997SOL    HW221891   6.635   5.648   4.908
 6998SOL     OW21892   2.245   1.147   1.802
 6998SOL    HW121893   2.193   1.231   1.811
 6998SOL    HW221894   2.215   1.081   1.871
 6999SOL     OW21895   2.561   2.568   5.815
 6999SOL    HW121896   2.536   2.502   5.886
 6999SOL    HW221897   2.653   2.602   5.832
 7000SOL     OW21898   5.694   6.193   1.453
 7000SOL    HW121899   5.686   6.139   1.369
 7000SOL    HW221900   5.774   6.162   1.504
 7001SOL     OW21901   1.487   2.564   5.366
 7001SOL    HW121902   1.522   2.494   5.304
 7001SOL    HW221903   1.545   2.571   5.446
 7002SOL     OW21904   2.219   5.454   3.524
 7002SOL    HW121905   2.238   5.380   3.459
 7002SOL    HW221906   2.252   5.540   3.485
 7003SOL     OW21907   3.909   5.191   0.438
 7003SOL    HW121908   3.856   5.156   0.361
 7003SOL    HW221909   3.869   5.158   0.523
 7004SOL     OW21910   1.035   4.752   2.495
 7004SOL    HW121911   1.084   4.666   2.486
 7004SOL    HW221912   0.981   4.751   2.579
 7005SOL     OW21913   1.679   0.378   0.483
 7005SOL    HW121914   1.692   0.462   0.430
 7005SOL    HW221915   1.672   0.300   0.421
 7006SOL     OW21916   4.845   4.803   4.059
 7006SOL    HW121917   4.906   4.878   4.033
 7006SOL    HW221918   4.886   4.716   4.034
 7007SOL     OW21919   5.204   0.043   3.209
 7007SOL    HW121920   5.232   0.098   3.288
 7007SOL    HW221921   5.147   6.994   3.241
 7008SOL     OW21922   0.705   4.078   4.802
 7008SOL    HW121923   0.619   4.025   4.809
 7008SOL    HW221924   0.779   4.016   4.778
 7009SOL     OW21925   5.928   6.360   2.048
 7009SOL    HW121926   5.936   6.366   1.948
 7009SOL    HW221927   5.989   6.289   2.082
 7010SOL     OW21928   4.980   4.542   4.029
 7010SOL    HW121929   5.018   4.451   4.012
 7010SOL    HW221930   4.965   4.554   4.127
 7011SOL     OW21931   3.448   6.584   6.717
 7011SOL    HW121932   3.379   6.531   6.668
 7011SOL    HW221933   3.443   6.680   6.689
 7012SOL     OW21934   1.426   2.502   1.588
 7012SOL    HW121935   1.418   2.546   1.678
 7012SOL    HW221936   1.393   2.565   1.518
 7013SOL     OW21937   0.549   0.210   0.816
 7013SOL    HW121938   0.536   0.277   0.888
 7013SOL    HW221939   0.468   0.150   0.811
 7014SOL     OW21940   4.240   3.577   1.176
 7014SOL    HW121941   4.196   3.642   1.115
 7014SOL    HW221942   4.244   3.487   1.133
 7015SOL     OW21943   5.717   4.833   2.369
 7015SOL    HW121944   5.802   4.878   2.397
 7015SOL    HW221945   5.649   4.902   2.344
 7016SOL     OW21946   3.469   4.804   1.440
 7016SOL    HW121947   3.535   4.849   1.379
 7016SOL    HW221948   3.410   4.744   1.386
 7017SOL     OW21949   2.192   5.049   2.261
 7017SOL    HW121950   2.243   5.055   2.347
 7017SOL    HW221951   2.250   5.010   2.190
 7018SOL     OW21952   5.510   3.772   4.401
 7018SOL    HW121953   5.544   3.769   4.307
 7018SOL    HW221954   5.576   3.819   4.459
 7019SOL     OW21955   3.030   4.059   0.238
 7019SOL    HW121956   3.030   4.005   0.154
 7019SOL    HW221957   2.962   4.022   0.302
 7020SOL     OW21958   6.546   5.696   6.541
 7020SOL    HW121959   6.624   5.749   6.509
 7020SOL    HW221960   6.498   5.747   6.613
 7021SOL     OW21961   1.689   1.290   5.897
 7021SOL    HW121962   1.673   1.262   5.991
 7021SOL    HW221963   1.648   1.380   5.881
 7022SOL     OW21964   4.716   6.613   6.394
 7022SOL    HW121965   4.797   6.559   6.371
 7022SOL    HW221966   4.674   6.648   6.310
 7023SOL     OW21967   0.356   1.639   4.282
 7023SOL    HW121968   0.405   1.592   4.209
 7023SOL    HW221969   0.358   1.584   4.365
 7024SOL     OW21970   2.510   3.926   5.349
 7024SOL    HW121971   2.478   3.967   5.264
 7024SOL    HW221972   2.599   3.882   5.335
 7025SOL     OW21973   2.452   1.490   0.291
 7025SOL    HW121974   2.366   1.461   0.250
 7025SOL    HW221975   2.528   1.450   0.240
 7026SOL     OW21976   3.616   2.011   1.934
 7026SOL    HW121977   3.651   2.100   1.964
 7026SOL    HW221978   3.568   2.022   1.847
 7027SOL     OW21979   2.360   5.265   4.309
 7027SOL    HW121980   2.355   5.210   4.392
 7027SOL    HW221981   2.273   5.313   4.295
 7028SOL     OW21982   4.048   0.690   3.864
 7028SOL    HW121983   4.145   0.713   3.859
 7028SOL    HW221984   4.010   0.725   3.950
 7029SOL     OW21985   5.078   4.936   5.169
 7029SOL    HW121986   5.111   4.946   5.075
 7029SOL    HW221987   5.155   4.913   5.229
 7030SOL     OW21988   1.481   0.931   5.112
 7030SOL    HW121989   1.429   0.944   5.196
 7030SOL    HW221990   1.577   0.915   5.134
 7031SOL     OW21991   2.690   6.076   4.758
 7031SOL    HW121992   2.760   6.130   4.712
 7031SOL    HW221993   2.646   6.014   4.692
 7032SOL     OW21994   3.595   0.700   3.159
 7032SOL    HW121995   3.693   0.717   3.174
 7032SOL    HW221996   3.575   0.704   3.061
 7033SOL     OW21997   1.310   2.638   3.949
 7033SOL    HW121998   1.403   2.675   3.947
 7033SOL    HW221999   1.253   2.688   3.884
 7034SOL     OW22000   5.754   0.421   3.845
 7034SOL    HW122001   5.725   0.398   3.938
 7034SOL    HW222002   5.845   0.463   3.848
 7035SOL     OW22003   1.758   6.915   1.164
 7035SOL    HW122004   1.707   6.874   1.240
 7035SOL    HW222005   1.710   6.996   1.131
 7036SOL     OW22006   0.359   0.770   2.872
 7036SOL    HW122007   0.406   0.858   2.875
 7036SOL    HW222008   0.264   0.782   2.901
 7037SOL     OW22009   1.995   1.713   6.648
 7037SOL    HW122010   2.009   1.627   6.697
 7037SOL    HW222011   2.078   1.767   6.650
 7038SOL     OW22012   2.784   3.329   5.678
 7038SOL    HW122013   2.840   3.395   5.727
 7038SOL    HW222014   2.835   3.243   5.669
 7039SOL     OW22015   2.887   5.121   1.619
 7039SOL    HW122016   2.858   5.091   1.528
 7039SOL    HW222017   2.923   5.043   1.670
 7040SOL     OW22018   6.310   1.459   5.009
 7040SOL    HW122019   6.282   1.428   5.100
 7040SOL    HW222020   6.408   1.480   5.009
 7041SOL     OW22021   6.557   1.910   2.064
 7041SOL    HW122022   6.465   1.917   2.102
 7041SOL    HW222023   6.620   1.966   2.119
 7042SOL     OW22024   4.787   5.046   5.272
 7042SOL    HW122025   4.799   4.966   5.214
 7042SOL    HW222026   4.738   5.020   5.355
 7043SOL     OW22027   1.984   3.927   2.519
 7043SOL    HW122028   1.982   3.867   2.439
 7043SOL    HW222029   1.897   3.976   2.526
 7044SOL     OW22030   4.245   4.727   4.196
 7044SOL    HW122031   4.166   4.757   4.144
 7044SOL    HW222032   4.318   4.795   4.189
 7045SOL     OW22033   4.865   5.854   3.741
 7045SOL    HW122034   4.906   5.796   3.670
 7045SOL    HW222035   4.782   5.897   3.705
 7046SOL     OW22036   3.338   0.644   2.877
 7046SOL    HW122037   3.281   0.685   2.806
 7046SOL    HW222038   3.418   0.702   2.894
 7047SOL     OW22039   0.052   2.047   2.558
 7047SOL    HW122040   0.085   1.999   2.638
 7047SOL    HW222041   0.033   1.982   2.484
 7048SOL     OW22042   5.611   6.396   2.978
 7048SOL    HW122043   5.660   6.337   3.042
 7048SOL    HW222044   5.538   6.445   3.026
 7049SOL     OW22045   3.724   1.659   0.912
 7049SOL    HW122046   3.703   1.687   0.818
 7049SOL    HW222047   3.702   1.562   0.923
 7050SOL     OW22048   4.075   3.698   1.593
 7050SOL    HW122049   4.163   3.745   1.601
 7050SOL    HW222050   4.029   3.699   1.682
 7051SOL     OW22051   6.779   0.284   1.711
 7051SOL    HW122052   6.876   0.277   1.687
 7051SOL    HW222053   6.746   0.194   1.741
 7052SOL     OW22054   5.350   2.756   3.283
 7052SOL    HW122055   5.427   2.820   3.285
 7052SOL    HW222056   5.266   2.806   3.265
 7053SOL     OW22057   0.952   3.116   5.173
 7053SOL    HW122058   0.940   3.212   5.199
 7053SOL    HW222059   0.926   3.104   5.077
 7054SOL     OW22060   0.815   6.594   0.439
 7054SOL    HW122061   0.906   6.614   0.476
 7054SOL    HW222062   0.809   6.630   0.346
 7055SOL     OW22063   2.705   0.033   5.336
 7055SOL    HW122064   2.765   6.980   5.327
 7055SOL    HW222065   2.622   0.018   5.284
 7056SOL     OW22066   6.392   4.738   1.805
 7056SOL    HW122067   6.434   4.647   1.793
 7056SOL    HW222068   6.413   4.772   1.897
 7057SOL     OW22069   1.870   5.431   3.536
 7057SOL    HW122070   1.957   5.402   3.575
 7057SOL    HW222071   1.886   5.499   3.465
 7058SOL     OW22072   6.101   4.734   5.719
 7058SOL    HW122073   6.142   4.712   5.807
 7058SOL    HW222074   6.043   4.815   5.727
 7059SOL     OW22075   6.736   1.142   3.801
 7059SOL    HW122076   6.785   1.225   3.773
 7059SOL    HW222077   6.683   1.162   3.884
 7060SOL     OW22078   4.157   0.231   1.479
 7060SOL    HW122079   4.154   0.137   1.447
 7060SOL    HW222080   4.065   0.269   1.481
 7061SOL     OW22081   0.680   2.821   3.349
 7061SOL    HW122082   0.738   2.773   3.283
 7061SOL    HW222083   0.670   2.917   3.321
 7062SOL     OW22084   4.372   0.752   5.390
 7062SOL    HW122085   4.327   0.703   5.315
 7062SOL    HW222086   4.327   0.728   5.476
 7063SOL     OW22087   1.388   6.929   1.737
 7063SOL    HW122088   1.477   6.928   1.784
 7063SOL    HW222089   1.392   6.992   1.659
 7064SOL     OW22090   4.107   2.051   1.041
 7064SOL    HW122091   4.140   1.962   1.074
 7064SOL    HW222092   4.167   2.084   0.969
 7065SOL     OW22093   3.800   3.941   5.980
 7065SOL    HW122094   3.847   3.857   5.953
 7065SOL    HW222095   3.773   3.991   5.897
 7066SOL     OW22096   4.810   0.568   0.151
 7066SOL    HW122097   4.757   0.653   0.143
 7066SOL    HW222098   4.754   0.498   0.194
 7067SOL     OW22099   2.211   2.649   4.811
 7067SOL    HW122100   2.180   2.594   4.733
 7067SOL    HW222101   2.293   2.606   4.850
 7068SOL     OW22102   6.551   4.288   4.314
 7068SOL    HW122103   6.574   4.365   4.373
 7068SOL    HW222104   6.498   4.321   4.235
 7069SOL     OW22105   5.448   1.223   4.606
 7069SOL    HW122106   5.490   1.301   4.562
 7069SOL    HW222107   5.516   1.173   4.660
 7070SOL     OW22108   0.151   6.084   4.886
 7070SOL    HW122109   0.174   6.177   4.916
 7070SOL    HW222110   0.106   6.035   4.961
 7071SOL     OW22111   2.942   5.583   6.189
 7071SOL    HW122112   2.881   5.512   6.224
 7071SOL    HW222113   2.991   5.625   6.265
 7072SOL     OW22114   1.298   6.017   0.385
 7072SOL    HW122115   1.311   6.113   0.408
 7072SOL    HW222116   1.308   5.961   0.468
 7073SOL     OW22117   4.735   6.686   4.459
 7073SOL    HW122118   4.682   6.743   4.395
 7073SOL    HW222119   4.832   6.709   4.450
 7074SOL     OW22120   4.973   2.513   2.102
 7074SOL    HW122121   4.972   2.573   2.182
 7074SOL    HW222122   4.882   2.511   2.061
 7075SOL     OW22123   2.118   4.195   5.561
 7075SOL    HW122124   2.186   4.254   5.605
 7075SOL    HW222125   2.155   4.160   5.474
 7076SOL     OW22126   6.125   2.062   6.171
 7076SOL    HW122127   6.155   2.035   6.080
 7076SOL    HW222128   6.035   2.021   6.190
 7077SOL     OW22129   2.287   4.846   4.119
 7077SOL    HW122130   2.294   4.790   4.202
 7077SOL    HW222131   2.298   4.788   4.038
 7078SOL     OW22132   0.238   6.934   1.736
 7078SOL    HW122133   0.183   6.851   1.728
 7078SOL    HW222134   0.188   7.002   1.790
 7079SOL     OW22135   0.214   6.143   4.073
 7079SOL    HW122136   0.298   6.183   4.110
 7079SOL    HW222137   0.178   6.202   4.000
 7080SOL     OW22138   3.449   1.334   4.679
 7080SOL    HW122139   3.536   1.368   4.715
 7080SOL    HW222140   3.390   1.412   4.656
 7081SOL     OW22141   2.995   6.706   6.822
 7081SOL    HW122142   2.918   6.710   6.759
 7081SOL    HW222143   3.036   6.615   6.819
 7082SOL     OW22144   6.587   3.777   6.599
 7082SOL    HW122145   6.571   3.681   6.579
 7082SOL    HW222146   6.683   3.799   6.586
 7083SOL     OW22147   2.819   0.250   0.779
 7083SOL    HW122148   2.787   0.217   0.869
 7083SOL    HW222149   2.742   0.289   0.729
 7084SOL     OW22150   0.282   5.591   5.611
 7084SOL    HW122151   0.331   5.539   5.541
 7084SOL    HW222152   0.214   5.650   5.566
 7085SOL     OW22153   0.825   1.842   2.360
 7085SOL    HW122154   0.778   1.791   2.288
 7085SOL    HW222155   0.902   1.788   2.394
 7086SOL     OW22156   5.085   0.162   5.512
 7086SOL    HW122157   5.080   0.130   5.607
 7086SOL    HW222158   5.174   0.137   5.473
 7087SOL     OW22159   6.197   4.041   4.070
 7087SOL    HW122160   6.192   4.113   4.139
 7087SOL    HW222161   6.248   3.963   4.107
 7088SOL     OW22162   5.407   2.622   3.529
 7088SOL    HW122163   5.333   2.686   3.508
 7088SOL    HW222164   5.457   2.600   3.445
 7089SOL     OW22165   2.691   2.160   4.532
 7089SOL    HW122166   2.771   2.123   4.485
 7089SOL    HW222167   2.717   2.242   4.584
 7090SOL     OW22168   2.151   0.485   6.872
 7090SOL    HW122169   2.200   0.484   6.959
 7090SOL    HW222170   2.084   0.560   6.873
 7091SOL     OW22171   0.639   2.157   0.219
 7091SOL    HW122172   0.632   2.134   0.122
 7091SOL    HW222173   0.675   2.250   0.228
 7092SOL     OW22174   3.778   3.318   5.721
 7092SOL    HW122175   3.790   3.243   5.786
 7092SOL    HW222176   3.859   3.325   5.663
 7093SOL     OW22177   3.181   3.657   2.637
 7093SOL    HW122178   3.253   3.648   2.706
 7093SOL    HW222179   3.139   3.567   2.621
 7094SOL     OW22180   6.986   5.913   6.118
 7094SOL    HW122181   6.959   6.002   6.154
 7094SOL    HW222182   0.013   5.864   6.187
 7095SOL     OW22183   4.121   4.321   5.733
 7095SOL    HW122184   4.129   4.330   5.634
 7095SOL    HW222185   4.059   4.390   5.769
 7096SOL     OW22186   6.547   0.687   3.889
 7096SOL    HW122187   6.449   0.704   3.899
 7096SOL    HW222188   6.582   0.736   3.808
 7097SOL     OW22189   6.072   2.030   1.157
 7097SOL    HW122190   6.076   1.961   1.085
 7097SOL    HW222191   6.141   2.010   1.226
 7098SOL     OW22192   1.674   5.580   5.576
 7098SOL    HW122193   1.698   5.493   5.621
 7098SOL    HW222194   1.604   5.564   5.507
 7099SOL     OW22195   3.977   1.342   5.377
 7099SOL    HW122196   4.052   1.302   5.430
 7099SOL    HW222197   4.010   1.364   5.285
 7100SOL     OW22198   5.585   3.032   0.851
 7100SOL    HW122199   5.505   3.050   0.794
 7100SOL    HW222200   5.627   3.119   0.877
 7101SOL     OW22201   1.907   1.022   4.786
 7101SOL    HW122202   1.863   1.061   4.705
 7101SOL    HW222203   1.997   0.986   4.761
 7102SOL     OW22204   5.340   6.505   0.642
 7102SOL    HW122205   5.253   6.539   0.678
 7102SOL    HW222206   5.343   6.520   0.543
 7103SOL     OW22207   4.793   4.616   2.291
 7103SOL    HW122208   4.735   4.614   2.372
 7103SOL    HW222209   4.747   4.670   2.220
 7104SOL     OW22210   0.215   2.925   3.856
 7104SOL    HW122211   0.182   2.958   3.945
 7104SOL    HW222212   0.140   2.929   3.790
 7105SOL     OW22213   3.434   3.011   5.422
 7105SOL    HW122214   3.509   2.967   5.472
 7105SOL    HW222215   3.347   2.983   5.462
 7106SOL     OW22216   3.870   3.617   2.415
 7106SOL    HW122217   3.772   3.612   2.394
 7106SOL    HW222218   3.921   3.566   2.346
 7107SOL     OW22219   4.522   0.885   0.428
 7107SOL    HW122220   4.487   0.910   0.518
 7107SOL    HW222221   4.622   0.880   0.431
 7108SOL     OW22222   3.807   6.304   2.798
 7108SOL    HW122223   3.826   6.257   2.712
 7108SOL    HW222224   3.773   6.239   2.866
 7109SOL     OW22225   2.719   0.269   5.851
 7109SOL    HW122226   2.808   0.312   5.864
 7109SOL    HW222227   2.703   0.255   5.754
 7110SOL     OW22228   3.199   5.625   4.342
 7110SOL    HW122229   3.240   5.598   4.255
 7110SOL    HW222230   3.236   5.567   4.415
 7111SOL     OW22231   1.415   2.749   4.975
 7111SOL    HW122232   1.352   2.824   4.997
 7111SOL    HW222233   1.368   2.662   4.988
 7112SOL     OW22234   1.839   4.641   4.621
 7112SOL    HW122235   1.918   4.600   4.576
 7112SOL    HW222236   1.811   4.585   4.699
 7113SOL     OW22237   3.728   3.862   4.783
 7113SOL    HW122238   3.646   3.891   4.833
 7113SOL    HW222239   3.791   3.939   4.775
 7114SOL     OW22240   5.045   6.021   1.402
 7114SOL    HW122241   5.080   6.114   1.414
 7114SOL    HW222242   5.006   6.012   1.310
 7115SOL     OW22243   5.149   3.121   0.886
 7115SOL    HW122244   5.183   3.058   0.956
 7115SOL    HW222245   5.049   3.125   0.891
 7116SOL     OW22246   6.158   4.290   2.976
 7116SOL    HW122247   6.111   4.369   3.017
 7116SOL    HW222248   6.091   4.230   2.932
 7117SOL     OW22249   0.082   6.179   5.281
 7117SOL    HW122250   0.171   6.185   5.326
 7117SOL    HW222251   0.031   6.263   5.297
 7118SOL     OW22252   3.000   5.140   0.881
 7118SOL    HW122253   3.070   5.178   0.942
 7118SOL    HW222254   2.922   5.108   0.935
 7119SOL     OW22255   4.880   2.550   4.031
 7119SOL    HW122256   4.783   2.572   4.019
 7119SOL    HW222257   4.918   2.518   3.944
 7120SOL     OW22258   3.634   2.134   2.484
 7120SOL    HW122259   3.623   2.040   2.453
 7120SOL    HW222260   3.561   2.191   2.447
 7121SOL     OW22261   0.999   7.019   3.510
 7121SOL    HW122262   0.920   0.053   3.518
 7121SOL    HW222263   0.971   6.925   3.529
 7122SOL     OW22264   1.287   0.085   5.809
 7122SOL    HW122265   1.353   0.147   5.767
 7122SOL    HW222266   1.239   0.034   5.737
 7123SOL     OW22267   1.663   4.345   3.337
 7123SOL    HW122268   1.716   4.314   3.258
 7123SOL    HW222269   1.623   4.435   3.318
 7124SOL     OW22270   6.794   2.044   1.623
 7124SOL    HW122271   6.801   1.990   1.539
 7124SOL    HW222272   6.716   2.012   1.677
 7125SOL     OW22273   0.381   6.822   1.296
 7125SOL    HW122274   0.361   6.873   1.380
 7125SOL    HW222275   0.403   6.886   1.223
 7126SOL     OW22276   3.126   5.060   0.638
 7126SOL    HW122277   3.079   5.106   0.714
 7126SOL    HW222278   3.165   5.128   0.576
 7127SOL     OW22279   1.918   4.835   6.007
 7127SOL    HW122280   2.017   4.843   6.007
 7127SOL    HW222281   1.888   4.776   5.932
 7128SOL     OW22282   2.711   5.077   6.995
 7128SOL    HW122283   2.753   5.067   0.058
 7128SOL    HW222284   2.623   5.125   7.004
 7129SOL     OW22285   2.583   1.975   6.811
 7129SOL    HW122286   2.607   1.881   6.785
 7129SOL    HW222287   2.666   2.031   6.811
 7130SOL     OW22288   4.194   5.205   5.378
 7130SOL    HW122289   4.100   5.226   5.402
 7130SOL    HW222290   4.225   5.267   5.307
 7131SOL     OW22291   2.907   0.626   1.160
 7131SOL    HW122292   2.950   0.631   1.250
 7131SOL    HW222293   2.902   0.530   1.130
 7132SOL     OW22294   4.234   4.356   0.233
 7132SOL    HW122295   4.168   4.374   0.161
 7132SOL    HW222296   4.202   4.282   0.291
 7133SOL     OW22297   5.251   5.426   5.964
 7133SOL    HW122298   5.332   5.414   6.021
 7133SOL    HW222299   5.203   5.339   5.955
 7134SOL     OW22300   5.099   6.776   1.869
 7134SOL    HW122301   5.105   6.682   1.904
 7134SOL    HW222302   5.052   6.834   1.936
 7135SOL     OW22303   1.451   2.757   3.595
 7135SOL    HW122304   1.468   2.659   3.602
 7135SOL    HW222305   1.372   2.782   3.651
 7136SOL     OW22306   2.472   1.957   0.827
 7136SOL    HW122307   2.546   2.021   0.848
 7136SOL    HW222308   2.451   1.903   0.909
 7137SOL     OW22309   4.203   0.013   6.621
 7137SOL    HW122310   4.152   6.970   6.670
 7137SOL    HW222311   4.141   0.085   6.590
 7138SOL     OW22312   2.569   2.016   0.550
 7138SOL    HW122313   2.668   2.004   0.560
 7138SOL    HW222314   2.522   1.963   0.621
 7139SOL     OW22315   6.177   4.211   1.765
 7139SOL    HW122316   6.197   4.143   1.694
 7139SOL    HW222317   6.083   4.243   1.755
 7140SOL     OW22318   6.621   3.786   2.918
 7140SOL    HW122319   6.677   3.726   2.860
 7140SOL    HW222320   6.629   3.757   3.013
 7141SOL     OW22321   3.543   6.427   1.100
 7141SOL    HW122322   3.522   6.449   1.195
 7141SOL    HW222323   3.609   6.352   1.097
 7142SOL     OW22324   4.176   0.100   2.858
 7142SOL    HW122325   4.220   0.167   2.918
 7142SOL    HW222326   4.237   0.021   2.847
 7143SOL     OW22327   1.594   2.795   5.780
 7143SOL    HW122328   1.633   2.885   5.758
 7143SOL    HW222329   1.598   2.780   5.878
 7144SOL     OW22330   2.094   2.124   2.552
 7144SOL    HW122331   2.104   2.150   2.649
 7144SOL    HW222332   2.105   2.205   2.495
 7145SOL     OW22333   4.377   0.126   0.545
 7145SOL    HW122334   4.302   0.134   0.480
 7145SOL    HW222335   4.462   0.154   0.501
 7146SOL     OW22336   1.804   6.774   0.682
 7146SOL    HW122337   1.898   6.790   0.712
 7146SOL    HW222338   1.750   6.739   0.758
 7147SOL     OW22339   6.937   0.127   2.475
 7147SOL    HW122340   6.947   0.121   2.574
 7147SOL    HW222341   0.000   0.114   2.432
 7148SOL     OW22342   0.042   5.994   0.993
 7148SOL    HW122343   0.027   6.089   0.964
 7148SOL    HW222344   7.010   5.973   1.071
 7149SOL     OW22345   6.211   6.883   3.192
 7149SOL    HW122346   6.211   6.794   3.145
 7149SOL    HW222347   6.123   6.928   3.177
 7150SOL     OW22348   3.654   2.680   1.151
 7150SOL    HW122349   3.725   2.728   1.202
 7150SOL    HW222350   3.687   2.661   1.058
 7151SOL     OW22351   2.683   6.439   0.522
 7151SOL    HW122352   2.605   6.426   0.583
 7151SOL    HW222353   2.757   6.378   0.549
 7152SOL     OW22354   0.555   0.678   5.685
 7152SOL    HW122355   0.504   0.698   5.769
 7152SOL    HW222356   0.501   0.708   5.606
 7153SOL     OW22357   4.203   5.504   1.754
 7153SOL    HW122358   4.175   5.546   1.668
 7153SOL    HW222359   4.181   5.564   1.830
 7154SOL     OW22360   4.551   6.855   3.402
 7154SOL    HW122361   4.505   6.943   3.409
 7154SOL    HW222362   4.509   6.800   3.330
 7155SOL     OW22363   1.686   3.495   0.798
 7155SOL    HW122364   1.759   3.516   0.863
 7155SOL    HW222365   1.675   3.571   0.734
 7156SOL     OW22366   6.815   3.275   4.274
 7156SOL    HW122367   6.848   3.232   4.190
 7156SOL    HW222368   6.864   3.361   4.289
 7157SOL     OW22369   0.206   3.542   1.432
 7157SOL    HW122370   0.149   3.471   1.391
 7157SOL    HW222371   0.154   3.588   1.504
 7158SOL     OW22372   1.391   6.932   3.751
 7158SOL    HW122373   1.315   6.971   3.700
 7158SOL    HW222374   1.386   6.962   3.846
 7159SOL     OW22375   0.860   4.768   2.714
 7159SOL    HW122376   0.881   4.671   2.711
 7159SOL    HW222377   0.827   4.793   2.806
 7160SOL     OW22378   5.592   0.564   2.744
 7160SOL    HW122379   5.561   0.523   2.830
 7160SOL    HW222380   5.664   0.631   2.763
 7161SOL     OW22381   3.457   4.215   3.470
 7161SOL    HW122382   3.484   4.172   3.556
 7161SOL    HW222383   3.502   4.304   3.461
 7162SOL     OW22384   1.101   5.590   6.663
 7162SOL    HW122385   1.065   5.546   6.580
 7162SOL    HW222386   1.200   5.595   6.657
 7163SOL     OW22387   3.063   6.476   2.634
 7163SOL    HW122388   3.053   6.565   2.590
 7163SOL    HW222389   2.995   6.413   2.597
 7164SOL     OW22390   3.114   0.303   4.217
 7164SOL    HW122391   3.038   0.366   4.205
 7164SOL    HW222392   3.152   0.313   4.309
 7165SOL     OW22393   6.912   0.957   2.899
 7165SOL    HW122394   6.888   1.022   2.827
 7165SOL    HW222395   6.904   1.001   2.988
 7166SOL     OW22396   5.099   2.058   0.904
 7166SOL    HW122397   5.112   2.092   0.811
 7166SOL    HW222398   5.014   2.006   0.910
 7167SOL     OW22399   5.734   3.463   4.364
 7167SOL    HW122400   5.701   3.501   4.451
 7167SOL    HW222401   5.711   3.365   4.360
 7168SOL     OW22402   1.536   2.799   2.838
 7168SOL    HW122403   1.568   2.745   2.760
 7168SOL    HW222404   1.562   2.752   2.923
 7169SOL     OW22405   1.024   2.789   5.420
 7169SOL    HW122406   0.982   2.876   5.445
 7169SOL    HW222407   1.094   2.805   5.350
 7170SOL     OW22408   4.759   6.914   3.554
 7170SOL    HW122409   4.678   6.900   3.497
 7170SOL    HW222410   4.778   7.012   3.560
 7171SOL     OW22411   6.249   3.609   0.051
 7171SOL    HW122412   6.188   3.533   0.027
 7171SOL    HW222413   6.339   3.593   0.010
 7172SOL     OW22414   1.018   0.062   4.516
 7172SOL    HW122415   0.993   7.010   4.459
 7172SOL    HW222416   1.094   0.037   4.576
 7173SOL     OW22417   6.969   4.571   6.689
 7173SOL    HW122418   7.010   4.607   6.773
 7173SOL    HW222419   6.967   4.471   6.693
 7174SOL     OW22420   1.480   3.635   0.454
 7174SOL    HW122421   1.411   3.623   0.382
 7174SOL    HW222422   1.451   3.586   0.536
 7175SOL     OW22423   5.644   3.111   6.381
 7175SOL    HW122424   5.548   3.101   6.352
 7175SOL    HW222425   5.647   3.155   6.471
 7176SOL     OW22426   6.761   0.641   3.111
 7176SOL    HW122427   6.780   0.642   3.013
 7176SOL    HW222428   6.792   0.726   3.152
 7177SOL     OW22429   1.303   4.931   4.650
 7177SOL    HW122430   1.397   4.945   4.619
 7177SOL    HW222431   1.266   5.017   4.686
 7178SOL     OW22432   0.834   1.402   5.834
 7178SOL    HW122433   0.907   1.460   5.798
 7178SOL    HW222434   0.746   1.450   5.827
 7179SOL     OW22435   2.129   3.470   4.352
 7179SOL    HW122436   2.031   3.447   4.354
 7179SOL    HW222437   2.182   3.395   4.391
 7180SOL     OW22438   2.128   5.171   0.189
 7180SOL    HW122439   2.105   5.265   0.165
 7180SOL    HW222440   2.162   5.123   0.108
 7181SOL     OW22441   2.277   6.912   0.482
 7181SOL    HW122442   2.332   6.833   0.454
 7181SOL    HW222443   2.312   6.949   0.568
 7182SOL     OW22444   0.191   2.893   4.966
 7182SOL    HW122445   0.275   2.839   4.971
 7182SOL    HW222446   0.200   2.962   4.895
 7183SOL     OW22447   1.887   5.686   0.916
 7183SOL    HW122448   1.919   5.591   0.918
 7183SOL    HW222449   1.845   5.709   1.003
 7184SOL     OW22450   6.688   1.162   3.424
 7184SOL    HW122451   6.674   1.115   3.337
 7184SOL    HW222452   6.609   1.220   3.444
 7185SOL     OW22453   5.720   0.411   4.581
 7185SOL    HW122454   5.683   0.326   4.617
 7185SOL    HW222455   5.773   0.458   4.652
 7186SOL     OW22456   6.830   1.952   1.371
 7186SOL    HW122457   6.753   1.888   1.369
 7186SOL    HW222458   6.840   1.995   1.282
 7187SOL     OW22459   4.091   4.139   6.568
 7187SOL    HW122460   4.117   4.223   6.519
 7187SOL    HW222461   3.994   4.122   6.554
 7188SOL     OW22462   5.705   0.585   0.168
 7188SOL    HW122463   5.698   0.498   0.217
 7188SOL    HW222464   5.682   0.571   0.072
 7189SOL     OW22465   6.810   1.062   5.334
 7189SOL    HW122466   6.738   1.121   5.371
 7189SOL    HW222467   6.837   0.995   5.403
 7190SOL     OW22468   0.026   3.711   2.315
 7190SOL    HW122469   0.035   3.612   2.303
 7190SOL    HW222470   0.013   3.754   2.226
 7191SOL     OW22471   1.164   5.393   2.648
 7191SOL    HW122472   1.224   5.388   2.728
 7191SOL    HW222473   1.082   5.445   2.671
 7192SOL     OW22474   2.876   4.455   5.718
 7192SOL    HW122475   2.924   4.503   5.645
 7192SOL    HW222476   2.865   4.359   5.693
 7193SOL     OW22477   0.937   2.801   2.464
 7193SOL    HW122478   0.936   2.765   2.371
 7193SOL    HW222479   0.847   2.789   2.506
 7194SOL     OW22480   2.867   2.696   0.502
 7194SOL    HW122481   2.884   2.794   0.507
 7194SOL    HW222482   2.950   2.648   0.475
 7195SOL     OW22483   1.078   3.707   6.969
 7195SOL    HW122484   1.093   3.766   6.889
 7195SOL    HW222485   1.011   3.637   6.947
 7196SOL     OW22486   2.839   3.832   1.647
 7196SOL    HW122487   2.759   3.775   1.629
 7196SOL    HW222488   2.837   3.913   1.588
 7197SOL     OW22489   0.520   2.299   6.309
 7197SOL    HW122490   0.595   2.234   6.296
 7197SOL    HW222491   0.531   2.347   6.396
 7198SOL     OW22492   6.835   0.594   0.804
 7198SOL    HW122493   6.851   0.687   0.836
 7198SOL    HW222494   6.819   0.534   0.883
 7199SOL     OW22495   1.647   0.745   2.383
 7199SOL    HW122496   1.736   0.791   2.377
 7199SOL    HW222497   1.575   0.808   2.355
 7200SOL     OW22498   2.628   2.448   0.002
 7200SOL    HW122499   2.547   2.416   6.979
 7200SOL    HW222500   2.619   2.546   0.020
 7201SOL     OW22501   0.635   5.512   4.397
 7201SOL    HW122502   0.559   5.495   4.335
 7201SOL    HW222503   0.695   5.583   4.359
 7202SOL     OW22504   5.321   6.965   6.986
 7202SOL    HW122505   5.375   0.017   6.957
 7202SOL    HW222506   5.349   6.937   0.051
 7203SOL     OW22507   0.409   1.783   1.021
 7203SOL    HW122508   0.498   1.809   0.984
 7203SOL    HW222509   0.337   1.802   0.954
 7204SOL     OW22510   0.298   0.172   5.565
 7204SOL    HW122511   0.395   0.183   5.587
 7204SOL    HW222512   0.283   0.194   5.468
 7205SOL     OW22513   0.987   4.245   3.875
 7205SOL    HW122514   0.899   4.221   3.916
 7205SOL    HW222515   1.030   4.318   3.928
 7206SOL     OW22516   1.386   0.603   1.694
 7206SOL    HW122517   1.306   0.553   1.660
 7206SOL    HW222518   1.399   0.584   1.791
 7207SOL     OW22519   3.544   0.641   2.502
 7207SOL    HW122520   3.567   0.681   2.413
 7207SOL    HW222521   3.579   0.700   2.575
 7208SOL     OW22522   3.793   6.943   3.345
 7208SOL    HW122523   3.854   7.022   3.344
 7208SOL    HW222524   3.709   6.964   3.295
 7209SOL     OW22525   2.947   3.445   1.438
 7209SOL    HW122526   2.992   3.356   1.426
 7209SOL    HW222527   2.911   3.476   1.350
 7210SOL     OW22528   4.634   1.178   3.512
 7210SOL    HW122529   4.673   1.156   3.423
 7210SOL    HW222530   4.689   1.250   3.555
 7211SOL     OW22531   3.195   6.973   4.495
 7211SOL    HW122532   3.243   7.015   4.418
 7211SOL    HW222533   3.159   6.884   4.468
 7212SOL     OW22534   0.485   6.018   4.870
 7212SOL    HW122535   0.546   5.946   4.837
 7212SOL    HW222536   0.394   6.006   4.831
 7213SOL     OW22537   5.377   6.148   0.491
 7213SOL    HW122538   5.444   6.203   0.440
 7213SOL    HW222539   5.285   6.175   0.464
 7214SOL     OW22540   6.305   6.518   5.549
 7214SOL    HW122541   6.231   6.546   5.610
 7214SOL    HW222542   6.341   6.598   5.501
 7215SOL     OW22543   7.013   3.715   4.674
 7215SOL    HW122544   6.987   3.812   4.673
 7215SOL    HW222545   6.960   3.666   4.605
 7216SOL     OW22546   3.345   0.029   6.837
 7216SOL    HW122547   3.357   0.013   6.935
 7216SOL    HW222548   3.275   6.994   6.801
 7217SOL     OW22549   1.975   3.840   3.441
 7217SOL    HW122550   1.881   3.838   3.405
 7217SOL    HW222551   2.039   3.812   3.370
 7218SOL     OW22552   5.657   3.480   5.414
 7218SOL    HW122553   5.615   3.504   5.501
 7218SOL    HW222554   5.754   3.504   5.416
 7219SOL     OW22555   5.045   0.249   3.110
 7219SOL    HW122556   5.125   0.190   3.104
 7219SOL    HW222557   5.029   0.275   3.205
 7220SOL     OW22558   1.154   4.727   5.099
 7220SOL    HW122559   1.108   4.645   5.065
 7220SOL    HW222560   1.209   4.767   5.026
 7221SOL     OW22561   3.639   6.179   4.533
 7221SOL    HW122562   3.601   6.119   4.463
 7221SOL    HW222563   3.582   6.175   4.615
 7222SOL     OW22564   5.929   6.890   2.913
 7222SOL    HW122565   5.857   6.921   2.850
 7222SOL    HW222566   5.932   6.790   2.914
 7223SOL     OW22567   2.718   1.174   0.570
 7223SOL    HW122568   2.678   1.082   0.567
 7223SOL    HW222569   2.787   1.177   0.642
 7224SOL     OW22570   5.547   1.694   4.182
 7224SOL    HW122571   5.623   1.699   4.117
 7224SOL    HW222572   5.490   1.615   4.161
 7225SOL     OW22573   1.109   5.341   0.604
 7225SOL    HW122574   1.058   5.397   0.540
 7225SOL    HW222575   1.137   5.397   0.683
 7226SOL     OW22576   6.994   1.748   1.763
 7226SOL    HW122577   0.043   1.813   1.753
 7226SOL    HW222578   6.971   1.711   1.673
 7227SOL     OW22579   1.670   2.257   1.124
 7227SOL    HW122580   1.720   2.176   1.092
 7227SOL    HW222581   1.615   2.233   1.204
 7228SOL     OW22582   0.978   2.106   2.906
 7228SOL    HW122583   0.919   2.164   2.849
 7228SOL    HW222584   1.072   2.112   2.875
 7229SOL     OW22585   1.749   6.144   5.715
 7229SOL    HW122586   1.805   6.177   5.791
 7229SOL    HW222587   1.758   6.206   5.637
 7230SOL     OW22588   3.546   5.233   4.601
 7230SOL    HW122589   3.491   5.149   4.604
 7230SOL    HW222590   3.501   5.300   4.543
 7231SOL     OW22591   4.134   0.938   6.673
 7231SOL    HW122592   4.124   0.970   6.579
 7231SOL    HW222593   4.218   0.975   6.712
 7232SOL     OW22594   5.084   5.972   3.477
 7232SOL    HW122595   5.025   5.891   3.478
 7232SOL    HW222596   5.166   5.955   3.533
 7233SOL     OW22597   1.106   1.747   4.073
 7233SOL    HW122598   1.165   1.670   4.049
 7233SOL    HW222599   1.010   1.717   4.071
 7234SOL     OW22600   5.480   3.325   4.040
 7234SOL    HW122601   5.514   3.288   4.126
 7234SOL    HW222602   5.497   3.424   4.037
 7235SOL     OW22603   0.172   4.631   2.144
 7235SOL    HW122604   0.252   4.600   2.092
 7235SOL    HW222605   0.091   4.581   2.114
 7236SOL     OW22606   1.996   1.659   1.887
 7236SOL    HW122607   2.041   1.742   1.921
 7236SOL    HW222608   1.897   1.673   1.885
 7237SOL     OW22609   4.208   0.615   5.223
 7237SOL    HW122610   4.126   0.674   5.226
 7237SOL    HW222611   4.180   0.520   5.211
 7238SOL     OW22612   3.307   1.710   0.730
 7238SOL    HW122613   3.300   1.786   0.794
 7238SOL    HW222614   3.229   1.710   0.669
 7239SOL     OW22615   1.230   2.563   2.716
 7239SOL    HW122616   1.135   2.532   2.712
 7239SOL    HW222617   1.233   2.659   2.742
 7240SOL     OW22618   1.286   6.725   5.885
 7240SOL    HW122619   1.274   6.688   5.978
 7240SOL    HW222620   1.287   6.650   5.820
 7241SOL     OW22621   1.553   0.801   0.489
 7241SOL    HW122622   1.645   0.828   0.462
 7241SOL    HW222623   1.558   0.735   0.564
 7242SOL     OW22624   6.584   6.314   0.436
 7242SOL    HW122625   6.649   6.377   0.478
 7242SOL    HW222626   6.494   6.358   0.430
 7243SOL     OW22627   6.780   4.512   6.322
 7243SOL    HW122628   6.865   4.500   6.271
 7243SOL    HW222629   6.717   4.438   6.300
 7244SOL     OW22630   5.738   1.192   2.036
 7244SOL    HW122631   5.816   1.207   1.975
 7244SOL    HW222632   5.757   1.115   2.097
 7245SOL     OW22633   1.013   2.004   4.835
 7245SOL    HW122634   1.102   1.965   4.856
 7245SOL    HW222635   0.998   2.085   4.892
 7246SOL     OW22636   6.997   0.143   4.266
 7246SOL    HW122637   0.022   0.102   4.191
 7246SOL    HW222638   6.939   0.217   4.231
 7247SOL     OW22639   2.265   0.819   4.380
 7247SOL    HW122640   2.339   0.840   4.316
 7247SOL    HW222641   2.193   0.887   4.372
 7248SOL     OW22642   2.341   1.403   3.318
 7248SOL    HW122643   2.391   1.370   3.399
 7248SOL    HW222644   2.391   1.477   3.274
 7249SOL     OW22645   6.384   4.889   2.675
 7249SOL    HW122646   6.478   4.862   2.654
 7249SOL    HW222647   6.356   4.962   2.613
 7250SOL     OW22648   4.563   6.734   6.169
 7250SOL    HW122649   4.589   6.728   6.072
 7250SOL    HW222650   4.478   6.784   6.178
 7251SOL     OW22651   0.603   6.581   5.831
 7251SOL    HW122652   0.689   6.571   5.782
 7251SOL    HW222653   0.551   6.495   5.825
 7252SOL     OW22654   3.765   3.687   2.686
 7252SOL    HW122655   3.799   3.658   2.596
 7252SOL    HW222656   3.835   3.742   2.732
 7253SOL     OW22657   2.193   6.182   6.697
 7253SOL    HW122658   2.244   6.208   6.779
 7253SOL    HW222659   2.174   6.084   6.699
 7254SOL     OW22660   4.552   5.311   4.070
 7254SOL    HW122661   4.584   5.262   4.150
 7254SOL    HW222662   4.538   5.247   3.994
 7255SOL     OW22663   3.018   3.985   0.920
 7255SOL    HW122664   3.115   4.000   0.900
 7255SOL    HW222665   2.986   3.905   0.870
 7256SOL     OW22666   3.810   5.110   4.254
 7256SOL    HW122667   3.771   5.201   4.241
 7256SOL    HW222668   3.767   5.066   4.332
 7257SOL     OW22669   5.823   2.905   3.590
 7257SOL    HW122670   5.866   2.817   3.606
 7257SOL    HW222671   5.848   2.940   3.500
 7258SOL     OW22672   4.248   1.688   3.674
 7258SOL    HW122673   4.180   1.698   3.601
 7258SOL    HW222674   4.328   1.744   3.654
 7259SOL     OW22675   2.845   3.625   1.223
 7259SOL    HW122676   2.776   3.587   1.163
 7259SOL    HW222677   2.801   3.679   1.295
 7260SOL     OW22678   3.553   1.808   2.115
 7260SOL    HW122679   3.473   1.776   2.063
 7260SOL    HW222680   3.605   1.872   2.059
 7261SOL     OW22681   1.672   2.657   1.333
 7261SOL    HW122682   1.668   2.662   1.233
 7261SOL    HW222683   1.586   2.619   1.367
 7262SOL     OW22684   5.020   1.739   5.813
 7262SOL    HW122685   4.992   1.755   5.719
 7262SOL    HW222686   5.066   1.650   5.820
 7263SOL     OW22687   0.982   6.855   0.552
 7263SOL    HW122688   0.977   6.829   0.456
 7263SOL    HW222689   0.894   6.890   0.582
 7264SOL     OW22690   5.522   1.342   6.406
 7264SOL    HW122691   5.454   1.286   6.358
 7264SOL    HW222692   5.564   1.287   6.479
 7265SOL     OW22693   5.541   5.397   5.792
 7265SOL    HW122694   5.572   5.469   5.853
 7265SOL    HW222695   5.614   5.373   5.728
 7266SOL     OW22696   5.650   0.224   1.226
 7266SOL    HW122697   5.591   0.148   1.200
 7266SOL    HW222698   5.680   0.212   1.321
 7267SOL     OW22699   6.534   5.693   5.411
 7267SOL    HW122700   6.487   5.713   5.325
 7267SOL    HW222701   6.469   5.650   5.474
 7268SOL     OW22702   5.510   5.262   3.795
 7268SOL    HW122703   5.485   5.269   3.699
 7268SOL    HW222704   5.432   5.228   3.848
 7269SOL     OW22705   0.071   6.565   0.301
 7269SOL    HW122706   0.072   6.465   0.301
 7269SOL    HW222707   0.164   6.599   0.308
 7270SOL     OW22708   1.591   3.299   5.766
 7270SOL    HW122709   1.689   3.290   5.787
 7270SOL    HW222710   1.572   3.258   5.678
 7271SOL     OW22711   0.283   6.190   3.029
 7271SOL    HW122712   0.376   6.174   2.997
 7271SOL    HW222713   0.242   6.265   2.977
 7272SOL     OW22714   5.789   5.321   2.030
 7272SOL    HW122715   5.770   5.339   1.934
 7272SOL    HW222716   5.752   5.396   2.086
 7273SOL     OW22717   5.511   4.604   1.917
 7273SOL    HW122718   5.497   4.528   1.980
 7273SOL    HW222719   5.573   4.671   1.958
 7274SOL     OW22720   0.678   5.633   6.884
 7274SOL    HW122721   0.632   5.684   6.811
 7274SOL    HW222722   0.760   5.683   6.912
 7275SOL     OW22723   6.482   0.279   2.597
 7275SOL    HW122724   6.542   0.223   2.540
 7275SOL    HW222725   6.532   0.361   2.627
 7276SOL     OW22726   3.530   1.807   3.114
 7276SOL    HW122727   3.597   1.746   3.156
 7276SOL    HW222728   3.546   1.901   3.144
 7277SOL     OW22729   4.776   0.448   3.481
 7277SOL    HW122730   4.684   0.413   3.497
 7277SOL    HW222731   4.817   0.477   3.567
 7278SOL     OW22732   3.354   2.572   1.415
 7278SOL    HW122733   3.258   2.560   1.389
 7278SOL    HW222734   3.393   2.649   1.365
 7279SOL     OW22735   3.645   3.803   5.656
 7279SOL    HW122736   3.654   3.713   5.698
 7279SOL    HW222737   3.589   3.796   5.573
 7280SOL     OW22738   0.183   1.878   4.047
 7280SOL    HW122739   0.257   1.886   3.980
 7280SOL    HW222740   0.147   1.785   4.046
 7281SOL     OW22741   1.384   1.058   0.075
 7281SOL    HW122742   1.384   0.984   0.142
 7281SOL    HW222743   1.422   1.026   7.015
 7282SOL     OW22744   5.759   6.445   1.523
 7282SOL    HW122745   5.735   6.349   1.509
 7282SOL    HW222746   5.834   6.470   1.463
 7283SOL     OW22747   3.660   0.876   1.830
 7283SOL    HW122748   3.692   0.803   1.770
 7283SOL    HW222749   3.573   0.912   1.795
 7284SOL     OW22750   6.839   2.096   5.556
 7284SOL    HW122751   6.906   2.022   5.561
 7284SOL    HW222752   6.814   2.125   5.648
 7285SOL     OW22753   5.282   3.690   1.734
 7285SOL    HW122754   5.214   3.692   1.660
 7285SOL    HW222755   5.236   3.686   1.822
 7286SOL     OW22756   0.914   0.707   1.235
 7286SOL    HW122757   0.856   0.625   1.235
 7286SOL    HW222758   1.008   0.681   1.213
 7287SOL     OW22759   6.430   2.862   5.148
 7287SOL    HW122760   6.341   2.907   5.139
 7287SOL    HW222761   6.440   2.825   5.241
 7288SOL     OW22762   1.684   1.785   1.429
 7288SOL    HW122763   1.660   1.881   1.441
 7288SOL    HW222764   1.654   1.733   1.509
 7289SOL     OW22765   5.732   2.687   4.157
 7289SOL    HW122766   5.777   2.624   4.220
 7289SOL    HW222767   5.799   2.751   4.121
 7290SOL     OW22768   2.287   1.475   4.783
 7290SOL    HW122769   2.355   1.480   4.857
 7290SOL    HW222770   2.226   1.398   4.799
 7291SOL     OW22771   1.647   7.005   0.531
 7291SOL    HW122772   1.568   0.028   0.569
 7291SOL    HW222773   1.660   6.919   0.582
 7292SOL     OW22774   3.234   0.447   3.017
 7292SOL    HW122775   3.136   0.454   3.000
 7292SOL    HW222776   3.280   0.528   2.982
 7293SOL     OW22777   1.059   1.622   5.299
 7293SOL    HW122778   0.999   1.573   5.362
 7293SOL    HW222779   1.097   1.702   5.344
 7294SOL     OW22780   3.155   4.826   0.500
 7294SOL    HW122781   3.096   4.748   0.522
 7294SOL    HW222782   3.129   4.904   0.558
 7295SOL     OW22783   6.265   3.844   0.880
 7295SOL    HW122784   6.301   3.890   0.799
 7295SOL    HW222785   6.285   3.898   0.961
 7296SOL     OW22786   4.222   5.802   1.940
 7296SOL    HW122787   4.285   5.858   1.886
 7296SOL    HW222788   4.274   5.741   2.000
 7297SOL     OW22789   3.290   6.629   1.232
 7297SOL    HW122790   3.224   6.653   1.161
 7297SOL    HW222791   3.319   6.712   1.280
 7298SOL     OW22792   4.663   5.157   5.952
 7298SOL    HW122793   4.569   5.187   5.967
 7298SOL    HW222794   4.663   5.067   5.908
 7299SOL     OW22795   1.149   2.349   0.707
 7299SOL    HW122796   1.227   2.378   0.651
 7299SOL    HW222797   1.169   2.261   0.749
 7300SOL     OW22798   0.730   6.910   2.288
 7300SOL    HW122799   0.747   7.003   2.319
 7300SOL    HW222800   0.785   6.891   2.207
 7301SOL     OW22801   5.367   2.549   5.169
 7301SOL    HW122802   5.368   2.542   5.069
 7301SOL    HW222803   5.460   2.568   5.201
 7302SOL     OW22804   0.170   2.471   6.394
 7302SOL    HW122805   0.164   2.520   6.481
 7302SOL    HW222806   0.080   2.431   6.373
 7303SOL     OW22807   3.518   0.829   6.595
 7303SOL    HW122808   3.537   0.786   6.683
 7303SOL    HW222809   3.596   0.817   6.534
 7304SOL     OW22810   3.029   5.355   1.509
 7304SOL    HW122811   2.940   5.398   1.491
 7304SOL    HW222812   3.014   5.268   1.556
 7305SOL     OW22813   5.445   1.900   1.566
 7305SOL    HW122814   5.453   1.812   1.520
 7305SOL    HW222815   5.392   1.889   1.650
 7306SOL     OW22816   3.877   1.869   1.659
 7306SOL    HW122817   3.883   1.832   1.752
 7306SOL    HW222818   3.847   1.964   1.663
 7307SOL     OW22819   3.185   6.234   2.427
 7307SOL    HW122820   3.243   6.208   2.504
 7307SOL    HW222821   3.105   6.284   2.461
 7308SOL     OW22822   6.176   1.719   4.086
 7308SOL    HW122823   6.137   1.678   4.168
 7308SOL    HW222824   6.261   1.672   4.061
 7309SOL     OW22825   4.077   5.752   1.640
 7309SOL    HW122826   4.171   5.784   1.652
 7309SOL    HW222827   4.015   5.830   1.636
 7310SOL     OW22828   2.313   3.578   0.553
 7310SOL    HW122829   2.279   3.653   0.496
 7310SOL    HW222830   2.257   3.571   0.636
 7311SOL     OW22831   1.495   1.851   1.184
 7311SOL    HW122832   1.426   1.823   1.251
 7311SOL    HW222833   1.451   1.865   1.095
 7312SOL     OW22834   1.234   2.541   4.629
 7312SOL    HW122835   1.154   2.594   4.604
 7312SOL    HW222836   1.288   2.520   4.547
 7313SOL     OW22837   1.943   1.434   0.155
 7313SOL    HW122838   2.014   1.466   0.218
 7313SOL    HW222839   1.853   1.442   0.199
 7314SOL     OW22840   0.118   3.850   6.294
 7314SOL    HW122841   0.080   3.773   6.347
 7314SOL    HW222842   0.073   3.934   6.322
 7315SOL     OW22843   5.282   5.722   1.641
 7315SOL    HW122844   5.295   5.756   1.548
 7315SOL    HW222845   5.285   5.622   1.641
 7316SOL     OW22846   2.938   3.087   6.566
 7316SOL    HW122847   2.897   3.002   6.532
 7316SOL    HW222848   3.017   3.110   6.509
 7317SOL     OW22849   4.156   1.869   1.630
 7317SOL    HW122850   4.222   1.809   1.586
 7317SOL    HW222851   4.063   1.834   1.616
 7318SOL     OW22852   2.725   0.047   2.100
 7318SOL    HW122853   2.711   0.141   2.069
 7318SOL    HW222854   2.642   7.021   2.081
 7319SOL     OW22855   6.269   3.533   6.737
 7319SOL    HW122856   6.317   3.468   6.678
 7319SOL    HW222857   6.172   3.535   6.713
 7320SOL     OW22858   0.444   3.613   1.332
 7320SOL    HW122859   0.487   3.670   1.402
 7320SOL    HW222860   0.350   3.593   1.358
 7321SOL     OW22861   2.028   6.470   5.477
 7321SOL    HW122862   2.101   6.494   5.413
 7321SOL    HW222863   2.066   6.426   5.558
 7322SOL     OW22864   6.799   2.747   3.168
 7322SOL    HW122865   6.890   2.763   3.129
 7322SOL    HW222866   6.730   2.758   3.096
 7323SOL     OW22867   2.136   2.883   1.561
 7323SOL    HW122868   2.039   2.886   1.536
 7323SOL    HW222869   2.192   2.894   1.479
 7324SOL     OW22870   5.381   4.734   1.701
 7324SOL    HW122871   5.443   4.791   1.648
 7324SOL    HW222872   5.431   4.696   1.780
 7325SOL     OW22873   2.987   0.355   5.867
 7325SOL    HW122874   2.976   0.447   5.905
 7325SOL    HW222875   3.025   0.362   5.774
 7326SOL     OW22876   3.529   5.762   6.006
 7326SOL    HW122877   3.626   5.741   6.015
 7326SOL    HW222878   3.481   5.681   5.972
 7327SOL     OW22879   6.381   2.638   4.972
 7327SOL    HW122880   6.475   2.627   4.941
 7327SOL    HW222881   6.378   2.698   5.052
 7328SOL     OW22882   4.761   6.730   5.835
 7328SOL    HW122883   4.818   6.667   5.888
 7328SOL    HW222884   4.736   6.687   5.748
 7329SOL     OW22885   0.710   4.175   0.701
 7329SOL    HW122886   0.688   4.095   0.758
 7329SOL    HW222887   0.647   4.250   0.722
 7330SOL     OW22888   2.543   3.127   0.102
 7330SOL    HW122889   2.481   3.177   0.162
 7330SOL    HW222890   2.609   3.076   0.157
 7331SOL     OW22891   5.531   6.460   0.847
 7331SOL    HW122892   5.559   6.367   0.824
 7331SOL    HW222893   5.458   6.489   0.786
 7332SOL     OW22894   3.291   4.821   0.256
 7332SOL    HW122895   3.359   4.889   0.284
 7332SOL    HW222896   3.213   4.825   0.318
 7333SOL     OW22897   6.074   2.598   3.261
 7333SOL    HW122898   6.000   2.531   3.252
 7333SOL    HW222899   6.035   2.691   3.263
 7334SOL     OW22900   2.048   6.699   6.339
 7334SOL    HW122901   2.085   6.656   6.421
 7334SOL    HW222902   2.064   6.798   6.342
 7335SOL     OW22903   0.367   3.132   3.190
 7335SOL    HW122904   0.452   3.087   3.216
 7335SOL    HW222905   0.379   3.180   3.103
 7336SOL     OW22906   2.357   6.765   2.259
 7336SOL    HW122907   2.298   6.845   2.255
 7336SOL    HW222908   2.323   6.694   2.198
 7337SOL     OW22909   1.650   2.993   2.087
 7337SOL    HW122910   1.616   3.069   2.142
 7337SOL    HW222911   1.695   3.030   2.005
 7338SOL     OW22912   5.595   1.779   1.849
 7338SOL    HW122913   5.636   1.687   1.844
 7338SOL    HW222914   5.546   1.789   1.935
 7339SOL     OW22915   5.923   0.253   4.886
 7339SOL    HW122916   5.853   0.200   4.839
 7339SOL    HW222917   5.992   0.191   4.924
 7340SOL     OW22918   3.455   1.501   0.160
 7340SOL    HW122919   3.404   1.575   0.203
 7340SOL    HW222920   3.413   1.413   0.183
 7341SOL     OW22921   1.070   4.568   4.707
 7341SOL    HW122922   1.134   4.502   4.746
 7341SOL    HW222923   0.976   4.534   4.717
 7342SOL     OW22924   0.086   6.557   6.523
 7342SOL    HW122925   0.006   6.617   6.532
 7342SOL    HW222926   0.121   6.562   6.430
 7343SOL     OW22927   5.812   4.504   1.536
 7343SOL    HW122928   5.824   4.446   1.456
 7343SOL    HW222929   5.740   4.467   1.594
 7344SOL     OW22930   1.239   0.587   5.760
 7344SOL    HW122931   1.197   0.496   5.754
 7344SOL    HW222932   1.298   0.601   5.680
 7345SOL     OW22933   4.793   5.651   5.363
 7345SOL    HW122934   4.845   5.570   5.336
 7345SOL    HW222935   4.775   5.648   5.461
 7346SOL     OW22936   4.345   3.863   1.618
 7346SOL    HW122937   4.270   3.911   1.665
 7346SOL    HW222938   4.357   3.902   1.527
 7347SOL     OW22939   0.798   3.168   1.164
 7347SOL    HW122940   0.770   3.185   1.069
 7347SOL    HW222941   0.731   3.110   1.209
 7348SOL     OW22942   1.228   3.658   3.471
 7348SOL    HW122943   1.183   3.690   3.554
 7348SOL    HW222944   1.323   3.687   3.471
 7349SOL     OW22945   4.617   2.081   0.418
 7349SOL    HW122946   4.675   2.049   0.492
 7349SOL    HW222947   4.600   2.007   0.354
 7350SOL     OW22948   1.843   2.976   5.515
 7350SOL    HW122949   1.873   3.070   5.503
 7350SOL    HW222950   1.791   2.948   5.434
 7351SOL     OW22951   5.022   5.867   5.383
 7351SOL    HW122952   5.036   5.888   5.480
 7351SOL    HW222953   4.927   5.840   5.368
 7352SOL     OW22954   1.681   3.022   2.931
 7352SOL    HW122955   1.619   2.956   2.886
 7352SOL    HW222956   1.653   3.034   3.026
 7353SOL     OW22957   0.294   6.855   5.953
 7353SOL    HW122958   0.274   6.953   5.950
 7353SOL    HW222959   0.223   6.806   5.903
 7354SOL     OW22960   0.657   1.938   6.726
 7354SOL    HW122961   0.683   2.028   6.760
 7354SOL    HW222962   0.652   1.874   6.802
 7355SOL     OW22963   1.839   1.627   0.558
 7355SOL    HW122964   1.826   1.716   0.601
 7355SOL    HW222965   1.921   1.629   0.501
 7356SOL     OW22966   3.746   3.580   5.771
 7356SOL    HW122967   3.739   3.480   5.767
 7356SOL    HW222968   3.822   3.606   5.830
 7357SOL     OW22969   4.522   0.234   1.684
 7357SOL    HW122970   4.601   0.292   1.669
 7357SOL    HW222971   4.438   0.284   1.660
 7358SOL     OW22972   0.422   2.762   2.690
 7358SOL    HW122973   0.486   2.717   2.628
 7358SOL    HW222974   0.328   2.737   2.665
 7359SOL     OW22975   2.675   2.716   6.185
 7359SOL    HW122976   2.598   2.679   6.238
 7359SOL    HW222977   2.682   2.668   6.098
 7360SOL     OW22978   3.376   4.367   5.857
 7360SOL    HW122979   3.380   4.276   5.899
 7360SOL    HW222980   3.398   4.436   5.926
 7361SOL     OW22981   4.282   0.370   1.666
 7361SOL    HW122982   4.222   0.379   1.746
 7361SOL    HW222983   4.239   0.309   1.599
 7362SOL     OW22984   0.993   5.430   4.395
 7362SOL    HW122985   0.968   5.494   4.322
 7362SOL    HW222986   0.982   5.474   4.484
 7363SOL     OW22987   4.081   1.570   1.061
 7363SOL    HW122988   4.173   1.544   1.032
 7363SOL    HW222989   4.016   1.499   1.034
 7364SOL     OW22990   4.070   0.784   1.082
 7364SOL    HW122991   4.016   0.868   1.087
 7364SOL    HW222992   4.167   0.808   1.076
 7365SOL     OW22993   1.454   0.199   1.955
 7365SOL    HW122994   1.447   0.227   1.859
 7365SOL    HW222995   1.506   0.114   1.961
 7366SOL     OW22996   2.110   5.736   6.913
 7366SOL    HW122997   2.155   5.764   6.998
 7366SOL    HW222998   2.011   5.737   6.926
 7367SOL     OW22999   4.609   3.544   1.417
 7367SOL    HW123000   4.533   3.579   1.363
 7367SOL    HW223001   4.586   3.452   1.451
 7368SOL     OW23002   3.860   2.986   3.406
 7368SOL    HW123003   3.787   2.952   3.465
 7368SOL    HW223004   3.896   3.071   3.444
 7369SOL     OW23005   4.174   2.433   6.733
 7369SOL    HW123006   4.086   2.403   6.769
 7369SOL    HW223007   4.198   2.378   6.653
 7370SOL     OW23008   2.951   0.900   4.862
 7370SOL    HW123009   2.878   0.840   4.829
 7370SOL    HW223010   2.982   0.958   4.787
 7371SOL     OW23011   1.929   5.846   3.643
 7371SOL    HW123012   1.898   5.934   3.606
 7371SOL    HW223013   2.017   5.822   3.603
 7372SOL     OW23014   4.056   1.417   5.113
 7372SOL    HW123015   4.066   1.384   5.019
 7372SOL    HW223016   4.079   1.514   5.117
 7373SOL     OW23017   5.824   1.353   4.383
 7373SOL    HW123018   5.753   1.378   4.448
 7373SOL    HW223019   5.909   1.333   4.433
 7374SOL     OW23020   3.265   1.267   5.667
 7374SOL    HW123021   3.275   1.286   5.570
 7374SOL    HW223022   3.324   1.329   5.719
 7375SOL     OW23023   2.065   3.088   3.174
 7375SOL    HW123024   2.008   3.044   3.243
 7375SOL    HW223025   2.019   3.086   3.086
 7376SOL     OW23026   3.345   1.770   0.242
 7376SOL    HW123027   3.303   1.831   0.310
 7376SOL    HW223028   3.423   1.817   0.200
 7377SOL     OW23029   5.427   4.669   0.646
 7377SOL    HW123030   5.411   4.572   0.665
 7377SOL    HW223031   5.360   4.725   0.697
 7378SOL     OW23032   0.695   1.158   5.785
 7378SOL    HW123033   0.745   1.244   5.789
 7378SOL    HW223034   0.759   1.082   5.774
 7379SOL     OW23035   3.047   2.182   2.934
 7379SOL    HW123036   2.975   2.225   2.880
 7379SOL    HW223037   3.116   2.143   2.873
 7380SOL     OW23038   0.590   3.745   4.963
 7380SOL    HW123039   0.521   3.737   5.035
 7380SOL    HW223040   0.552   3.795   4.885
 7381SOL     OW23041   4.879   3.730   2.025
 7381SOL    HW123042   4.889   3.821   2.064
 7381SOL    HW223043   4.836   3.736   1.935
 7382SOL     OW23044   0.352   5.445   6.299
 7382SOL    HW123045   0.276   5.499   6.264
 7382SOL    HW223046   0.436   5.470   6.251
 7383SOL     OW23047   1.051   6.630   1.105
 7383SOL    HW123048   1.074   6.727   1.097
 7383SOL    HW223049   1.108   6.577   1.042
 7384SOL     OW23050   5.524   0.926   3.410
 7384SOL    HW123051   5.496   0.831   3.420
 7384SOL    HW223052   5.487   0.963   3.325
 7385SOL     OW23053   4.567   5.913   2.081
 7385SOL    HW123054   4.649   5.964   2.108
 7385SOL    HW223055   4.590   5.848   2.009
 7386SOL     OW23056   0.549   2.170   5.497
 7386SOL    HW123057   0.620   2.212   5.441
 7386SOL    HW223058   0.573   2.074   5.516
 7387SOL     OW23059   4.553   6.455   4.280
 7387SOL    HW123060   4.467   6.407   4.298
 7387SOL    HW223061   4.630   6.393   4.293
 7388SOL     OW23062   0.128   4.853   2.670
 7388SOL    HW123063   0.109   4.825   2.576
 7388SOL    HW223064   0.164   4.775   2.722
 7389SOL     OW23065   0.439   3.148   6.295
 7389SOL    HW123066   0.497   3.222   6.262
 7389SOL    HW223067   0.394   3.103   6.218
 7390SOL     OW23068   2.245   1.773   0.103
 7390SOL    HW123069   2.308   1.733   0.037
 7390SOL    HW223070   2.294   1.837   0.162
 7391SOL     OW23071   4.163   3.824   5.208
 7391SOL    HW123072   4.239   3.837   5.271
 7391SOL    HW223073   4.178   3.741   5.154
 7392SOL     OW23074   2.392   5.988   6.800
 7392SOL    HW123075   2.407   5.889   6.796
 7392SOL    HW223076   2.468   6.035   6.755
 7393SOL     OW23077   5.120   4.779   2.429
 7393SOL    HW123078   5.028   4.806   2.400
 7393SOL    HW223079   5.170   4.740   2.352
 7394SOL     OW23080   2.967   2.145   5.864
 7394SOL    HW123081   3.014   2.209   5.803
 7394SOL    HW223082   2.963   2.055   5.821
 7395SOL     OW23083   2.002   2.175   0.180
 7395SOL    HW123084   2.077   2.163   0.246
 7395SOL    HW223085   2.012   2.264   0.135
 7396SOL     OW23086   1.273   6.650   0.510
 7396SOL    HW123087   1.251   6.737   0.553
 7396SOL    HW223088   1.202   6.627   0.443
 7397SOL     OW23089   4.420   5.153   4.972
 7397SOL    HW123090   4.414   5.078   5.037
 7397SOL    HW223091   4.484   5.222   5.006
 7398SOL     OW23092   2.450   4.764   4.543
 7398SOL    HW123093   2.370   4.729   4.591
 7398SOL    HW223094   2.469   4.706   4.463
 7399SOL     OW23095   0.989   2.070   5.776
 7399SOL    HW123096   1.087   2.085   5.775
 7399SOL    HW223097   0.968   1.977   5.747
 7400SOL     OW23098   4.022   2.945   6.195
 7400SOL    HW123099   3.976   3.019   6.145
 7400SOL    HW223100   4.113   2.932   6.157
 7401SOL     OW23101   1.645   0.634   4.780
 7401SOL    HW123102   1.689   0.544   4.788
 7401SOL    HW223103   1.568   0.627   4.717
 7402SOL     OW23104   3.366   6.172   6.295
 7402SOL    HW123105   3.427   6.166   6.374
 7402SOL    HW223106   3.389   6.254   6.242
 7403SOL     OW23107   2.242   4.022   2.411
 7403SOL    HW123108   2.167   4.086   2.393
 7403SOL    HW223109   2.234   3.987   2.504
 7404SOL     OW23110   2.066   4.969   1.365
 7404SOL    HW123111   2.084   5.037   1.293
 7404SOL    HW223112   1.968   4.954   1.372
 7405SOL     OW23113   3.810   4.993   3.976
 7405SOL    HW123114   3.725   4.960   3.936
 7405SOL    HW223115   3.792   5.031   4.066
 7406SOL     OW23116   0.634   3.075   3.270
 7406SOL    HW123117   0.655   3.117   3.358
 7406SOL    HW223118   0.718   3.069   3.215
 7407SOL     OW23119   0.297   6.185   4.460
 7407SOL    HW123120   0.372   6.152   4.403
 7407SOL    HW223121   0.280   6.120   4.534
 7408SOL     OW23122   2.344   4.244   6.844
 7408SOL    HW123123   2.326   4.163   6.900
 7408SOL    HW223124   2.439   4.241   6.811
 7409SOL     OW23125   0.360   1.618   6.148
 7409SOL    HW123126   0.324   1.531   6.183
 7409SOL    HW223127   0.457   1.607   6.127
 7410SOL     OW23128   0.012   6.661   1.114
 7410SOL    HW123129   0.105   6.626   1.121
 7410SOL    HW223130   0.014   6.760   1.101
 7411SOL     OW23131   3.059   0.330   4.973
 7411SOL    HW123132   3.035   0.267   5.047
 7411SOL    HW223133   3.130   0.392   5.005
 7412SOL     OW23134   4.699   0.511   1.958
 7412SOL    HW123135   4.627   0.443   1.966
 7412SOL    HW223136   4.777   0.484   2.013
 7413SOL     OW23137   4.827   5.963   4.370
 7413SOL    HW123138   4.854   5.936   4.277
 7413SOL    HW223139   4.898   5.936   4.435
 7414SOL     OW23140   0.564   0.337   3.535
 7414SOL    HW123141   0.612   0.299   3.614
 7414SOL    HW223142   0.471   0.362   3.560
 7415SOL     OW23143   1.775   4.211   4.141
 7415SOL    HW123144   1.799   4.182   4.049
 7415SOL    HW223145   1.852   4.259   4.182
 7416SOL     OW23146   2.391   1.811   3.674
 7416SOL    HW123147   2.414   1.747   3.747
 7416SOL    HW223148   2.468   1.872   3.656
 7417SOL     OW23149   1.942   0.513   6.640
 7417SOL    HW123150   2.017   0.522   6.576
 7417SOL    HW223151   1.943   0.591   6.703
 7418SOL     OW23152   3.221   5.756   0.892
 7418SOL    HW123153   3.314   5.738   0.859
 7418SOL    HW223154   3.217   5.739   0.990
 7419SOL     OW23155   5.506   3.548   5.172
 7419SOL    HW123156   5.552   3.552   5.260
 7419SOL    HW223157   5.551   3.480   5.114
 7420SOL     OW23158   0.475   0.022   2.066
 7420SOL    HW123159   0.525   0.058   2.145
 7420SOL    HW223160   0.380   0.006   2.091
 7421SOL     OW23161   3.354   4.152   0.558
 7421SOL    HW123162   3.303   4.238   0.557
 7421SOL    HW223163   3.338   4.103   0.472
 7422SOL     OW23164   6.966   3.263   2.638
 7422SOL    HW123165   7.020   3.337   2.677
 7422SOL    HW223166   6.937   3.200   2.710
 7423SOL     OW23167   6.436   4.089   5.510
 7423SOL    HW123168   6.466   4.170   5.561
 7423SOL    HW223169   6.340   4.069   5.533
 7424SOL     OW23170   0.110   6.991   5.332
 7424SOL    HW123171   0.071   6.964   5.244
 7424SOL    HW223172   0.155   0.053   5.323
 7425SOL     OW23173   4.463   5.372   6.741
 7425SOL    HW123174   4.515   5.446   6.699
 7425SOL    HW223175   4.390   5.343   6.679
 7426SOL     OW23176   2.426   1.179   5.687
 7426SOL    HW123177   2.445   1.187   5.589
 7426SOL    HW223178   2.331   1.202   5.705
 7427SOL     OW23179   3.617   0.163   4.104
 7427SOL    HW123180   3.679   0.224   4.054
 7427SOL    HW223181   3.527   0.207   4.113
 7428SOL     OW23182   4.086   1.062   6.176
 7428SOL    HW123183   4.052   1.156   6.185
 7428SOL    HW223184   4.042   1.018   6.098
 7429SOL     OW23185   0.042   6.935   3.876
 7429SOL    HW123186   0.023   7.010   3.813
 7429SOL    HW223187   0.105   6.966   3.947
 7430SOL     OW23188   0.957   3.189   0.042
 7430SOL    HW123189   0.894   3.148   0.108
 7430SOL    HW223190   0.922   3.174   6.976
 7431SOL     OW23191   0.897   3.050   2.860
 7431SOL    HW123192   0.987   3.084   2.832
 7431SOL    HW223193   0.826   3.098   2.809
 7432SOL     OW23194   0.407   1.164   3.432
 7432SOL    HW123195   0.359   1.083   3.399
 7432SOL    HW223196   0.438   1.219   3.355
 7433SOL     OW23197   4.736   5.658   6.198
 7433SOL    HW123198   4.688   5.607   6.127
 7433SOL    HW223199   4.783   5.594   6.259
 7434SOL     OW23200   5.189   6.486   5.858
 7434SOL    HW123201   5.219   6.554   5.925
 7434SOL    HW223202   5.268   6.455   5.805
 7435SOL     OW23203   3.915   5.661   0.947
 7435SOL    HW123204   3.866   5.738   0.905
 7435SOL    HW223205   4.013   5.676   0.938
 7436SOL     OW23206   5.648   3.814   6.742
 7436SOL    HW123207   5.607   3.839   6.655
 7436SOL    HW223208   5.641   3.891   6.805
 7437SOL     OW23209   1.083   6.381   0.550
 7437SOL    HW123210   1.020   6.306   0.531
 7437SOL    HW223211   1.039   6.446   0.612
 7438SOL     OW23212   1.129   5.403   6.995
 7438SOL    HW123213   1.125   5.399   6.895
 7438SOL    HW223214   1.039   5.428   0.004
 7439SOL     OW23215   1.467   5.587   5.400
 7439SOL    HW123216   1.415   5.668   5.371
 7439SOL    HW223217   1.408   5.507   5.399
 7440SOL     OW23218   0.166   3.570   4.072
 7440SOL    HW123219   0.112   3.625   4.007
 7440SOL    HW223220   0.240   3.626   4.109
 7441SOL     OW23221   5.179   6.364   4.026
 7441SOL    HW123222   5.140   6.456   4.032
 7441SOL    HW223223   5.271   6.365   4.065
 7442SOL     OW23224   6.555   0.931   5.587
 7442SOL    HW123225   6.473   0.956   5.535
 7442SOL    HW223226   6.531   0.919   5.684
 7443SOL     OW23227   0.074   0.205   1.979
 7443SOL    HW123228   0.082   0.132   2.047
 7443SOL    HW223229   0.005   0.271   2.008
 7444SOL     OW23230   6.137   3.030   5.587
 7444SOL    HW123231   6.144   2.941   5.633
 7444SOL    HW223232   6.041   3.051   5.570
 7445SOL     OW23233   3.749   1.514   1.200
 7445SOL    HW123234   3.829   1.474   1.156
 7445SOL    HW223235   3.758   1.613   1.202
 7446SOL     OW23236   5.548   3.801   1.095
 7446SOL    HW123237   5.565   3.741   1.173
 7446SOL    HW223238   5.469   3.767   1.044
 7447SOL     OW23239   0.586   3.373   6.311
 7447SOL    HW123240   0.641   3.362   6.394
 7447SOL    HW223241   0.526   3.452   6.321
 7448SOL     OW23242   6.446   6.342   5.695
 7448SOL    HW123243   6.380   6.267   5.701
 7448SOL    HW223244   6.401   6.423   5.656
 7449SOL     OW23245   6.342   3.455   1.613
 7449SOL    HW123246   6.298   3.369   1.586
 7449SOL    HW223247   6.363   3.453   1.710
 7450SOL     OW23248   5.485   2.058   4.470
 7450SOL    HW123249   5.431   1.976   4.454
 7450SOL    HW223250   5.578   2.044   4.435
 7451SOL     OW23251   0.075   0.191   3.266
 7451SOL    HW123252   7.005   0.209   3.281
 7451SOL    HW223253   0.129   0.269   3.298
 7452SOL     OW23254   1.079   6.276   4.540
 7452SOL    HW123255   1.105   6.222   4.460
 7452SOL    HW223256   1.042   6.216   4.611
 7453SOL     OW23257   4.765   6.604   5.588
 7453SOL    HW123258   4.732   6.540   5.519
 7453SOL    HW223259   4.849   6.568   5.630
 7454SOL     OW23260   0.520   2.423   2.745
 7454SOL    HW123261   0.498   2.333   2.708
 7454SOL    HW223262   0.557   2.480   2.671
 7455SOL     OW23263   6.755   1.837   2.396
 7455SOL    HW123264   6.850   1.848   2.365
 7455SOL    HW223265   6.696   1.902   2.348
 7456SOL     OW23266   0.834   1.450   4.318
 7456SOL    HW123267   0.892   1.427   4.395
 7456SOL    HW223268   0.758   1.507   4.350
 7457SOL     OW23269   3.956   0.090   6.196
 7457SOL    HW123270   4.038   0.146   6.203
 7457SOL    HW223271   3.959   0.016   6.263
 7458SOL     OW23272   1.852   6.888   5.857
 7458SOL    HW123273   1.779   6.898   5.790
 7458SOL    HW223274   1.848   6.964   5.922
 7459SOL     OW23275   5.062   0.720   1.928
 7459SOL    HW123276   5.037   0.794   1.865
 7459SOL    HW223277   5.015   0.734   2.015
 7460SOL     OW23278   1.614   5.286   0.814
 7460SOL    HW123279   1.711   5.267   0.797
 7460SOL    HW223280   1.571   5.320   0.731
 7461SOL     OW23281   6.071   1.312   5.947
 7461SOL    HW123282   6.089   1.331   5.851
 7461SOL    HW223283   6.103   1.388   6.003
 7462SOL     OW23284   1.779   4.126   2.578
 7462SOL    HW123285   1.727   4.110   2.662
 7462SOL    HW223286   1.730   4.193   2.521
 7463SOL     OW23287   2.490   4.760   1.055
 7463SOL    HW123288   2.391   4.768   1.068
 7463SOL    HW223289   2.510   4.675   1.005
 7464SOL     OW23290   4.879   0.150   6.541
 7464SOL    HW123291   4.852   0.100   6.459
 7464SOL    HW223292   4.799   0.195   6.581
 7465SOL     OW23293   0.884   5.865   0.425
 7465SOL    HW123294   0.942   5.938   0.390
 7465SOL    HW223295   0.789   5.884   0.401
 7466SOL     OW23296   0.180   0.604   5.779
 7466SOL    HW123297   0.236   0.656   5.844
 7466SOL    HW223298   0.202   0.507   5.787
 7467SOL     OW23299   0.221   2.020   0.840
 7467SOL    HW123300   0.276   2.014   0.757
 7467SOL    HW223301   0.242   2.105   0.888
 7468SOL     OW23302   5.477   2.770   3.781
 7468SOL    HW123303   5.456   2.711   3.704
 7468SOL    HW223304   5.483   2.716   3.865
 7469SOL     OW23305   0.023   0.987   0.583
 7469SOL    HW123306   6.964   0.936   0.584
 7469SOL    HW223307   0.017   1.064   0.646
 7470SOL     OW23308   6.483   3.649   3.841
 7470SOL    HW123309   6.479   3.570   3.779
 7470SOL    HW223310   6.481   3.617   3.936
 7471SOL     OW23311   6.687   5.953   6.083
 7471SOL    HW123312   6.672   5.855   6.079
 7471SOL    HW223313   6.701   5.988   5.990
 7472SOL     OW23314   6.266   6.881   5.014
 7472SOL    HW123315   6.301   6.953   5.073
 7472SOL    HW223316   6.340   6.844   4.958
 7473SOL     OW23317   6.622   5.021   3.277
 7473SOL    HW123318   6.618   4.988   3.183
 7473SOL    HW223319   6.633   5.121   3.277
 7474SOL     OW23320   1.769   1.342   5.299
 7474SOL    HW123321   1.838   1.289   5.349
 7474SOL    HW223322   1.741   1.292   5.217
 7475SOL     OW23323   4.567   2.239   2.159
 7475SOL    HW123324   4.624   2.310   2.115
 7475SOL    HW223325   4.618   2.153   2.161
 7476SOL     OW23326   3.034   5.886   3.574
 7476SOL    HW123327   3.057   5.898   3.670
 7476SOL    HW223328   2.935   5.880   3.563
 7477SOL     OW23329   0.404   0.809   5.080
 7477SOL    HW123330   0.409   0.759   4.994
 7477SOL    HW223331   0.327   0.872   5.078
 7478SOL     OW23332   4.771   5.455   6.654
 7478SOL    HW123333   4.837   5.455   6.730
 7478SOL    HW223334   4.820   5.469   6.568
 7479SOL     OW23335   4.499   2.588   1.713
 7479SOL    HW123336   4.566   2.658   1.737
 7479SOL    HW223337   4.451   2.558   1.796
 7480SOL     OW23338   0.357   4.275   1.947
 7480SOL    HW123339   0.364   4.373   1.928
 7480SOL    HW223340   0.362   4.224   1.862
 7481SOL     OW23341   5.937   5.003   1.055
 7481SOL    HW123342   5.954   4.988   0.957
 7481SOL    HW223343   5.973   4.926   1.107
 7482SOL     OW23344   4.299   2.320   2.842
 7482SOL    HW123345   4.205   2.287   2.830
 7482SOL    HW223346   4.320   2.324   2.940
 7483SOL     OW23347   4.877   2.985   4.537
 7483SOL    HW123348   4.857   3.068   4.589
 7483SOL    HW223349   4.791   2.942   4.508
 7484SOL     OW23350   1.590   0.732   3.579
 7484SOL    HW123351   1.543   0.817   3.601
 7484SOL    HW223352   1.685   0.737   3.611
 7485SOL     OW23353   3.552   0.672   5.192
 7485SOL    HW123354   3.614   0.741   5.154
 7485SOL    HW223355   3.488   0.642   5.122
 7486SOL     OW23356   2.043   0.265   0.442
 7486SOL    HW123357   2.104   0.214   0.502
 7486SOL    HW223358   2.087   0.278   0.353
 7487SOL     OW23359   2.588   6.491   2.633
 7487SOL    HW123360   2.555   6.556   2.565
 7487SOL    HW223361   2.516   6.474   2.701
 7488SOL     OW23362   2.350   6.909   4.090
 7488SOL    HW123363   2.356   6.972   4.012
 7488SOL    HW223364   2.427   6.925   4.152
 7489SOL     OW23365   5.069   3.072   5.221
 7489SOL    HW123366   5.098   3.132   5.146
 7489SOL    HW223367   5.000   3.008   5.187
 7490SOL     OW23368   1.367   0.635   2.114
 7490SOL    HW123369   1.425   0.564   2.073
 7490SOL    HW223370   1.287   0.592   2.156
 7491SOL     OW23371   6.234   2.426   5.568
 7491SOL    HW123372   6.141   2.389   5.572
 7491SOL    HW223373   6.278   2.396   5.483
 7492SOL     OW23374   1.852   0.548   3.238
 7492SOL    HW123375   1.799   0.631   3.251
 7492SOL    HW223376   1.894   0.549   3.147
 7493SOL     OW23377   0.116   3.548   6.794
 7493SOL    HW123378   0.051   3.530   6.868
 7493SOL    HW223379   0.203   3.505   6.815
 7494SOL     OW23380   4.798   0.814   2.421
 7494SOL    HW123381   4.780   0.735   2.364
 7494SOL    HW223382   4.842   0.886   2.367
 7495SOL     OW23383   1.878   1.261   6.957
 7495SOL    HW123384   1.877   1.314   0.015
 7495SOL    HW223385   1.972   1.234   6.936
 7496SOL     OW23386   6.378   3.724   6.058
 7496SOL    HW123387   6.297   3.705   6.003
 7496SOL    HW223388   6.397   3.822   6.058
 7497SOL     OW23389   1.999   4.247   0.083
 7497SOL    HW123390   2.049   4.229   7.025
 7497SOL    HW223391   1.902   4.230   0.068
 7498SOL     OW23392   2.794   0.990   6.061
 7498SOL    HW123393   2.730   0.913   6.058
 7498SOL    HW223394   2.868   0.975   5.996
 7499SOL     OW23395   3.482   2.079   3.175
 7499SOL    HW123396   3.420   2.107   3.249
 7499SOL    HW223397   3.431   2.074   3.089
 7500SOL     OW23398   2.968   5.454   3.068
 7500SOL    HW123399   3.001   5.453   2.973
 7500SOL    HW223400   3.029   5.399   3.125
 7501SOL     OW23401   5.083   4.328   4.314
 7501SOL    HW123402   5.146   4.259   4.279
 7501SOL    HW223403   5.117   4.419   4.289
 7502SOL     OW23404   1.506   0.343   3.726
 7502SOL    HW123405   1.601   0.362   3.704
 7502SOL    HW223406   1.491   0.354   3.824
 7503SOL     OW23407   2.888   1.057   1.008
 7503SOL    HW123408   2.807   1.112   1.030
 7503SOL    HW223409   2.960   1.074   1.076
 7504SOL     OW23410   1.291   0.181   3.104
 7504SOL    HW123411   1.288   0.116   3.180
 7504SOL    HW223412   1.252   0.139   3.022
 7505SOL     OW23413   2.086   1.524   5.374
 7505SOL    HW123414   2.146   1.574   5.437
 7505SOL    HW223415   2.020   1.471   5.427
 7506SOL     OW23416   5.791   0.614   3.105
 7506SOL    HW123417   5.795   0.517   3.080
 7506SOL    HW223418   5.856   0.665   3.050
 7507SOL     OW23419   0.647   0.728   2.348
 7507SOL    HW123420   0.653   0.792   2.271
 7507SOL    HW223421   0.737   0.719   2.391
 7508SOL     OW23422   0.755   6.915   1.406
 7508SOL    HW123423   0.721   6.942   1.317
 7508SOL    HW223424   0.784   6.819   1.403
 7509SOL     OW23425   5.098   4.279   0.353
 7509SOL    HW123426   5.014   4.229   0.372
 7509SOL    HW223427   5.075   4.366   0.309
 7510SOL     OW23428   3.580   4.074   5.382
 7510SOL    HW123429   3.591   4.162   5.335
 7510SOL    HW223430   3.483   4.050   5.386
 7511SOL     OW23431   2.914   6.922   4.018
 7511SOL    HW123432   2.833   6.937   3.961
 7511SOL    HW223433   2.920   6.994   4.087
 7512SOL     OW23434   2.720   6.506   6.435
 7512SOL    HW123435   2.799   6.561   6.463
 7512SOL    HW223436   2.654   6.565   6.388
 7513SOL     OW23437   2.768   0.844   1.434
 7513SOL    HW123438   2.855   0.863   1.388
 7513SOL    HW223439   2.752   0.915   1.503
 7514SOL     OW23440   2.200   6.043   1.852
 7514SOL    HW123441   2.111   6.076   1.822
 7514SOL    HW223442   2.211   5.947   1.823
 7515SOL     OW23443   6.880   4.918   2.733
 7515SOL    HW123444   6.975   4.920   2.701
 7515SOL    HW223445   6.875   4.864   2.817
 7516SOL     OW23446   6.630   6.438   5.305
 7516SOL    HW123447   6.670   6.528   5.291
 7516SOL    HW223448   6.588   6.407   5.219
 7517SOL     OW23449   0.185   2.892   0.995
 7517SOL    HW123450   0.156   2.964   0.932
 7517SOL    HW223451   0.121   2.816   0.991
 7518SOL     OW23452   4.258   4.900   3.893
 7518SOL    HW123453   4.278   4.803   3.898
 7518SOL    HW223454   4.293   4.946   3.975
 7519SOL     OW23455   0.308   6.763   3.768
 7519SOL    HW123456   0.311   6.666   3.790
 7519SOL    HW223457   0.268   6.775   3.677
 7520SOL     OW23458   2.472   0.285   2.273
 7520SOL    HW123459   2.400   0.246   2.331
 7520SOL    HW223460   2.431   0.344   2.204
 7521SOL     OW23461   4.882   4.326   6.204
 7521SOL    HW123462   4.926   4.376   6.130
 7521SOL    HW223463   4.783   4.340   6.199
 7522SOL     OW23464   1.816   0.846   6.307
 7522SOL    HW123465   1.870   0.842   6.391
 7522SOL    HW223466   1.871   0.883   6.233
 7523SOL     OW23467   5.856   0.096   5.365
 7523SOL    HW123468   5.778   0.087   5.427
 7523SOL    HW223469   5.888   0.191   5.365
 7524SOL     OW23470   1.500   2.138   5.384
 7524SOL    HW123471   1.583   2.186   5.359
 7524SOL    HW223472   1.424   2.170   5.328
 7525SOL     OW23473   3.522   0.581   6.254
 7525SOL    HW123474   3.476   0.662   6.290
 7525SOL    HW223475   3.454   0.515   6.224
 7526SOL     OW23476   2.957   3.269   1.890
 7526SOL    HW123477   2.959   3.364   1.920
 7526SOL    HW223478   2.865   3.231   1.903
 7527SOL     OW23479   2.859   6.116   3.193
 7527SOL    HW123480   2.769   6.114   3.237
 7527SOL    HW223481   2.915   6.041   3.228
 7528SOL     OW23482   5.660   1.802   6.778
 7528SOL    HW123483   5.565   1.832   6.777
 7528SOL    HW223484   5.704   1.831   6.862
 7529SOL     OW23485   4.594   0.725   4.588
 7529SOL    HW123486   4.580   0.790   4.513
 7529SOL    HW223487   4.617   0.775   4.671
 7530SOL     OW23488   0.436   3.112   2.679
 7530SOL    HW123489   0.371   3.048   2.638
 7530SOL    HW223490   0.453   3.187   2.615
 7531SOL     OW23491   5.117   3.275   4.463
 7531SOL    HW123492   5.090   3.179   4.450
 7531SOL    HW223493   5.045   3.335   4.430
 7532SOL     OW23494   5.369   5.779   0.155
 7532SOL    HW123495   5.339   5.809   0.246
 7532SOL    HW223496   5.335   5.687   0.138
 7533SOL     OW23497   2.813   1.800   1.842
 7533SOL    HW123498   2.717   1.777   1.862
 7533SOL    HW223499   2.850   1.734   1.776
 7534SOL     OW23500   4.412   5.911   5.454
 7534SOL    HW123501   4.317   5.902   5.425
 7534SOL    HW223502   4.472   5.913   5.373
 7535SOL     OW23503   1.862   0.105   5.009
 7535SOL    HW123504   1.768   0.096   4.974
 7535SOL    HW223505   1.913   0.021   4.989
 7536SOL     OW23506   4.603   4.415   4.897
 7536SOL    HW123507   4.523   4.457   4.940
 7536SOL    HW223508   4.592   4.417   4.798
 7537SOL     OW23509   3.199   5.748   2.411
 7537SOL    HW123510   3.165   5.831   2.455
 7537SOL    HW223511   3.123   5.687   2.390
 7538SOL     OW23512   2.586   3.183   1.430
 7538SOL    HW123513   2.549   3.231   1.350
 7538SOL    HW223514   2.590   3.246   1.507
 7539SOL     OW23515   1.020   3.678   4.873
 7539SOL    HW123516   1.109   3.697   4.915
 7539SOL    HW223517   1.020   3.584   4.838
 7540SOL     OW23518   4.119   0.125   4.743
 7540SOL    HW123519   4.147   0.036   4.706
 7540SOL    HW223520   4.019   0.132   4.742
 7541SOL     OW23521   0.304   4.252   5.464
 7541SOL    HW123522   0.292   4.174   5.525
 7541SOL    HW223523   0.259   4.233   5.376
 7542SOL     OW23524   1.325   4.974   6.493
 7542SOL    HW123525   1.365   5.043   6.432
 7542SOL    HW223526   1.398   4.933   6.548
 7543SOL     OW23527   3.595   2.133   6.611
 7543SOL    HW123528   3.626   2.096   6.523
 7543SOL    HW223529   3.655   2.208   6.638
 7544SOL     OW23530   0.057   2.696   3.165
 7544SOL    HW123531   0.153   2.726   3.171
 7544SOL    HW223532   0.047   2.608   3.210
 7545SOL     OW23533   7.013   5.758   0.641
 7545SOL    HW123534   6.954   5.742   0.720
 7545SOL    HW223535   7.015   5.677   0.583
 7546SOL     OW23536   3.348   1.827   1.935
 7546SOL    HW123537   3.312   1.920   1.927
 7546SOL    HW223538   3.392   1.800   1.850
 7547SOL     OW23539   5.516   1.179   0.836
 7547SOL    HW123540   5.561   1.254   0.883
 7547SOL    HW223541   5.424   1.165   0.874
 7548SOL     OW23542   4.056   1.288   0.048
 7548SOL    HW123543   4.045   1.385   0.066
 7548SOL    HW223544   4.031   1.236   0.130
 7549SOL     OW23545   4.811   2.509   0.582
 7549SOL    HW123546   4.784   2.605   0.581
 7549SOL    HW223547   4.734   2.452   0.553
 7550SOL     OW23548   2.540   4.874   2.292
 7550SOL    HW123549   2.479   4.803   2.256
 7550SOL    HW223550   2.486   4.954   2.318
 7551SOL     OW23551   5.452   3.596   7.014
 7551SOL    HW123552   5.368   3.627   0.032
 7551SOL    HW223553   5.472   3.655   6.936
 7552SOL     OW23554   1.519   6.094   2.806
 7552SOL    HW123555   1.525   6.175   2.747
 7552SOL    HW223556   1.430   6.092   2.851
 7553SOL     OW23557   4.428   6.113   6.031
 7553SOL    HW123558   4.426   6.150   6.124
 7553SOL    HW223559   4.513   6.141   5.986
 7554SOL     OW23560   4.449   1.117   0.316
 7554SOL    HW123561   4.350   1.107   0.308
 7554SOL    HW223562   4.489   1.031   0.348
 7555SOL     OW23563   2.361   4.991   6.240
 7555SOL    HW123564   2.421   4.969   6.163
 7555SOL    HW223565   2.376   4.927   6.315
 7556SOL     OW23566   1.950   3.075   0.204
 7556SOL    HW123567   1.969   3.015   0.281
 7556SOL    HW223568   1.884   3.031   0.143
 7557SOL     OW23569   4.932   1.404   5.330
 7557SOL    HW123570   4.989   1.336   5.378
 7557SOL    HW223571   4.955   1.404   5.233
 7558SOL     OW23572   1.291   3.029   4.064
 7558SOL    HW123573   1.208   2.995   4.108
 7558SOL    HW223574   1.267   3.103   4.001
 7559SOL     OW23575   5.294   4.017   7.025
 7559SOL    HW123576   5.254   3.928   0.019
 7559SOL    HW223577   5.232   4.069   6.967
 7560SOL     OW23578   4.828   0.200   1.006
 7560SOL    HW123579   4.734   0.165   1.007
 7560SOL    HW223580   4.859   0.210   0.912
 7561SOL     OW23581   0.875   3.693   6.667
 7561SOL    HW123582   0.854   3.641   6.749
 7561SOL    HW223583   0.909   3.632   6.596
 7562SOL     OW23584   0.063   6.663   3.953
 7562SOL    HW123585   0.091   6.758   3.936
 7562SOL    HW223586   0.042   6.619   3.866
 7563SOL     OW23587   2.942   0.374   0.991
 7563SOL    HW123588   2.899   0.341   0.907
 7563SOL    HW223589   3.034   0.337   0.998
 7564SOL     OW23590   4.930   0.525   3.247
 7564SOL    HW123591   4.867   0.533   3.324
 7564SOL    HW223592   4.881   0.492   3.166
 7565SOL     OW23593   5.303   3.368   0.963
 7565SOL    HW123594   5.342   3.312   1.036
 7565SOL    HW223595   5.239   3.312   0.910
 7566SOL     OW23596   5.564   4.853   2.798
 7566SOL    HW123597   5.547   4.780   2.732
 7566SOL    HW223598   5.574   4.814   2.890
 7567SOL     OW23599   2.009   2.170   4.539
 7567SOL    HW123600   1.977   2.084   4.578
 7567SOL    HW223601   2.010   2.163   4.439
 7568SOL     OW23602   5.264   5.909   2.909
 7568SOL    HW123603   5.171   5.944   2.904
 7568SOL    HW223604   5.265   5.825   2.964
 7569SOL     OW23605   3.691   5.252   6.447
 7569SOL    HW123606   3.629   5.195   6.394
 7569SOL    HW223607   3.722   5.202   6.527
 7570SOL     OW23608   5.958   3.327   5.749
 7570SOL    HW123609   6.028   3.282   5.805
 7570SOL    HW223610   5.979   3.312   5.652
 7571SOL     OW23611   3.997   5.293   3.461
 7571SOL    HW123612   4.039   5.364   3.517
 7571SOL    HW223613   3.986   5.210   3.516
 7572SOL     OW23614   4.863   1.137   1.413
 7572SOL    HW123615   4.843   1.082   1.493
 7572SOL    HW223616   4.790   1.204   1.399
 7573SOL     OW23617   0.505   0.188   5.194
 7573SOL    HW123618   0.525   0.234   5.281
 7573SOL    HW223619   0.507   0.255   5.120
 7574SOL     OW23620   5.716   0.509   5.620
 7574SOL    HW123621   5.744   0.452   5.697
 7574SOL    HW223622   5.779   0.494   5.543
 7575SOL     OW23623   5.078   6.913   6.488
 7575SOL    HW123624   5.076   6.982   6.415
 7575SOL    HW223625   4.985   6.902   6.525
 7576SOL     OW23626   5.077   4.401   6.743
 7576SOL    HW123627   5.020   4.435   6.668
 7576SOL    HW223628   5.160   4.456   6.749
 7577SOL     OW23629   0.684   6.919   0.032
 7577SOL    HW123630   0.610   6.867   7.017
 7577SOL    HW223631   0.768   6.907   7.006
 7578SOL     OW23632   1.899   5.329   2.041
 7578SOL    HW123633   1.835   5.337   1.965
 7578SOL    HW223634   1.952   5.245   2.031
 7579SOL     OW23635   6.890   0.741   1.746
 7579SOL    HW123636   6.853   0.659   1.788
 7579SOL    HW223637   6.819   0.811   1.739
 7580SOL     OW23638   0.462   3.886   4.771
 7580SOL    HW123639   0.389   3.927   4.826
 7580SOL    HW223640   0.426   3.863   4.680
 7581SOL     OW23641   6.742   1.094   1.126
 7581SOL    HW123642   6.767   1.014   1.182
 7581SOL    HW223643   6.738   1.175   1.184
 7582SOL     OW23644   4.374   1.349   1.804
 7582SOL    HW123645   4.291   1.320   1.852
 7582SOL    HW223646   4.369   1.447   1.786
 7583SOL     OW23647   6.360   3.231   1.792
 7583SOL    HW123648   6.294   3.306   1.799
 7583SOL    HW223649   6.450   3.262   1.822
 7584SOL     OW23650   3.399   6.956   1.193
 7584SOL    HW123651   3.351   0.017   1.200
 7584SOL    HW223652   3.377   6.899   1.273
 7585SOL     OW23653   1.522   2.792   6.461
 7585SOL    HW123654   1.507   2.812   6.364
 7585SOL    HW223655   1.457   2.723   6.491
 7586SOL     OW23656   2.755   0.843   3.577
 7586SOL    HW123657   2.829   0.775   3.579
 7586SOL    HW223658   2.722   0.858   3.670
 7587SOL     OW23659   2.643   2.741   0.048
 7587SOL    HW123660   2.628   2.734   0.147
 7587SOL    HW223661   2.725   2.794   0.030
 7588SOL     OW23662   1.687   3.179   3.466
 7588SOL    HW123663   1.769   3.213   3.512
 7588SOL    HW223664   1.617   3.156   3.534
 7589SOL     OW23665   0.905   0.523   2.814
 7589SOL    HW123666   0.810   0.551   2.830
 7589SOL    HW223667   0.966   0.581   2.867
 7590SOL     OW23668   4.078   1.448   5.867
 7590SOL    HW123669   4.144   1.524   5.867
 7590SOL    HW223670   4.009   1.464   5.938
 7591SOL     OW23671   0.429   3.677   0.590
 7591SOL    HW123672   0.490   3.691   0.668
 7591SOL    HW223673   0.398   3.766   0.556
 7592SOL     OW23674   6.518   4.676   4.790
 7592SOL    HW123675   6.445   4.728   4.834
 7592SOL    HW223676   6.510   4.579   4.815
 7593SOL     OW23677   5.808   3.470   1.081
 7593SOL    HW123678   5.824   3.530   1.159
 7593SOL    HW223679   5.727   3.501   1.031
 7594SOL     OW23680   1.021   5.599   2.225
 7594SOL    HW123681   1.009   5.511   2.271
 7594SOL    HW223682   0.990   5.673   2.285
 7595SOL     OW23683   6.250   2.956   6.003
 7595SOL    HW123684   6.236   2.871   6.055
 7595SOL    HW223685   6.348   2.970   5.987
 7596SOL     OW23686   4.175   5.732   4.623
 7596SOL    HW123687   4.241   5.660   4.601
 7596SOL    HW223688   4.117   5.703   4.699
 7597SOL     OW23689   2.804   6.927   2.585
 7597SOL    HW123690   2.735   6.859   2.561
 7597SOL    HW223691   2.884   6.882   2.625
 7598SOL     OW23692   0.031   1.602   3.222
 7598SOL    HW123693   0.092   1.525   3.243
 7598SOL    HW223694   0.016   1.657   3.304
 7599SOL     OW23695   5.399   2.072   2.496
 7599SOL    HW123696   5.396   2.072   2.596
 7599SOL    HW223697   5.375   1.981   2.462
 7600SOL     OW23698   1.497   1.482   2.620
 7600SOL    HW123699   1.513   1.533   2.535
 7600SOL    HW223700   1.583   1.443   2.651
 7601SOL     OW23701   1.854   5.645   2.837
 7601SOL    HW123702   1.835   5.594   2.753
 7601SOL    HW223703   1.810   5.735   2.832
 7602SOL     OW23704   2.150   4.219   6.469
 7602SOL    HW123705   2.062   4.193   6.432
 7602SOL    HW223706   2.209   4.138   6.475
 7603SOL     OW23707   1.546   5.886   6.048
 7603SOL    HW123708   1.541   5.849   5.955
 7603SOL    HW223709   1.598   5.823   6.106
 7604SOL     OW23710   2.080   3.784   4.660
 7604SOL    HW123711   2.148   3.769   4.588
 7604SOL    HW223712   2.100   3.870   4.707
 7605SOL     OW23713   1.038   0.304   1.069
 7605SOL    HW123714   0.984   0.277   1.149
 7605SOL    HW223715   1.006   0.253   0.989
 7606SOL     OW23716   5.757   4.210   5.441
 7606SOL    HW123717   5.723   4.265   5.517
 7606SOL    HW223718   5.750   4.113   5.464
 7607SOL     OW23719   3.016   5.124   0.213
 7607SOL    HW123720   3.022   5.182   0.132
 7607SOL    HW223721   3.053   5.173   0.292
 7608SOL     OW23722   4.022   3.804   2.201
 7608SOL    HW123723   3.985   3.797   2.294
 7608SOL    HW223724   4.085   3.729   2.184
 7609SOL     OW23725   0.952   3.431   4.453
 7609SOL    HW123726   0.934   3.341   4.413
 7609SOL    HW223727   0.866   3.482   4.459
 7610SOL     OW23728   4.566   4.826   6.162
 7610SOL    HW123729   4.506   4.795   6.088
 7610SOL    HW223730   4.556   4.925   6.174
 7611SOL     OW23731   6.228   3.209   1.495
 7611SOL    HW123732   6.187   3.182   1.583
 7611SOL    HW223733   6.156   3.242   1.434
 7612SOL     OW23734   4.575   2.579   3.415
 7612SOL    HW123735   4.648   2.562   3.350
 7612SOL    HW223736   4.487   2.578   3.368
 7613SOL     OW23737   6.629   3.092   1.062
 7613SOL    HW123738   6.599   3.029   1.134
 7613SOL    HW223739   6.671   3.172   1.104
 7614SOL     OW23740   5.067   3.092   0.512
 7614SOL    HW123741   5.009   3.162   0.554
 7614SOL    HW223742   5.065   3.009   0.568
 7615SOL     OW23743   3.590   5.510   0.617
 7615SOL    HW123744   3.681   5.524   0.579
 7615SOL    HW223745   3.585   5.421   0.662
 7616SOL     OW23746   6.163   6.150   4.644
 7616SOL    HW123747   6.157   6.185   4.738
 7616SOL    HW223748   6.138   6.222   4.580
 7617SOL     OW23749   3.999   5.343   2.533
 7617SOL    HW123750   4.059   5.405   2.586
 7617SOL    HW223751   3.930   5.397   2.486
 7618SOL     OW23752   0.049   1.198   5.418
 7618SOL    HW123753   0.025   1.106   5.450
 7618SOL    HW223754   0.032   1.204   5.320
 7619SOL     OW23755   5.582   2.714   5.283
 7619SOL    HW123756   5.632   2.726   5.198
 7619SOL    HW223757   5.527   2.795   5.302
 7620SOL     OW23758   4.172   5.764   1.376
 7620SOL    HW123759   4.075   5.778   1.394
 7620SOL    HW223760   4.225   5.831   1.430
 7621SOL     OW23761   6.544   1.509   0.911
 7621SOL    HW123762   6.591   1.484   0.995
 7621SOL    HW223763   6.586   1.591   0.871
 7622SOL     OW23764   4.844   5.282   0.016
 7622SOL    HW123765   4.886   5.325   0.097
 7622SOL    HW223766   4.835   5.184   0.032
 7623SOL     OW23767   4.675   4.222   7.026
 7623SOL    HW123768   4.720   4.301   6.985
 7623SOL    HW223769   4.649   4.243   0.093
 7624SOL     OW23770   0.006   3.713   4.963
 7624SOL    HW123771   7.024   3.702   4.864
 7624SOL    HW223772   6.982   3.641   5.010
 7625SOL     OW23773   4.639   0.816   1.530
 7625SOL    HW123774   4.543   0.839   1.548
 7625SOL    HW223775   4.655   0.720   1.555
 7626SOL     OW23776   6.073   0.103   4.364
 7626SOL    HW123777   6.078   0.203   4.363
 7626SOL    HW223778   5.984   0.075   4.400
 7627SOL     OW23779   4.779   2.921   6.662
 7627SOL    HW123780   4.822   2.835   6.634
 7627SOL    HW223781   4.690   2.931   6.617
 7628SOL     OW23782   3.469   2.113   2.232
 7628SOL    HW123783   3.436   2.136   2.141
 7628SOL    HW223784   3.562   2.078   2.227
 7629SOL     OW23785   6.986   6.388   2.952
 7629SOL    HW123786   0.059   6.382   2.945
 7629SOL    HW223787   6.961   6.406   3.047
 7630SOL     OW23788   6.942   6.846   1.464
 7630SOL    HW123789   7.025   6.813   1.511
 7630SOL    HW223790   6.882   6.892   1.530
 7631SOL     OW23791   0.836   1.204   6.472
 7631SOL    HW123792   0.759   1.167   6.523
 7631SOL    HW223793   0.880   1.131   6.420
 7632SOL     OW23794   3.864   3.273   1.440
 7632SOL    HW123795   3.795   3.276   1.513
 7632SOL    HW223796   3.954   3.256   1.480
 7633SOL     OW23797   5.291   0.759   1.042
 7633SOL    HW123798   5.384   0.735   1.069
 7633SOL    HW223799   5.255   0.831   1.103
 7634SOL     OW23800   1.719   2.212   2.492
 7634SOL    HW123801   1.621   2.210   2.510
 7634SOL    HW223802   1.741   2.154   2.414
 7635SOL     OW23803   3.458   5.225   4.851
 7635SOL    HW123804   3.519   5.232   4.772
 7635SOL    HW223805   3.444   5.129   4.873
 7636SOL     OW23806   1.700   3.190   4.141
 7636SOL    HW123807   1.651   3.127   4.201
 7636SOL    HW223808   1.799   3.178   4.153
 7637SOL     OW23809   1.917   5.278   2.536
 7637SOL    HW123810   1.831   5.236   2.507
 7637SOL    HW223811   1.988   5.260   2.468
 7638SOL     OW23812   2.687   6.192   1.459
 7638SOL    HW123813   2.767   6.251   1.460
 7638SOL    HW223814   2.693   6.128   1.382
 7639SOL     OW23815   0.842   2.195   0.521
 7639SOL    HW123816   0.847   2.281   0.469
 7639SOL    HW223817   0.916   2.135   0.492
 7640SOL     OW23818   3.309   0.891   5.928
 7640SOL    HW123819   3.387   0.951   5.949
 7640SOL    HW223820   3.293   0.892   5.830
 7641SOL     OW23821   1.243   3.898   2.661
 7641SOL    HW123822   1.298   3.858   2.735
 7641SOL    HW223823   1.200   3.825   2.608
 7642SOL     OW23824   3.782   1.099   3.058
 7642SOL    HW123825   3.873   1.060   3.067
 7642SOL    HW223826   3.721   1.060   3.127
 7643SOL     OW23827   4.683   2.805   3.574
 7643SOL    HW123828   4.613   2.761   3.518
 7643SOL    HW223829   4.762   2.745   3.582
 7644SOL     OW23830   5.758   1.643   2.172
 7644SOL    HW123831   5.677   1.699   2.158
 7644SOL    HW223832   5.837   1.702   2.188
 7645SOL     OW23833   4.516   3.354   5.736
 7645SOL    HW123834   4.452   3.417   5.693
 7645SOL    HW223835   4.593   3.337   5.674
 7646SOL     OW23836   1.307   3.514   3.208
 7646SOL    HW123837   1.252   3.563   3.141
 7646SOL    HW223838   1.290   3.552   3.299
 7647SOL     OW23839   6.588   2.635   3.559
 7647SOL    HW123840   6.574   2.720   3.610
 7647SOL    HW223841   6.519   2.568   3.587
 7648SOL     OW23842   3.158   1.870   3.047
 7648SOL    HW123843   3.230   1.869   2.978
 7648SOL    HW223844   3.076   1.914   3.009
 7649SOL     OW23845   0.431   1.037   2.836
 7649SOL    HW123846   0.439   1.112   2.901
 7649SOL    HW223847   0.343   1.043   2.789
 7650SOL     OW23848   4.758   1.600   0.526
 7650SOL    HW123849   4.714   1.569   0.610
 7650SOL    HW223850   4.846   1.555   0.516
 7651SOL     OW23851   2.351   0.745   3.704
 7651SOL    HW123852   2.367   0.744   3.606
 7651SOL    HW223853   2.273   0.686   3.726
 7652SOL     OW23854   6.024   3.583   6.074
 7652SOL    HW123855   5.960   3.516   6.037
 7652SOL    HW223856   6.091   3.608   6.005
 7653SOL     OW23857   1.086   1.670   0.100
 7653SOL    HW123858   1.110   1.766   0.117
 7653SOL    HW223859   0.990   1.664   0.074
 7654SOL     OW23860   4.911   3.061   4.239
 7654SOL    HW123861   4.845   3.018   4.177
 7654SOL    HW223862   4.912   3.012   4.326
 7655SOL     OW23863   4.466   6.868   2.645
 7655SOL    HW123864   4.466   6.968   2.643
 7655SOL    HW223865   4.559   6.835   2.630
 7656SOL     OW23866   3.013   4.060   5.870
 7656SOL    HW123867   3.064   4.053   5.784
 7656SOL    HW223868   2.915   4.051   5.851
 7657SOL     OW23869   0.999   2.635   4.019
 7657SOL    HW123870   0.974   2.611   3.925
 7657SOL    HW223871   1.087   2.592   4.041
 7658SOL     OW23872   4.242   6.751   6.386
 7658SOL    HW123873   4.282   6.825   6.332
 7658SOL    HW223874   4.296   6.668   6.375
 7659SOL     OW23875   6.177   4.761   6.012
 7659SOL    HW123876   6.188   4.844   6.068
 7659SOL    HW223877   6.181   4.681   6.071
 7660SOL     OW23878   0.622   6.010   3.621
 7660SOL    HW123879   0.568   5.938   3.665
 7660SOL    HW223880   0.626   6.090   3.682
 7661SOL     OW23881   5.746   2.271   5.038
 7661SOL    HW123882   5.816   2.337   5.012
 7661SOL    HW223883   5.739   2.268   5.138
 7662SOL     OW23884   1.089   2.974   3.496
 7662SOL    HW123885   1.029   3.033   3.441
 7662SOL    HW223886   1.171   3.025   3.521
 7663SOL     OW23887   0.079   5.044   5.089
 7663SOL    HW123888   0.064   4.950   5.121
 7663SOL    HW223889   0.031   5.107   5.150
 7664SOL     OW23890   4.122   6.853   1.763
 7664SOL    HW123891   4.028   6.819   1.768
 7664SOL    HW223892   4.167   6.812   1.684
 7665SOL     OW23893   6.265   0.257   4.784
 7665SOL    HW123894   6.208   0.217   4.856
 7665SOL    HW223895   6.345   0.200   4.770
 7666SOL     OW23896   0.803   5.391   2.021
 7666SOL    HW123897   0.869   5.409   1.948
 7666SOL    HW223898   0.841   5.325   2.086
 7667SOL     OW23899   4.803   6.804   2.308
 7667SOL    HW123900   4.750   6.735   2.358
 7667SOL    HW223901   4.805   6.889   2.361
 7668SOL     OW23902   2.967   4.552   0.310
 7668SOL    HW123903   2.973   4.473   0.249
 7668SOL    HW223904   3.059   4.585   0.329
 7669SOL     OW23905   4.845   1.487   5.073
 7669SOL    HW123906   4.779   1.560   5.058
 7669SOL    HW223907   4.935   1.517   5.043
 7670SOL     OW23908   1.032   4.654   0.125
 7670SOL    HW123909   1.132   4.655   0.130
 7670SOL    HW223910   0.998   4.749   0.121
 7671SOL     OW23911   4.919   1.431   1.788
 7671SOL    HW123912   4.901   1.500   1.719
 7671SOL    HW223913   4.838   1.375   1.802
 7672SOL     OW23914   0.553   6.587   2.323
 7672SOL    HW123915   0.496   6.608   2.243
 7672SOL    HW223916   0.650   6.597   2.299
 7673SOL     OW23917   1.620   6.593   0.849
 7673SOL    HW123918   1.561   6.515   0.830
 7673SOL    HW223919   1.564   6.676   0.859
 7674SOL     OW23920   5.428   0.969   3.171
 7674SOL    HW123921   5.469   1.001   3.086
 7674SOL    HW223922   5.350   0.911   3.151
 7675SOL     OW23923   6.276   6.453   2.253
 7675SOL    HW123924   6.223   6.392   2.313
 7675SOL    HW223925   6.290   6.409   2.164
 7676SOL     OW23926   3.134   2.314   1.012
 7676SOL    HW123927   3.117   2.396   0.957
 7676SOL    HW223928   3.231   2.307   1.034
 7677SOL     OW23929   0.270   5.071   1.554
 7677SOL    HW123930   0.369   5.087   1.552
 7677SOL    HW223931   0.234   5.092   1.645
 7678SOL     OW23932   1.843   3.254   4.997
 7678SOL    HW123933   1.784   3.195   5.052
 7678SOL    HW223934   1.935   3.255   5.036
 7679SOL     OW23935   3.012   6.005   5.535
 7679SOL    HW123936   2.969   5.986   5.624
 7679SOL    HW223937   2.950   6.058   5.479
 7680SOL     OW23938   0.877   0.929   0.521
 7680SOL    HW123939   0.888   0.882   0.434
 7680SOL    HW223940   0.847   1.023   0.504
 7681SOL     OW23941   2.723   1.391   0.993
 7681SOL    HW123942   2.781   1.473   0.986
 7681SOL    HW223943   2.633   1.412   0.955
 7682SOL     OW23944   3.069   0.181   1.900
 7682SOL    HW123945   3.013   0.263   1.891
 7682SOL    HW223946   3.134   0.177   1.825
 7683SOL     OW23947   5.163   1.716   4.664
 7683SOL    HW123948   5.220   1.798   4.673
 7683SOL    HW223949   5.222   1.636   4.652
 7684SOL     OW23950   3.094   1.907   1.673
 7684SOL    HW123951   3.094   1.994   1.724
 7684SOL    HW223952   3.159   1.914   1.598
 7685SOL     OW23953   2.867   2.041   6.322
 7685SOL    HW123954   2.853   2.140   6.327
 7685SOL    HW223955   2.869   2.003   6.414
 7686SOL     OW23956   6.568   6.406   2.953
 7686SOL    HW123957   6.492   6.379   3.012
 7686SOL    HW223958   6.546   6.491   2.906
 7687SOL     OW23959   5.798   5.415   3.573
 7687SOL    HW123960   5.894   5.436   3.553
 7687SOL    HW223961   5.788   5.319   3.596
 7688SOL     OW23962   0.884   5.961   5.452
 7688SOL    HW123963   0.908   5.904   5.531
 7688SOL    HW223964   0.905   5.913   5.368
 7689SOL     OW23965   5.680   6.491   2.523
 7689SOL    HW123966   5.736   6.497   2.441
 7689SOL    HW223967   5.680   6.579   2.570
 7690SOL     OW23968   5.154   5.407   0.659
 7690SOL    HW123969   5.126   5.472   0.730
 7690SOL    HW223970   5.237   5.441   0.614
 7691SOL     OW23971   5.083   3.931   4.221
 7691SOL    HW123972   5.146   3.958   4.293
 7691SOL    HW223973   4.998   3.898   4.261
 7692SOL     OW23974   0.624   6.311   2.028
 7692SOL    HW123975   0.575   6.344   1.947
 7692SOL    HW223976   0.706   6.262   2.000
 7693SOL     OW23977   3.586   6.698   1.557
 7693SOL    HW123978   3.554   6.638   1.484
 7693SOL    HW223979   3.619   6.643   1.633
 7694SOL     OW23980   6.345   3.874   4.767
 7694SOL    HW123981   6.351   3.796   4.705
 7694SOL    HW223982   6.329   3.842   4.860
 7695SOL     OW23983   5.165   0.549   0.895
 7695SOL    HW123984   5.198   0.643   0.903
 7695SOL    HW223985   5.167   0.505   0.985
 7696SOL     OW23986   0.706   0.573   5.456
 7696SOL    HW123987   0.720   0.654   5.399
 7696SOL    HW223988   0.670   0.601   5.545
 7697SOL     OW23989   2.094   6.600   2.856
 7697SOL    HW123990   2.171   6.654   2.823
 7697SOL    HW223991   2.014   6.659   2.868
 7698SOL     OW23992   5.830   0.805   3.903
 7698SOL    HW123993   5.757   0.808   3.971
 7698SOL    HW223994   5.914   0.772   3.946
 7699SOL     OW23995   3.575   5.675   6.869
 7699SOL    HW123996   3.586   5.680   6.969
 7699SOL    HW223997   3.665   5.685   6.826
 7700SOL     OW23998   4.152   5.954   3.116
 7700SOL    HW123999   4.131   6.045   3.150
 7700SOL    HW224000   4.134   5.950   3.018
 7701SOL     OW24001   6.665   1.742   0.842
 7701SOL    HW124002   6.614   1.763   0.759
 7701SOL    HW224003   6.763   1.757   0.826
 7702SOL     OW24004   3.123   6.666   5.223
 7702SOL    HW124005   3.171   6.705   5.301
 7702SOL    HW224006   3.154   6.572   5.207
 7703SOL     OW24007   6.610   6.090   6.661
 7703SOL    HW124008   6.572   6.012   6.612
 7703SOL    HW224009   6.537   6.157   6.678
 7704SOL     OW24010   6.088   6.432   4.733
 7704SOL    HW124011   6.177   6.478   4.725
 7704SOL    HW224012   6.026   6.466   4.663
 7705SOL     OW24013   2.490   5.772   6.653
 7705SOL    HW124014   2.497   5.708   6.577
 7705SOL    HW224015   2.571   5.765   6.711
 7706SOL     OW24016   4.026   3.472   5.429
 7706SOL    HW124017   3.987   3.563   5.442
 7706SOL    HW224018   4.110   3.479   5.375
 7707SOL     OW24019   6.904   5.226   5.315
 7707SOL    HW124020   6.833   5.157   5.328
 7707SOL    HW224021   6.887   5.275   5.229
 7708SOL     OW24022   0.502   6.661   6.335
 7708SOL    HW124023   0.441   6.735   6.363
 7708SOL    HW224024   0.493   6.645   6.237
 7709SOL     OW24025   6.638   4.224   2.019
 7709SOL    HW124026   6.554   4.184   2.055
 7709SOL    HW224027   6.683   4.158   1.959
 7710SOL     OW24028   3.110   2.222   0.361
 7710SOL    HW124029   3.029   2.249   0.413
 7710SOL    HW224030   3.190   2.271   0.396
 7711SOL     OW24031   5.928   6.410   6.049
 7711SOL    HW124032   5.886   6.348   6.115
 7711SOL    HW224033   5.869   6.421   5.970
 7712SOL     OW24034   6.097   5.441   1.803
 7712SOL    HW124035   6.164   5.370   1.826
 7712SOL    HW224036   6.120   5.526   1.851
 7713SOL     OW24037   2.266   4.108   1.306
 7713SOL    HW124038   2.294   4.070   1.394
 7713SOL    HW224039   2.234   4.034   1.246
 7714SOL     OW24040   0.292   3.444   5.819
 7714SOL    HW124041   0.207   3.493   5.798
 7714SOL    HW224042   0.349   3.500   5.878
 7715SOL     OW24043   3.107   1.712   0.570
 7715SOL    HW124044   3.102   1.671   0.478
 7715SOL    HW224045   3.014   1.720   0.607
 7716SOL     OW24046   6.852   4.328   2.140
 7716SOL    HW124047   6.781   4.282   2.086
 7716SOL    HW224048   6.859   4.423   2.110
 7717SOL     OW24049   2.182   0.931   5.362
 7717SOL    HW124050   2.215   1.024   5.352
 7717SOL    HW224051   2.089   0.933   5.399
 7718SOL     OW24052   6.942   3.961   3.878
 7718SOL    HW124053   6.954   3.975   3.779
 7718SOL    HW224054   6.994   4.030   3.928
 7719SOL     OW24055   6.884   4.073   5.493
 7719SOL    HW124056   6.860   4.065   5.396
 7719SOL    HW224057   6.814   4.126   5.541
 7720SOL     OW24058   0.108   1.236   0.053
 7720SOL    HW124059   0.169   1.266   0.126
 7720SOL    HW224060   0.144   1.266   6.992
 7721SOL     OW24061   0.555   5.309   2.565
 7721SOL    HW124062   0.479   5.372   2.580
 7721SOL    HW224063   0.567   5.252   2.646
 7722SOL     OW24064   1.325   4.225   3.397
 7722SOL    HW124065   1.254   4.173   3.446
 7722SOL    HW224066   1.291   4.250   3.306
 7723SOL     OW24067   4.616   3.009   6.237
 7723SOL    HW124068   4.535   3.002   6.179
 7723SOL    HW224069   4.643   3.105   6.245
 7724SOL     OW24070   3.064   4.209   1.149
 7724SOL    HW124071   3.006   4.150   1.093
 7724SOL    HW224072   3.098   4.158   1.228
 7725SOL     OW24073   6.643   1.692   2.949
 7725SOL    HW124074   6.628   1.769   2.888
 7725SOL    HW224075   6.558   1.670   2.996
 7726SOL     OW24076   1.298   4.817   5.369
 7726SOL    HW124077   1.397   4.819   5.352
 7726SOL    HW224078   1.249   4.805   5.283
 7727SOL     OW24079   0.228   2.341   2.844
 7727SOL    HW124080   0.288   2.412   2.880
 7727SOL    HW224081   0.199   2.367   2.752
 7728SOL     OW24082   1.790   3.693   5.086
 7728SOL    HW124083   1.849   3.637   5.144
 7728SOL    HW224084   1.837   3.779   5.064
 7729SOL     OW24085   5.767   2.116   1.450
 7729SOL    HW124086   5.674   2.153   1.455
 7729SOL    HW224087   5.774   2.056   1.370
 7730SOL     OW24088   6.245   5.856   0.205
 7730SOL    HW124089   6.216   5.932   0.147
 7730SOL    HW224090   6.170   5.829   0.265
 7731SOL     OW24091   6.931   1.564   0.098
 7731SOL    HW124092   6.955   1.468   0.112
 7731SOL    HW224093   6.898   1.603   0.184
 7732SOL     OW24094   4.970   0.051   0.611
 7732SOL    HW124095   5.028   6.996   0.608
 7732SOL    HW224096   4.879   0.025   0.644
 7733SOL     OW24097   4.606   6.390   3.015
 7733SOL    HW124098   4.556   6.304   3.021
 7733SOL    HW224099   4.701   6.372   2.989
 7734SOL     OW24100   1.530   4.984   3.311
 7734SOL    HW124101   1.496   5.078   3.316
 7734SOL    HW224102   1.592   4.975   3.233
 7735SOL     OW24103   4.204   6.562   7.022
 7735SOL    HW124104   4.249   6.507   0.066
 7735SOL    HW224105   4.262   6.568   6.941
 7736SOL     OW24106   3.673   3.145   0.005
 7736SOL    HW124107   3.645   3.231   0.046
 7736SOL    HW224108   3.773   3.141   7.026
 7737SOL     OW24109   3.294   6.677   2.674
 7737SOL    HW124110   3.319   6.592   2.720
 7737SOL    HW224111   3.237   6.657   2.595
 7738SOL     OW24112   2.750   5.913   0.049
 7738SOL    HW124113   2.658   5.876   0.059
 7738SOL    HW224114   2.749   5.988   7.009
 7739SOL     OW24115   6.996   2.434   1.064
 7739SOL    HW124116   7.011   2.339   1.090
 7739SOL    HW224117   6.920   2.472   1.117
 7740SOL     OW24118   2.619   1.631   2.655
 7740SOL    HW124119   2.700   1.576   2.632
 7740SOL    HW224120   2.580   1.669   2.571
 7741SOL     OW24121   0.935   4.870   5.866
 7741SOL    HW124122   0.837   4.884   5.884
 7741SOL    HW224123   0.969   4.945   5.810
 7742SOL     OW24124   4.367   1.951   3.545
 7742SOL    HW124125   4.451   1.958   3.598
 7742SOL    HW224126   4.387   1.963   3.448
 7743SOL     OW24127   5.476   1.681   0.120
 7743SOL    HW124128   5.532   1.761   0.143
 7743SOL    HW224129   5.512   1.600   0.167
 7744SOL     OW24130   0.671   0.140   4.259
 7744SOL    HW124131   0.659   0.146   4.358
 7744SOL    HW224132   0.761   0.102   4.238
 7745SOL     OW24133   3.896   1.039   0.240
 7745SOL    HW124134   3.920   0.965   0.178
 7745SOL    HW224135   3.822   1.093   0.201
 7746SOL     OW24136   1.718   0.610   0.294
 7746SOL    HW124137   1.680   0.691   0.338
 7746SOL    HW224138   1.771   0.637   0.213
 7747SOL     OW24139   5.540   5.865   1.722
 7747SOL    HW124140   5.630   5.893   1.756
 7747SOL    HW224141   5.479   5.848   1.799
 7748SOL     OW24142   2.934   3.610   4.279
 7748SOL    HW124143   2.864   3.609   4.207
 7748SOL    HW224144   3.001   3.538   4.261
 7749SOL     OW24145   3.108   3.314   5.664
 7749SOL    HW124146   3.150   3.352   5.582
 7749SOL    HW224147   3.071   3.388   5.720
 7750SOL     OW24148   0.322   6.220   1.533
 7750SOL    HW124149   0.230   6.241   1.499
 7750SOL    HW224150   0.318   6.198   1.630
 7751SOL     OW24151   2.000   2.720   2.186
 7751SOL    HW124152   1.967   2.676   2.269
 7751SOL    HW224153   1.994   2.819   2.196
 7752SOL     OW24154   5.657   6.193   5.905
 7752SOL    HW124155   5.610   6.237   5.828
 7752SOL    HW224156   5.752   6.174   5.879
 7753SOL     OW24157   2.140   0.729   4.032
 7753SOL    HW124158   2.174   0.688   3.948
 7753SOL    HW224159   2.129   0.658   4.102
 7754SOL     OW24160   3.640   6.930   2.405
 7754SOL    HW124161   3.733   6.899   2.425
 7754SOL    HW224162   3.611   6.893   2.317
 7755SOL     OW24163   1.230   1.735   5.617
 7755SOL    HW124164   1.190   1.801   5.553
 7755SOL    HW224165   1.329   1.730   5.603
 7756SOL     OW24166   2.544   6.080   2.546
 7756SOL    HW124167   2.449   6.059   2.568
 7756SOL    HW224168   2.598   6.079   2.630
 7757SOL     OW24169   6.264   4.947   6.275
 7757SOL    HW124170   6.339   4.999   6.315
 7757SOL    HW224171   6.176   4.989   6.299
 7758SOL     OW24172   1.448   0.414   5.942
 7758SOL    HW124173   1.405   0.366   6.019
 7758SOL    HW224174   1.455   0.511   5.964
 7759SOL     OW24175   1.554   1.420   5.158
 7759SOL    HW124176   1.616   1.437   5.235
 7759SOL    HW224177   1.459   1.435   5.188
 7760SOL     OW24178   5.693   3.595   3.008
 7760SOL    HW124179   5.753   3.562   3.081
 7760SOL    HW224180   5.601   3.560   3.023
 7761SOL     OW24181   0.338   0.699   4.645
 7761SOL    HW124182   0.259   0.739   4.692
 7761SOL    HW224183   0.307   0.630   4.580
 7762SOL     OW24184   3.092   6.482   3.987
 7762SOL    HW124185   3.022   6.427   4.033
 7762SOL    HW224186   3.053   6.522   3.904
 7763SOL     OW24187   1.595   1.020   6.337
 7763SOL    HW124188   1.668   0.952   6.329
 7763SOL    HW224189   1.621   1.087   6.406
 7764SOL     OW24190   3.733   3.113   3.779
 7764SOL    HW124191   3.659   3.065   3.825
 7764SOL    HW224192   3.817   3.058   3.783
 7765SOL     OW24193   6.534   3.310   5.216
 7765SOL    HW124194   6.561   3.229   5.165
 7765SOL    HW224195   6.482   3.372   5.157
 7766SOL     OW24196   0.101   3.448   0.405
 7766SOL    HW124197   0.194   3.467   0.437
 7766SOL    HW224198   0.058   3.532   0.373
 7767SOL     OW24199   4.796   6.354   2.586
 7767SOL    HW124200   4.709   6.363   2.634
 7767SOL    HW224201   4.803   6.262   2.548
 7768SOL     OW24202   4.188   4.826   2.838
 7768SOL    HW124203   4.117   4.835   2.768
 7768SOL    HW224204   4.257   4.897   2.825
 7769SOL     OW24205   3.899   1.909   3.161
 7769SOL    HW124206   3.861   1.820   3.186
 7769SOL    HW224207   3.888   1.972   3.238
 7770SOL     OW24208   1.865   4.582   3.271
 7770SOL    HW124209   1.876   4.504   3.209
 7770SOL    HW224210   1.892   4.556   3.363
 7771SOL     OW24211   3.478   1.879   5.092
 7771SOL    HW124212   3.458   1.974   5.118
 7771SOL    HW224213   3.569   1.874   5.052
 7772SOL     OW24214   4.323   0.297   2.534
 7772SOL    HW124215   4.390   0.223   2.525
 7772SOL    HW224216   4.332   0.340   2.623
 7773SOL     OW24217   2.874   5.930   4.927
 7773SOL    HW124218   2.806   5.990   4.883
 7773SOL    HW224219   2.923   5.879   4.858
 7774SOL     OW24220   5.127   2.092   5.368
 7774SOL    HW124221   5.184   2.159   5.320
 7774SOL    HW224222   5.166   2.072   5.458
 7775SOL     OW24223   4.586   5.611   0.833
 7775SOL    HW124224   4.660   5.600   0.767
 7775SOL    HW224225   4.515   5.543   0.814
 7776SOL     OW24226   0.647   5.421   5.841
 7776SOL    HW124227   0.713   5.418   5.767
 7776SOL    HW224228   0.606   5.512   5.846
 7777SOL     OW24229   6.330   6.314   4.449
 7777SOL    HW124230   6.246   6.285   4.405
 7777SOL    HW224231   6.396   6.239   4.448
 7778SOL     OW24232   5.258   4.085   0.477
 7778SOL    HW124233   5.217   4.148   0.411
 7778SOL    HW224234   5.207   3.999   0.476
 7779SOL     OW24235   2.756   2.517   1.756
 7779SOL    HW124236   2.678   2.456   1.745
 7779SOL    HW224237   2.806   2.493   1.839
 7780SOL     OW24238   0.891   4.702   5.416
 7780SOL    HW124239   0.986   4.720   5.438
 7780SOL    HW224240   0.846   4.657   5.493
 7781SOL     OW24241   2.010   4.850   0.963
 7781SOL    HW124242   2.070   4.921   0.998
 7781SOL    HW224243   2.062   4.767   0.947
 7782SOL     OW24244   5.630   5.168   4.192
 7782SOL    HW124245   5.581   5.241   4.239
 7782SOL    HW224246   5.566   5.094   4.170
 7783SOL     OW24247   1.239   5.695   5.013
 7783SOL    HW124248   1.210   5.728   5.103
 7783SOL    HW224249   1.174   5.723   4.943
 7784SOL     OW24250   3.411   2.325   1.749
 7784SOL    HW124251   3.503   2.303   1.781
 7784SOL    HW224252   3.406   2.422   1.727
 7785SOL     OW24253   1.885   5.985   4.424
 7785SOL    HW124254   1.927   5.931   4.352
 7785SOL    HW224255   1.857   5.925   4.499
 7786SOL     OW24256   3.284   6.453   0.434
 7786SOL    HW124257   3.322   6.429   0.523
 7786SOL    HW224258   3.300   6.379   0.369
 7787SOL     OW24259   2.215   2.401   5.806
 7787SOL    HW124260   2.228   2.485   5.753
 7787SOL    HW224261   2.275   2.403   5.887
 7788SOL     OW24262   2.232   4.770   1.182
 7788SOL    HW124263   2.283   4.794   1.264
 7788SOL    HW224264   2.203   4.854   1.135
 7789SOL     OW24265   1.787   6.525   6.404
 7789SOL    HW124266   1.772   6.510   6.306
 7789SOL    HW224267   1.885   6.535   6.421
 7790SOL     OW24268   5.352   5.729   3.321
 7790SOL    HW124269   5.296   5.780   3.387
 7790SOL    HW224270   5.442   5.772   3.315
 7791SOL     OW24271   3.046   4.935   3.002
 7791SOL    HW124272   3.140   4.933   2.971
 7791SOL    HW224273   2.985   4.910   2.927
 7792SOL     OW24274   1.694   5.040   4.833
 7792SOL    HW124275   1.764   5.071   4.768
 7792SOL    HW224276   1.657   5.119   4.882
 7793SOL     OW24277   3.668   0.936   1.006
 7793SOL    HW124278   3.708   0.851   1.042
 7793SOL    HW224279   3.738   0.987   0.955
 7794SOL     OW24280   6.365   3.839   2.929
 7794SOL    HW124281   6.358   3.917   2.991
 7794SOL    HW224282   6.462   3.819   2.912
 7795SOL     OW24283   1.803   4.118   5.871
 7795SOL    HW124284   1.856   4.036   5.889
 7795SOL    HW224285   1.796   4.173   5.954
 7796SOL     OW24286   4.019   3.054   3.740
 7796SOL    HW124287   4.033   3.095   3.650
 7796SOL    HW224288   4.035   2.955   3.735
 7797SOL     OW24289   1.642   0.467   1.804
 7797SOL    HW124290   1.630   0.368   1.803
 7797SOL    HW224291   1.636   0.503   1.711
 7798SOL     OW24292   1.643   3.780   4.348
 7798SOL    HW124293   1.722   3.783   4.408
 7798SOL    HW224294   1.659   3.836   4.267
 7799SOL     OW24295   2.215   6.130   2.347
 7799SOL    HW124296   2.129   6.154   2.390
 7799SOL    HW224297   2.270   6.212   2.334
 7800SOL     OW24298   1.279   5.718   1.569
 7800SOL    HW124299   1.190   5.700   1.527
 7800SOL    HW224300   1.331   5.633   1.577
 7801SOL     OW24301   2.317   1.792   2.030
 7801SOL    HW124302   2.393   1.727   2.029
 7801SOL    HW224303   2.353   1.884   2.047
 7802SOL     OW24304   5.488   2.974   1.119
 7802SOL    HW124305   5.550   2.902   1.150
 7802SOL    HW224306   5.505   2.993   1.022
 7803SOL     OW24307   4.354   2.437   5.811
 7803SOL    HW124308   4.361   2.459   5.714
 7803SOL    HW224309   4.291   2.361   5.824
 7804SOL     OW24310   4.429   1.974   4.920
 7804SOL    HW124311   4.467   2.066   4.914
 7804SOL    HW224312   4.333   1.979   4.945
 7805SOL     OW24313   5.532   2.670   1.552
 7805SOL    HW124314   5.562   2.762   1.525
 7805SOL    HW224315   5.464   2.677   1.624
 7806SOL     OW24316   6.288   2.113   6.668
 7806SOL    HW124317   6.344   2.162   6.602
 7806SOL    HW224318   6.249   2.031   6.626
 7807SOL     OW24319   1.059   4.984   6.129
 7807SOL    HW124320   1.096   4.915   6.066
 7807SOL    HW224321   1.041   5.068   6.078
 7808SOL     OW24322   6.398   3.443   4.841
 7808SOL    HW124323   6.405   3.460   4.940
 7808SOL    HW224324   6.357   3.353   4.827
 7809SOL     OW24325   3.667   4.963   4.468
 7809SOL    HW124326   3.603   4.937   4.541
 7809SOL    HW224327   3.760   4.944   4.498
 7810SOL     OW24328   3.559   6.880   4.533
 7810SOL    HW124329   3.519   6.895   4.442
 7810SOL    HW224330   3.486   6.855   4.597
 7811SOL     OW24331   1.392   5.905   2.063
 7811SOL    HW124332   1.387   5.843   1.985
 7811SOL    HW224333   1.433   5.992   2.034
 7812SOL     OW24334   0.281   2.307   4.348
 7812SOL    HW124335   0.338   2.245   4.294
 7812SOL    HW224336   0.224   2.362   4.288
 7813SOL     OW24337   3.986   2.316   0.284
 7813SOL    HW124338   4.005   2.229   0.329
 7813SOL    HW224339   4.006   2.391   0.347
 7814SOL     OW24340   0.190   3.751   3.666
 7814SOL    HW124341   0.134   3.751   3.748
 7814SOL    HW224342   0.256   3.676   3.670
 7815SOL     OW24343   5.991   0.980   4.671
 7815SOL    HW124344   5.899   0.942   4.664
 7815SOL    HW224345   5.993   1.052   4.740
 7816SOL     OW24346   1.623   2.395   6.389
 7816SOL    HW124347   1.566   2.350   6.320
 7816SOL    HW224348   1.646   2.488   6.357
 7817SOL     OW24349   4.678   4.337   4.126
 7817SOL    HW124350   4.620   4.321   4.205
 7817SOL    HW224351   4.761   4.281   4.133
 7818SOL     OW24352   4.503   0.330   2.000
 7818SOL    HW124353   4.422   0.378   2.035
 7818SOL    HW224354   4.477   0.238   1.970
 7819SOL     OW24355   0.062   4.212   2.910
 7819SOL    HW124356   0.032   4.306   2.889
 7819SOL    HW224357   7.008   4.156   2.929
 7820SOL     OW24358   1.496   1.048   5.548
 7820SOL    HW124359   1.585   1.082   5.578
 7820SOL    HW224360   1.424   1.105   5.587
 7821SOL     OW24361   5.814   5.626   6.807
 7821SOL    HW124362   5.865   5.579   6.735
 7821SOL    HW224363   5.721   5.590   6.812
 7822SOL     OW24364   0.901   1.444   6.926
 7822SOL    HW124365   0.942   1.384   6.857
 7822SOL    HW224366   0.863   1.389   7.001
 7823SOL     OW24367   2.835   3.385   5.107
 7823SOL    HW124368   2.798   3.321   5.040
 7823SOL    HW224369   2.797   3.364   5.198
 7824SOL     OW24370   5.691   1.019   3.804
 7824SOL    HW124371   5.727   1.067   3.724
 7824SOL    HW224372   5.754   0.947   3.832
 7825SOL     OW24373   1.243   3.261   1.054
 7825SOL    HW124374   1.339   3.284   1.040
 7825SOL    HW224375   1.228   3.165   1.029
 7826SOL     OW24376   5.827   1.469   0.210
 7826SOL    HW124377   5.912   1.448   0.163
 7826SOL    HW224378   5.842   1.542   0.277
 7827SOL     OW24379   3.299   4.968   1.614
 7827SOL    HW124380   3.374   5.034   1.621
 7827SOL    HW224381   3.310   4.914   1.531
 7828SOL     OW24382   0.826   4.840   0.190
 7828SOL    HW124383   0.747   4.803   0.238
 7828SOL    HW224384   0.796   4.890   0.109
 7829SOL     OW24385   1.952   2.884   0.418
 7829SOL    HW124386   1.871   2.850   0.465
 7829SOL    HW224387   2.018   2.919   0.485
 7830SOL     OW24388   3.266   3.983   5.665
 7830SOL    HW124389   3.342   3.939   5.618
 7830SOL    HW224390   3.252   4.075   5.627
 7831SOL     OW24391   1.561   5.687   1.001
 7831SOL    HW124392   1.632   5.731   1.057
 7831SOL    HW224393   1.476   5.682   1.053
 7832SOL     OW24394   4.758   1.247   3.873
 7832SOL    HW124395   4.703   1.328   3.854
 7832SOL    HW224396   4.839   1.273   3.925
 7833SOL     OW24397   0.508   1.095   6.880
 7833SOL    HW124398   0.598   1.111   6.920
 7833SOL    HW224399   0.458   1.027   6.935
 7834SOL     OW24400   6.535   1.113   3.175
 7834SOL    HW124401   6.473   1.145   3.247
 7834SOL    HW224402   6.493   1.036   3.127
 7835SOL     OW24403   2.845   1.699   5.580
 7835SOL    HW124404   2.849   1.699   5.480
 7835SOL    HW224405   2.767   1.753   5.611
 7836SOL     OW24406   3.195   2.855   5.148
 7836SOL    HW124407   3.202   2.786   5.075
 7836SOL    HW224408   3.147   2.816   5.226
 7837SOL     OW24409   6.344   6.169   0.981
 7837SOL    HW124410   6.380   6.105   0.913
 7837SOL    HW224411   6.402   6.169   1.062
 7838SOL     OW24412   4.465   6.756   0.096
 7838SOL    HW124413   4.557   6.794   0.101
 7838SOL    HW224414   4.430   6.741   0.188
 7839SOL     OW24415   6.420   4.173   5.082
 7839SOL    HW124416   6.331   4.147   5.046
 7839SOL    HW224417   6.411   4.256   5.138
 7840SOL     OW24418   5.914   2.843   4.035
 7840SOL    HW124419   5.878   2.913   3.973
 7840SOL    HW224420   6.014   2.844   4.031
 7841SOL     OW24421   4.216   1.534   6.485
 7841SOL    HW124422   4.197   1.438   6.465
 7841SOL    HW224423   4.310   1.544   6.518
 7842SOL     OW24424   1.850   2.426   2.613
 7842SOL    HW124425   1.921   2.407   2.680
 7842SOL    HW224426   1.825   2.342   2.565
 7843SOL     OW24427   5.511   5.049   2.375
 7843SOL    HW124428   5.461   5.009   2.452
 7843SOL    HW224429   5.446   5.083   2.307
 7844SOL     OW24430   4.196   6.765   2.529
 7844SOL    HW124431   4.226   6.860   2.530
 7844SOL    HW224432   4.132   6.749   2.604
 7845SOL     OW24433   5.288   1.991   4.145
 7845SOL    HW124434   5.193   1.966   4.127
 7845SOL    HW224435   5.314   1.961   4.237
 7846SOL     OW24436   0.779   1.277   3.247
 7846SOL    HW124437   0.759   1.366   3.205
 7846SOL    HW224438   0.864   1.284   3.299
 7847SOL     OW24439   6.729   1.530   3.213
 7847SOL    HW124440   6.819   1.489   3.203
 7847SOL    HW224441   6.680   1.525   3.125
 7848SOL     OW24442   3.315   3.137   0.833
 7848SOL    HW124443   3.375   3.059   0.851
 7848SOL    HW224444   3.221   3.113   0.854
 7849SOL     OW24445   5.563   4.181   3.304
 7849SOL    HW124446   5.578   4.266   3.255
 7849SOL    HW224447   5.477   4.139   3.273
 7850SOL     OW24448   0.750   1.792   5.376
 7850SOL    HW124449   0.687   1.725   5.339
 7850SOL    HW224450   0.827   1.745   5.420
 7851SOL     OW24451   6.410   1.010   1.984
 7851SOL    HW124452   6.432   0.913   1.977
 7851SOL    HW224453   6.475   1.063   1.930
 7852SOL     OW24454   2.505   1.368   6.215
 7852SOL    HW124455   2.494   1.453   6.164
 7852SOL    HW224456   2.553   1.301   6.158
 7853SOL     OW24457   4.454   2.075   1.749
 7853SOL    HW124458   4.375   2.136   1.757
 7853SOL    HW224459   4.538   2.129   1.750
 7854SOL     OW24460   3.429   3.488   0.118
 7854SOL    HW124461   3.352   3.444   0.072
 7854SOL    HW224462   3.514   3.462   0.072
 7855SOL     OW24463   3.534   5.640   5.564
 7855SOL    HW124464   3.514   5.737   5.559
 7855SOL    HW224465   3.451   5.587   5.545
 7856SOL     OW24466   6.344   4.364   5.263
 7856SOL    HW124467   6.345   4.319   5.352
 7856SOL    HW224468   6.249   4.371   5.231
 7857SOL     OW24469   6.167   2.133   5.409
 7857SOL    HW124470   6.114   2.081   5.475
 7857SOL    HW224471   6.106   2.193   5.357
 7858SOL     OW24472   5.097   5.508   3.424
 7858SOL    HW124473   5.182   5.465   3.394
 7858SOL    HW224474   5.030   5.437   3.446
 7859SOL     OW24475   5.649   2.824   6.406
 7859SOL    HW124476   5.641   2.923   6.403
 7859SOL    HW224477   5.734   2.796   6.362
 7860SOL     OW24478   4.390   0.468   2.754
 7860SOL    HW124479   4.482   0.502   2.771
 7860SOL    HW224480   4.348   0.442   2.841
 7861SOL     OW24481   3.886   5.456   1.830
 7861SOL    HW124482   3.941   5.509   1.895
 7861SOL    HW224483   3.914   5.479   1.736
 7862SOL     OW24484   3.235   4.222   1.624
 7862SOL    HW124485   3.229   4.210   1.723
 7862SOL    HW224486   3.231   4.133   1.579
 7863SOL     OW24487   0.633   5.784   3.957
 7863SOL    HW124488   0.687   5.725   3.899
 7863SOL    HW224489   0.568   5.837   3.902
 7864SOL     OW24490   0.871   5.251   5.546
 7864SOL    HW124491   0.902   5.207   5.461
 7864SOL    HW224492   0.801   5.194   5.589
 7865SOL     OW24493   5.524   7.017   4.536
 7865SOL    HW124494   5.587   6.992   4.462
 7865SOL    HW224495   5.430   6.997   4.508
 7866SOL     OW24496   1.215   1.885   6.541
 7866SOL    HW124497   1.178   1.853   6.628
 7866SOL    HW224498   1.160   1.961   6.507
 7867SOL     OW24499   4.997   6.891   2.676
 7867SOL    HW124500   5.040   6.922   2.760
 7867SOL    HW224501   5.067   6.863   2.611
 7868SOL     OW24502   5.395   6.815   1.984
 7868SOL    HW124503   5.321   6.748   1.994
 7868SOL    HW224504   5.369   6.901   2.028
 7869SOL     OW24505   5.898   4.116   0.038
 7869SOL    HW124506   5.924   4.047   6.997
 7869SOL    HW224507   5.962   4.114   0.115
 7870SOL     OW24508   3.826   5.184   4.671
 7870SOL    HW124509   3.876   5.106   4.633
 7870SOL    HW224510   3.727   5.165   4.666
 7871SOL     OW24511   4.963   3.211   2.424
 7871SOL    HW124512   4.931   3.126   2.466
 7871SOL    HW224513   5.063   3.215   2.431
 7872SOL     OW24514   2.368   4.359   3.080
 7872SOL    HW124515   2.288   4.353   3.140
 7872SOL    HW224516   2.380   4.272   3.032
 7873SOL     OW24517   5.992   0.473   6.214
 7873SOL    HW124518   6.016   0.559   6.169
 7873SOL    HW224519   5.957   0.409   6.146
 7874SOL     OW24520   5.591   1.925   0.681
 7874SOL    HW124521   5.555   1.939   0.588
 7874SOL    HW224522   5.603   2.014   0.725
 7875SOL     OW24523   5.695   1.927   6.500
 7875SOL    HW124524   5.660   1.889   6.586
 7875SOL    HW224525   5.692   1.856   6.430
 7876SOL     OW24526   0.205   6.298   5.048
 7876SOL    HW124527   0.280   6.364   5.053
 7876SOL    HW224528   0.118   6.348   5.044
 7877SOL     OW24529   0.971   2.519   2.744
 7877SOL    HW124530   0.905   2.593   2.731
 7877SOL    HW224531   0.925   2.431   2.733
 7878SOL     OW24532   5.876   5.458   3.899
 7878SOL    HW124533   5.781   5.430   3.885
 7878SOL    HW224534   5.887   5.491   3.992
 7879SOL     OW24535   4.377   5.752   3.916
 7879SOL    HW124536   4.308   5.790   3.977
 7879SOL    HW224537   4.395   5.657   3.941
 7880SOL     OW24538   2.069   4.987   1.662
 7880SOL    HW124539   2.079   4.991   1.563
 7880SOL    HW224540   2.062   5.079   1.699
 7881SOL     OW24541   5.512   4.304   5.042
 7881SOL    HW124542   5.482   4.208   5.044
 7881SOL    HW224543   5.486   4.349   5.127
 7882SOL     OW24544   0.867   3.094   3.144
 7882SOL    HW124545   0.866   3.098   3.044
 7882SOL    HW224546   0.961   3.078   3.175
 7883SOL     OW24547   1.311   0.361   0.554
 7883SOL    HW124548   1.351   0.324   0.470
 7883SOL    HW224549   1.240   0.427   0.530
 7884SOL     OW24550   2.213   4.315   3.747
 7884SOL    HW124551   2.197   4.221   3.715
 7884SOL    HW224552   2.142   4.340   3.813
 7885SOL     OW24553   6.411   5.756   1.345
 7885SOL    HW124554   6.385   5.817   1.420
 7885SOL    HW224555   6.426   5.664   1.381
 7886SOL     OW24556   3.148   5.688   0.622
 7886SOL    HW124557   3.179   5.781   0.643
 7886SOL    HW224558   3.187   5.659   0.535
 7887SOL     OW24559   3.246   2.532   5.323
 7887SOL    HW124560   3.226   2.458   5.258
 7887SOL    HW224561   3.180   2.606   5.311
 7888SOL     OW24562   6.736   6.687   5.251
 7888SOL    HW124563   6.665   6.744   5.210
 7888SOL    HW224564   6.753   6.717   5.345
 7889SOL     OW24565   1.128   4.481   0.866
 7889SOL    HW124566   1.032   4.498   0.843
 7889SOL    HW224567   1.155   4.542   0.941
 7890SOL     OW24568   0.280   3.036   3.561
 7890SOL    HW124569   0.271   2.937   3.563
 7890SOL    HW224570   0.251   3.071   3.471
 7891SOL     OW24571   2.003   4.357   4.244
 7891SOL    HW124572   1.976   4.422   4.315
 7891SOL    HW224573   2.053   4.281   4.285
 7892SOL     OW24574   2.084   1.736   4.020
 7892SOL    HW124575   2.042   1.688   3.944
 7892SOL    HW224576   2.183   1.740   4.006
 7893SOL     OW24577   6.389   6.029   1.792
 7893SOL    HW124578   6.419   6.014   1.886
 7893SOL    HW224579   6.314   6.096   1.790
 7894SOL     OW24580   3.990   6.377   0.852
 7894SOL    HW124581   4.016   6.340   0.763
 7894SOL    HW224582   3.976   6.302   0.916
 7895SOL     OW24583   5.428   0.471   4.975
 7895SOL    HW124584   5.457   0.378   4.951
 7895SOL    HW224585   5.349   0.497   4.919
 7896SOL     OW24586   3.931   3.138   1.000
 7896SOL    HW124587   3.846   3.166   0.956
 7896SOL    HW224588   4.008   3.155   0.939
 7897SOL     OW24589   3.439   2.802   0.796
 7897SOL    HW124590   3.348   2.777   0.762
 7897SOL    HW224591   3.476   2.875   0.738
 7898SOL     OW24592   3.827   1.104   3.594
 7898SOL    HW124593   3.742   1.058   3.568
 7898SOL    HW224594   3.903   1.062   3.546
 7899SOL     OW24595   5.864   0.261   1.051
 7899SOL    HW124596   5.826   0.324   0.983
 7899SOL    HW224597   5.796   0.245   1.122
 7900SOL     OW24598   1.692   5.331   1.875
 7900SOL    HW124599   1.742   5.341   1.789
 7900SOL    HW224600   1.617   5.266   1.863
 7901SOL     OW24601   4.508   0.999   6.400
 7901SOL    HW124602   4.448   0.920   6.409
 7901SOL    HW224603   4.488   1.046   6.314
 7902SOL     OW24604   6.375   6.967   1.333
 7902SOL    HW124605   6.302   7.025   1.297
 7902SOL    HW224606   6.335   6.895   1.390
 7903SOL     OW24607   4.618   1.753   1.892
 7903SOL    HW124608   4.526   1.783   1.918
 7903SOL    HW224609   4.618   1.723   1.796
 7904SOL     OW24610   5.718   6.681   2.706
 7904SOL    HW124611   5.630   6.696   2.751
 7904SOL    HW224612   5.789   6.665   2.776
 7905SOL     OW24613   5.498   1.987   0.438
 7905SOL    HW124614   5.436   2.000   0.361
 7905SOL    HW224615   5.589   2.020   0.414
 7906SOL     OW24616   0.351   5.215   0.849
 7906SOL    HW124617   0.435   5.199   0.797
 7906SOL    HW224618   0.305   5.297   0.815
 7907SOL     OW24619   5.320   2.082   3.203
 7907SOL    HW124620   5.352   2.035   3.120
 7907SOL    HW224621   5.398   2.114   3.255
 7908SOL     OW24622   1.635   0.883   5.754
 7908SOL    HW124623   1.575   0.915   5.680
 7908SOL    HW224624   1.580   0.835   5.823
 7909SOL     OW24625   4.838   4.863   4.403
 7909SOL    HW124626   4.753   4.914   4.419
 7909SOL    HW224627   4.906   4.923   4.361
 7910SOL     OW24628   3.343   3.687   6.051
 7910SOL    HW124629   3.310   3.633   6.128
 7910SOL    HW224630   3.431   3.728   6.075
 7911SOL     OW24631   0.976   4.134   0.632
 7911SOL    HW124632   0.882   4.152   0.659
 7911SOL    HW224633   0.979   4.114   0.534
 7912SOL     OW24634   6.393   4.682   0.658
 7912SOL    HW124635   6.471   4.719   0.608
 7912SOL    HW224636   6.342   4.757   0.702
 7913SOL     OW24637   1.104   4.485   2.091
 7913SOL    HW124638   1.114   4.454   2.186
 7913SOL    HW224639   1.166   4.560   2.074
 7914SOL     OW24640   0.663   4.502   0.127
 7914SOL    HW124641   0.649   4.495   0.226
 7914SOL    HW224642   0.610   4.579   0.091
 7915SOL     OW24643   5.202   2.354   2.136
 7915SOL    HW124644   5.128   2.418   2.113
 7915SOL    HW224645   5.217   2.291   2.060
 7916SOL     OW24646   0.446   4.879   5.044
 7916SOL    HW124647   0.514   4.857   4.974
 7916SOL    HW224648   0.492   4.906   5.128
 7917SOL     OW24649   3.409   3.197   4.647
 7917SOL    HW124650   3.436   3.114   4.696
 7917SOL    HW224651   3.400   3.178   4.550
 7918SOL     OW24652   0.611   1.006   4.989
 7918SOL    HW124653   0.683   1.021   5.057
 7918SOL    HW224654   0.540   0.947   5.028
 7919SOL     OW24655   1.933   4.337   3.120
 7919SOL    HW124656   1.972   4.371   3.035
 7919SOL    HW224657   1.881   4.253   3.102
 7920SOL     OW24658   0.308   0.040   0.733
 7920SOL    HW124659   0.315   6.979   0.687
 7920SOL    HW224660   0.247   0.100   0.681
 7921SOL     OW24661   5.490   5.871   1.997
 7921SOL    HW124662   5.455   5.957   2.032
 7921SOL    HW224663   5.549   5.828   2.065
 7922SOL     OW24664   6.956   6.265   0.947
 7922SOL    HW124665   7.002   6.330   1.006
 7922SOL    HW224666   6.883   6.311   0.896
 7923SOL     OW24667   3.379   0.417   0.296
 7923SOL    HW124668   3.467   0.453   0.267
 7923SOL    HW224669   3.305   0.467   0.251
 7924SOL     OW24670   4.950   6.912   2.047
 7924SOL    HW124671   4.872   6.891   2.105
 7924SOL    HW224672   4.979   7.006   2.062
 7925SOL     OW24673   0.923   1.003   6.292
 7925SOL    HW124674   0.966   1.056   6.220
 7925SOL    HW224675   0.985   0.930   6.323
 7926SOL     OW24676   4.509   1.469   5.598
 7926SOL    HW124677   4.535   1.387   5.650
 7926SOL    HW224678   4.590   1.508   5.554
 7927SOL     OW24679   4.088   5.582   2.951
 7927SOL    HW124680   4.010   5.639   2.977
 7927SOL    HW224681   4.070   5.487   2.976
 7928SOL     OW24682   1.340   1.500   4.983
 7928SOL    HW124683   1.405   1.535   4.916
 7928SOL    HW224684   1.346   1.400   4.986
 7929SOL     OW24685   4.631   4.240   5.877
 7929SOL    HW124686   4.554   4.179   5.892
 7929SOL    HW224687   4.603   4.335   5.895
 7930SOL     OW24688   4.247   5.663   4.889
 7930SOL    HW124689   4.316   5.630   4.825
 7930SOL    HW224690   4.293   5.703   4.969
 7931SOL     OW24691   3.466   2.898   0.018
 7931SOL    HW124692   3.530   2.972   0.037
 7931SOL    HW224693   3.502   2.812   0.055
 7932SOL     OW24694   1.246   6.363   6.968
 7932SOL    HW124695   1.201   6.452   6.977
 7932SOL    HW224696   1.321   6.371   6.902
 7933SOL     OW24697   0.431   5.792   6.171
 7933SOL    HW124698   0.370   5.725   6.128
 7933SOL    HW224699   0.450   5.866   6.106
 7934SOL     OW24700   1.704   4.733   6.799
 7934SOL    HW124701   1.787   4.687   6.768
 7934SOL    HW224702   1.626   4.702   6.744
 7935SOL     OW24703   5.515   6.502   1.150
 7935SOL    HW124704   5.553   6.588   1.183
 7935SOL    HW224705   5.565   6.472   1.069
 7936SOL     OW24706   3.701   5.930   2.712
 7936SOL    HW124707   3.729   6.019   2.674
 7936SOL    HW224708   3.773   5.863   2.695
 7937SOL     OW24709   6.547   6.379   3.666
 7937SOL    HW124710   6.492   6.462   3.659
 7937SOL    HW224711   6.624   6.384   3.603
 7938SOL     OW24712   6.973   5.573   3.733
 7938SOL    HW124713   6.899   5.522   3.776
 7938SOL    HW224714   0.024   5.512   3.717
 7939SOL     OW24715   1.345   2.815   4.390
 7939SOL    HW124716   1.343   2.790   4.487
 7939SOL    HW224717   1.253   2.840   4.360
 7940SOL     OW24718   1.919   3.218   1.534
 7940SOL    HW124719   1.844   3.193   1.473
 7940SOL    HW224720   2.006   3.195   1.491
 7941SOL     OW24721   5.706   0.582   1.795
 7941SOL    HW124722   5.670   0.605   1.886
 7941SOL    HW224723   5.661   0.500   1.762
 7942SOL     OW24724   6.703   5.673   2.621
 7942SOL    HW124725   6.744   5.680   2.712
 7942SOL    HW224726   6.625   5.610   2.624
 7943SOL     OW24727   5.985   3.544   6.709
 7943SOL    HW124728   5.947   3.578   6.796
 7943SOL    HW224729   5.920   3.562   6.635
 7944SOL     OW24730   0.619   2.417   1.128
 7944SOL    HW124731   0.694   2.482   1.147
 7944SOL    HW224732   0.582   2.383   1.214
 7945SOL     OW24733   6.250   5.245   1.128
 7945SOL    HW124734   6.232   5.339   1.155
 7945SOL    HW224735   6.220   5.183   1.201
 7946SOL     OW24736   2.875   0.641   6.013
 7946SOL    HW124737   2.790   0.681   5.977
 7946SOL    HW224738   2.931   0.714   6.052
 7947SOL     OW24739   3.943   1.832   6.181
 7947SOL    HW124740   3.875   1.902   6.156
 7947SOL    HW224741   4.035   1.870   6.170
 7948SOL     OW24742   1.321   0.205   1.059
 7948SOL    HW124743   1.317   0.125   0.999
 7948SOL    HW224744   1.242   0.264   1.041
 7949SOL     OW24745   4.313   4.699   4.754
 7949SOL    HW124746   4.290   4.618   4.808
 7949SOL    HW224747   4.405   4.730   4.778
 7950SOL     OW24748   4.905   5.396   4.302
 7950SOL    HW124749   4.885   5.465   4.371
 7950SOL    HW224750   4.880   5.306   4.337
 7951SOL     OW24751   2.209   4.182   2.052
 7951SOL    HW124752   2.251   4.150   1.967
 7951SOL    HW224753   2.111   4.193   2.038
 7952SOL     OW24754   0.198   3.602   0.158
 7952SOL    HW124755   0.131   3.593   0.085
 7952SOL    HW224756   0.284   3.557   0.131
 7953SOL     OW24757   2.884   2.209   3.637
 7953SOL    HW124758   2.866   2.114   3.663
 7953SOL    HW224759   2.810   2.267   3.670
 7954SOL     OW24760   3.398   4.617   6.722
 7954SOL    HW124761   3.380   4.584   6.815
 7954SOL    HW224762   3.337   4.570   6.658
 7955SOL     OW24763   1.754   0.195   6.692
 7955SOL    HW124764   1.743   0.282   6.740
 7955SOL    HW224765   1.816   0.135   6.744
 7956SOL     OW24766   3.723   6.435   2.428
 7956SOL    HW124767   3.678   6.389   2.505
 7956SOL    HW224768   3.773   6.514   2.462
 7957SOL     OW24769   1.352   0.714   1.237
 7957SOL    HW124770   1.304   0.776   1.175
 7957SOL    HW224771   1.352   0.752   1.329
 7958SOL     OW24772   3.764   5.209   5.221
 7958SOL    HW124773   3.724   5.279   5.161
 7958SOL    HW224774   3.853   5.181   5.184
 7959SOL     OW24775   4.674   5.853   0.442
 7959SOL    HW124776   4.741   5.923   0.418
 7959SOL    HW224777   4.673   5.782   0.372
 7960SOL     OW24778   2.959   1.337   6.260
 7960SOL    HW124779   2.961   1.242   6.291
 7960SOL    HW224780   2.880   1.352   6.201
 7961SOL     OW24781   6.419   1.318   0.779
 7961SOL    HW124782   6.426   1.234   0.834
 7961SOL    HW224783   6.469   1.391   0.824
 7962SOL     OW24784   1.137   0.642   6.592
 7962SOL    HW124785   1.046   0.636   6.633
 7962SOL    HW224786   1.159   0.555   6.548
 7963SOL     OW24787   6.551   6.202   4.147
 7963SOL    HW124788   6.468   6.186   4.093
 7963SOL    HW224789   6.542   6.158   4.236
 7964SOL     OW24790   0.379   4.589   2.367
 7964SOL    HW124791   0.308   4.572   2.299
 7964SOL    HW224792   0.433   4.506   2.381
 7965SOL     OW24793   4.289   2.765   5.696
 7965SOL    HW124794   4.272   2.863   5.685
 7965SOL    HW224795   4.319   2.746   5.790
 7966SOL     OW24796   1.916   2.320   5.837
 7966SOL    HW124797   1.862   2.296   5.757
 7966SOL    HW224798   1.935   2.418   5.837
 7967SOL     OW24799   2.893   6.667   3.013
 7967SOL    HW124800   2.848   6.669   2.923
 7967SOL    HW224801   2.990   6.688   3.002
 7968SOL     OW24802   1.494   3.035   3.662
 7968SOL    HW124803   1.495   2.936   3.642
 7968SOL    HW224804   1.531   3.051   3.753
 7969SOL     OW24805   3.851   6.145   0.114
 7969SOL    HW124806   3.945   6.166   0.086
 7969SOL    HW224807   3.788   6.211   0.074
 7970SOL     OW24808   6.312   3.119   2.831
 7970SOL    HW124809   6.342   3.086   2.741
 7970SOL    HW224810   6.236   3.183   2.819
 7971SOL     OW24811   3.223   1.962   0.402
 7971SOL    HW124812   3.167   2.028   0.352
 7971SOL    HW224813   3.235   1.993   0.497
 7972SOL     OW24814   2.361   2.904   0.238
 7972SOL    HW124815   2.353   3.004   0.229
 7972SOL    HW224816   2.409   2.883   0.323
 7973SOL     OW24817   4.446   4.625   4.360
 7973SOL    HW124818   4.369   4.623   4.297
 7973SOL    HW224819   4.452   4.715   4.403
 7974SOL     OW24820   6.008   0.782   5.347
 7974SOL    HW124821   5.923   0.834   5.357
 7974SOL    HW224822   6.012   0.742   5.255
 7975SOL     OW24823   6.429   1.630   2.061
 7975SOL    HW124824   6.521   1.645   2.024
 7975SOL    HW224825   6.389   1.717   2.088
 7976SOL     OW24826   0.341   0.137   6.235
 7976SOL    HW124827   0.284   0.060   6.266
 7976SOL    HW224828   0.426   0.102   6.196
 7977SOL     OW24829   4.501   6.099   2.495
 7977SOL    HW124830   4.453   6.064   2.414
 7977SOL    HW224831   4.499   6.031   2.568
 7978SOL     OW24832   5.334   3.889   6.720
 7978SOL    HW124833   5.385   3.967   6.756
 7978SOL    HW224834   5.369   3.866   6.629
 7979SOL     OW24835   4.295   5.777   5.152
 7979SOL    HW124836   4.218   5.741   5.206
 7979SOL    HW224837   4.265   5.857   5.100
 7980SOL     OW24838   2.900   5.733   0.194
 7980SOL    HW124839   2.851   5.656   0.236
 7980SOL    HW224840   2.837   5.785   0.136
 7981SOL     OW24841   0.621   5.334   1.055
 7981SOL    HW124842   0.598   5.391   0.976
 7981SOL    HW224843   0.604   5.386   1.139
 7982SOL     OW24844   1.196   1.387   0.114
 7982SOL    HW124845   1.131   1.460   0.135
 7982SOL    HW224846   1.150   1.299   0.123
 7983SOL     OW24847   6.012   2.168   1.907
 7983SOL    HW124848   6.046   2.151   1.814
 7983SOL    HW224849   6.077   2.131   1.973
 7984SOL     OW24850   1.234   1.192   0.557
 7984SOL    HW124851   1.311   1.150   0.605
 7984SOL    HW224852   1.161   1.212   0.623
 7985SOL     OW24853   2.919   1.302   4.158
 7985SOL    HW124854   2.924   1.216   4.209
 7985SOL    HW224855   2.968   1.373   4.209
 7986SOL     OW24856   2.964   1.066   6.265
 7986SOL    HW124857   3.019   0.985   6.288
 7986SOL    HW224858   2.892   1.041   6.201
 7987SOL     OW24859   1.480   2.756   6.167
 7987SOL    HW124860   1.451   2.831   6.108
 7987SOL    HW224861   1.540   2.694   6.117
 7988SOL     OW24862   0.540   2.520   4.160
 7988SOL    HW124863   0.615   2.586   4.171
 7988SOL    HW224864   0.453   2.563   4.185
 7989SOL     OW24865   3.576   2.549   5.866
 7989SOL    HW124866   3.538   2.469   5.911
 7989SOL    HW224867   3.664   2.526   5.824
 7990SOL     OW24868   0.493   3.663   4.571
 7990SOL    HW124869   0.402   3.666   4.613
 7990SOL    HW224870   0.546   3.589   4.612
 7991SOL     OW24871   5.940   6.753   3.267
 7991SOL    HW124872   5.887   6.837   3.276
 7991SOL    HW224873   6.016   6.754   3.332
 7992SOL     OW24874   1.668   0.347   1.221
 7992SOL    HW124875   1.624   0.369   1.134
 7992SOL    HW224876   1.621   0.395   1.295
 7993SOL     OW24877   0.758   7.004   0.340
 7993SOL    HW124878   0.801   0.014   0.258
 7993SOL    HW224879   0.696   0.046   0.378
 7994SOL     OW24880   4.255   6.690   3.393
 7994SOL    HW124881   4.334   6.734   3.436
 7994SOL    HW224882   4.237   6.602   3.438
 7995SOL     OW24883   4.568   5.944   3.947
 7995SOL    HW124884   4.530   5.977   4.033
 7995SOL    HW224885   4.494   5.907   3.890
 7996SOL     OW24886   2.758   6.616   4.604
 7996SOL    HW124887   2.753   6.713   4.629
 7996SOL    HW224888   2.738   6.560   4.685
 7997SOL     OW24889   7.017   1.252   1.346
 7997SOL    HW124890   0.046   1.308   1.407
 7997SOL    HW224891   0.037   1.165   1.328
 7998SOL     OW24892   2.939   6.389   1.184
 7998SOL    HW124893   3.016   6.395   1.120
 7998SOL    HW224894   2.856   6.421   1.140
 7999SOL     OW24895   0.731   0.058   6.447
 7999SOL    HW124896   0.739   0.044   6.348
 7999SOL    HW224897   0.822   0.071   6.486
 8000SOL     OW24898   4.930   0.120   6.848
 8000SOL    HW124899   4.932   0.109   6.749
 8000SOL    HW224900   4.965   0.037   6.892
 8001SOL     OW24901   4.186   6.339   1.110
 8001SOL    HW124902   4.247   6.398   1.057
 8001SOL    HW224903   4.186   6.367   1.205
 8002SOL     OW24904   0.642   1.679   6.125
 8002SOL    HW124905   0.740   1.697   6.113
 8002SOL    HW224906   0.613   1.715   6.213
 8003SOL     OW24907   2.739   5.478   2.247
 8003SOL    HW124908   2.669   5.537   2.287
 8003SOL    HW224909   2.828   5.522   2.254
 8004SOL     OW24910   2.097   3.552   3.044
 8004SOL    HW124911   2.027   3.540   2.974
 8004SOL    HW224912   2.113   3.465   3.091
 8005SOL     OW24913   3.278   0.961   1.398
 8005SOL    HW124914   3.352   0.999   1.453
 8005SOL    HW224915   3.315   0.901   1.328
 8006SOL     OW24916   1.572   0.160   6.238
 8006SOL    HW124917   1.508   0.129   6.168
 8006SOL    HW224918   1.607   0.250   6.214
 8007SOL     OW24919   0.108   0.282   4.458
 8007SOL    HW124920   0.034   0.345   4.483
 8007SOL    HW224921   0.074   0.216   4.390
 8008SOL     OW24922   3.934   5.349   6.783
 8008SOL    HW124923   3.876   5.328   6.861
 8008SOL    HW224924   4.007   5.281   6.777
 8009SOL     OW24925   5.645   0.750   2.272
 8009SOL    HW124926   5.573   0.817   2.290
 8009SOL    HW224927   5.688   0.723   2.358
 8010SOL     OW24928   0.925   1.338   6.094
 8010SOL    HW124929   0.903   1.374   6.003
 8010SOL    HW224930   0.843   1.338   6.150
 8011SOL     OW24931   3.412   2.747   1.220
 8011SOL    HW124932   3.346   2.708   1.155
 8011SOL    HW224933   3.505   2.726   1.189
 8012SOL     OW24934   1.771   4.403   1.744
 8012SOL    HW124935   1.675   4.386   1.723
 8012SOL    HW224936   1.783   4.499   1.768
 8013SOL     OW24937   1.105   5.398   3.609
 8013SOL    HW124938   1.008   5.414   3.593
 8013SOL    HW224939   1.156   5.483   3.593
 8014SOL     OW24940   1.021   6.625   5.020
 8014SOL    HW124941   1.019   6.709   4.967
 8014SOL    HW224942   0.950   6.627   5.090
 8015SOL     OW24943   2.698   0.648   6.656
 8015SOL    HW124944   2.612   0.698   6.662
 8015SOL    HW224945   2.682   0.552   6.682
 8016SOL     OW24946   5.317   6.848   5.785
 8016SOL    HW124947   5.387   6.839   5.714
 8016SOL    HW224948   5.232   6.807   5.754
 8017SOL     OW24949   5.699   0.111   0.597
 8017SOL    HW124950   5.726   0.207   0.584
 8017SOL    HW224951   5.654   0.102   0.686
 8018SOL     OW24952   3.238   2.086   5.677
 8018SOL    HW124953   3.293   2.161   5.639
 8018SOL    HW224954   3.186   2.042   5.604
 8019SOL     OW24955   2.285   4.032   6.991
 8019SOL    HW124956   2.205   3.998   0.013
 8019SOL    HW224957   2.359   4.049   0.029
 8020SOL     OW24958   5.469   0.906   0.744
 8020SOL    HW124959   5.559   0.862   0.738
 8020SOL    HW224960   5.481   1.005   0.756
 8021SOL     OW24961   0.903   2.501   1.283
 8021SOL    HW124962   1.001   2.507   1.268
 8021SOL    HW224963   0.885   2.485   1.380
 8022SOL     OW24964   5.116   6.959   2.896
 8022SOL    HW124965   5.215   6.969   2.906
 8022SOL    HW224966   5.080   6.906   2.974
 8023SOL     OW24967   5.822   5.460   2.993
 8023SOL    HW124968   5.879   5.475   3.073
 8023SOL    HW224969   5.740   5.408   3.020
 8024SOL     OW24970   2.012   4.833   6.847
 8024SOL    HW124971   2.016   4.759   6.914
 8024SOL    HW224972   2.082   4.820   6.778
 8025SOL     OW24973   1.801   6.616   6.827
 8025SOL    HW124974   1.711   6.579   6.850
 8025SOL    HW224975   1.790   6.689   6.759
 8026SOL     OW24976   0.985   4.056   6.953
 8026SOL    HW124977   1.085   4.062   6.957
 8026SOL    HW224978   0.948   4.144   6.925
 8027SOL     OW24979   4.497   0.899   5.202
 8027SOL    HW124980   4.448   0.867   5.283
 8027SOL    HW224981   4.507   0.999   5.207
 8028SOL     OW24982   3.334   5.418   4.693
 8028SOL    HW124983   3.379   5.362   4.763
 8028SOL    HW224984   3.246   5.378   4.669
 8029SOL     OW24985   4.989   2.985   1.669
 8029SOL    HW124986   5.032   2.958   1.756
 8029SOL    HW224987   5.050   3.048   1.621
 8030SOL     OW24988   4.386   4.364   0.839
 8030SOL    HW124989   4.344   4.422   0.908
 8030SOL    HW224990   4.384   4.411   0.750
 8031SOL     OW24991   6.093   6.653   1.811
 8031SOL    HW124992   6.041   6.724   1.857
 8031SOL    HW224993   6.036   6.608   1.742
 8032SOL     OW24994   6.852   5.196   1.475
 8032SOL    HW124995   6.869   5.280   1.422
 8032SOL    HW224996   6.898   5.119   1.430
 8033SOL     OW24997   5.300   1.171   5.489
 8033SOL    HW124998   5.322   1.222   5.573
 8033SOL    HW224999   5.360   1.091   5.483
 8034SOL     OW25000   5.314   6.738   4.549
 8034SOL    HW125001   5.266   6.820   4.517
 8034SOL    HW225002   5.401   6.730   4.502
 8035SOL     OW25003   5.015   1.682   4.450
 8035SOL    HW125004   5.089   1.682   4.383
 8035SOL    HW225005   5.054   1.689   4.542
 8036SOL     OW25006   6.959   4.059   3.599
 8036SOL    HW125007   6.887   4.101   3.544
 8036SOL    HW225008   7.012   3.996   3.542
 8037SOL     OW25009   1.786   3.613   6.914
 8037SOL    HW125010   1.799   3.539   6.848
 8037SOL    HW225011   1.799   3.701   6.868
 8038SOL     OW25012   4.046   6.730   2.752
 8038SOL    HW125013   3.993   6.802   2.796
 8038SOL    HW225014   4.006   6.641   2.773
 8039SOL     OW25015   0.500   1.867   4.445
 8039SOL    HW125016   0.480   1.778   4.405
 8039SOL    HW225017   0.556   1.920   4.381
 8040SOL     OW25018   1.643   5.618   6.890
 8040SOL    HW125019   1.642   5.544   6.824
 8040SOL    HW225020   1.696   5.695   6.854
 8041SOL     OW25021   2.262   1.607   2.623
 8041SOL    HW125022   2.345   1.641   2.579
 8041SOL    HW225023   2.281   1.520   2.667
 8042SOL     OW25024   3.080   3.244   3.719
 8042SOL    HW125025   3.012   3.312   3.692
 8042SOL    HW225026   3.170   3.287   3.725
 8043SOL     OW25027   3.797   6.881   1.499
 8043SOL    HW125028   3.779   6.962   1.555
 8043SOL    HW225029   3.721   6.816   1.509
 8044SOL     OW25030   4.285   2.237   1.348
 8044SOL    HW125031   4.335   2.161   1.391
 8044SOL    HW225032   4.291   2.318   1.407
 8045SOL     OW25033   5.428   1.622   2.776
 8045SOL    HW125034   5.509   1.663   2.734
 8045SOL    HW225035   5.349   1.682   2.759
 8046SOL     OW25036   0.318   5.195   1.129
 8046SOL    HW125037   0.322   5.295   1.124
 8046SOL    HW225038   0.335   5.157   1.038
 8047SOL     OW25039   4.105   6.013   4.419
 8047SOL    HW125040   4.093   5.916   4.398
 8047SOL    HW225041   4.024   6.064   4.390
 8048SOL     OW25042   5.168   0.624   5.877
 8048SOL    HW125043   5.179   0.597   5.781
 8048SOL    HW225044   5.181   0.545   5.936
 8049SOL     OW25045   0.821   0.526   0.167
 8049SOL    HW125046   0.739   0.471   0.174
 8049SOL    HW225047   0.837   0.552   0.072
 8050SOL     OW25048   1.371   4.447   3.567
 8050SOL    HW125049   1.402   4.509   3.495
 8050SOL    HW225050   1.340   4.361   3.525
 8051SOL     OW25051   4.451   5.823   3.651
 8051SOL    HW125052   4.411   5.802   3.740
 8051SOL    HW225053   4.539   5.777   3.642
 8052SOL     OW25054   4.534   1.319   2.047
 8052SOL    HW125055   4.516   1.380   1.969
 8052SOL    HW225056   4.606   1.359   2.104
 8053SOL     OW25057   2.965   3.642   3.487
 8053SOL    HW125058   3.061   3.621   3.471
 8053SOL    HW225059   2.935   3.712   3.422
 8054SOL     OW25060   5.675   6.762   4.613
 8054SOL    HW125061   5.624   6.677   4.601
 8054SOL    HW225062   5.617   6.829   4.660
 8055SOL     OW25063   0.754   0.350   5.738
 8055SOL    HW125064   0.695   0.427   5.763
 8055SOL    HW225065   0.698   0.269   5.720
 8056SOL     OW25066   2.796   1.617   4.298
 8056SOL    HW125067   2.888   1.585   4.318
 8056SOL    HW225068   2.800   1.685   4.224
 8057SOL     OW25069   2.890   2.191   3.183
 8057SOL    HW125070   2.815   2.238   3.137
 8057SOL    HW225071   2.971   2.191   3.124
 8058SOL     OW25072   3.675   0.130   2.102
 8058SOL    HW125073   3.629   0.218   2.117
 8058SOL    HW225074   3.638   0.062   2.165
 8059SOL     OW25075   3.306   2.107   4.835
 8059SOL    HW125076   3.254   2.165   4.897
 8059SOL    HW225077   3.302   2.145   4.742
 8060SOL     OW25078   6.068   2.050   4.479
 8060SOL    HW125079   6.146   2.029   4.538
 8060SOL    HW225080   6.100   2.063   4.385
 8061SOL     OW25081   0.134   1.151   3.182
 8061SOL    HW125082   0.090   1.172   3.094
 8061SOL    HW225083   0.207   1.084   3.168
 8062SOL     OW25084   3.977   4.816   3.828
 8062SOL    HW125085   4.075   4.817   3.847
 8062SOL    HW225086   3.935   4.899   3.863
 8063SOL     OW25087   1.138   2.371   1.441
 8063SOL    HW125088   1.175   2.462   1.456
 8063SOL    HW225089   1.049   2.363   1.485
 8064SOL     OW25090   0.263   3.952   1.862
 8064SOL    HW125091   0.208   4.017   1.914
 8064SOL    HW225092   0.305   3.887   1.925
 8065SOL     OW25093   2.634   5.347   3.604
 8065SOL    HW125094   2.716   5.353   3.661
 8065SOL    HW225095   2.627   5.429   3.546
 8066SOL     OW25096   0.370   1.839   5.204
 8066SOL    HW125097   0.293   1.778   5.217
 8066SOL    HW225098   0.358   1.920   5.262
 8067SOL     OW25099   4.641   2.795   1.770
 8067SOL    HW125100   4.634   2.877   1.827
 8067SOL    HW225101   4.696   2.816   1.689
 8068SOL     OW25102   6.776   3.555   1.328
 8068SOL    HW125103   6.690   3.606   1.336
 8068SOL    HW225104   6.815   3.569   1.237
 8069SOL     OW25105   2.466   6.305   1.572
 8069SOL    HW125106   2.560   6.295   1.540
 8069SOL    HW225107   2.444   6.231   1.635
 8070SOL     OW25108   3.876   3.591   0.355
 8070SOL    HW125109   3.888   3.498   0.391
 8070SOL    HW225110   3.893   3.591   0.256
 8071SOL     OW25111   2.968   6.107   4.569
 8071SOL    HW125112   2.943   6.092   4.473
 8071SOL    HW225113   2.971   6.019   4.617
 8072SOL     OW25114   3.619   1.125   0.758
 8072SOL    HW125115   3.696   1.066   0.733
 8072SOL    HW225116   3.535   1.070   0.761
 8073SOL     OW25117   2.940   5.086   4.693
 8073SOL    HW125118   2.903   4.999   4.660
 8073SOL    HW225119   2.870   5.135   4.745
 8074SOL     OW25120   3.790   2.691   0.608
 8074SOL    HW125121   3.715   2.682   0.543
 8074SOL    HW225122   3.846   2.770   0.583
 8075SOL     OW25123   0.156   0.596   0.770
 8075SOL    HW125124   0.154   0.647   0.856
 8075SOL    HW225125   0.139   0.499   0.788
 8076SOL     OW25126   6.797   1.401   5.163
 8076SOL    HW125127   6.891   1.428   5.142
 8076SOL    HW225128   6.773   1.432   5.255
 8077SOL     OW25129   2.805   5.813   2.367
 8077SOL    HW125130   2.844   5.780   2.282
 8077SOL    HW225131   2.724   5.868   2.348
 8078SOL     OW25132   0.311   1.443   0.474
 8078SOL    HW125133   0.366   1.513   0.520
 8078SOL    HW225134   0.214   1.463   0.487
 8079SOL     OW25135   4.868   1.698   3.994
 8079SOL    HW125136   4.834   1.708   3.901
 8079SOL    HW225137   4.794   1.667   4.053
 8080SOL     OW25138   0.611   2.407   0.617
 8080SOL    HW125139   0.647   2.448   0.701
 8080SOL    HW225140   0.671   2.331   0.590
 8081SOL     OW25141   6.157   5.932   5.265
 8081SOL    HW125142   6.187   6.027   5.263
 8081SOL    HW225143   6.182   5.886   5.180
 8082SOL     OW25144   4.459   0.067   2.233
 8082SOL    HW125145   4.382   0.012   2.199
 8082SOL    HW225146   4.517   0.092   2.156
 8083SOL     OW25147   4.896   3.696   2.831
 8083SOL    HW125148   4.839   3.618   2.808
 8083SOL    HW225149   4.910   3.753   2.749
 8084SOL     OW25150   4.506   6.939   0.622
 8084SOL    HW125151   4.451   7.018   0.595
 8084SOL    HW225152   4.596   6.970   0.651
 8085SOL     OW25153   6.662   6.671   1.861
 8085SOL    HW125154   6.755   6.683   1.893
 8085SOL    HW225155   6.598   6.679   1.938
 8086SOL     OW25156   5.506   0.831   2.871
 8086SOL    HW125157   5.539   0.922   2.897
 8086SOL    HW225158   5.475   0.834   2.776
 8087SOL     OW25159   2.796   1.342   0.387
 8087SOL    HW125160   2.782   1.265   0.449
 8087SOL    HW225161   2.886   1.383   0.404
 8088SOL     OW25162   5.510   2.168   1.501
 8088SOL    HW125163   5.482   2.237   1.567
 8088SOL    HW225164   5.503   2.077   1.541
 8089SOL     OW25165   5.483   2.376   0.484
 8089SOL    HW125166   5.414   2.421   0.427
 8089SOL    HW225167   5.439   2.335   0.564
 8090SOL     OW25168   4.407   1.692   0.156
 8090SOL    HW125169   4.321   1.666   0.110
 8090SOL    HW225170   4.422   1.631   0.234
 8091SOL     OW25171   2.381   3.369   5.305
 8091SOL    HW125172   2.435   3.448   5.278
 8091SOL    HW225173   2.396   3.294   5.240
 8092SOL     OW25174   6.192   2.442   4.890
 8092SOL    HW125175   6.274   2.484   4.929
 8092SOL    HW225176   6.185   2.347   4.922
 8093SOL     OW25177   3.539   5.322   2.827
 8093SOL    HW125178   3.524   5.290   2.733
 8093SOL    HW225179   3.578   5.414   2.825
 8094SOL     OW25180   1.707   3.644   4.792
 8094SOL    HW125181   1.745   3.691   4.872
 8094SOL    HW225182   1.742   3.550   4.789
 8095SOL     OW25183   6.988   4.573   4.562
 8095SOL    HW125184   6.906   4.606   4.609
 8095SOL    HW225185   7.024   4.646   4.504
 8096SOL     OW25186   2.486   6.475   3.313
 8096SOL    HW125187   2.469   6.529   3.231
 8096SOL    HW225188   2.509   6.536   3.389
 8097SOL     OW25189   4.341   0.193   3.723
 8097SOL    HW125190   4.286   0.256   3.777
 8097SOL    HW225191   4.349   0.105   3.770
 8098SOL     OW25192   1.490   0.211   3.456
 8098SOL    HW125193   1.505   0.250   3.547
 8098SOL    HW225194   1.578   0.196   3.411
 8099SOL     OW25195   3.832   6.977   4.503
 8099SOL    HW125196   3.839   0.037   4.454
 8099SOL    HW225197   3.739   6.967   4.539
 8100SOL     OW25198   5.808   1.053   0.472
 8100SOL    HW125199   5.835   1.117   0.544
 8100SOL    HW225200   5.889   1.021   0.424
 8101SOL     OW25201   1.589   6.978   2.722
 8101SOL    HW125202   1.571   6.933   2.809
 8101SOL    HW225203   1.655   0.025   2.737
 8102SOL     OW25204   0.598   4.491   3.755
 8102SOL    HW125205   0.597   4.500   3.656
 8102SOL    HW225206   0.680   4.536   3.792
 8103SOL     OW25207   3.975   6.871   1.018
 8103SOL    HW125208   4.009   6.876   1.112
 8103SOL    HW225209   4.013   6.791   0.972
 8104SOL     OW25210   3.700   0.196   6.229
 8104SOL    HW125211   3.716   0.258   6.305
 8104SOL    HW225212   3.788   0.168   6.190
 8105SOL     OW25213   0.871   2.690   3.189
 8105SOL    HW125214   0.919   2.746   3.121
 8105SOL    HW225215   0.937   2.634   3.238
 8106SOL     OW25216   2.100   5.752   2.995
 8106SOL    HW125217   2.156   5.817   2.944
 8106SOL    HW225218   2.059   5.686   2.932
 8107SOL     OW25219   0.828   4.732   4.228
 8107SOL    HW125220   0.902   4.782   4.271
 8107SOL    HW225221   0.815   4.644   4.275
 8108SOL     OW25222   6.143   3.301   5.479
 8108SOL    HW125223   6.222   3.359   5.498
 8108SOL    HW225224   6.163   3.208   5.509
 8109SOL     OW25225   1.143   3.537   5.111
 8109SOL    HW125226   1.209   3.468   5.081
 8109SOL    HW225227   1.191   3.623   5.130
 8110SOL     OW25228   3.200   6.357   1.092
 8110SOL    HW125229   3.216   6.266   1.131
 8110SOL    HW225230   3.282   6.414   1.105
 8111SOL     OW25231   4.916   0.343   5.109
 8111SOL    HW125232   4.950   0.258   5.150
 8111SOL    HW225233   4.942   0.346   5.012
 8112SOL     OW25234   2.300   2.321   4.699
 8112SOL    HW125235   2.205   2.325   4.666
 8112SOL    HW225236   2.351   2.256   4.643
 8113SOL     OW25237   2.925   3.225   0.658
 8113SOL    HW125238   3.020   3.198   0.671
 8113SOL    HW225239   2.889   3.265   0.742
 8114SOL     OW25240   1.607   3.788   1.737
 8114SOL    HW125241   1.660   3.716   1.692
 8114SOL    HW225242   1.656   3.821   1.817
 8115SOL     OW25243   3.614   0.580   0.189
 8115SOL    HW125244   3.614   0.676   0.216
 8115SOL    HW225245   3.707   0.543   0.198
 8116SOL     OW25246   5.062   5.228   5.883
 8116SOL    HW125247   5.021   5.141   5.856
 8116SOL    HW225248   5.007   5.303   5.848
 8117SOL     OW25249   1.390   0.947   3.615
 8117SOL    HW125250   1.361   0.879   3.681
 8117SOL    HW225251   1.359   1.038   3.644
 8118SOL     OW25252   5.700   4.349   5.679
 8118SOL    HW125253   5.754   4.432   5.689
 8118SOL    HW225254   5.728   4.283   5.749
 8119SOL     OW25255   5.825   5.605   5.576
 8119SOL    HW125256   5.779   5.516   5.574
 8119SOL    HW225257   5.884   5.613   5.496
 8120SOL     OW25258   2.359   5.254   0.302
 8120SOL    HW125259   2.281   5.245   0.242
 8120SOL    HW225260   2.404   5.165   0.313
 8121SOL     OW25261   0.728   4.660   1.860
 8121SOL    HW125262   0.699   4.567   1.885
 8121SOL    HW225263   0.805   4.688   1.916
 8122SOL     OW25264   0.834   5.965   2.610
 8122SOL    HW125265   0.735   5.965   2.618
 8122SOL    HW225266   0.869   6.057   2.625
 8123SOL     OW25267   6.720   0.681   5.877
 8123SOL    HW125268   6.810   0.713   5.908
 8123SOL    HW225269   6.731   0.597   5.823
 8124SOL     OW25270   6.084   6.859   0.886
 8124SOL    HW125271   6.057   6.768   0.918
 8124SOL    HW225272   6.013   6.925   0.910
 8125SOL     OW25273   1.323   1.182   3.708
 8125SOL    HW125274   1.238   1.230   3.732
 8125SOL    HW225275   1.353   1.127   3.786
 8126SOL     OW25276   4.879   4.911   2.494
 8126SOL    HW125277   4.834   4.875   2.575
 8126SOL    HW225278   4.960   4.963   2.521
 8127SOL     OW25279   3.132   5.110   6.410
 8127SOL    HW125280   3.172   5.146   6.325
 8127SOL    HW225281   3.112   5.185   6.472
 8128SOL     OW25282   2.755   1.715   1.530
 8128SOL    HW125283   2.849   1.702   1.562
 8128SOL    HW225284   2.750   1.797   1.473
 8129SOL     OW25285   4.701   0.493   6.055
 8129SOL    HW125286   4.728   0.566   6.117
 8129SOL    HW225287   4.605   0.504   6.029
 8130SOL     OW25288   0.333   3.086   6.056
 8130SOL    HW125289   0.325   2.988   6.039
 8130SOL    HW225290   0.388   3.128   5.983
 8131SOL     OW25291   3.505   1.962   0.846
 8131SOL    HW125292   3.552   1.879   0.815
 8131SOL    HW225293   3.559   2.006   0.917
 8132SOL     OW25294   6.255   6.879   5.728
 8132SOL    HW125295   6.167   6.921   5.704
 8132SOL    HW225296   6.241   6.810   5.798
 8133SOL     OW25297   2.936   4.820   1.412
 8133SOL    HW125298   2.882   4.758   1.355
 8133SOL    HW225299   2.945   4.781   1.503
 8134SOL     OW25300   0.405   2.904   5.613
 8134SOL    HW125301   0.435   2.888   5.519
 8134SOL    HW225302   0.399   2.816   5.661
 8135SOL     OW25303   2.229   5.722   1.291
 8135SOL    HW125304   2.184   5.812   1.287
 8135SOL    HW225305   2.190   5.669   1.366
 8136SOL     OW25306   4.151   5.262   3.259
 8136SOL    HW125307   4.170   5.166   3.237
 8136SOL    HW225308   4.091   5.266   3.339
 8137SOL     OW25309   3.407   1.343   5.217
 8137SOL    HW125310   3.325   1.289   5.199
 8137SOL    HW225311   3.480   1.317   5.154
 8138SOL     OW25312   5.538   1.434   0.210
 8138SOL    HW125313   5.635   1.432   0.187
 8138SOL    HW225314   5.511   1.349   0.254
 8139SOL     OW25315   0.753   1.554   3.336
 8139SOL    HW125316   0.833   1.569   3.395
 8139SOL    HW225317   0.779   1.572   3.241
 8140SOL     OW25318   4.926   0.587   0.773
 8140SOL    HW125319   4.872   0.590   0.856
 8140SOL    HW225320   5.023   0.573   0.796
 8141SOL     OW25321   4.338   6.347   5.599
 8141SOL    HW125322   4.419   6.312   5.647
 8141SOL    HW225323   4.323   6.442   5.624
 8142SOL     OW25324   1.177   4.316   0.065
 8142SOL    HW125325   1.221   4.231   0.035
 8142SOL    HW225326   1.193   4.387   7.024
 8143SOL     OW25327   0.032   4.575   0.873
 8143SOL    HW125328   7.011   4.653   0.832
 8143SOL    HW225329   0.030   4.584   0.973
 8144SOL     OW25330   6.985   6.527   6.011
 8144SOL    HW125331   6.905   6.471   5.988
 8144SOL    HW225332   6.956   6.620   6.034
 8145SOL     OW25333   5.789   5.663   1.612
 8145SOL    HW125334   5.691   5.658   1.592
 8145SOL    HW225335   5.840   5.617   1.540
 8146SOL     OW25336   4.937   0.956   5.063
 8146SOL    HW125337   4.852   0.902   5.069
 8146SOL    HW225338   4.941   1.019   5.141
 8147SOL     OW25339   6.832   1.681   2.137
 8147SOL    HW125340   6.908   1.616   2.137
 8147SOL    HW225341   6.792   1.686   2.229
 8148SOL     OW25342   5.012   4.070   0.873
 8148SOL    HW125343   5.086   4.053   0.938
 8148SOL    HW225344   5.000   3.989   0.815
 8149SOL     OW25345   2.183   5.945   2.574
 8149SOL    HW125346   2.188   5.993   2.486
 8149SOL    HW225347   2.127   5.862   2.562
 8150SOL     OW25348   2.103   3.897   1.148
 8150SOL    HW125349   2.022   3.954   1.161
 8150SOL    HW225350   2.111   3.833   1.224
 8151SOL     OW25351   5.394   4.496   2.429
 8151SOL    HW125352   5.314   4.437   2.419
 8151SOL    HW225353   5.477   4.443   2.409
 8152SOL     OW25354   6.033   1.952   3.000
 8152SOL    HW125355   5.985   1.928   3.084
 8152SOL    HW225356   6.000   2.041   2.967
 8153SOL     OW25357   1.469   1.065   3.906
 8153SOL    HW125358   1.569   1.066   3.899
 8153SOL    HW225359   1.435   0.975   3.880
 8154SOL     OW25360   3.584   5.109   2.509
 8154SOL    HW125361   3.592   5.195   2.459
 8154SOL    HW225362   3.672   5.087   2.551
 8155SOL     OW25363   1.827   3.254   1.798
 8155SOL    HW125364   1.869   3.254   1.707
 8155SOL    HW225365   1.728   3.261   1.789
 8156SOL     OW25366   5.199   6.320   0.934
 8156SOL    HW125367   5.267   6.353   1.000
 8156SOL    HW225368   5.123   6.277   0.983
 8157SOL     OW25369   6.152   5.105   6.021
 8157SOL    HW125370   6.196   5.082   5.934
 8157SOL    HW225371   6.221   5.139   6.085
 8158SOL     OW25372   5.184   4.367   0.063
 8158SOL    HW125373   5.251   4.330   0.127
 8158SOL    HW225374   5.092   4.339   0.091
 8159SOL     OW25375   2.602   5.864   2.874
 8159SOL    HW125376   2.505   5.874   2.852
 8159SOL    HW225377   2.623   5.767   2.890
 8160SOL     OW25378   5.172   0.653   3.214
 8160SOL    HW125379   5.245   0.629   3.150
 8160SOL    HW225380   5.092   0.594   3.197
 8161SOL     OW25381   6.000   2.501   6.451
 8161SOL    HW125382   6.052   2.453   6.521
 8161SOL    HW225383   5.998   2.599   6.472
 8162SOL     OW25384   5.910   6.905   6.721
 8162SOL    HW125385   5.832   6.947   6.676
 8162SOL    HW225386   5.884   6.875   6.812
 8163SOL     OW25387   2.877   4.111   5.266
 8163SOL    HW125388   2.803   4.066   5.315
 8163SOL    HW225389   2.915   4.048   5.199
 8164SOL     OW25390   5.071   2.041   6.971
 8164SOL    HW125391   5.111   2.084   6.890
 8164SOL    HW225392   5.056   2.110   0.015
 8165SOL     OW25393   0.822   3.849   5.822
 8165SOL    HW125394   0.884   3.821   5.748
 8165SOL    HW225395   0.812   3.949   5.821
 8166SOL     OW25396   1.250   0.883   3.395
 8166SOL    HW125397   1.310   0.894   3.475
 8166SOL    HW225398   1.178   0.817   3.416
 8167SOL     OW25399   0.228   0.209   3.923
 8167SOL    HW125400   0.273   0.123   3.897
 8167SOL    HW225401   0.194   0.254   3.841
 8168SOL     OW25402   2.288   1.416   2.829
 8168SOL    HW125403   2.224   1.477   2.877
 8168SOL    HW225404   2.256   1.322   2.837
 8169SOL     OW25405   4.733   2.167   0.877
 8169SOL    HW125406   4.725   2.139   0.972
 8169SOL    HW225407   4.773   2.092   0.824
 8170SOL     OW25408   1.225   5.140   2.245
 8170SOL    HW125409   1.204   5.051   2.286
 8170SOL    HW225410   1.321   5.143   2.220
 8171SOL     OW25411   1.643   1.589   6.181
 8171SOL    HW125412   1.728   1.538   6.173
 8171SOL    HW225413   1.662   1.680   6.218
 8172SOL     OW25414   0.564   2.240   2.348
 8172SOL    HW125415   0.595   2.147   2.327
 8172SOL    HW225416   0.642   2.303   2.343
 8173SOL     OW25417   5.415   1.443   2.498
 8173SOL    HW125418   5.438   1.488   2.584
 8173SOL    HW225419   5.484   1.465   2.429
 8174SOL     OW25420   6.344   2.088   1.747
 8174SOL    HW125421   6.361   2.151   1.671
 8174SOL    HW225422   6.295   2.008   1.713
 8175SOL     OW25423   0.616   2.684   5.184
 8175SOL    HW125424   0.688   2.617   5.200
 8175SOL    HW225425   0.641   2.772   5.225
 8176SOL     OW25426   2.109   5.254   1.736
 8176SOL    HW125427   2.169   5.298   1.669
 8176SOL    HW225428   2.155   5.253   1.825
 8177SOL     OW25429   3.902   6.896   3.966
 8177SOL    HW125430   3.827   6.929   3.908
 8177SOL    HW225431   3.871   6.890   4.061
 8178SOL     OW25432   2.657   6.336   0.156
 8178SOL    HW125433   2.698   6.374   0.073
 8178SOL    HW225434   2.726   6.336   0.229
 8179SOL     OW25435   4.747   1.571   5.442
 8179SOL    HW125436   4.703   1.617   5.365
 8179SOL    HW225437   4.819   1.511   5.407
 8180SOL     OW25438   6.526   0.045   5.018
 8180SOL    HW125439   6.498   0.058   4.923
 8180SOL    HW225440   6.498   0.125   5.071
 8181SOL     OW25441   1.961   1.605   0.949
 8181SOL    HW125442   1.883   1.558   0.907
 8181SOL    HW225443   2.022   1.539   0.990
 8182SOL     OW25444   3.443   3.528   5.578
 8182SOL    HW125445   3.416   3.522   5.674
 8182SOL    HW225446   3.369   3.570   5.525
 8183SOL     OW25447   6.713   1.877   5.190
 8183SOL    HW125448   6.685   1.833   5.105
 8183SOL    HW225449   6.668   1.966   5.197
 8184SOL     OW25450   6.273   1.090   0.247
 8184SOL    HW125451   6.228   1.179   0.259
 8184SOL    HW225452   6.211   1.017   0.277
 8185SOL     OW25453   2.645   6.916   0.185
 8185SOL    HW125454   2.549   6.915   0.211
 8185SOL    HW225455   2.690   6.833   0.217
 8186SOL     OW25456   3.702   5.129   5.765
 8186SOL    HW125457   3.640   5.181   5.706
 8186SOL    HW225458   3.792   5.122   5.721
 8187SOL     OW25459   1.505   1.978   4.547
 8187SOL    HW125460   1.504   2.075   4.522
 8187SOL    HW225461   1.467   1.967   4.639
 8188SOL     OW25462   5.955   2.729   2.842
 8188SOL    HW125463   6.026   2.693   2.781
 8188SOL    HW225464   5.867   2.728   2.795
 8189SOL     OW25465   4.625   4.584   3.079
 8189SOL    HW125466   4.688   4.602   3.155
 8189SOL    HW225467   4.617   4.666   3.022
 8190SOL     OW25468   4.520   5.234   4.318
 8190SOL    HW125469   4.421   5.244   4.305
 8190SOL    HW225470   4.551   5.298   4.388
 8191SOL     OW25471   3.665   6.527   1.754
 8191SOL    HW125472   3.570   6.524   1.785
 8191SOL    HW225473   3.716   6.450   1.795
 8192SOL     OW25474   4.015   4.812   0.609
 8192SOL    HW125475   4.021   4.728   0.664
 8192SOL    HW225476   4.064   4.799   0.523
 8193SOL     OW25477   6.992   6.148   4.681
 8193SOL    HW125478   7.004   6.246   4.700
 8193SOL    HW225479   0.016   6.095   4.749
 8194SOL     OW25480   5.625   2.495   1.179
 8194SOL    HW125481   5.578   2.425   1.233
 8194SOL    HW225482   5.654   2.456   1.092
 8195SOL     OW25483   1.378   0.264   1.660
 8195SOL    HW125484   1.347   0.184   1.609
 8195SOL    HW225485   1.326   0.345   1.630
 8196SOL     OW25486   3.844   6.086   6.031
 8196SOL    HW125487   3.866   5.990   6.046
 8196SOL    HW225488   3.909   6.126   5.967
 8197SOL     OW25489   4.635   1.929   0.180
 8197SOL    HW125490   4.653   1.995   0.106
 8197SOL    HW225491   4.541   1.896   0.173
 8198SOL     OW25492   3.377   6.943   2.977
 8198SOL    HW125493   3.386   0.013   2.952
 8198SOL    HW225494   3.426   6.887   2.911
 8199SOL     OW25495   6.145   3.182   6.782
 8199SOL    HW125496   6.072   3.243   6.755
 8199SOL    HW225497   6.111   3.116   6.849
 8200SOL     OW25498   5.282   4.289   1.690
 8200SOL    HW125499   5.318   4.373   1.649
 8200SOL    HW225500   5.260   4.306   1.786
 8201SOL     OW25501   5.449   0.314   3.907
 8201SOL    HW125502   5.404   0.225   3.908
 8201SOL    HW225503   5.538   0.307   3.950
 8202SOL     OW25504   0.443   5.507   4.212
 8202SOL    HW125505   0.346   5.486   4.210
 8202SOL    HW225506   0.488   5.466   4.132
 8203SOL     OW25507   4.745   2.449   7.026
 8203SOL    HW125508   4.732   2.366   0.053
 8203SOL    HW225509   4.807   2.511   0.047
 8204SOL     OW25510   2.732   5.419   7.006
 8204SOL    HW125511   2.694   5.458   0.062
 8204SOL    HW225512   2.797   5.346   0.003
 8205SOL     OW25513   0.282   4.562   0.802
 8205SOL    HW125514   0.337   4.639   0.832
 8205SOL    HW225515   0.187   4.574   0.833
 8206SOL     OW25516   5.104   2.777   6.337
 8206SOL    HW125517   5.011   2.808   6.317
 8206SOL    HW225518   5.167   2.818   6.270
 8207SOL     OW25519   2.985   3.926   4.763
 8207SOL    HW125520   2.963   3.829   4.751
 8207SOL    HW225521   2.908   3.981   4.730
 8208SOL     OW25522   2.044   0.183   1.598
 8208SOL    HW125523   1.970   0.196   1.532
 8208SOL    HW225524   2.129   0.220   1.560
 8209SOL     OW25525   0.491   1.180   5.992
 8209SOL    HW125526   0.575   1.189   5.937
 8209SOL    HW225527   0.446   1.094   5.970
 8210SOL     OW25528   2.484   0.883   1.277
 8210SOL    HW125529   2.439   0.941   1.208
 8210SOL    HW225530   2.582   0.877   1.256
 8211SOL     OW25531   3.446   4.069   2.080
 8211SOL    HW125532   3.392   4.002   2.028
 8211SOL    HW225533   3.487   4.135   2.017
 8212SOL     OW25534   1.932   1.787   1.596
 8212SOL    HW125535   1.903   1.698   1.560
 8212SOL    HW225536   2.030   1.785   1.614
 8213SOL     OW25537   6.479   4.905   2.281
 8213SOL    HW125538   6.435   4.838   2.341
 8213SOL    HW225539   6.521   4.858   2.204
 8214SOL     OW25540   6.843   5.441   4.713
 8214SOL    HW125541   6.781   5.473   4.641
 8214SOL    HW225542   6.821   5.346   4.735
 8215SOL     OW25543   2.654   5.362   6.333
 8215SOL    HW125544   2.647   5.425   6.411
 8215SOL    HW225545   2.750   5.334   6.323
 8216SOL     OW25546   4.604   5.603   3.490
 8216SOL    HW125547   4.522   5.571   3.443
 8216SOL    HW225548   4.630   5.537   3.560
 8217SOL     OW25549   2.360   4.023   1.550
 8217SOL    HW125550   2.459   4.038   1.543
 8217SOL    HW225551   2.340   3.926   1.536
 8218SOL     OW25552   1.000   6.558   4.560
 8218SOL    HW125553   1.073   6.613   4.602
 8218SOL    HW225554   1.038   6.470   4.532
 8219SOL     OW25555   4.169   3.190   0.846
 8219SOL    HW125556   4.169   3.231   0.755
 8219SOL    HW225557   4.247   3.127   0.854
 8220SOL     OW25558   3.162   3.866   4.114
 8220SOL    HW125559   3.075   3.833   4.077
 8220SOL    HW225560   3.151   3.960   4.146
 8221SOL     OW25561   6.357   6.125   3.264
 8221SOL    HW125562   6.290   6.061   3.225
 8221SOL    HW225563   6.392   6.087   3.350
 8222SOL     OW25564   5.094   1.303   1.354
 8222SOL    HW125565   5.045   1.220   1.380
 8222SOL    HW225566   5.184   1.279   1.317
 8223SOL     OW25567   1.388   4.070   5.364
 8223SOL    HW125568   1.409   4.164   5.390
 8223SOL    HW225569   1.332   4.028   5.435
 8224SOL     OW25570   5.844   2.620   2.046
 8224SOL    HW125571   5.805   2.543   2.096
 8224SOL    HW225572   5.861   2.695   2.110
 8225SOL     OW25573   4.166   1.610   1.452
 8225SOL    HW125574   4.223   1.667   1.394
 8225SOL    HW225575   4.108   1.551   1.395
 8226SOL     OW25576   3.447   6.410   0.843
 8226SOL    HW125577   3.467   6.445   0.935
 8226SOL    HW225578   3.492   6.469   0.776
 8227SOL     OW25579   6.417   1.587   2.532
 8227SOL    HW125580   6.372   1.552   2.614
 8227SOL    HW225581   6.461   1.675   2.553
 8228SOL     OW25582   0.197   1.843   6.274
 8228SOL    HW125583   0.142   1.776   6.323
 8228SOL    HW225584   0.275   1.797   6.231
 8229SOL     OW25585   3.858   3.708   1.421
 8229SOL    HW125586   3.885   3.727   1.326
 8229SOL    HW225587   3.940   3.698   1.477
 8230SOL     OW25588   3.621   6.270   5.290
 8230SOL    HW125589   3.600   6.201   5.221
 8230SOL    HW225590   3.574   6.356   5.267
 8231SOL     OW25591   2.989   2.756   1.561
 8231SOL    HW125592   2.893   2.762   1.588
 8231SOL    HW225593   3.043   2.723   1.638
 8232SOL     OW25594   5.981   2.180   2.808
 8232SOL    HW125595   6.066   2.130   2.793
 8232SOL    HW225596   5.996   2.249   2.879
 8233SOL     OW25597   1.666   6.769   6.368
 8233SOL    HW125598   1.696   6.674   6.373
 8233SOL    HW225599   1.596   6.777   6.297
 8234SOL     OW25600   2.668   3.985   0.041
 8234SOL    HW125601   2.602   3.911   0.029
 8234SOL    HW225602   2.733   3.961   0.112
 8235SOL     OW25603   0.326   3.890   6.961
 8235SOL    HW125604   0.417   3.929   6.953
 8235SOL    HW225605   0.314   3.851   0.026
 8236SOL     OW25606   0.184   4.987   0.210
 8236SOL    HW125607   0.159   4.905   0.159
 8236SOL    HW225608   0.260   5.033   0.165
 8237SOL     OW25609   4.676   5.920   6.272
 8237SOL    HW125610   4.657   5.959   6.182
 8237SOL    HW225611   4.704   5.824   6.261
 8238SOL     OW25612   0.241   5.465   0.218
 8238SOL    HW125613   0.341   5.464   0.217
 8238SOL    HW225614   0.207   5.378   0.254
 8239SOL     OW25615   0.416   0.854   5.517
 8239SOL    HW125616   0.317   0.840   5.515
 8239SOL    HW225617   0.436   0.947   5.547
 8240SOL     OW25618   3.440   4.061   2.366
 8240SOL    HW125619   3.357   4.022   2.405
 8240SOL    HW225620   3.420   4.097   2.274
 8241SOL     OW25621   2.982   5.014   6.112
 8241SOL    HW125622   3.061   4.958   6.138
 8241SOL    HW225623   2.919   5.020   6.189
 8242SOL     OW25624   0.685   3.839   6.242
 8242SOL    HW125625   0.712   3.765   6.303
 8242SOL    HW225626   0.613   3.893   6.285
 8243SOL     OW25627   6.597   3.737   0.927
 8243SOL    HW125628   6.546   3.775   0.849
 8243SOL    HW225629   6.607   3.638   0.914
 8244SOL     OW25630   0.163   0.715   3.205
 8244SOL    HW125631   0.262   0.730   3.205
 8244SOL    HW225632   0.120   0.782   3.266
 8245SOL     OW25633   3.638   2.113   2.746
 8245SOL    HW125634   3.733   2.123   2.777
 8245SOL    HW225635   3.634   2.133   2.648
 8246SOL     OW25636   0.757   3.605   6.363
 8246SOL    HW125637   0.845   3.575   6.398
 8246SOL    HW225638   0.710   3.528   6.320
 8247SOL     OW25639   2.233   0.891   3.364
 8247SOL    HW125640   2.300   0.950   3.320
 8247SOL    HW225641   2.238   0.799   3.325
 8248SOL     OW25642   0.259   4.557   4.372
 8248SOL    HW125643   0.161   4.552   4.395
 8248SOL    HW225644   0.284   4.652   4.358
 8249SOL     OW25645   2.010   1.281   5.498
 8249SOL    HW125646   2.075   1.278   5.574
 8249SOL    HW225647   2.054   1.243   5.416
 8250SOL     OW25648   2.373   2.547   1.545
 8250SOL    HW125649   2.350   2.539   1.643
 8250SOL    HW225650   2.429   2.469   1.518
 8251SOL     OW25651   5.171   2.872   4.233
 8251SOL    HW125652   5.111   2.933   4.182
 8251SOL    HW225653   5.227   2.820   4.170
 8252SOL     OW25654   3.809   1.667   6.344
 8252SOL    HW125655   3.849   1.737   6.285
 8252SOL    HW225656   3.881   1.608   6.380
 8253SOL     OW25657   3.679   5.549   5.781
 8253SOL    HW125658   3.638   5.598   5.705
 8253SOL    HW225659   3.610   5.491   5.825
 8254SOL     OW25660   4.815   4.530   5.564
 8254SOL    HW125661   4.833   4.552   5.468
 8254SOL    HW225662   4.779   4.437   5.571
 8255SOL     OW25663   1.651   6.074   5.194
 8255SOL    HW125664   1.733   6.023   5.216
 8255SOL    HW225665   1.615   6.043   5.106
 8256SOL     OW25666   6.455   6.392   2.521
 8256SOL    HW125667   6.541   6.373   2.569
 8256SOL    HW225668   6.474   6.408   2.424
 8257SOL     OW25669   5.291   4.000   2.799
 8257SOL    HW125670   5.299   3.960   2.708
 8257SOL    HW225671   5.337   3.940   2.865
 8258SOL     OW25672   5.060   2.706   2.281
 8258SOL    HW125673   5.042   2.799   2.248
 8258SOL    HW225674   5.156   2.684   2.267
 8259SOL     OW25675   3.754   1.833   4.979
 8259SOL    HW125676   3.754   1.927   4.945
 8259SOL    HW225677   3.840   1.789   4.955
 8260SOL     OW25678   2.633   0.028   1.252
 8260SOL    HW125679   2.556   0.033   1.316
 8260SOL    HW225680   2.609   6.995   1.175
 8261SOL     OW25681   4.971   6.381   3.033
 8261SOL    HW125682   4.899   6.389   3.102
 8261SOL    HW225683   4.970   6.462   2.974
 8262SOL     OW25684   0.996   4.061   0.352
 8262SOL    HW125685   0.904   4.071   0.315
 8262SOL    HW225686   1.051   4.004   0.290
 8263SOL     OW25687   0.236   2.950   6.643
 8263SOL    HW125688   0.143   2.926   6.619
 8263SOL    HW225689   0.235   3.025   6.710
 8264SOL     OW25690   1.696   0.130   1.030
 8264SOL    HW125691   1.794   0.142   1.047
 8264SOL    HW225692   1.644   0.180   1.099
 8265SOL     OW25693   5.697   0.140   1.529
 8265SOL    HW125694   5.631   0.076   1.489
 8265SOL    HW225695   5.652   0.196   1.598
 8266SOL     OW25696   2.469   1.291   4.427
 8266SOL    HW125697   2.520   1.317   4.346
 8266SOL    HW225698   2.474   1.365   4.495
 8267SOL     OW25699   1.652   3.722   1.379
 8267SOL    HW125700   1.712   3.750   1.454
 8267SOL    HW225701   1.606   3.802   1.340
 8268SOL     OW25702   2.970   6.207   6.565
 8268SOL    HW125703   2.902   6.204   6.492
 8268SOL    HW225704   3.046   6.266   6.538
 8269SOL     OW25705   4.631   2.546   2.531
 8269SOL    HW125706   4.607   2.614   2.601
 8269SOL    HW225707   4.668   2.464   2.575
 8270SOL     OW25708   2.974   6.297   4.782
 8270SOL    HW125709   2.997   6.247   4.699
 8270SOL    HW225710   2.899   6.360   4.763
 8271SOL     OW25711   7.010   0.243   2.771
 8271SOL    HW125712   0.023   0.163   2.816
 8271SOL    HW225713   6.912   0.245   2.787
 8272SOL     OW25714   6.487   1.937   2.870
 8272SOL    HW125715   6.434   1.877   2.930
 8272SOL    HW225716   6.533   2.007   2.925
 8273SOL     OW25717   2.491   1.455   0.810
 8273SOL    HW125718   2.494   1.443   0.711
 8273SOL    HW225719   2.521   1.547   0.833
 8274SOL     OW25720   4.376   5.521   4.544
 8274SOL    HW125721   4.413   5.502   4.454
 8274SOL    HW225722   4.349   5.435   4.588
 8275SOL     OW25723   5.273   0.435   4.582
 8275SOL    HW125724   5.204   0.368   4.554
 8275SOL    HW225725   5.253   0.467   4.675
 8276SOL     OW25726   0.860   1.504   5.450
 8276SOL    HW125727   0.789   1.547   5.506
 8276SOL    HW225728   0.869   1.408   5.474
 8277SOL     OW25729   1.406   6.269   5.970
 8277SOL    HW125730   1.375   6.251   6.063
 8277SOL    HW225731   1.330   6.306   5.916
 8278SOL     OW25732   3.526   1.991   6.888
 8278SOL    HW125733   3.590   2.029   6.822
 8278SOL    HW225734   3.491   2.065   6.946
 8279SOL     OW25735   0.428   6.438   5.126
 8279SOL    HW125736   0.435   6.486   5.214
 8279SOL    HW225737   0.446   6.503   5.052
 8280SOL     OW25738   3.417   3.057   0.383
 8280SOL    HW125739   3.429   3.136   0.323
 8280SOL    HW225740   3.487   2.989   0.364
 8281SOL     OW25741   2.375   4.467   1.434
 8281SOL    HW125742   2.473   4.473   1.453
 8281SOL    HW225743   2.359   4.490   1.338
 8282SOL     OW25744   3.771   4.532   6.931
 8282SOL    HW125745   3.726   4.559   6.846
 8282SOL    HW225746   3.859   4.489   6.910
 8283SOL     OW25747   1.696   4.626   4.392
 8283SOL    HW125748   1.678   4.528   4.390
 8283SOL    HW225749   1.746   4.649   4.475
 8284SOL     OW25750   1.380   4.021   1.914
 8284SOL    HW125751   1.471   3.981   1.900
 8284SOL    HW225752   1.320   3.954   1.956
 8285SOL     OW25753   3.251   4.055   4.741
 8285SOL    HW125754   3.193   4.130   4.773
 8285SOL    HW225755   3.213   3.968   4.772
 8286SOL     OW25756   5.440   1.832   4.885
 8286SOL    HW125757   5.381   1.752   4.897
 8286SOL    HW225758   5.405   1.888   4.809
 8287SOL     OW25759   0.929   5.035   4.056
 8287SOL    HW125760   0.942   4.941   4.086
 8287SOL    HW225761   0.960   5.098   4.127
 8288SOL     OW25762   2.600   2.424   2.337
 8288SOL    HW125763   2.692   2.387   2.326
 8288SOL    HW225764   2.554   2.375   2.411
 8289SOL     OW25765   7.011   6.350   6.278
 8289SOL    HW125766   6.928   6.376   6.326
 8289SOL    HW225767   0.018   6.427   6.225
 8290SOL     OW25768   5.292   1.589   0.694
 8290SOL    HW125769   5.330   1.677   0.663
 8290SOL    HW225770   5.312   1.577   0.791
 8291SOL     OW25771   5.668   5.127   5.985
 8291SOL    HW125772   5.581   5.173   6.005
 8291SOL    HW225773   5.740   5.196   5.971
 8292SOL     OW25774   3.397   5.800   6.476
 8292SOL    HW125775   3.374   5.816   6.572
 8292SOL    HW225776   3.488   5.759   6.470
 8293SOL     OW25777   2.176   5.018   1.072
 8293SOL    HW125778   2.141   5.102   1.114
 8293SOL    HW225779   2.259   5.039   1.021
 8294SOL     OW25780   6.232   3.581   4.652
 8294SOL    HW125781   6.298   3.527   4.705
 8294SOL    HW225782   6.143   3.536   4.653
 8295SOL     OW25783   4.888   3.834   2.601
 8295SOL    HW125784   4.865   3.767   2.530
 8295SOL    HW225785   4.952   3.901   2.563
 8296SOL     OW25786   2.459   5.640   0.311
 8296SOL    HW125787   2.432   5.630   0.407
 8296SOL    HW225788   2.490   5.734   0.295
 8297SOL     OW25789   6.783   3.601   2.767
 8297SOL    HW125790   6.735   3.549   2.837
 8297SOL    HW225791   6.752   3.572   2.677
 8298SOL     OW25792   6.789   1.343   0.666
 8298SOL    HW125793   6.736   1.263   0.637
 8298SOL    HW225794   6.756   1.425   0.619
 8299SOL     OW25795   0.687   2.975   2.600
 8299SOL    HW125796   0.599   2.937   2.626
 8299SOL    HW225797   0.675   3.039   2.524
 8300SOL     OW25798   0.228   6.459   4.095
 8300SOL    HW125799   0.306   6.521   4.103
 8300SOL    HW225800   0.147   6.512   4.070
 8301SOL     OW25801   4.247   0.944   0.042
 8301SOL    HW125802   4.233   0.847   0.025
 8301SOL    HW225803   4.206   0.970   0.130
 8302SOL     OW25804   5.609   6.298   6.180
 8302SOL    HW125805   5.605   6.260   6.088
 8302SOL    HW225806   5.539   6.369   6.190
 8303SOL     OW25807   5.649   0.608   3.670
 8303SOL    HW125808   5.700   0.591   3.586
 8303SOL    HW225809   5.694   0.563   3.747
 8304SOL     OW25810   5.819   4.373   1.301
 8304SOL    HW125811   5.866   4.364   1.213
 8304SOL    HW225812   5.722   4.391   1.284
 8305SOL     OW25813   4.612   5.003   4.436
 8305SOL    HW125814   4.522   4.959   4.436
 8305SOL    HW225815   4.601   5.100   4.412
 8306SOL     OW25816   6.103   1.268   3.396
 8306SOL    HW125817   6.056   1.186   3.427
 8306SOL    HW225818   6.039   1.329   3.349
 8307SOL     OW25819   3.923   5.543   1.573
 8307SOL    HW125820   3.981   5.620   1.599
 8307SOL    HW225821   3.947   5.512   1.481
 8308SOL     OW25822   2.313   6.087   0.436
 8308SOL    HW125823   2.289   5.992   0.415
 8308SOL    HW225824   2.385   6.118   0.373
 8309SOL     OW25825   6.606   5.799   2.124
 8309SOL    HW125826   6.557   5.878   2.086
 8309SOL    HW225827   6.634   5.820   2.217
 8310SOL     OW25828   1.278   5.311   1.455
 8310SOL    HW125829   1.350   5.242   1.461
 8310SOL    HW225830   1.191   5.267   1.432
 8311SOL     OW25831   6.251   1.425   5.266
 8311SOL    HW125832   6.172   1.463   5.313
 8311SOL    HW225833   6.270   1.333   5.301
 8312SOL     OW25834   5.127   1.159   6.263
 8312SOL    HW125835   5.073   1.146   6.345
 8312SOL    HW225836   5.164   1.252   6.261
 8313SOL     OW25837   5.746   0.405   5.858
 8313SOL    HW125838   5.675   0.335   5.848
 8313SOL    HW225839   5.830   0.362   5.891
 8314SOL     OW25840   6.221   6.626   6.579
 8314SOL    HW125841   6.199   6.546   6.635
 8314SOL    HW225842   6.224   6.598   6.482
 8315SOL     OW25843   4.074   3.239   2.736
 8315SOL    HW125844   4.100   3.178   2.661
 8315SOL    HW225845   4.046   3.185   2.815
 8316SOL     OW25846   1.544   3.136   1.712
 8316SOL    HW125847   1.545   3.056   1.652
 8316SOL    HW225848   1.465   3.132   1.772
 8317SOL     OW25849   1.377   2.343   2.780
 8317SOL    HW125850   1.316   2.420   2.763
 8317SOL    HW225851   1.427   2.357   2.865
 8318SOL     OW25852   4.260   1.184   5.885
 8318SOL    HW125853   4.347   1.231   5.904
 8318SOL    HW225854   4.185   1.249   5.897
 8319SOL     OW25855   1.324   1.179   1.396
 8319SOL    HW125856   1.236   1.153   1.436
 8319SOL    HW225857   1.385   1.100   1.395
 8320SOL     OW25858   2.975   3.833   2.519
 8320SOL    HW125859   3.009   3.742   2.546
 8320SOL    HW225860   3.026   3.903   2.568
 8321SOL     OW25861   6.416   0.232   7.019
 8321SOL    HW125862   6.337   0.282   0.028
 8321SOL    HW225863   6.412   0.230   6.920
 8322SOL     OW25864   6.121   0.883   0.911
 8322SOL    HW125865   6.058   0.902   0.836
 8322SOL    HW225866   6.215   0.882   0.877
 8323SOL     OW25867   4.226   4.713   1.555
 8323SOL    HW125868   4.297   4.779   1.531
 8323SOL    HW225869   4.264   4.621   1.556
 8324SOL     OW25870   5.514   0.204   0.817
 8324SOL    HW125871   5.476   0.196   0.909
 8324SOL    HW225872   5.443   0.186   0.749
 8325SOL     OW25873   1.650   3.463   5.520
 8325SOL    HW125874   1.716   3.425   5.586
 8325SOL    HW225875   1.578   3.512   5.570
 8326SOL     OW25876   4.366   4.431   5.603
 8326SOL    HW125877   4.361   4.383   5.515
 8326SOL    HW225878   4.346   4.367   5.677
 8327SOL     OW25879   7.002   0.765   5.941
 8327SOL    HW125880   0.022   0.688   5.985
 8327SOL    HW225881   0.031   0.798   5.864
 8328SOL     OW25882   2.752   5.937   6.428
 8328SOL    HW125883   2.761   6.032   6.399
 8328SOL    HW225884   2.699   5.885   6.361
 8329SOL     OW25885   0.689   2.527   4.794
 8329SOL    HW125886   0.630   2.468   4.849
 8329SOL    HW225887   0.740   2.471   4.728
 8330SOL     OW25888   3.138   1.028   6.729
 8330SOL    HW125889   3.110   0.964   6.802
 8330SOL    HW225890   3.102   1.119   6.749
 8331SOL     OW25891   3.503   0.374   0.624
 8331SOL    HW125892   3.479   0.470   0.612
 8331SOL    HW225893   3.459   0.319   0.553
 8332SOL     OW25894   5.808   5.394   2.420
 8332SOL    HW125895   5.860   5.318   2.380
 8332SOL    HW225896   5.746   5.358   2.490
 8333SOL     OW25897   1.039   4.957   6.919
 8333SOL    HW125898   1.012   5.005   7.002
 8333SOL    HW225899   1.063   5.024   6.848
 8334SOL     OW25900   3.297   1.853   4.897
 8334SOL    HW125901   3.367   1.845   4.968
 8334SOL    HW225902   3.297   1.946   4.861
 8335SOL     OW25903   4.485   1.297   0.540
 8335SOL    HW125904   4.472   1.231   0.466
 8335SOL    HW225905   4.467   1.389   0.507
 8336SOL     OW25906   0.741   4.178   2.768
 8336SOL    HW125907   0.747   4.078   2.771
 8336SOL    HW225908   0.830   4.217   2.791
 8337SOL     OW25909   0.473   6.240   4.099
 8337SOL    HW125910   0.499   6.329   4.137
 8337SOL    HW225911   0.499   6.168   4.163
 8338SOL     OW25912   3.455   5.468   1.434
 8338SOL    HW125913   3.362   5.444   1.408
 8338SOL    HW225914   3.519   5.436   1.364
 8339SOL     OW25915   6.527   0.429   1.938
 8339SOL    HW125916   6.489   0.492   2.006
 8339SOL    HW225917   6.453   0.395   1.879
 8340SOL     OW25918   4.921   3.897   1.565
 8340SOL    HW125919   4.911   3.888   1.466
 8340SOL    HW225920   4.886   3.986   1.594
 8341SOL     OW25921   2.578   0.359   6.686
 8341SOL    HW125922   2.675   0.345   6.667
 8341SOL    HW225923   2.526   0.279   6.655
 8342SOL     OW25924   4.642   6.780   0.394
 8342SOL    HW125925   4.643   6.846   0.319
 8342SOL    HW225926   4.631   6.828   0.481
 8343SOL     OW25927   0.410   6.213   3.317
 8343SOL    HW125928   0.476   6.249   3.251
 8343SOL    HW225929   0.425   6.115   3.329
 8344SOL     OW25930   6.661   5.825   4.590
 8344SOL    HW125931   6.643   5.906   4.646
 8344SOL    HW225932   6.709   5.851   4.506
 8345SOL     OW25933   4.063   2.182   2.698
 8345SOL    HW125934   4.130   2.227   2.640
 8345SOL    HW225935   4.015   2.112   2.645
 8346SOL     OW25936   3.735   4.693   1.013
 8346SOL    HW125937   3.682   4.768   0.974
 8346SOL    HW225938   3.819   4.729   1.053
 8347SOL     OW25939   2.958   6.749   4.951
 8347SOL    HW125940   2.980   6.669   5.006
 8347SOL    HW225941   2.958   6.724   4.854
 8348SOL     OW25942   2.154   1.117   1.255
 8348SOL    HW125943   2.137   1.019   1.259
 8348SOL    HW225944   2.252   1.134   1.249
 8349SOL     OW25945   0.979   6.753   2.520
 8349SOL    HW125946   0.966   6.656   2.539
 8349SOL    HW225947   0.891   6.800   2.525
 8350SOL     OW25948   2.757   6.504   6.136
 8350SOL    HW125949   2.740   6.467   6.228
 8350SOL    HW225950   2.734   6.601   6.134
 8351SOL     OW25951   5.136   5.723   4.403
 8351SOL    HW125952   5.089   5.753   4.319
 8351SOL    HW225953   5.104   5.777   4.480
 8352SOL     OW25954   0.643   6.974   3.303
 8352SOL    HW125955   0.573   6.915   3.263
 8352SOL    HW225956   0.613   0.043   3.297
 8353SOL     OW25957   0.658   4.046   1.189
 8353SOL    HW125958   0.749   4.076   1.161
 8353SOL    HW225959   0.642   3.953   1.156
 8354SOL     OW25960   3.576   0.167   4.544
 8354SOL    HW125961   3.591   0.174   4.445
 8354SOL    HW225962   3.615   0.247   4.589
 8355SOL     OW25963   2.651   1.357   5.539
 8355SOL    HW125964   2.633   1.455   5.548
 8355SOL    HW225965   2.736   1.343   5.489
 8356SOL     OW25966   1.014   0.516   1.854
 8356SOL    HW125967   0.951   0.593   1.857
 8356SOL    HW225968   1.018   0.473   1.945
 8357SOL     OW25969   3.257   6.755   5.446
 8357SOL    HW125970   3.341   6.756   5.499
 8357SOL    HW225971   3.183   6.713   5.500
 8358SOL     OW25972   2.030   3.900   5.045
 8358SOL    HW125973   2.128   3.907   5.024
 8358SOL    HW225974   2.014   3.931   5.138
 8359SOL     OW25975   3.268   1.132   5.116
 8359SOL    HW125976   3.330   1.059   5.143
 8359SOL    HW225977   3.271   1.144   5.017
 8360SOL     OW25978   4.089   0.030   0.392
 8360SOL    HW125979   4.040   7.008   0.319
 8360SOL    HW225980   4.041   0.017   0.478
 8361SOL     OW25981   3.444   0.447   1.575
 8361SOL    HW125982   3.517   0.474   1.511
 8361SOL    HW225983   3.415   0.354   1.556
 8362SOL     OW25984   4.937   1.406   0.947
 8362SOL    HW125985   4.991   1.387   0.865
 8362SOL    HW225986   4.905   1.320   0.987
 8363SOL     OW25987   4.613   2.673   6.801
 8363SOL    HW125988   4.652   2.584   6.779
 8363SOL    HW225989   4.682   2.731   6.844
 8364SOL     OW25990   0.433   2.167   4.194
 8364SOL    HW125991   0.524   2.136   4.222
 8364SOL    HW225992   0.435   2.195   4.098
 8365SOL     OW25993   1.842   2.869   2.745
 8365SOL    HW125994   1.789   2.917   2.814
 8365SOL    HW225995   1.783   2.805   2.695
 8366SOL     OW25996   2.483   5.518   1.052
 8366SOL    HW125997   2.570   5.517   1.003
 8366SOL    HW225998   2.487   5.587   1.125
 8367SOL     OW25999   3.408   5.923   4.811
 8367SOL    HW126000   3.411   5.832   4.853
 8367SOL    HW226001   3.347   5.921   4.732
 8368SOL     OW26002   1.112   6.617   6.752
 8368SOL    HW126003   1.121   6.687   6.823
 8368SOL    HW226004   1.174   6.639   6.676
 8369SOL     OW26005   0.593   0.145   5.632
 8369SOL    HW126006   0.592   0.127   5.730
 8369SOL    HW226007   0.616   0.060   5.583
 8370SOL     OW26008   2.956   1.690   6.122
 8370SOL    HW126009   2.969   1.789   6.110
 8370SOL    HW226010   3.045   1.645   6.126
 8371SOL     OW26011   1.962   4.390   0.806
 8371SOL    HW126012   1.885   4.358   0.862
 8371SOL    HW226013   1.938   4.382   0.709
 8372SOL     OW26014   1.713   5.395   1.588
 8372SOL    HW126015   1.630   5.447   1.608
 8372SOL    HW226016   1.693   5.327   1.518
 8373SOL     OW26017   2.062   6.149   3.813
 8373SOL    HW126018   2.120   6.172   3.735
 8373SOL    HW226019   1.977   6.202   3.808
 8374SOL     OW26020   0.086   0.224   5.040
 8374SOL    HW126021   0.174   0.184   5.014
 8374SOL    HW226022   0.097   0.323   5.052
 8375SOL     OW26023   4.133   5.981   5.364
 8375SOL    HW126024   4.154   6.036   5.283
 8375SOL    HW226025   4.060   5.916   5.344
 8376SOL     OW26026   0.995   1.403   4.534
 8376SOL    HW126027   1.057   1.331   4.566
 8376SOL    HW226028   0.917   1.409   4.596
 8377SOL     OW26029   5.645   6.147   0.836
 8377SOL    HW126030   5.547   6.143   0.855
 8377SOL    HW226031   5.686   6.057   0.852
 8378SOL     OW26032   3.536   4.987   2.909
 8378SOL    HW126033   3.446   4.954   2.884
 8378SOL    HW226034   3.531   5.083   2.936
 8379SOL     OW26035   5.150   2.726   1.497
 8379SOL    HW126036   5.101   2.642   1.475
 8379SOL    HW226037   5.182   2.723   1.591
 8380SOL     OW26038   0.963   0.431   1.606
 8380SOL    HW126039   0.917   0.342   1.612
 8380SOL    HW226040   0.984   0.464   1.698
 8381SOL     OW26041   0.423   2.837   4.406
 8381SOL    HW126042   0.446   2.767   4.338
 8381SOL    HW226043   0.367   2.797   4.477
 8382SOL     OW26044   2.156   6.994   2.260
 8382SOL    HW126045   2.129   0.048   2.209
 8382SOL    HW226046   2.095   6.981   2.338
 8383SOL     OW26047   2.802   6.792   6.113
 8383SOL    HW126048   2.757   6.881   6.105
 8383SOL    HW226049   2.834   6.779   6.207
 8384SOL     OW26050   6.504   1.791   1.535
 8384SOL    HW126051   6.470   1.820   1.625
 8384SOL    HW226052   6.486   1.694   1.523
 8385SOL     OW26053   5.060   2.596   6.897
 8385SOL    HW126054   5.008   2.597   6.811
 8385SOL    HW226055   5.035   2.677   6.951
 8386SOL     OW26056   1.568   6.427   2.044
 8386SOL    HW126057   1.606   6.500   1.989
 8386SOL    HW226058   1.479   6.455   2.081
 8387SOL     OW26059   1.204   1.255   1.738
 8387SOL    HW126060   1.174   1.209   1.654
 8387SOL    HW226061   1.162   1.345   1.744
 8388SOL     OW26062   2.350   6.997   0.744
 8388SOL    HW126063   2.314   6.999   0.837
 8388SOL    HW226064   2.407   6.916   0.731
 8389SOL     OW26065   6.867   3.943   4.181
 8389SOL    HW126066   6.885   3.878   4.107
 8389SOL    HW226067   6.942   3.938   4.248
 8390SOL     OW26068   4.325   6.346   0.128
 8390SOL    HW126069   4.416   6.372   0.093
 8390SOL    HW226070   4.322   6.363   0.226
 8391SOL     OW26071   5.672   4.895   1.204
 8391SOL    HW126072   5.719   4.876   1.290
 8391SOL    HW226073   5.729   4.864   1.128
 8392SOL     OW26074   6.975   4.831   5.206
 8392SOL    HW126075   0.035   4.782   5.204
 8392SOL    HW226076   6.952   4.853   5.301
 8393SOL     OW26077   0.237   0.359   2.757
 8393SOL    HW126078   0.234   0.455   2.731
 8393SOL    HW226079   0.145   0.320   2.755
 8394SOL     OW26080   0.341   2.996   1.845
 8394SOL    HW126081   0.264   2.997   1.782
 8394SOL    HW226082   0.380   2.904   1.849
 8395SOL     OW26083   1.939   6.085   4.784
 8395SOL    HW126084   1.978   6.110   4.695
 8395SOL    HW226085   1.840   6.071   4.774
 8396SOL     OW26086   4.048   5.322   3.000
 8396SOL    HW126087   4.099   5.303   3.084
 8396SOL    HW226088   4.043   5.240   2.944
 8397SOL     OW26089   2.549   0.862   2.530
 8397SOL    HW126090   2.620   0.836   2.596
 8397SOL    HW226091   2.514   0.953   2.552
 8398SOL     OW26092   4.437   2.357   6.733
 8398SOL    HW126093   4.442   2.276   6.791
 8398SOL    HW226094   4.347   2.399   6.743
 8399SOL     OW26095   6.049   6.532   0.520
 8399SOL    HW126096   5.963   6.549   0.567
 8399SOL    HW226097   6.039   6.452   0.460
 8400SOL     OW26098   1.881   0.726   4.209
 8400SOL    HW126099   1.825   0.738   4.292
 8400SOL    HW226100   1.885   0.813   4.160
 8401SOL     OW26101   3.518   1.829   5.840
 8401SOL    HW126102   3.424   1.853   5.867
 8401SOL    HW226103   3.518   1.803   5.744
 8402SOL     OW26104   3.944   2.210   5.422
 8402SOL    HW126105   4.008   2.245   5.490
 8402SOL    HW226106   3.904   2.124   5.455
 8403SOL     OW26107   1.006   2.466   4.382
 8403SOL    HW126108   1.003   2.557   4.424
 8403SOL    HW226109   0.919   2.449   4.335
 8404SOL     OW26110   4.184   6.618   6.015
 8404SOL    HW126111   4.107   6.579   6.065
 8404SOL    HW226112   4.203   6.710   6.048
 8405SOL     OW26113   2.658   0.164   5.573
 8405SOL    HW126114   2.684   0.126   5.484
 8405SOL    HW226115   2.558   0.163   5.581
 8406SOL     OW26116   5.778   6.882   0.558
 8406SOL    HW126117   5.711   6.825   0.511
 8406SOL    HW226118   5.743   6.975   0.567
 8407SOL     OW26119   3.525   6.175   3.951
 8407SOL    HW126120   3.505   6.127   3.866
 8407SOL    HW226121   3.443   6.224   3.982
 8408SOL     OW26122   5.417   3.600   2.177
 8408SOL    HW126123   5.508   3.558   2.177
 8408SOL    HW226124   5.424   3.694   2.143
 8409SOL     OW26125   5.729   3.138   4.063
 8409SOL    HW126126   5.703   3.072   3.993
 8409SOL    HW226127   5.675   3.123   4.146
 8410SOL     OW26128   4.900   0.476   1.541
 8410SOL    HW126129   4.903   0.466   1.441
 8410SOL    HW226130   4.979   0.430   1.581
 8411SOL     OW26131   0.689   4.958   6.967
 8411SOL    HW126132   0.592   4.935   6.975
 8411SOL    HW226133   0.704   5.012   6.884
 8412SOL     OW26134   3.460   2.069   1.608
 8412SOL    HW126135   3.418   2.149   1.651
 8412SOL    HW226136   3.511   2.097   1.527
 8413SOL     OW26137   4.352   5.600   0.498
 8413SOL    HW126138   4.417   5.560   0.434
 8413SOL    HW226139   4.392   5.683   0.539
 8414SOL     OW26140   3.579   5.328   3.600
 8414SOL    HW126141   3.646   5.262   3.634
 8414SOL    HW226142   3.552   5.302   3.507
 8415SOL     OW26143   6.844   6.200   3.330
 8415SOL    HW126144   6.893   6.131   3.383
 8415SOL    HW226145   6.902   6.281   3.319
 8416SOL     OW26146   5.484   3.823   2.849
 8416SOL    HW126147   5.521   3.739   2.808
 8416SOL    HW226148   5.558   3.873   2.894
 8417SOL     OW26149   1.162   4.799   5.598
 8417SOL    HW126150   1.177   4.874   5.663
 8417SOL    HW226151   1.228   4.805   5.524
 8418SOL     OW26152   5.847   5.205   1.184
 8418SOL    HW126153   5.817   5.183   1.276
 8418SOL    HW226154   5.884   5.123   1.140
 8419SOL     OW26155   5.281   0.351   1.926
 8419SOL    HW126156   5.279   0.252   1.939
 8419SOL    HW226157   5.315   0.395   2.009
 8420SOL     OW26158   4.322   6.587   0.673
 8420SOL    HW126159   4.330   6.570   0.771
 8420SOL    HW226160   4.400   6.546   0.625
 8421SOL     OW26161   2.141   5.541   6.644
 8421SOL    HW126162   2.180   5.463   6.693
 8421SOL    HW226163   2.052   5.564   6.684
 8422SOL     OW26164   3.937   1.027   1.112
 8422SOL    HW126165   3.932   1.115   1.065
 8422SOL    HW226166   3.934   1.043   1.211
 8423SOL     OW26167   3.609   4.643   5.546
 8423SOL    HW126168   3.681   4.575   5.554
 8423SOL    HW226169   3.562   4.651   5.634
 8424SOL     OW26170   1.903   2.735   3.085
 8424SOL    HW126171   1.958   2.758   3.005
 8424SOL    HW226172   1.933   2.788   3.164
 8425SOL     OW26173   5.144   5.546   0.380
 8425SOL    HW126174   5.207   5.538   0.458
 8425SOL    HW226175   5.146   5.639   0.345
 8426SOL     OW26176   3.221   3.633   3.862
 8426SOL    HW126177   3.237   3.691   3.782
 8426SOL    HW226178   3.304   3.628   3.917
 8427SOL     OW26179   3.817   3.271   4.778
 8427SOL    HW126180   3.746   3.307   4.717
 8427SOL    HW226181   3.833   3.336   4.852
 8428SOL     OW26182   0.487   4.683   1.484
 8428SOL    HW126183   0.547   4.754   1.522
 8428SOL    HW226184   0.482   4.694   1.385
 8429SOL     OW26185   1.529   5.354   3.543
 8429SOL    HW126186   1.623   5.319   3.545
 8429SOL    HW226187   1.501   5.378   3.636
 8430SOL     OW26188   3.369   5.127   3.981
 8430SOL    HW126189   3.393   5.100   4.074
 8430SOL    HW226190   3.285   5.078   3.953
 8431SOL     OW26191   2.883   5.322   0.694
 8431SOL    HW126192   2.914   5.239   0.740
 8431SOL    HW226193   2.956   5.359   0.638
 8432SOL     OW26194   5.848   6.908   6.379
 8432SOL    HW126195   5.942   6.934   6.400
 8432SOL    HW226196   5.791   6.921   6.459
 8433SOL     OW26197   5.275   2.467   0.319
 8433SOL    HW126198   5.282   2.368   0.319
 8433SOL    HW226199   5.187   2.494   0.359
 8434SOL     OW26200   2.540   6.637   4.870
 8434SOL    HW126201   2.471   6.573   4.905
 8434SOL    HW226202   2.497   6.727   4.857
 8435SOL     OW26203   5.785   1.009   1.543
 8435SOL    HW126204   5.755   1.070   1.616
 8435SOL    HW226205   5.852   0.944   1.578
 8436SOL     OW26206   3.791   0.350   3.950
 8436SOL    HW126207   3.770   0.446   3.927
 8436SOL    HW226208   3.812   0.300   3.866
 8437SOL     OW26209   2.260   0.063   3.746
 8437SOL    HW126210   2.330   0.110   3.800
 8437SOL    HW226211   2.298   0.038   3.657
 8438SOL     OW26212   2.724   4.768   2.499
 8438SOL    HW126213   2.813   4.812   2.497
 8438SOL    HW226214   2.669   4.799   2.421
 8439SOL     OW26215   6.216   5.066   2.521
 8439SOL    HW126216   6.198   5.165   2.524
 8439SOL    HW226217   6.155   5.023   2.455
 8440SOL     OW26218   0.674   2.310   3.875
 8440SOL    HW126219   0.768   2.312   3.909
 8440SOL    HW226220   0.672   2.346   3.782
 8441SOL     OW26221   5.805   6.793   6.972
 8441SOL    HW126222   5.735   6.722   6.966
 8441SOL    HW226223   5.776   6.862   0.012
 8442SOL     OW26224   3.051   1.480   5.541
 8442SOL    HW126225   3.139   1.513   5.573
 8442SOL    HW226226   2.978   1.534   5.584
 8443SOL     OW26227   1.983   5.628   3.345
 8443SOL    HW126228   2.008   5.724   3.330
 8443SOL    HW226229   1.914   5.601   3.278
 8444SOL     OW26230   2.728   5.801   3.665
 8444SOL    HW126231   2.702   5.814   3.569
 8444SOL    HW226232   2.801   5.733   3.671
 8445SOL     OW26233   4.094   6.463   0.492
 8445SOL    HW126234   4.177   6.409   0.505
 8445SOL    HW226235   4.087   6.490   0.396
 8446SOL     OW26236   4.226   4.854   6.654
 8446SOL    HW126237   4.261   4.905   6.576
 8446SOL    HW226238   4.300   4.841   6.720
 8447SOL     OW26239   4.752   2.317   2.613
 8447SOL    HW126240   4.713   2.259   2.685
 8447SOL    HW226241   4.852   2.320   2.624
 8448SOL     OW26242   4.504   6.012   4.213
 8448SOL    HW126243   4.413   6.046   4.236
 8448SOL    HW226244   4.573   6.063   4.263
 8449SOL     OW26245   6.704   2.361   4.205
 8449SOL    HW126246   6.659   2.306   4.275
 8449SOL    HW226247   6.802   2.338   4.203
 8450SOL     OW26248   1.046   6.314   1.479
 8450SOL    HW126249   0.956   6.358   1.468
 8450SOL    HW226250   1.117   6.376   1.446
 8451SOL     OW26251   4.141   2.296   0.025
 8451SOL    HW126252   4.136   2.377   6.992
 8451SOL    HW226253   4.074   2.306   0.099
 8452SOL     OW26254   6.244   1.237   3.094
 8452SOL    HW126255   6.294   1.230   3.180
 8452SOL    HW226256   6.178   1.312   3.100
 8453SOL     OW26257   0.125   4.240   6.293
 8453SOL    HW126258   0.188   4.169   6.260
 8453SOL    HW226259   0.162   4.281   6.377
 8454SOL     OW26260   0.143   6.885   1.037
 8454SOL    HW126261   0.140   6.981   1.066
 8454SOL    HW226262   0.232   6.865   0.997
 8455SOL     OW26263   6.106   2.808   1.650
 8455SOL    HW126264   6.091   2.787   1.553
 8455SOL    HW226265   6.043   2.754   1.706
 8456SOL     OW26266   4.360   6.162   3.017
 8456SOL    HW126267   4.284   6.163   3.082
 8456SOL    HW226268   4.432   6.101   3.052
 8457SOL     OW26269   6.435   6.667   4.965
 8457SOL    HW126270   6.360   6.634   5.022
 8457SOL    HW226271   6.475   6.591   4.915
 8458SOL     OW26272   3.305   1.619   6.775
 8458SOL    HW126273   3.257   1.664   6.850
 8458SOL    HW226274   3.371   1.682   6.735
 8459SOL     OW26275   3.241   6.674   2.333
 8459SOL    HW126276   3.320   6.720   2.293
 8459SOL    HW226277   3.172   6.742   2.357
 8460SOL     OW26278   4.528   3.429   5.407
 8460SOL    HW126279   4.561   3.497   5.341
 8460SOL    HW226280   4.606   3.380   5.445
 8461SOL     OW26281   6.875   4.465   3.542
 8461SOL    HW126282   6.957   4.487   3.489
 8461SOL    HW226283   6.833   4.550   3.575
 8462SOL     OW26284   3.463   2.511   6.810
 8462SOL    HW126285   3.412   2.557   6.883
 8462SOL    HW226286   3.400   2.459   6.752
 8463SOL     OW26287   6.881   6.976   0.822
 8463SOL    HW126288   6.934   6.923   0.756
 8463SOL    HW226289   6.808   7.025   0.775
 8464SOL     OW26290   5.291   3.741   5.463
 8464SOL    HW126291   5.360   3.814   5.464
 8464SOL    HW226292   5.287   3.699   5.554
 8465SOL     OW26293   1.152   2.792   1.161
 8465SOL    HW126294   1.252   2.785   1.158
 8465SOL    HW226295   1.114   2.707   1.197
 8466SOL     OW26296   0.685   6.824   5.022
 8466SOL    HW126297   0.606   6.867   5.067
 8466SOL    HW226298   0.716   6.747   5.078
 8467SOL     OW26299   4.547   0.131   1.006
 8467SOL    HW126300   4.477   0.162   0.942
 8467SOL    HW226301   4.508   0.062   1.067
 8468SOL     OW26302   4.082   1.753   6.465
 8468SOL    HW126303   4.141   1.673   6.450
 8468SOL    HW226304   4.000   1.745   6.408
 8469SOL     OW26305   3.746   1.125   6.151
 8469SOL    HW126306   3.742   1.173   6.063
 8469SOL    HW226307   3.726   1.189   6.225
 8470SOL     OW26308   1.668   4.051   0.241
 8470SOL    HW126309   1.580   4.061   0.193
 8470SOL    HW226310   1.695   3.955   0.240
 8471SOL     OW26311   3.774   0.845   3.924
 8471SOL    HW126312   3.838   0.922   3.918
 8471SOL    HW226313   3.728   0.847   4.013
 8472SOL     OW26314   6.852   0.535   5.178
 8472SOL    HW126315   6.777   0.487   5.222
 8472SOL    HW226316   6.816   0.595   5.107
 8473SOL     OW26317   6.814   6.312   0.234
 8473SOL    HW126318   6.744   6.280   0.298
 8473SOL    HW226319   6.798   6.408   0.213
 8474SOL     OW26320   3.626   3.191   2.025
 8474SOL    HW126321   3.575   3.114   1.987
 8474SOL    HW226322   3.692   3.225   1.957
 8475SOL     OW26323   6.584   2.566   4.085
 8475SOL    HW126324   6.514   2.612   4.138
 8475SOL    HW226325   6.621   2.489   4.137
 8476SOL     OW26326   6.714   2.157   0.912
 8476SOL    HW126327   6.623   2.192   0.933
 8476SOL    HW226328   6.742   2.094   0.984
 8477SOL     OW26329   5.012   6.683   1.336
 8477SOL    HW126330   5.109   6.661   1.337
 8477SOL    HW226331   4.970   6.656   1.422
 8478SOL     OW26332   1.794   7.023   6.291
 8478SOL    HW126333   1.760   6.930   6.304
 8478SOL    HW226334   1.719   0.056   6.262
 8479SOL     OW26335   0.592   2.983   0.919
 8479SOL    HW126336   0.545   2.913   0.866
 8479SOL    HW226337   0.691   2.977   0.900
 8480SOL     OW26338   4.194   1.689   6.991
 8480SOL    HW126339   4.184   1.786   6.966
 8480SOL    HW226340   4.217   1.636   6.909
 8481SOL     OW26341   4.585   2.493   4.744
 8481SOL    HW126342   4.678   2.461   4.766
 8481SOL    HW226343   4.555   2.451   4.659
 8482SOL     OW26344   4.394   5.996   1.826
 8482SOL    HW126345   4.385   6.066   1.755
 8482SOL    HW226346   4.470   6.019   1.887
 8483SOL     OW26347   4.589   6.487   2.123
 8483SOL    HW126348   4.489   6.490   2.119
 8483SOL    HW226349   4.618   6.482   2.219
 8484SOL     OW26350   0.143   6.549   3.640
 8484SOL    HW126351   0.162   6.578   3.546
 8484SOL    HW226352   0.211   6.482   3.670
 8485SOL     OW26353   4.015   2.653   6.975
 8485SOL    HW126354   4.110   2.634   6.999
 8485SOL    HW226355   4.001   2.751   6.970
 8486SOL     OW26356   2.834   1.972   2.569
 8486SOL    HW126357   2.868   1.906   2.502
 8486SOL    HW226358   2.848   2.065   2.533
 8487SOL     OW26359   5.953   1.028   5.606
 8487SOL    HW126360   5.889   1.081   5.663
 8487SOL    HW226361   5.952   0.933   5.637
 8488SOL     OW26362   5.358   5.860   0.418
 8488SOL    HW126363   5.365   5.950   0.460
 8488SOL    HW226364   5.285   5.808   0.463
 8489SOL     OW26365   6.356   2.032   0.962
 8489SOL    HW126366   6.422   1.972   1.007
 8489SOL    HW226367   6.379   2.127   0.982
 8490SOL     OW26368   4.680   6.684   4.152
 8490SOL    HW126369   4.627   6.626   4.214
 8490SOL    HW226370   4.770   6.644   4.136
 8491SOL     OW26371   3.113   5.915   1.443
 8491SOL    HW126372   3.065   5.852   1.503
 8491SOL    HW226373   3.047   5.967   1.389
 8492SOL     OW26374   4.561   3.845   5.565
 8492SOL    HW126375   4.558   3.781   5.642
 8492SOL    HW226376   4.633   3.818   5.502
 8493SOL     OW26377   2.241   2.871   6.536
 8493SOL    HW126378   2.306   2.829   6.599
 8493SOL    HW226379   2.290   2.923   6.467
 8494SOL     OW26380   3.640   5.515   1.613
 8494SOL    HW126381   3.725   5.494   1.564
 8494SOL    HW226382   3.563   5.513   1.549
 8495SOL     OW26383   5.695   5.255   2.611
 8495SOL    HW126384   5.786   5.262   2.650
 8495SOL    HW226385   5.641   5.188   2.662
 8496SOL     OW26386   1.110   2.599   1.651
 8496SOL    HW126387   1.144   2.593   1.745
 8496SOL    HW226388   1.104   2.694   1.623
 8497SOL     OW26389   6.450   0.935   3.417
 8497SOL    HW126390   6.493   0.920   3.506
 8497SOL    HW226391   6.469   0.857   3.358
 8498SOL     OW26392   6.475   6.963   3.222
 8498SOL    HW126393   6.389   6.914   3.201
 8498SOL    HW226394   6.457   0.005   3.292
 8499SOL     OW26395   1.913   4.566   6.700
 8499SOL    HW126396   1.968   4.543   6.780
 8499SOL    HW226397   1.972   4.582   6.622
 8500SOL     OW26398   1.981   6.065   5.483
 8500SOL    HW126399   1.967   6.163   5.500
 8500SOL    HW226400   1.899   6.014   5.510
 8501SOL     OW26401   0.474   2.398   6.992
 8501SOL    HW126402   0.407   2.424   6.921
 8501SOL    HW226403   0.437   2.420   0.055
 8502SOL     OW26404   1.104   3.495   1.372
 8502SOL    HW126405   1.189   3.442   1.371
 8502SOL    HW226406   1.121   3.586   1.334
 8503SOL     OW26407   1.281   6.481   4.048
 8503SOL    HW126408   1.225   6.407   4.085
 8503SOL    HW226409   1.371   6.481   4.092
 8504SOL     OW26410   2.606   4.929   1.956
 8504SOL    HW126411   2.699   4.896   1.972
 8504SOL    HW226412   2.564   4.876   1.882
 8505SOL     OW26413   5.412   3.531   3.736
 8505SOL    HW126414   5.489   3.470   3.716
 8505SOL    HW226415   5.327   3.486   3.709
 8506SOL     OW26416   7.013   0.854   6.742
 8506SOL    HW126417   0.039   0.795   6.681
 8506SOL    HW226418   6.944   0.799   6.790
 8507SOL     OW26419   3.991   0.769   5.500
 8507SOL    HW126420   3.927   0.704   5.542
 8507SOL    HW226421   4.078   0.766   5.549
 8508SOL     OW26422   6.039   1.603   4.985
 8508SOL    HW126423   6.040   1.586   4.887
 8508SOL    HW226424   6.116   1.662   5.010
 8509SOL     OW26425   4.724   1.638   4.457
 8509SOL    HW126426   4.824   1.635   4.449
 8509SOL    HW226427   4.693   1.566   4.519
 8510SOL     OW26428   6.076   4.605   2.774
 8510SOL    HW126429   6.029   4.676   2.722
 8510SOL    HW226430   6.058   4.516   2.732
 8511SOL     OW26431   5.839   3.283   2.334
 8511SOL    HW126432   5.770   3.229   2.382
 8511SOL    HW226433   5.929   3.241   2.348
 8512SOL     OW26434   3.263   2.092   1.879
 8512SOL    HW126435   3.190   2.090   1.947
 8512SOL    HW226436   3.296   2.186   1.869
 8513SOL     OW26437   5.824   4.717   1.021
 8513SOL    HW126438   5.904   4.713   1.081
 8513SOL    HW226439   5.838   4.656   0.943
 8514SOL     OW26440   2.658   2.338   3.704
 8514SOL    HW126441   2.620   2.329   3.796
 8514SOL    HW226442   2.597   2.393   3.647
 8515SOL     OW26443   5.400   2.229   0.704
 8515SOL    HW126444   5.332   2.156   0.705
 8515SOL    HW226445   5.477   2.204   0.764
 8516SOL     OW26446   5.666   2.043   1.741
 8516SOL    HW126447   5.714   2.029   1.655
 8516SOL    HW226448   5.614   1.960   1.764
 8517SOL     OW26449   1.502   2.343   6.135
 8517SOL    HW126450   1.413   2.389   6.126
 8517SOL    HW226451   1.539   2.324   6.044
 8518SOL     OW26452   4.496   4.261   0.244
 8518SOL    HW126453   4.414   4.319   0.242
 8518SOL    HW226454   4.469   4.165   0.251
 8519SOL     OW26455   1.504   4.252   2.040
 8519SOL    HW126456   1.477   4.165   1.999
 8519SOL    HW226457   1.456   4.327   1.994
 8520SOL     OW26458   3.417   2.465   0.241
 8520SOL    HW126459   3.514   2.480   0.257
 8520SOL    HW226460   3.372   2.442   0.327
 8521SOL     OW26461   2.412   5.202   6.551
 8521SOL    HW126462   2.318   5.169   6.558
 8521SOL    HW226463   2.459   5.152   6.478
 8522SOL     OW26464   1.347   6.563   1.134
 8522SOL    HW126465   1.356   6.509   1.218
 8522SOL    HW226466   1.327   6.502   1.057
 8523SOL     OW26467   2.443   6.783   6.441
 8523SOL    HW126468   2.499   6.761   6.520
 8523SOL    HW226469   2.353   6.815   6.472
 8524SOL     OW26470   0.395   2.236   5.064
 8524SOL    HW126471   0.307   2.190   5.051
 8524SOL    HW226472   0.396   2.280   5.154
 8525SOL     OW26473   6.426   4.066   3.329
 8525SOL    HW126474   6.481   4.134   3.378
 8525SOL    HW226475   6.412   3.986   3.388
 8526SOL     OW26476   3.854   5.567   0.148
 8526SOL    HW126477   3.864   5.643   0.083
 8526SOL    HW226478   3.927   5.571   0.216
 8527SOL     OW26479   3.036   0.463   6.164
 8527SOL    HW126480   2.978   0.516   6.103
 8527SOL    HW226481   3.009   0.367   6.161
 8528SOL     OW26482   4.148   2.282   5.928
 8528SOL    HW126483   4.191   2.364   5.968
 8528SOL    HW226484   4.057   2.269   5.967
 8529SOL     OW26485   0.337   0.239   1.460
 8529SOL    HW126486   0.379   0.330   1.469
 8529SOL    HW226487   0.262   0.243   1.394
 8530SOL     OW26488   3.369   3.179   5.211
 8530SOL    HW126489   3.403   3.130   5.291
 8530SOL    HW226490   3.445   3.221   5.163
 8531SOL     OW26491   6.461   5.260   2.609
 8531SOL    HW126492   6.489   5.196   2.537
 8531SOL    HW226493   6.446   5.209   2.694
 8532SOL     OW26494   4.133   5.315   4.576
 8532SOL    HW126495   4.062   5.374   4.616
 8532SOL    HW226496   4.149   5.237   4.636
 8533SOL     OW26497   1.945   0.161   5.308
 8533SOL    HW126498   1.867   0.168   5.371
 8533SOL    HW226499   1.913   0.138   5.217
 8534SOL     OW26500   6.265   3.184   3.982
 8534SOL    HW126501   6.205   3.177   4.062
 8534SOL    HW226502   6.358   3.158   4.009
 8535SOL     OW26503   6.704   1.474   4.698
 8535SOL    HW126504   6.624   1.489   4.640
 8535SOL    HW226505   6.763   1.555   4.696
 8536SOL     OW26506   5.822   1.898   4.724
 8536SOL    HW126507   5.788   1.958   4.797
 8536SOL    HW226508   5.921   1.891   4.731
 8537SOL     OW26509   5.599   1.859   2.114
 8537SOL    HW126510   5.680   1.894   2.066
 8537SOL    HW226511   5.540   1.935   2.139
 8538SOL     OW26512   0.711   1.388   6.281
 8538SOL    HW126513   0.755   1.326   6.346
 8538SOL    HW226514   0.722   1.482   6.311
 8539SOL     OW26515   5.858   0.954   2.139
 8539SOL    HW126516   5.954   0.928   2.129
 8539SOL    HW226517   5.805   0.877   2.174
 8540SOL     OW26518   4.819   1.334   0.059
 8540SOL    HW126519   4.850   1.290   7.002
 8540SOL    HW226520   4.897   1.379   0.104
 8541SOL     OW26521   2.632   2.262   4.217
 8541SOL    HW126522   2.631   2.358   4.245
 8541SOL    HW226523   2.639   2.204   4.298
 8542SOL     OW26524   2.771   4.427   6.858
 8542SOL    HW126525   2.821   4.491   6.917
 8542SOL    HW226526   2.801   4.334   6.877
 8543SOL     OW26527   3.440   1.023   6.939
 8543SOL    HW126528   3.376   1.095   6.911
 8543SOL    HW226529   3.426   1.002   0.009
 8544SOL     OW26530   5.559   2.961   4.825
 8544SOL    HW126531   5.508   2.925   4.903
 8544SOL    HW226532   5.657   2.964   4.848
 8545SOL     OW26533   4.706   6.976   4.130
 8545SOL    HW126534   4.636   0.011   4.094
 8545SOL    HW226535   4.667   6.885   4.143
 8546SOL     OW26536   0.543   0.404   3.025
 8546SOL    HW126537   0.460   0.349   3.032
 8546SOL    HW226538   0.622   0.348   3.050
 8547SOL     OW26539   1.421   6.563   6.418
 8547SOL    HW126540   1.427   6.567   6.318
 8547SOL    HW226541   1.358   6.633   6.451
 8548SOL     OW26542   6.684   3.187   5.619
 8548SOL    HW126543   6.646   3.267   5.572
 8548SOL    HW226544   6.732   3.216   5.702
 8549SOL     OW26545   1.462   3.085   4.895
 8549SOL    HW126546   1.371   3.046   4.883
 8549SOL    HW226547   1.528   3.031   4.842
 8550SOL     OW26548   1.568   5.223   6.551
 8550SOL    HW126549   1.594   5.145   6.608
 8550SOL    HW226550   1.633   5.298   6.566
 8551SOL     OW26551   2.305   3.186   6.605
 8551SOL    HW126552   2.356   3.100   6.594
 8551SOL    HW226553   2.230   3.188   6.538
 8552SOL     OW26554   2.197   0.040   3.062
 8552SOL    HW126555   2.257   0.113   3.093
 8552SOL    HW226556   2.199   6.991   3.128
 8553SOL     OW26557   4.369   4.413   6.897
 8553SOL    HW126558   4.316   4.484   6.851
 8553SOL    HW226559   4.464   4.415   6.865
 8554SOL     OW26560   0.637   5.001   0.927
 8554SOL    HW126561   0.735   5.015   0.919
 8554SOL    HW226562   0.589   5.066   0.867
 8555SOL     OW26563   2.602   1.020   3.995
 8555SOL    HW126564   2.664   1.075   4.053
 8555SOL    HW226565   2.526   1.078   3.965
 8556SOL     OW26566   1.673   5.661   5.240
 8556SOL    HW126567   1.608   5.637   5.311
 8556SOL    HW226568   1.739   5.728   5.275
 8557SOL     OW26569   6.472   6.912   2.397
 8557SOL    HW126570   6.535   6.990   2.389
 8557SOL    HW226571   6.502   6.853   2.472
 8558SOL     OW26572   2.236   4.619   3.169
 8558SOL    HW126573   2.223   4.619   3.070
 8558SOL    HW226574   2.185   4.695   3.209
 8559SOL     OW26575   1.664   0.618   2.630
 8559SOL    HW126576   1.640   0.666   2.545
 8559SOL    HW226577   1.629   0.524   2.626
 8560SOL     OW26578   0.168   6.502   1.574
 8560SOL    HW126579   0.170   6.588   1.624
 8560SOL    HW226580   0.248   6.495   1.514
 8561SOL     OW26581   3.304   0.722   2.588
 8561SOL    HW126582   3.230   0.710   2.522
 8561SOL    HW226583   3.383   0.668   2.558
 8562SOL     OW26584   4.119   6.285   6.112
 8562SOL    HW126585   4.068   6.366   6.141
 8562SOL    HW226586   4.169   6.305   6.028
 8563SOL     OW26587   1.432   4.655   1.134
 8563SOL    HW126588   1.359   4.698   1.082
 8563SOL    HW226589   1.444   4.561   1.102
 8564SOL     OW26590   3.221   0.437   5.288
 8564SOL    HW126591   3.209   0.338   5.288
 8564SOL    HW226592   3.263   0.466   5.202
 8565SOL     OW26593   3.535   5.601   1.135
 8565SOL    HW126594   3.482   5.518   1.153
 8565SOL    HW226595   3.629   5.576   1.115
 8566SOL     OW26596   1.054   6.795   1.524
 8566SOL    HW126597   1.097   6.873   1.479
 8566SOL    HW226598   1.124   6.734   1.560
 8567SOL     OW26599   0.667   2.130   3.675
 8567SOL    HW126600   0.671   2.185   3.758
 8567SOL    HW226601   0.626   2.183   3.601
 8568SOL     OW26602   5.762   1.253   6.991
 8568SOL    HW126603   5.682   1.199   6.967
 8568SOL    HW226604   5.806   1.213   0.045
 8569SOL     OW26605   4.484   0.824   5.888
 8569SOL    HW126606   4.526   0.800   5.975
 8569SOL    HW226607   4.387   0.845   5.902
 8570SOL     OW26608   1.715   1.610   4.536
 8570SOL    HW126609   1.618   1.625   4.555
 8570SOL    HW226610   1.750   1.685   4.480
 8571SOL     OW26611   0.439   5.600   5.059
 8571SOL    HW126612   0.529   5.633   5.086
 8571SOL    HW226613   0.369   5.640   5.119
 8572SOL     OW26614   2.936   5.132   6.618
 8572SOL    HW126615   2.884   5.215   6.641
 8572SOL    HW226616   2.951   5.079   6.701
 8573SOL     OW26617   3.644   6.012   6.551
 8573SOL    HW126618   3.712   6.037   6.482
 8573SOL    HW226619   3.622   5.915   6.543
 8574SOL     OW26620   0.370   6.287   6.558
 8574SOL    HW126621   0.401   6.213   6.617
 8574SOL    HW226622   0.404   6.374   6.594
 8575SOL     OW26623   2.067   2.700   3.933
 8575SOL    HW126624   2.110   2.622   3.978
 8575SOL    HW226625   2.126   2.780   3.940
 8576SOL     OW26626   1.286   4.517   5.898
 8576SOL    HW126627   1.290   4.438   5.837
 8576SOL    HW226628   1.203   4.570   5.880
 8577SOL     OW26629   1.250   6.671   4.561
 8577SOL    HW126630   1.257   6.648   4.658
 8577SOL    HW226631   1.323   6.624   4.510
 8578SOL     OW26632   6.058   6.782   4.018
 8578SOL    HW126633   6.118   6.828   4.083
 8578SOL    HW226634   6.075   6.817   3.926
 8579SOL     OW26635   2.214   0.642   1.815
 8579SOL    HW126636   2.269   0.714   1.858
 8579SOL    HW226637   2.166   0.590   1.886
 8580SOL     OW26638   2.436   6.079   1.369
 8580SOL    HW126639   2.469   6.031   1.288
 8580SOL    HW226640   2.512   6.098   1.431
 8581SOL     OW26641   3.340   3.944   0.974
 8581SOL    HW126642   3.278   3.887   1.028
 8581SOL    HW226643   3.432   3.939   1.013
 8582SOL     OW26644   4.832   4.362   4.409
 8582SOL    HW126645   4.928   4.337   4.402
 8582SOL    HW226646   4.814   4.442   4.352
 8583SOL     OW26647   4.782   0.524   4.452
 8583SOL    HW126648   4.768   0.605   4.508
 8583SOL    HW226649   4.736   0.536   4.364
 8584SOL     OW26650   0.538   5.349   6.563
 8584SOL    HW126651   0.525   5.256   6.530
 8584SOL    HW226652   0.456   5.403   6.544
 8585SOL     OW26653   0.045   6.787   6.292
 8585SOL    HW126654   0.100   6.704   6.279
 8585SOL    HW226655   0.102   6.858   6.333
 8586SOL     OW26656   3.209   6.918   2.046
 8586SOL    HW126657   3.112   6.899   2.027
 8586SOL    HW226658   3.263   6.891   1.966
 8587SOL     OW26659   1.144   0.393   4.072
 8587SOL    HW126660   1.093   0.478   4.055
 8587SOL    HW226661   1.169   0.352   3.984
 8588SOL     OW26662   2.858   0.657   0.547
 8588SOL    HW126663   2.903   0.572   0.573
 8588SOL    HW226664   2.850   0.662   0.447
 8589SOL     OW26665   5.379   2.500   5.545
 8589SOL    HW126666   5.473   2.509   5.578
 8589SOL    HW226667   5.319   2.476   5.621
 8590SOL     OW26668   0.049   6.678   3.155
 8590SOL    HW126669   0.037   6.710   3.061
 8590SOL    HW226670   7.013   6.727   3.216
 8591SOL     OW26671   0.332   3.972   0.434
 8591SOL    HW126672   0.261   3.923   0.384
 8591SOL    HW226673   0.301   3.993   0.526
 8592SOL     OW26674   6.618   2.666   6.699
 8592SOL    HW126675   6.586   2.584   6.652
 8592SOL    HW226676   6.582   2.668   6.792
 8593SOL     OW26677   2.197   2.113   0.396
 8593SOL    HW126678   2.267   2.083   0.331
 8593SOL    HW226679   2.213   2.069   0.485
 8594SOL     OW26680   4.483   2.594   4.988
 8594SOL    HW126681   4.537   2.676   5.006
 8594SOL    HW226682   4.504   2.561   4.896
 8595SOL     OW26683   0.577   1.871   3.732
 8595SOL    HW126684   0.600   1.967   3.712
 8595SOL    HW226685   0.481   1.864   3.759
 8596SOL     OW26686   1.281   5.115   2.991
 8596SOL    HW126687   1.202   5.159   3.034
 8596SOL    HW226688   1.274   5.124   2.892
 8597SOL     OW26689   4.417   1.729   0.919
 8597SOL    HW126690   4.486   1.667   0.881
 8597SOL    HW226691   4.461   1.793   0.982
 8598SOL     OW26692   6.084   0.271   0.293
 8598SOL    HW126693   6.057   0.306   0.382
 8598SOL    HW226694   6.114   0.176   0.302
 8599SOL     OW26695   1.847   2.638   4.652
 8599SOL    HW126696   1.781   2.592   4.711
 8599SOL    HW226697   1.797   2.691   4.582
 8600SOL     OW26698   5.241   4.623   5.669
 8600SOL    HW126699   5.275   4.714   5.696
 8600SOL    HW226700   5.312   4.555   5.688
 8601SOL     OW26701   1.434   1.600   4.487
 8601SOL    HW126702   1.338   1.629   4.489
 8601SOL    HW226703   1.468   1.607   4.393
 8602SOL     OW26704   3.282   5.948   2.219
 8602SOL    HW126705   3.232   5.874   2.265
 8602SOL    HW226706   3.219   6.024   2.201
 8603SOL     OW26707   4.631   5.718   1.087
 8603SOL    HW126708   4.615   5.668   1.172
 8603SOL    HW226709   4.628   5.655   1.010
 8604SOL     OW26710   0.375   3.115   5.070
 8604SOL    HW126711   0.364   3.026   5.114
 8604SOL    HW226712   0.353   3.187   5.135
 8605SOL     OW26713   2.205   5.702   4.423
 8605SOL    HW126714   2.202   5.602   4.421
 8605SOL    HW226715   2.177   5.734   4.514
 8606SOL     OW26716   1.769   3.311   6.167
 8606SOL    HW126717   1.755   3.280   6.261
 8606SOL    HW226718   1.854   3.365   6.162
 8607SOL     OW26719   3.443   5.530   0.321
 8607SOL    HW126720   3.349   5.534   0.355
 8607SOL    HW226721   3.502   5.585   0.380
 8608SOL     OW26722   3.004   4.894   2.677
 8608SOL    HW126723   2.930   4.939   2.628
 8608SOL    HW226724   2.965   4.832   2.746
 8609SOL     OW26725   5.399   0.905   2.618
 8609SOL    HW126726   5.328   0.973   2.633
 8609SOL    HW226727   5.462   0.938   2.547
 8610SOL     OW26728   1.235   2.079   2.805
 8610SOL    HW126729   1.291   2.159   2.783
 8610SOL    HW226730   1.293   1.998   2.811
 8611SOL     OW26731   2.949   1.773   4.517
 8611SOL    HW126732   3.035   1.773   4.467
 8611SOL    HW226733   2.929   1.681   4.551
 8612SOL     OW26734   2.720   3.254   0.461
 8612SOL    HW126735   2.676   3.344   0.469
 8612SOL    HW226736   2.786   3.243   0.536
 8613SOL     OW26737   2.903   1.987   1.237
 8613SOL    HW126738   2.849   2.002   1.320
 8613SOL    HW226739   2.993   2.027   1.248
 8614SOL     OW26740   1.192   2.779   3.291
 8614SOL    HW126741   1.140   2.698   3.317
 8614SOL    HW226742   1.162   2.857   3.346
 8615SOL     OW26743   4.122   1.180   4.923
 8615SOL    HW126744   4.155   1.188   5.017
 8615SOL    HW226745   4.198   1.155   4.863
 8616SOL     OW26746   3.168   4.551   1.717
 8616SOL    HW126747   3.080   4.538   1.763
 8616SOL    HW226748   3.233   4.592   1.780
 8617SOL     OW26749   6.190   1.544   6.096
 8617SOL    HW126750   6.279   1.571   6.134
 8617SOL    HW226751   6.120   1.551   6.167
 8618SOL     OW26752   6.402   4.607   0.956
 8618SOL    HW126753   6.387   4.595   0.858
 8618SOL    HW226754   6.326   4.565   1.006
 8619SOL     OW26755   3.631   4.934   2.199
 8619SOL    HW126756   3.628   4.878   2.116
 8619SOL    HW226757   3.586   4.885   2.273
 8620SOL     OW26758   1.330   0.040   3.313
 8620SOL    HW126759   1.352   6.972   3.292
 8620SOL    HW226760   1.406   0.082   3.362
 8621SOL     OW26761   5.199   1.848   3.602
 8621SOL    HW126762   5.142   1.880   3.526
 8621SOL    HW226763   5.280   1.907   3.610
 8622SOL     OW26764   5.634   3.263   0.955
 8622SOL    HW126765   5.590   3.352   0.945
 8622SOL    HW226766   5.684   3.260   1.042
 8623SOL     OW26767   0.435   3.970   4.290
 8623SOL    HW126768   0.402   4.052   4.243
 8623SOL    HW226769   0.529   3.985   4.320
 8624SOL     OW26770   1.833   3.913   4.848
 8624SOL    HW126771   1.845   4.002   4.804
 8624SOL    HW226772   1.904   3.901   4.917
 8625SOL     OW26773   4.548   0.487   6.475
 8625SOL    HW126774   4.544   0.577   6.519
 8625SOL    HW226775   4.586   0.420   6.539
 8626SOL     OW26776   3.421   3.006   5.781
 8626SOL    HW126777   3.445   3.097   5.814
 8626SOL    HW226778   3.452   2.938   5.848
 8627SOL     OW26779   1.168   1.745   3.395
 8627SOL    HW126780   1.140   1.791   3.311
 8627SOL    HW226781   1.213   1.811   3.456
 8628SOL     OW26782   6.345   6.499   1.325
 8628SOL    HW126783   6.280   6.456   1.263
 8628SOL    HW226784   6.428   6.524   1.274
 8629SOL     OW26785   1.637   5.298   4.942
 8629SOL    HW126786   1.571   5.349   4.996
 8629SOL    HW226787   1.721   5.352   4.930
 8630SOL     OW26788   5.488   4.597   4.021
 8630SOL    HW126789   5.425   4.652   3.966
 8630SOL    HW226790   5.466   4.500   4.009
 8631SOL     OW26791   0.485   4.825   6.253
 8631SOL    HW126792   0.469   4.735   6.211
 8631SOL    HW226793   0.575   4.859   6.226
 8632SOL     OW26794   4.162   5.139   4.865
 8632SOL    HW126795   4.148   5.043   4.841
 8632SOL    HW226796   4.255   5.151   4.899
 8633SOL     OW26797   5.580   1.795   5.883
 8633SOL    HW126798   5.497   1.741   5.874
 8633SOL    HW226799   5.558   1.892   5.873
 8634SOL     OW26800   4.639   3.109   0.231
 8634SOL    HW126801   4.662   3.190   0.177
 8634SOL    HW226802   4.722   3.070   0.270
 8635SOL     OW26803   5.195   3.226   6.521
 8635SOL    HW126804   5.181   3.259   6.614
 8635SOL    HW226805   5.235   3.300   6.466
 8636SOL     OW26806   6.083   5.820   0.841
 8636SOL    HW126807   6.045   5.876   0.768
 8636SOL    HW226808   6.087   5.873   0.926
 8637SOL     OW26809   2.355   1.089   6.769
 8637SOL    HW126810   2.331   1.120   6.860
 8637SOL    HW226811   2.406   1.161   6.721
 8638SOL     OW26812   3.391   2.240   5.294
 8638SOL    HW126813   3.473   2.210   5.245
 8638SOL    HW226814   3.325   2.277   5.229
 8639SOL     OW26815   5.412   2.640   0.118
 8639SOL    HW126816   5.338   2.706   0.102
 8639SOL    HW226817   5.384   2.576   0.189
 8640SOL     OW26818   4.296   3.766   6.602
 8640SOL    HW126819   4.358   3.711   6.659
 8640SOL    HW226820   4.206   3.723   6.599
 8641SOL     OW26821   4.563   4.873   3.732
 8641SOL    HW126822   4.646   4.835   3.692
 8641SOL    HW226823   4.488   4.807   3.722
 8642SOL     OW26824   1.483   6.078   3.314
 8642SOL    HW126825   1.504   6.165   3.271
 8642SOL    HW226826   1.567   6.034   3.346
 8643SOL     OW26827   2.452   0.240   6.921
 8643SOL    HW126828   2.463   0.276   7.014
 8643SOL    HW226829   2.517   0.285   6.860
 8644SOL     OW26830   5.243   2.697   5.377
 8644SOL    HW126831   5.288   2.629   5.434
 8644SOL    HW226832   5.275   2.688   5.283
 8645SOL     OW26833   4.349   3.953   1.354
 8645SOL    HW126834   4.253   3.941   1.327
 8645SOL    HW226835   4.380   4.043   1.325
 8646SOL     OW26836   6.919   1.779   0.791
 8646SOL    HW126837   6.962   1.846   0.730
 8646SOL    HW226838   6.991   1.731   0.842
 8647SOL     OW26839   2.650   5.526   6.580
 8647SOL    HW126840   2.713   5.593   6.621
 8647SOL    HW226841   2.577   5.506   6.644
 8648SOL     OW26842   6.608   0.572   2.664
 8648SOL    HW126843   6.662   0.630   2.725
 8648SOL    HW226844   6.513   0.601   2.665
 8649SOL     OW26845   5.655   5.502   6.054
 8649SOL    HW126846   5.567   5.505   6.101
 8649SOL    HW226847   5.682   5.594   6.028
 8650SOL     OW26848   2.098   5.086   4.421
 8650SOL    HW126849   2.188   5.065   4.460
 8650SOL    HW226850   2.071   5.013   4.358
 8651SOL     OW26851   4.621   0.421   0.281
 8651SOL    HW126852   4.643   0.377   0.369
 8651SOL    HW226853   4.609   0.351   0.211
 8652SOL     OW26854   1.976   5.052   3.485
 8652SOL    HW126855   1.979   5.108   3.402
 8652SOL    HW226856   1.999   4.957   3.462
 8653SOL     OW26857   6.266   0.416   6.343
 8653SOL    HW126858   6.319   0.499   6.357
 8653SOL    HW226859   6.173   0.440   6.315
 8654SOL     OW26860   1.266   4.698   2.083
 8654SOL    HW126861   1.244   4.775   2.143
 8654SOL    HW226862   1.312   4.732   2.000
 8655SOL     OW26863   6.556   1.049   4.313
 8655SOL    HW126864   6.646   1.013   4.288
 8655SOL    HW226865   6.566   1.117   4.386
 8656SOL     OW26866   6.967   0.120   1.004
 8656SOL    HW126867   6.943   0.045   0.942
 8656SOL    HW226868   6.949   0.093   1.098
 8657SOL     OW26869   5.010   4.784   6.902
 8657SOL    HW126870   5.063   4.700   6.910
 8657SOL    HW226871   5.042   4.851   6.968
 8658SOL     OW26872   6.182   6.220   0.492
 8658SOL    HW126873   6.187   6.278   0.574
 8658SOL    HW226874   6.263   6.162   0.488
 8659SOL     OW26875   4.703   2.140   2.406
 8659SOL    HW126876   4.729   2.194   2.486
 8659SOL    HW226877   4.760   2.166   2.328
 8660SOL     OW26878   6.739   3.983   1.868
 8660SOL    HW126879   6.755   3.935   1.954
 8660SOL    HW226880   6.652   3.954   1.830
 8661SOL     OW26881   6.196   4.010   1.523
 8661SOL    HW126882   6.225   3.947   1.452
 8661SOL    HW226883   6.110   4.054   1.495
 8662SOL     OW26884   4.481   5.595   1.311
 8662SOL    HW126885   4.501   5.684   1.354
 8662SOL    HW226886   4.404   5.552   1.358
 8663SOL     OW26887   2.760   5.925   2.044
 8663SOL    HW126888   2.706   5.936   1.961
 8663SOL    HW226889   2.698   5.923   2.123
 8664SOL     OW26890   1.896   6.525   1.250
 8664SOL    HW126891   1.947   6.578   1.183
 8664SOL    HW226892   1.801   6.555   1.252
 8665SOL     OW26893   5.738   5.681   5.154
 8665SOL    HW126894   5.664   5.618   5.131
 8665SOL    HW226895   5.769   5.728   5.071
 8666SOL     OW26896   5.803   1.459   3.678
 8666SOL    HW126897   5.741   1.405   3.735
 8666SOL    HW226898   5.754   1.494   3.598
 8667SOL     OW26899   3.929   2.210   3.426
 8667SOL    HW126900   3.843   2.214   3.376
 8667SOL    HW226901   3.912   2.182   3.520
 8668SOL     OW26902   4.916   3.322   3.511
 8668SOL    HW126903   4.898   3.404   3.566
 8668SOL    HW226904   4.869   3.244   3.552
 8669SOL     OW26905   1.463   6.496   6.174
 8669SOL    HW126906   1.494   6.409   6.212
 8669SOL    HW226907   1.403   6.480   6.095
 8670SOL     OW26908   3.910   5.038   5.603
 8670SOL    HW126909   3.937   5.103   5.532
 8670SOL    HW226910   3.854   4.965   5.563
 8671SOL     OW26911   5.638   1.730   2.959
 8671SOL    HW126912   5.566   1.674   2.918
 8671SOL    HW226913   5.680   1.787   2.888
 8672SOL     OW26914   0.967   5.599   4.187
 8672SOL    HW126915   0.982   5.545   4.104
 8672SOL    HW226916   0.953   5.695   4.162
 8673SOL     OW26917   5.235   2.901   0.127
 8673SOL    HW126918   5.206   2.981   0.180
 8673SOL    HW226919   5.313   2.926   0.070
 8674SOL     OW26920   4.701   6.150   2.812
 8674SOL    HW126921   4.666   6.097   2.889
 8674SOL    HW226922   4.684   6.101   2.727
 8675SOL     OW26923   3.787   2.119   4.494
 8675SOL    HW126924   3.869   2.154   4.540
 8675SOL    HW226925   3.707   2.137   4.550
 8676SOL     OW26926   5.507   0.113   3.078
 8676SOL    HW126927   5.421   0.063   3.070
 8676SOL    HW226928   5.583   0.053   3.052
 8677SOL     OW26929   2.389   5.478   6.006
 8677SOL    HW126930   2.419   5.469   5.911
 8677SOL    HW226931   2.438   5.411   6.062
 8678SOL     OW26932   0.175   0.152   2.382
 8678SOL    HW126933   0.158   0.248   2.364
 8678SOL    HW226934   0.257   0.142   2.438
 8679SOL     OW26935   0.350   2.137   3.410
 8679SOL    HW126936   0.415   2.189   3.465
 8679SOL    HW226937   0.351   2.171   3.316
 8680SOL     OW26938   0.635   3.378   6.906
 8680SOL    HW126939   0.648   3.279   6.899
 8680SOL    HW226940   0.553   3.404   6.855
 8681SOL     OW26941   4.662   5.123   1.327
 8681SOL    HW126942   4.644   5.158   1.419
 8681SOL    HW226943   4.683   5.199   1.265
 8682SOL     OW26944   5.607   6.204   2.457
 8682SOL    HW126945   5.535   6.194   2.526
 8682SOL    HW226946   5.652   6.292   2.469
 8683SOL     OW26947   2.030   1.730   4.286
 8683SOL    HW126948   2.083   1.680   4.355
 8683SOL    HW226949   2.079   1.727   4.198
 8684SOL     OW26950   6.090   2.670   5.131
 8684SOL    HW126951   6.132   2.737   5.070
 8684SOL    HW226952   6.120   2.685   5.225
 8685SOL     OW26953   0.104   2.027   6.672
 8685SOL    HW126954   0.125   1.931   6.653
 8685SOL    HW226955   0.066   2.035   6.764
 8686SOL     OW26956   0.340   1.447   3.510
 8686SOL    HW126957   0.245   1.461   3.536
 8686SOL    HW226958   0.345   1.406   3.419
 8687SOL     OW26959   4.921   4.773   1.852
 8687SOL    HW126960   4.981   4.763   1.773
 8687SOL    HW226961   4.976   4.773   1.936
 8688SOL     OW26962   1.273   5.326   6.238
 8688SOL    HW126963   1.251   5.246   6.181
 8688SOL    HW226964   1.368   5.321   6.268
 8689SOL     OW26965   3.646   3.864   0.710
 8689SOL    HW126966   3.676   3.788   0.767
 8689SOL    HW226967   3.653   3.838   0.614
 8690SOL     OW26968   1.499   4.075   3.811
 8690SOL    HW126969   1.452   4.025   3.738
 8690SOL    HW226970   1.553   4.011   3.866
 8691SOL     OW26971   4.100   1.909   5.715
 8691SOL    HW126972   4.050   1.976   5.769
 8691SOL    HW226973   4.037   1.838   5.683
 8692SOL     OW26974   3.113   1.445   4.604
 8692SOL    HW126975   3.019   1.472   4.582
 8692SOL    HW226976   3.111   1.378   4.679
 8693SOL     OW26977   5.455   0.280   0.257
 8693SOL    HW126978   5.553   0.270   0.237
 8693SOL    HW226979   5.407   0.308   0.174
 8694SOL     OW26980   4.714   0.799   5.085
 8694SOL    HW126981   4.731   0.708   5.123
 8694SOL    HW226982   4.628   0.835   5.122
 8695SOL     OW26983   3.841   2.801   5.813
 8695SOL    HW126984   3.939   2.815   5.822
 8695SOL    HW226985   3.824   2.714   5.766
 8696SOL     OW26986   1.984   4.817   5.420
 8696SOL    HW126987   2.008   4.913   5.412
 8696SOL    HW226988   2.067   4.762   5.425
 8697SOL     OW26989   0.049   3.322   6.472
 8697SOL    HW126990   0.091   3.306   6.383
 8697SOL    HW226991   6.978   3.299   6.467
 8698SOL     OW26992   4.650   5.802   5.201
 8698SOL    HW126993   4.665   5.778   5.105
 8698SOL    HW226994   4.705   5.742   5.260
 8699SOL     OW26995   1.233   2.531   4.998
 8699SOL    HW126996   1.239   2.486   4.909
 8699SOL    HW226997   1.225   2.463   5.070
 8700SOL     OW26998   1.322   1.027   4.311
 8700SOL    HW126999   1.253   1.099   4.300
 8700SOL    HW227000   1.301   0.950   4.250
 8701SOL     OW27001   1.738   0.874   6.763
 8701SOL    HW127002   1.675   0.798   6.746
 8701SOL    HW227003   1.737   0.936   6.685
 8702SOL     OW27004   5.217   5.102   1.510
 8702SOL    HW127005   5.294   5.078   1.570
 8702SOL    HW227006   5.250   5.160   1.435
 8703SOL     OW27007   2.477   5.234   0.017
 8703SOL    HW127008   2.432   5.322   0.031
 8703SOL    HW227009   2.514   5.202   0.104
 8704SOL     OW27010   0.291   4.117   3.137
 8704SOL    HW127011   0.321   4.211   3.153
 8704SOL    HW227012   0.217   4.118   3.069
 8705SOL     OW27013   5.340   1.131   6.742
 8705SOL    HW127014   5.283   1.075   6.682
 8705SOL    HW227015   5.285   1.161   6.821
 8706SOL     OW27016   5.376   1.898   6.791
 8706SOL    HW127017   5.338   1.888   6.883
 8706SOL    HW227018   5.308   1.941   6.732
 8707SOL     OW27019   6.962   1.419   6.092
 8707SOL    HW127020   6.927   1.365   6.015
 8707SOL    HW227021   6.924   1.511   6.088
 8708SOL     OW27022   4.279   1.318   2.571
 8708SOL    HW127023   4.325   1.401   2.539
 8708SOL    HW227024   4.188   1.341   2.604
 8709SOL     OW27025   6.910   6.740   0.384
 8709SOL    HW127026   6.860   6.798   0.320
 8709SOL    HW227027   6.981   6.689   0.335
 8710SOL     OW27028   2.267   2.962   3.647
 8710SOL    HW127029   2.320   2.946   3.563
 8710SOL    HW227030   2.174   2.928   3.635
 8711SOL     OW27031   1.940   6.803   2.935
 8711SOL    HW127032   1.931   6.797   3.034
 8711SOL    HW227033   1.853   6.783   2.891
 8712SOL     OW27034   4.038   2.219   4.609
 8712SOL    HW127035   4.121   2.256   4.567
 8712SOL    HW227036   4.039   2.237   4.707
 8713SOL     OW27037   6.224   3.226   3.622
 8713SOL    HW127038   6.228   3.127   3.606
 8713SOL    HW227039   6.171   3.270   3.550
 8714SOL     OW27040   0.874   0.139   5.384
 8714SOL    HW127041   0.939   0.101   5.319
 8714SOL    HW227042   0.906   0.123   5.477
 8715SOL     OW27043   4.336   0.342   1.175
 8715SOL    HW127044   4.311   0.375   1.085
 8715SOL    HW227045   4.336   0.242   1.175
 8716SOL     OW27046   0.126   0.315   0.848
 8716SOL    HW127047   0.070   0.242   0.888
 8716SOL    HW227048   0.119   0.310   0.748
 8717SOL     OW27049   2.877   3.407   4.747
 8717SOL    HW127050   2.887   3.335   4.678
 8717SOL    HW227051   2.939   3.388   4.824
 8718SOL     OW27052   1.608   3.159   5.533
 8718SOL    HW127053   1.562   3.159   5.444
 8718SOL    HW227054   1.707   3.166   5.520
 8719SOL     OW27055   4.454   6.944   6.682
 8719SOL    HW127056   4.366   6.979   6.651
 8719SOL    HW227057   4.519   6.944   6.606
 8720SOL     OW27058   0.121   5.181   6.009
 8720SOL    HW127059   0.109   5.122   5.929
 8720SOL    HW227060   0.185   5.254   5.986
 8721SOL     OW27061   6.732   2.749   1.637
 8721SOL    HW127062   6.768   2.791   1.720
 8721SOL    HW227063   6.634   2.732   1.649
 8722SOL     OW27064   3.423   1.011   0.180
 8722SOL    HW127065   3.502   0.950   0.181
 8722SOL    HW227066   3.345   0.965   0.222
 8723SOL     OW27067   4.799   6.433   1.908
 8723SOL    HW127068   4.735   6.462   1.979
 8723SOL    HW227069   4.886   6.407   1.950
 8724SOL     OW27070   5.143   6.707   4.861
 8724SOL    HW127071   5.200   6.627   4.880
 8724SOL    HW227072   5.047   6.681   4.865
 8725SOL     OW27073   1.426   6.248   5.647
 8725SOL    HW127074   1.408   6.280   5.740
 8725SOL    HW227075   1.476   6.161   5.650
 8726SOL     OW27076   0.004   1.710   3.767
 8726SOL    HW127077   0.003   1.809   3.781
 8726SOL    HW227078   7.023   1.664   3.856
 8727SOL     OW27079   5.028   0.158   2.092
 8727SOL    HW127080   4.930   0.166   2.111
 8727SOL    HW227081   5.079   0.206   2.162
 8728SOL     OW27082   6.257   1.107   2.172
 8728SOL    HW127083   6.311   1.085   2.091
 8728SOL    HW227084   6.287   1.050   2.248
 8729SOL     OW27085   3.965   5.299   5.463
 8729SOL    HW127086   3.938   5.321   5.557
 8729SOL    HW227087   3.898   5.338   5.400
 8730SOL     OW27088   5.689   4.435   2.686
 8730SOL    HW127089   5.621   4.364   2.707
 8730SOL    HW227090   5.767   4.426   2.748
 8731SOL     OW27091   1.621   2.706   3.071
 8731SOL    HW127092   1.590   2.757   3.152
 8731SOL    HW227093   1.721   2.710   3.066
 8732SOL     OW27094   5.786   4.802   1.470
 8732SOL    HW127095   5.690   4.821   1.491
 8732SOL    HW227096   5.806   4.706   1.491
 8733SOL     OW27097   2.086   5.368   1.469
 8733SOL    HW127098   2.126   5.457   1.490
 8733SOL    HW227099   2.152   5.312   1.419
 8734SOL     OW27100   1.180   3.845   2.008
 8734SOL    HW127101   1.136   3.774   2.062
 8734SOL    HW227102   1.110   3.903   1.965
 8735SOL     OW27103   0.828   2.621   0.330
 8735SOL    HW127104   0.911   2.635   0.275
 8735SOL    HW227105   0.854   2.587   0.420
 8736SOL     OW27106   0.191   5.336   0.481
 8736SOL    HW127107   0.197   5.373   0.574
 8736SOL    HW227108   0.280   5.344   0.436
 8737SOL     OW27109   1.665   6.229   0.195
 8737SOL    HW127110   1.626   6.287   0.266
 8737SOL    HW227111   1.758   6.203   0.220
 8738SOL     OW27112   3.031   5.349   4.362
 8738SOL    HW127113   3.023   5.445   4.338
 8738SOL    HW227114   2.950   5.299   4.330
 8739SOL     OW27115   6.143   5.719   6.866
 8739SOL    HW127116   6.054   5.723   6.911
 8739SOL    HW227117   6.176   5.811   6.849
 8740SOL     OW27118   4.276   1.078   4.516
 8740SOL    HW127119   4.260   0.986   4.481
 8740SOL    HW227120   4.189   1.128   4.519
 8741SOL     OW27121   2.443   1.184   2.219
 8741SOL    HW127122   2.481   1.092   2.223
 8741SOL    HW227123   2.376   1.196   2.292
 8742SOL     OW27124   5.036   6.342   2.009
 8742SOL    HW127125   5.078   6.281   1.941
 8742SOL    HW227126   5.005   6.288   2.087
 8743SOL     OW27127   1.525   0.166   2.333
 8743SOL    HW127128   1.468   0.225   2.390
 8743SOL    HW227129   1.475   0.083   2.309
 8744SOL     OW27130   3.685   2.813   6.831
 8744SOL    HW127131   3.608   2.870   6.859
 8744SOL    HW227132   3.652   2.724   6.801
 8745SOL     OW27133   6.563   2.054   6.470
 8745SOL    HW127134   6.614   2.002   6.539
 8745SOL    HW227135   6.612   2.049   6.383
 8746SOL     OW27136   4.898   5.621   4.757
 8746SOL    HW127137   4.861   5.648   4.668
 8746SOL    HW227138   4.823   5.611   4.823
 8747SOL     OW27139   0.505   2.311   3.532
 8747SOL    HW127140   0.565   2.369   3.477
 8747SOL    HW227141   0.426   2.364   3.562
 8748SOL     OW27142   0.146   1.228   4.408
 8748SOL    HW127143   0.219   1.168   4.440
 8748SOL    HW227144   0.135   1.219   4.309
 8749SOL     OW27145   2.290   0.596   5.074
 8749SOL    HW127146   2.387   0.614   5.056
 8749SOL    HW227147   2.269   0.501   5.052
 8750SOL     OW27148   2.971   3.662   4.708
 8750SOL    HW127149   3.059   3.628   4.674
 8750SOL    HW227150   2.903   3.589   4.705
 8751SOL     OW27151   6.303   1.838   2.208
 8751SOL    HW127152   6.281   1.903   2.135
 8751SOL    HW227153   6.295   1.883   2.297
 8752SOL     OW27154   3.526   3.146   6.338
 8752SOL    HW127155   3.469   3.091   6.399
 8752SOL    HW227156   3.620   3.112   6.341
 8753SOL     OW27157   3.203   1.433   6.584
 8753SOL    HW127158   3.266   1.496   6.629
 8753SOL    HW227159   3.255   1.373   6.523
 8754SOL     OW27160   1.869   3.799   5.669
 8754SOL    HW127161   1.818   3.839   5.593
 8754SOL    HW227162   1.805   3.770   5.741
 8755SOL     OW27163   2.325   1.313   0.964
 8755SOL    HW127164   2.226   1.324   0.955
 8755SOL    HW227165   2.371   1.376   0.902
 8756SOL     OW27166   1.191   3.461   3.980
 8756SOL    HW127167   1.287   3.443   4.000
 8756SOL    HW227168   1.165   3.549   4.021
 8757SOL     OW27169   3.756   5.492   6.662
 8757SOL    HW127170   3.673   5.447   6.695
 8757SOL    HW227171   3.835   5.436   6.687
 8758SOL     OW27172   4.904   5.795   2.817
 8758SOL    HW127173   4.927   5.842   2.902
 8758SOL    HW227174   4.904   5.861   2.742
 8759SOL     OW27175   4.728   2.666   6.507
 8759SOL    HW127176   4.660   2.655   6.579
 8759SOL    HW227177   4.774   2.579   6.491
 8760SOL     OW27178   2.460   0.774   5.291
 8760SOL    HW127179   2.506   0.699   5.338
 8760SOL    HW227180   2.527   0.844   5.265
 8761SOL     OW27181   6.072   2.441   1.642
 8761SOL    HW127182   6.085   2.351   1.602
 8761SOL    HW227183   5.976   2.468   1.635
 8762SOL     OW27184   1.247   4.280   3.137
 8762SOL    HW127185   1.217   4.373   3.118
 8762SOL    HW227186   1.260   4.231   3.051
 8763SOL     OW27187   6.426   6.597   6.214
 8763SOL    HW127188   6.383   6.517   6.171
 8763SOL    HW227189   6.477   6.568   6.295
 8764SOL     OW27190   5.256   6.973   4.869
 8764SOL    HW127191   5.214   7.013   4.950
 8764SOL    HW227192   5.217   6.882   4.852
 8765SOL     OW27193   5.331   6.977   3.626
 8765SOL    HW127194   5.245   7.011   3.587
 8765SOL    HW227195   5.335   6.878   3.615
 8766SOL     OW27196   4.386   4.859   4.478
 8766SOL    HW127197   4.411   4.856   4.575
 8766SOL    HW227198   4.288   4.877   4.470
 8767SOL     OW27199   4.947   5.608   3.124
 8767SOL    HW127200   4.942   5.526   3.180
 8767SOL    HW227201   5.035   5.611   3.076
 8768SOL     OW27202   1.209   2.451   7.013
 8768SOL    HW127203   1.281   2.520   7.009
 8768SOL    HW227204   1.250   2.361   7.022
 8769SOL     OW27205   0.062   1.036   3.648
 8769SOL    HW127206   0.136   1.090   3.689
 8769SOL    HW227207   0.020   0.979   3.719
 8770SOL     OW27208   4.257   4.669   2.124
 8770SOL    HW127209   4.334   4.612   2.155
 8770SOL    HW227210   4.269   4.762   2.158
 8771SOL     OW27211   1.139   1.442   6.287
 8771SOL    HW127212   1.061   1.404   6.238
 8771SOL    HW227213   1.200   1.369   6.315
 8772SOL     OW27214   4.867   0.505   6.366
 8772SOL    HW127215   4.935   0.455   6.420
 8772SOL    HW227216   4.776   0.465   6.382
 8773SOL     OW27217   5.261   2.466   3.709
 8773SOL    HW127218   5.262   2.470   3.809
 8773SOL    HW227219   5.335   2.523   3.673
 8774SOL     OW27220   1.442   0.943   6.864
 8774SOL    HW127221   1.496   1.024   6.847
 8774SOL    HW227222   1.391   0.918   6.781
 8775SOL     OW27223   5.520   6.881   5.598
 8775SOL    HW127224   5.576   6.798   5.601
 8775SOL    HW227225   5.541   6.934   5.516
 8776SOL     OW27226   4.525   2.996   0.441
 8776SOL    HW127227   4.505   2.903   0.409
 8776SOL    HW227228   4.567   3.048   0.367
 8777SOL     OW27229   6.515   4.428   3.360
 8777SOL    HW127230   6.549   4.361   3.426
 8777SOL    HW227231   6.546   4.401   3.268
 8778SOL     OW27232   5.787   3.421   5.966
 8778SOL    HW127233   5.693   3.388   5.966
 8778SOL    HW227234   5.838   3.377   5.891
 8779SOL     OW27235   2.899   5.220   2.257
 8779SOL    HW127236   2.856   5.133   2.233
 8779SOL    HW227237   2.829   5.293   2.258
 8780SOL     OW27238   0.191   6.612   2.717
 8780SOL    HW127239   0.259   6.595   2.646
 8780SOL    HW227240   0.137   6.693   2.692
 8781SOL     OW27241   5.055   0.829   3.848
 8781SOL    HW127242   5.066   0.910   3.905
 8781SOL    HW227243   5.132   0.821   3.786
 8782SOL     OW27244   6.597   6.768   1.576
 8782SOL    HW127245   6.644   6.718   1.648
 8782SOL    HW227246   6.579   6.707   1.499
 8783SOL     OW27247   6.419   4.736   3.981
 8783SOL    HW127248   6.418   4.776   4.073
 8783SOL    HW227249   6.512   4.707   3.959
 8784SOL     OW27250   6.577   4.747   5.744
 8784SOL    HW127251   6.665   4.794   5.741
 8784SOL    HW227252   6.589   4.652   5.771
 8785SOL     OW27253   5.538   4.430   0.083
 8785SOL    HW127254   5.482   4.366   0.135
 8785SOL    HW227255   5.573   4.501   0.145
 8786SOL     OW27256   2.778   0.985   0.264
 8786SOL    HW127257   2.735   1.010   0.177
 8786SOL    HW227258   2.709   0.941   0.322
 8787SOL     OW27259   3.400   1.483   1.753
 8787SOL    HW127260   3.391   1.536   1.669
 8787SOL    HW227261   3.471   1.523   1.810
 8788SOL     OW27262   6.128   0.402   5.038
 8788SOL    HW127263   6.037   0.367   5.016
 8788SOL    HW227264   6.143   0.488   4.988
 8789SOL     OW27265   6.130   6.216   4.007
 8789SOL    HW127266   6.207   6.160   3.976
 8789SOL    HW227267   6.049   6.194   3.951
 8790SOL     OW27268   6.914   0.431   6.226
 8790SOL    HW127269   6.913   0.364   6.301
 8790SOL    HW227270   6.846   0.405   6.158
 8791SOL     OW27271   5.201   6.108   5.377
 8791SOL    HW127272   5.248   6.166   5.310
 8791SOL    HW227273   5.136   6.049   5.329
 8792SOL     OW27274   2.638   5.839   3.178
 8792SOL    HW127275   2.644   5.856   3.080
 8792SOL    HW227276   2.542   5.839   3.206
 8793SOL     OW27277   1.458   4.578   2.587
 8793SOL    HW127278   1.423   4.518   2.659
 8793SOL    HW227279   1.388   4.589   2.516
 8794SOL     OW27280   4.490   0.091   2.549
 8794SOL    HW127281   4.512   0.048   2.462
 8794SOL    HW227282   4.573   0.131   2.588
 8795SOL     OW27283   1.429   4.320   5.463
 8795SOL    HW127284   1.382   4.405   5.443
 8795SOL    HW227285   1.528   4.334   5.460
 8796SOL     OW27286   4.301   2.352   4.558
 8796SOL    HW127287   4.374   2.330   4.494
 8796SOL    HW227288   4.249   2.431   4.524
 8797SOL     OW27289   0.347   0.408   6.821
 8797SOL    HW127290   0.290   0.431   6.900
 8797SOL    HW227291   0.362   0.489   6.765
 8798SOL     OW27292   5.219   5.618   6.673
 8798SOL    HW127293   5.123   5.643   6.683
 8798SOL    HW227294   5.264   5.681   6.610
 8799SOL     OW27295   2.634   4.604   3.577
 8799SOL    HW127296   2.654   4.661   3.656
 8799SOL    HW227297   2.550   4.552   3.593
 8800SOL     OW27298   6.399   4.507   6.029
 8800SOL    HW127299   6.343   4.440   5.980
 8800SOL    HW227300   6.339   4.567   6.083
 8801SOL     OW27301   6.867   1.271   4.816
 8801SOL    HW127302   6.963   1.284   4.790
 8801SOL    HW227303   6.813   1.347   4.780
 8802SOL     OW27304   2.242   0.102   6.825
 8802SOL    HW127305   2.296   0.172   6.871
 8802SOL    HW227306   2.203   0.140   6.741
 8803SOL     OW27307   0.192   6.374   6.976
 8803SOL    HW127308   0.280   6.398   6.935
 8803SOL    HW227309   0.139   6.318   6.913
 8804SOL     OW27310   2.600   6.811   2.086
 8804SOL    HW127311   2.512   6.790   2.128
 8804SOL    HW227312   2.667   6.741   2.112
 8805SOL     OW27313   3.077   6.310   3.666
 8805SOL    HW127314   3.099   6.333   3.571
 8805SOL    HW227315   3.080   6.393   3.722
 8806SOL     OW27316   3.325   4.812   1.826
 8806SOL    HW127317   3.311   4.874   1.748
 8806SOL    HW227318   3.421   4.785   1.830
 8807SOL     OW27319   5.082   0.321   6.979
 8807SOL    HW127320   5.026   0.262   6.921
 8807SOL    HW227321   5.139   0.265   0.013
 8808SOL     OW27322   6.011   2.637   6.795
 8808SOL    HW127323   5.969   2.723   6.823
 8808SOL    HW227324   5.942   2.577   6.756
 8809SOL     OW27325   4.011   5.075   3.649
 8809SOL    HW127326   4.111   5.082   3.648
 8809SOL    HW227327   3.984   4.981   3.633
 8810SOL     OW27328   6.088   0.629   4.666
 8810SOL    HW127329   6.139   0.712   4.686
 8810SOL    HW227330   6.002   0.629   4.718
 8811SOL     OW27331   3.629   1.264   2.548
 8811SOL    HW127332   3.613   1.317   2.465
 8811SOL    HW227333   3.594   1.315   2.627
 8812SOL     OW27334   1.808   0.850   0.437
 8812SOL    HW127335   1.888   0.798   0.467
 8812SOL    HW227336   1.824   0.884   0.344
 8813SOL     OW27337   2.073   5.293   2.311
 8813SOL    HW127338   2.138   5.368   2.301
 8813SOL    HW227339   2.098   5.219   2.248
 8814SOL     OW27340   6.276   0.024   0.658
 8814SOL    HW127341   6.318   0.084   0.591
 8814SOL    HW227342   6.203   6.997   0.615
 8815SOL     OW27343   5.691   6.868   0.941
 8815SOL    HW127344   5.774   6.922   0.957
 8815SOL    HW227345   5.709   6.800   0.870
 8816SOL     OW27346   1.406   6.489   0.722
 8816SOL    HW127347   1.338   6.448   0.661
 8816SOL    HW227348   1.411   6.587   0.705
 8817SOL     OW27349   0.038   4.764   3.904
 8817SOL    HW127350   0.003   4.855   3.925
 8817SOL    HW227351   0.130   4.772   3.866
 8818SOL     OW27352   0.778   4.430   4.657
 8818SOL    HW127353   0.759   4.342   4.613
 8818SOL    HW227354   0.741   4.429   4.750
 8819SOL     OW27355   5.561   4.851   5.107
 8819SOL    HW127356   5.643   4.828   5.159
 8819SOL    HW227357   5.537   4.774   5.047
 8820SOL     OW27358   2.851   0.670   5.462
 8820SOL    HW127359   2.894   0.749   5.505
 8820SOL    HW227360   2.904   0.642   5.382
 8821SOL     OW27361   1.825   6.208   1.062
 8821SOL    HW127362   1.762   6.281   1.092
 8821SOL    HW227363   1.805   6.185   0.966
 8822SOL     OW27364   0.871   0.514   4.229
 8822SOL    HW127365   0.779   0.525   4.192
 8822SOL    HW227366   0.882   0.422   4.266
 8823SOL     OW27367   2.294   0.989   2.802
 8823SOL    HW127368   2.237   0.994   2.719
 8823SOL    HW227369   2.261   1.055   2.869
 8824SOL     OW27370   1.436   1.819   0.244
 8824SOL    HW127371   1.354   1.867   0.213
 8824SOL    HW227372   1.450   1.738   0.186
 8825SOL     OW27373   1.821   0.910   2.240
 8825SOL    HW127374   1.828   0.922   2.141
 8825SOL    HW227375   1.807   0.999   2.283
 8826SOL     OW27376   0.896   3.881   0.720
 8826SOL    HW127377   0.828   3.884   0.647
 8826SOL    HW227378   0.987   3.894   0.681
 8827SOL     OW27379   4.339   1.645   2.067
 8827SOL    HW127380   4.371   1.653   2.162
 8827SOL    HW227381   4.333   1.736   2.027
 8828SOL     OW27382   4.014   5.410   6.425
 8828SOL    HW127383   3.932   5.396   6.369
 8828SOL    HW227384   4.035   5.508   6.428
 8829SOL     OW27385   5.243   2.903   1.053
 8829SOL    HW127386   5.183   2.913   1.132
 8829SOL    HW227387   5.337   2.926   1.080
 8830SOL     OW27388   1.160   2.055   2.516
 8830SOL    HW127389   1.241   2.109   2.492
 8830SOL    HW227390   1.164   2.031   2.613
 8831SOL     OW27391   4.583   2.540   3.934
 8831SOL    HW127392   4.524   2.479   3.987
 8831SOL    HW227393   4.609   2.494   3.849
 8832SOL     OW27394   6.974   6.787   2.908
 8832SOL    HW127395   6.914   6.728   2.855
 8832SOL    HW227396   6.921   6.835   2.977
 8833SOL     OW27397   2.508   4.734   5.856
 8833SOL    HW127398   2.480   4.641   5.880
 8833SOL    HW227399   2.477   4.756   5.763
 8834SOL     OW27400   5.897   4.208   5.172
 8834SOL    HW127401   5.846   4.204   5.258
 8834SOL    HW227402   5.866   4.135   5.111
 8835SOL     OW27403   4.916   0.811   5.836
 8835SOL    HW127404   4.849   0.743   5.806
 8835SOL    HW227405   4.979   0.769   5.902
 8836SOL     OW27406   5.049   1.763   0.167
 8836SOL    HW127407   4.972   1.774   0.230
 8836SOL    HW227408   5.039   1.678   0.116
 8837SOL     OW27409   6.976   6.378   2.128
 8837SOL    HW127410   6.925   6.301   2.092
 8837SOL    HW227411   6.984   6.370   2.227
 8838SOL     OW27412   2.225   5.235   3.250
 8838SOL    HW127413   2.139   5.188   3.232
 8838SOL    HW227414   2.223   5.326   3.208
 8839SOL     OW27415   5.219   5.661   1.899
 8839SOL    HW127416   5.222   5.689   1.803
 8839SOL    HW227417   5.247   5.738   1.957
 8840SOL     OW27418   0.054   1.950   3.237
 8840SOL    HW127419   0.014   2.010   3.168
 8840SOL    HW227420   7.007   1.912   3.294
 8841SOL     OW27421   0.793   0.878   4.622
 8841SOL    HW127422   0.769   0.829   4.706
 8841SOL    HW227423   0.866   0.828   4.574
 8842SOL     OW27424   3.524   2.877   2.338
 8842SOL    HW127425   3.471   2.807   2.291
 8842SOL    HW227426   3.478   2.966   2.327
 8843SOL     OW27427   2.124   3.348   5.726
 8843SOL    HW127428   2.203   3.298   5.690
 8843SOL    HW227429   2.144   3.446   5.728
 8844SOL     OW27430   0.321   1.361   5.830
 8844SOL    HW127431   0.388   1.300   5.872
 8844SOL    HW227432   0.270   1.312   5.759
 8845SOL     OW27433   3.393   3.857   0.625
 8845SOL    HW127434   3.478   3.862   0.678
 8845SOL    HW227435   3.389   3.933   0.560
 8846SOL     OW27436   3.577   5.316   4.141
 8846SOL    HW127437   3.534   5.239   4.189
 8846SOL    HW227438   3.531   5.331   4.054
 8847SOL     OW27439   2.561   1.681   2.926
 8847SOL    HW127440   2.579   1.583   2.939
 8847SOL    HW227441   2.613   1.714   2.847
 8848SOL     OW27442   2.557   2.118   2.285
 8848SOL    HW127443   2.585   2.152   2.195
 8848SOL    HW227444   2.505   2.189   2.332
 8849SOL     OW27445   2.830   6.341   3.313
 8849SOL    HW127446   2.874   6.268   3.261
 8849SOL    HW227447   2.770   6.394   3.253
 8850SOL     OW27448   1.456   1.971   6.435
 8850SOL    HW127449   1.389   1.942   6.503
 8850SOL    HW227450   1.522   2.032   6.478
 8851SOL     OW27451   1.110   5.828   2.088
 8851SOL    HW127452   1.208   5.847   2.076
 8851SOL    HW227453   1.099   5.738   2.130
 8852SOL     OW27454   4.836   3.606   5.637
 8852SOL    HW127455   4.802   3.576   5.726
 8852SOL    HW227456   4.759   3.632   5.579
 8853SOL     OW27457   2.663   1.359   0.156
 8853SOL    HW127458   2.721   1.343   0.076
 8853SOL    HW227459   2.716   1.346   0.240
 8854SOL     OW27460   3.511   1.104   5.921
 8854SOL    HW127461   3.503   1.203   5.914
 8854SOL    HW227462   3.587   1.073   5.863
 8855SOL     OW27463   0.379   6.042   1.332
 8855SOL    HW127464   0.399   5.950   1.366
 8855SOL    HW227465   0.371   6.105   1.409
 8856SOL     OW27466   0.426   6.449   6.813
 8856SOL    HW127467   0.484   6.368   6.803
 8856SOL    HW227468   0.478   6.530   6.786
 8857SOL     OW27469   6.745   1.918   3.985
 8857SOL    HW127470   6.830   1.952   3.946
 8857SOL    HW227471   6.676   1.991   3.981
 8858SOL     OW27472   0.663   2.198   5.018
 8858SOL    HW127473   0.566   2.192   4.996
 8858SOL    HW227474   0.691   2.114   5.066
 8859SOL     OW27475   0.003   0.683   3.777
 8859SOL    HW127476   6.957   0.750   3.789
 8859SOL    HW227477   0.054   0.702   3.693
 8860SOL     OW27478   0.490   2.866   2.942
 8860SOL    HW127479   0.523   2.960   2.934
 8860SOL    HW227480   0.459   2.834   2.853
 8861SOL     OW27481   4.492   1.311   6.000
 8861SOL    HW127482   4.441   1.316   6.086
 8861SOL    HW227483   4.540   1.397   5.985
 8862SOL     OW27484   5.522   0.978   4.168
 8862SOL    HW127485   5.560   0.891   4.137
 8862SOL    HW227486   5.447   0.960   4.232
 8863SOL     OW27487   1.450   4.904   4.066
 8863SOL    HW127488   1.453   4.822   4.124
 8863SOL    HW227489   1.543   4.938   4.051
 8864SOL     OW27490   3.432   4.894   6.413
 8864SOL    HW127491   3.525   4.859   6.399
 8864SOL    HW227492   3.432   4.993   6.404
 8865SOL     OW27493   3.164   1.279   6.040
 8865SOL    HW127494   3.106   1.248   5.965
 8865SOL    HW227495   3.108   1.292   6.122
 8866SOL     OW27496   5.366   6.860   2.984
 8866SOL    HW127497   5.333   6.778   2.937
 8866SOL    HW227498   5.466   6.853   2.996
 8867SOL     OW27499   5.936   3.431   2.626
 8867SOL    HW127500   5.901   3.438   2.532
 8867SOL    HW227501   6.004   3.502   2.641
 8868SOL     OW27502   6.582   2.734   1.029
 8868SOL    HW127503   6.531   2.787   0.961
 8868SOL    HW227504   6.536   2.647   1.046
 8869SOL     OW27505   3.897   6.314   4.678
 8869SOL    HW127506   3.892   6.373   4.759
 8869SOL    HW227507   3.892   6.218   4.707
 8870SOL     OW27508   3.233   0.199   0.350
 8870SOL    HW127509   3.314   0.251   0.324
 8870SOL    HW227510   3.152   0.257   0.343
 8871SOL     OW27511   2.164   1.019   4.029
 8871SOL    HW127512   2.198   1.060   4.114
 8871SOL    HW227513   2.189   0.923   4.026
 8872SOL     OW27514   1.610   3.895   5.247
 8872SOL    HW127515   1.559   3.980   5.266
 8872SOL    HW227516   1.618   3.883   5.148
 8873SOL     OW27517   0.850   6.632   1.481
 8873SOL    HW127518   0.932   6.690   1.481
 8873SOL    HW227519   0.837   6.594   1.389
 8874SOL     OW27520   1.959   5.930   2.762
 8874SOL    HW127521   1.860   5.915   2.756
 8874SOL    HW227522   2.007   5.862   2.706
 8875SOL     OW27523   0.041   3.481   5.445
 8875SOL    HW127524   0.055   3.551   5.375
 8875SOL    HW227525   6.973   3.446   5.439
 8876SOL     OW27526   1.844   6.725   4.703
 8876SOL    HW127527   1.880   6.695   4.615
 8876SOL    HW227528   1.763   6.782   4.688
 8877SOL     OW27529   3.096   1.236   3.890
 8877SOL    HW127530   3.017   1.289   3.921
 8877SOL    HW227531   3.162   1.227   3.965
 8878SOL     OW27532   6.818   4.776   6.966
 8878SOL    HW127533   6.907   4.745   6.934
 8878SOL    HW227534   6.822   4.874   6.987
 8879SOL     OW27535   4.581   4.690   2.553
 8879SOL    HW127536   4.617   4.662   2.643
 8879SOL    HW227537   4.508   4.626   2.526
 8880SOL     OW27538   5.304   5.913   5.022
 8880SOL    HW127539   5.404   5.916   5.023
 8880SOL    HW227540   5.271   5.891   5.114
 8881SOL     OW27541   5.695   6.874   3.492
 8881SOL    HW127542   5.794   6.890   3.489
 8881SOL    HW227543   5.651   6.943   3.550
 8882SOL     OW27544   5.503   0.950   1.464
 8882SOL    HW127545   5.438   0.874   1.463
 8882SOL    HW227546   5.585   0.923   1.514
 8883SOL     OW27547   1.543   6.257   6.267
 8883SOL    HW127548   1.575   6.229   6.357
 8883SOL    HW227549   1.595   6.208   6.197
 8884SOL     OW27550   6.449   4.332   6.511
 8884SOL    HW127551   6.408   4.423   6.514
 8884SOL    HW227552   6.377   4.263   6.503
 8885SOL     OW27553   6.871   3.237   1.009
 8885SOL    HW127554   6.817   3.181   0.946
 8885SOL    HW227555   6.872   3.194   1.099
 8886SOL     OW27556   3.377   0.065   4.711
 8886SOL    HW127557   3.455   0.083   4.651
 8886SOL    HW227558   3.329   7.010   4.679
 8887SOL     OW27559   3.100   1.366   0.647
 8887SOL    HW127560   3.159   1.291   0.677
 8887SOL    HW227561   3.103   1.440   0.714
 8888SOL     OW27562   1.861   1.757   5.952
 8888SOL    HW127563   1.898   1.800   6.035
 8888SOL    HW227564   1.921   1.777   5.875
 8889SOL     OW27565   6.706   0.310   6.113
 8889SOL    HW127566   6.722   0.286   6.017
 8889SOL    HW227567   6.642   0.387   6.118
 8890SOL     OW27568   6.282   5.593   3.538
 8890SOL    HW127569   6.344   5.523   3.503
 8890SOL    HW227570   6.188   5.563   3.529
 8891SOL     OW27571   4.910   3.360   6.585
 8891SOL    HW127572   4.932   3.284   6.524
 8891SOL    HW227573   4.822   3.400   6.558
 8892SOL     OW27574   3.215   5.814   3.020
 8892SOL    HW127575   3.259   5.728   3.048
 8892SOL    HW227576   3.133   5.828   3.075
 8893SOL     OW27577   0.631   6.382   3.164
 8893SOL    HW127578   0.671   6.462   3.120
 8893SOL    HW227579   0.694   6.305   3.157
 8894SOL     OW27580   3.895   2.544   6.321
 8894SOL    HW127581   3.886   2.611   6.247
 8894SOL    HW227582   3.992   2.525   6.336
 8895SOL     OW27583   6.502   2.576   2.252
 8895SOL    HW127584   6.505   2.597   2.155
 8895SOL    HW227585   6.422   2.618   2.293
 8896SOL     OW27586   2.546   3.102   5.418
 8896SOL    HW127587   2.530   3.053   5.332
 8896SOL    HW227588   2.560   3.036   5.492
 8897SOL     OW27589   1.949   2.517   3.625
 8897SOL    HW127590   2.036   2.528   3.673
 8897SOL    HW227591   1.961   2.536   3.528
 8898SOL     OW27592   5.234   2.823   2.503
 8898SOL    HW127593   5.135   2.814   2.490
 8898SOL    HW227594   5.254   2.838   2.600
 8899SOL     OW27595   1.623   5.850   1.324
 8899SOL    HW127596   1.691   5.791   1.280
 8899SOL    HW227597   1.625   5.836   1.423
 8900SOL     OW27598   6.091   2.973   2.657
 8900SOL    HW127599   6.103   3.051   2.719
 8900SOL    HW227600   6.181   2.939   2.629
 8901SOL     OW27601   2.130   0.838   5.053
 8901SOL    HW127602   2.216   0.869   5.013
 8901SOL    HW227603   2.107   0.748   5.015
 8902SOL     OW27604   2.244   0.190   0.614
 8902SOL    HW127605   2.285   0.111   0.660
 8902SOL    HW227606   2.255   0.272   0.671
 8903SOL     OW27607   0.979   1.481   5.091
 8903SOL    HW127608   0.926   1.564   5.073
 8903SOL    HW227609   1.034   1.494   5.173
 8904SOL     OW27610   5.718   6.939   3.876
 8904SOL    HW127611   5.660   6.859   3.896
 8904SOL    HW227612   5.669   7.001   3.816
 8905SOL     OW27613   0.977   4.462   4.043
 8905SOL    HW127614   0.905   4.477   3.975
 8905SOL    HW227615   1.048   4.531   4.034
 8906SOL     OW27616   0.840   6.100   6.714
 8906SOL    HW127617   0.766   6.049   6.758
 8906SOL    HW227618   0.896   6.145   6.784
 8907SOL     OW27619   2.543   2.086   5.058
 8907SOL    HW127620   2.484   2.166   5.049
 8907SOL    HW227621   2.580   2.062   4.968
 8908SOL     OW27622   1.435   4.768   6.685
 8908SOL    HW127623   1.336   4.759   6.699
 8908SOL    HW227624   1.461   4.720   6.601
 8909SOL     OW27625   2.568   0.839   6.089
 8909SOL    HW127626   2.541   0.906   6.021
 8909SOL    HW227627   2.543   0.872   6.180
 8910SOL     OW27628   0.088   2.910   6.273
 8910SOL    HW127629   0.178   2.884   6.307
 8910SOL    HW227630   0.069   2.861   6.187
 8911SOL     OW27631   4.354   2.296   4.827
 8911SOL    HW127632   4.313   2.311   4.737
 8911SOL    HW227633   4.306   2.351   4.895
 8912SOL     OW27634   3.296   3.454   6.731
 8912SOL    HW127635   3.222   3.491   6.787
 8912SOL    HW227636   3.265   3.371   6.684
 8913SOL     OW27637   4.968   4.961   5.819
 8913SOL    HW127638   4.988   4.868   5.790
 8913SOL    HW227639   4.920   4.960   5.907
 8914SOL     OW27640   4.700   0.165   4.826
 8914SOL    HW127641   4.684   0.256   4.864
 8914SOL    HW227642   4.797   0.143   4.834
 8915SOL     OW27643   0.507   3.148   3.686
 8915SOL    HW127644   0.485   3.110   3.776
 8915SOL    HW227645   0.434   3.123   3.621
 8916SOL     OW27646   6.643   3.618   0.600
 8916SOL    HW127647   6.693   3.534   0.623
 8916SOL    HW227648   6.557   3.621   0.650
 8917SOL     OW27649   6.742   3.436   0.249
 8917SOL    HW127650   6.661   3.486   0.279
 8917SOL    HW227651   6.821   3.497   0.250
 8918SOL     OW27652   6.360   4.154   1.149
 8918SOL    HW127653   6.341   4.218   1.223
 8918SOL    HW227654   6.287   4.087   1.143
 8919SOL     OW27655   3.626   4.153   0.658
 8919SOL    HW127656   3.664   4.063   0.676
 8919SOL    HW227657   3.528   4.145   0.641
 8920SOL     OW27658   0.718   0.572   6.917
 8920SOL    HW127659   0.653   0.645   6.938
 8920SOL    HW227660   0.695   0.532   6.828
 8921SOL     OW27661   2.186   2.443   2.535
 8921SOL    HW127662   2.098   2.489   2.525
 8921SOL    HW227663   2.260   2.509   2.527
 8922SOL     OW27664   4.082   4.676   1.301
 8922SOL    HW127665   4.089   4.713   1.394
 8922SOL    HW227666   4.003   4.614   1.296
 8923SOL     OW27667   1.788   2.599   6.239
 8923SOL    HW127668   1.872   2.546   6.236
 8923SOL    HW227669   1.760   2.623   6.146
 8924SOL     OW27670   3.367   5.424   5.489
 8924SOL    HW127671   3.285   5.390   5.443
 8924SOL    HW227672   3.417   5.347   5.529
 8925SOL     OW27673   0.791   1.694   2.763
 8925SOL    HW127674   0.877   1.662   2.724
 8925SOL    HW227675   0.714   1.650   2.716
 8926SOL     OW27676   6.673   2.854   6.171
 8926SOL    HW127677   6.706   2.922   6.106
 8926SOL    HW227678   6.748   2.827   6.233
 8927SOL     OW27679   6.856   1.182   4.506
 8927SOL    HW127680   6.927   1.212   4.442
 8927SOL    HW227681   6.899   1.154   4.592
 8928SOL     OW27682   0.216   6.979   6.396
 8928SOL    HW127683   0.234   6.908   6.464
 8928SOL    HW227684   0.152   0.019   6.434
 8929SOL     OW27685   5.803   2.515   4.344
 8929SOL    HW127686   5.903   2.519   4.333
 8929SOL    HW227687   5.771   2.422   4.323
 8930SOL     OW27688   1.623   3.864   3.934
 8930SOL    HW127689   1.680   3.880   4.015
 8930SOL    HW227690   1.667   3.797   3.875
 8931SOL     OW27691   2.493   2.969   0.515
 8931SOL    HW127692   2.578   2.980   0.463
 8931SOL    HW227693   2.512   2.975   0.613
 8932SOL     OW27694   6.378   1.332   1.202
 8932SOL    HW127695   6.349   1.275   1.279
 8932SOL    HW227696   6.297   1.362   1.151
 8933SOL     OW27697   2.009   3.135   5.910
 8933SOL    HW127698   2.056   3.076   5.977
 8933SOL    HW227699   2.077   3.192   5.863
 8934SOL     OW27700   3.413   5.000   4.615
 8934SOL    HW127701   3.329   4.979   4.566
 8934SOL    HW227702   3.415   4.950   4.702
 8935SOL     OW27703   6.715   4.101   0.818
 8935SOL    HW127704   6.786   4.170   0.831
 8935SOL    HW227705   6.757   4.011   0.811
 8936SOL     OW27706   1.376   3.061   2.818
 8936SOL    HW127707   1.435   3.111   2.882
 8936SOL    HW227708   1.391   2.963   2.829
 8937SOL     OW27709   7.007   6.762   4.191
 8937SOL    HW127710   0.037   6.786   4.271
 8937SOL    HW227711   0.040   6.738   4.114
 8938SOL     OW27712   0.431   0.727   0.729
 8938SOL    HW127713   0.349   0.688   0.771
 8938SOL    HW227714   0.405   0.794   0.660
 8939SOL     OW27715   6.070   4.840   4.148
 8939SOL    HW127716   6.050   4.815   4.243
 8939SOL    HW227717   6.031   4.931   4.129
 8940SOL     OW27718   6.173   1.501   2.019
 8940SOL    HW127719   6.259   1.545   2.045
 8940SOL    HW227720   6.125   1.472   2.101
 8941SOL     OW27721   5.764   2.691   4.691
 8941SOL    HW127722   5.846   2.637   4.673
 8941SOL    HW227723   5.685   2.647   4.649
 8942SOL     OW27724   6.455   5.635   5.694
 8942SOL    HW127725   6.492   5.701   5.759
 8942SOL    HW227726   6.355   5.631   5.704
 8943SOL     OW27727   4.143   5.340   0.757
 8943SOL    HW127728   4.125   5.392   0.673
 8943SOL    HW227729   4.242   5.328   0.767
 8944SOL     OW27730   5.647   5.456   4.840
 8944SOL    HW127731   5.661   5.420   4.932
 8944SOL    HW227732   5.627   5.554   4.845
 8945SOL     OW27733   1.056   1.333   3.816
 8945SOL    HW127734   1.077   1.319   3.913
 8945SOL    HW227735   1.047   1.430   3.797
 8946SOL     OW27736   2.603   1.393   3.672
 8946SOL    HW127737   2.653   1.309   3.693
 8946SOL    HW227738   2.667   1.469   3.668
 8947SOL     OW27739   2.492   3.553   5.792
 8947SOL    HW127740   2.565   3.610   5.828
 8947SOL    HW227741   2.508   3.458   5.819
 8948SOL     OW27742   6.365   6.057   3.953
 8948SOL    HW127743   6.390   6.085   3.860
 8948SOL    HW227744   6.425   5.983   3.983
 8949SOL     OW27745   4.090   5.846   0.722
 8949SOL    HW127746   4.091   5.895   0.635
 8949SOL    HW227747   4.149   5.893   0.788
 8950SOL     OW27748   4.279   4.595   6.726
 8950SOL    HW127749   4.214   4.649   6.673
 8950SOL    HW227750   4.354   4.653   6.757
 8951SOL     OW27751   2.534   1.047   4.478
 8951SOL    HW127752   2.512   0.983   4.405
 8951SOL    HW227753   2.500   1.138   4.453
 8952SOL     OW27754   0.571   5.464   3.024
 8952SOL    HW127755   0.527   5.471   3.113
 8952SOL    HW227756   0.576   5.554   2.982
 8953SOL     OW27757   1.138   4.212   0.833
 8953SOL    HW127758   1.113   4.308   0.843
 8953SOL    HW227759   1.102   4.176   0.747
 8954SOL     OW27760   6.748   6.670   4.281
 8954SOL    HW127761   6.712   6.645   4.191
 8954SOL    HW227762   6.848   6.667   4.279
 8955SOL     OW27763   6.986   5.590   3.010
 8955SOL    HW127764   7.024   5.679   3.034
 8955SOL    HW227765   7.003   5.572   2.913
 8956SOL     OW27766   1.862   1.595   6.450
 8956SOL    HW127767   1.900   1.648   6.526
 8956SOL    HW227768   1.806   1.655   6.392
 8957SOL     OW27769   1.848   4.940   1.814
 8957SOL    HW127770   1.768   4.995   1.790
 8957SOL    HW227771   1.915   4.946   1.740
 8958SOL     OW27772   0.189   1.991   4.832
 8958SOL    HW127773   0.208   2.046   4.751
 8958SOL    HW227774   0.255   1.916   4.838
 8959SOL     OW27775   1.728   4.637   2.071
 8959SOL    HW127776   1.809   4.673   2.118
 8959SOL    HW227777   1.727   4.538   2.077
 8960SOL     OW27778   4.016   5.752   3.322
 8960SOL    HW127779   4.082   5.763   3.396
 8960SOL    HW227780   4.020   5.833   3.262
 8961SOL     OW27781   3.135   1.522   3.761
 8961SOL    HW127782   3.069   1.549   3.690
 8961SOL    HW227783   3.113   1.429   3.792
 8962SOL     OW27784   6.114   5.577   2.627
 8962SOL    HW127785   6.149   5.529   2.547
 8962SOL    HW227786   6.184   5.639   2.662
 8963SOL     OW27787   3.750   0.470   5.230
 8963SOL    HW127788   3.707   0.560   5.226
 8963SOL    HW227789   3.706   0.416   5.302
 8964SOL     OW27790   5.412   3.045   3.000
 8964SOL    HW127791   5.405   3.093   2.913
 8964SOL    HW227792   5.348   3.085   3.066
 8965SOL     OW27793   2.335   5.589   0.574
 8965SOL    HW127794   2.371   5.610   0.665
 8965SOL    HW227795   2.243   5.551   0.584
 8966SOL     OW27796   6.761   4.308   0.374
 8966SOL    HW127797   6.677   4.256   0.357
 8966SOL    HW227798   6.740   4.386   0.433
 8967SOL     OW27799   4.046   0.661   1.710
 8967SOL    HW127800   4.095   0.617   1.785
 8967SOL    HW227801   4.110   0.681   1.636
 8968SOL     OW27802   4.334   5.616   3.076
 8968SOL    HW127803   4.336   5.704   3.124
 8968SOL    HW227804   4.247   5.606   3.028
 8969SOL     OW27805   6.520   0.182   4.022
 8969SOL    HW127806   6.438   0.205   4.075
 8969SOL    HW227807   6.554   0.093   4.052
 8970SOL     OW27808   2.553   3.289   6.783
 8970SOL    HW127809   2.494   3.330   6.852
 8970SOL    HW227810   2.500   3.226   6.726
 8971SOL     OW27811   5.904   5.054   1.401
 8971SOL    HW127812   5.845   5.120   1.447
 8971SOL    HW227813   5.899   4.966   1.449
 8972SOL     OW27814   4.809   3.180   6.762
 8972SOL    HW127815   4.832   3.245   6.689
 8972SOL    HW227816   4.771   3.097   6.721
 8973SOL     OW27817   0.415   3.592   3.545
 8973SOL    HW127818   0.361   3.645   3.480
 8973SOL    HW227819   0.391   3.495   3.536
 8974SOL     OW27820   1.160   3.583   4.388
 8974SOL    HW127821   1.091   3.529   4.435
 8974SOL    HW227822   1.223   3.624   4.454
 8975SOL     OW27823   1.418   6.069   6.959
 8975SOL    HW127824   1.434   6.047   0.028
 8975SOL    HW227825   1.461   6.156   6.937
 8976SOL     OW27826   0.869   5.485   0.072
 8976SOL    HW127827   0.803   5.461   0.001
 8976SOL    HW227828   0.827   5.547   0.138
 8977SOL     OW27829   6.950   3.169   6.959
 8977SOL    HW127830   6.938   3.232   6.883
 8977SOL    HW227831   7.019   3.205   7.022
 8978SOL     OW27832   5.495   6.667   4.366
 8978SOL    HW127833   5.509   6.720   4.282
 8978SOL    HW227834   5.553   6.585   4.364
 8979SOL     OW27835   1.266   4.083   5.106
 8979SOL    HW127836   1.172   4.063   5.134
 8979SOL    HW227837   1.329   4.056   5.179
 8980SOL     OW27838   4.411   2.939   5.381
 8980SOL    HW127839   4.360   2.861   5.344
 8980SOL    HW227840   4.376   3.024   5.342
 8981SOL     OW27841   4.432   1.409   5.288
 8981SOL    HW127842   4.428   1.413   5.388
 8981SOL    HW227843   4.481   1.489   5.253
 8982SOL     OW27844   1.672   1.662   1.897
 8982SOL    HW127845   1.696   1.743   1.844
 8982SOL    HW227846   1.729   1.656   1.978
 8983SOL     OW27847   1.234   5.591   0.126
 8983SOL    HW127848   1.196   5.540   0.049
 8983SOL    HW227849   1.310   5.648   0.094
 8984SOL     OW27850   6.142   0.382   3.400
 8984SOL    HW127851   6.227   0.331   3.387
 8984SOL    HW227852   6.134   0.410   3.496
 8985SOL     OW27853   2.234   1.743   0.483
 8985SOL    HW127854   2.262   1.782   0.571
 8985SOL    HW227855   2.309   1.752   0.417
 8986SOL     OW27856   3.941   5.152   1.943
 8986SOL    HW127857   4.023   5.208   1.948
 8986SOL    HW227858   3.873   5.197   1.884
 8987SOL     OW27859   4.932   6.409   0.492
 8987SOL    HW127860   4.862   6.396   0.563
 8987SOL    HW227861   4.891   6.457   0.414
 8988SOL     OW27862   1.500   3.911   0.601
 8988SOL    HW127863   1.524   3.816   0.580
 8988SOL    HW227864   1.495   3.964   0.516
 8989SOL     OW27865   4.970   4.294   2.075
 8989SOL    HW127866   4.874   4.309   2.099
 8989SOL    HW227867   4.977   4.220   2.009
 8990SOL     OW27868   2.043   5.985   2.144
 8990SOL    HW127869   2.110   6.021   2.079
 8990SOL    HW227870   2.060   6.025   2.234
 8991SOL     OW27871   1.685   2.060   6.624
 8991SOL    HW127872   1.678   1.965   6.652
 8991SOL    HW227873   1.648   2.119   6.697
 8992SOL     OW27874   6.262   2.280   6.882
 8992SOL    HW127875   6.353   2.265   6.921
 8992SOL    HW227876   6.255   2.231   6.795
 8993SOL     OW27877   4.935   2.604   2.681
 8993SOL    HW127878   4.908   2.687   2.631
 8993SOL    HW227879   4.863   2.579   2.745
 8994SOL     OW27880   0.671   4.779   4.862
 8994SOL    HW127881   0.601   4.722   4.819
 8994SOL    HW227882   0.676   4.867   4.815
 8995SOL     OW27883   1.098   2.619   6.782
 8995SOL    HW127884   1.020   2.560   6.760
 8995SOL    HW227885   1.112   2.620   6.881
 8996SOL     OW27886   6.723   4.881   1.682
 8996SOL    HW127887   6.710   4.903   1.586
 8996SOL    HW227888   6.722   4.782   1.694
 8997SOL     OW27889   4.274   1.340   6.174
 8997SOL    HW127890   4.302   1.304   6.263
 8997SOL    HW227891   4.174   1.337   6.166
 8998SOL     OW27892   6.839   3.509   5.067
 8998SOL    HW127893   6.892   3.429   5.038
 8998SOL    HW227894   6.823   3.505   5.166
 8999SOL     OW27895   5.375   6.938   0.247
 8999SOL    HW127896   5.431   7.000   0.302
 8999SOL    HW227897   5.281   6.973   0.243
 9000SOL     OW27898   2.602   4.666   0.217
 9000SOL    HW127899   2.679   4.713   0.261
 9000SOL    HW227900   2.528   4.731   0.202
 9001SOL     OW27901   0.879   5.798   2.866
 9001SOL    HW127902   0.953   5.767   2.926
 9001SOL    HW227903   0.908   5.880   2.817
 9002SOL     OW27904   6.471   5.223   4.846
 9002SOL    HW127905   6.446   5.172   4.928
 9002SOL    HW227906   6.435   5.177   4.765
 9003SOL     OW27907   5.828   2.573   1.529
 9003SOL    HW127908   5.847   2.623   1.614
 9003SOL    HW227909   5.733   2.543   1.529
 9004SOL     OW27910   5.032   6.599   1.618
 9004SOL    HW127911   5.044   6.682   1.673
 9004SOL    HW227912   5.122   6.564   1.591
 9005SOL     OW27913   5.049   2.385   4.975
 9005SOL    HW127914   5.114   2.325   4.929
 9005SOL    HW227915   5.026   2.347   5.064
 9006SOL     OW27916   2.577   6.232   1.073
 9006SOL    HW127917   2.571   6.135   1.094
 9006SOL    HW227918   2.484   6.271   1.067
 9007SOL     OW27919   4.266   0.079   4.237
 9007SOL    HW127920   4.198   0.102   4.307
 9007SOL    HW227921   4.228   0.010   4.175
 9008SOL     OW27922   0.261   5.738   3.301
 9008SOL    HW127923   0.165   5.764   3.294
 9008SOL    HW227924   0.318   5.820   3.299
 9009SOL     OW27925   2.615   0.921   0.488
 9009SOL    HW127926   2.521   0.955   0.479
 9009SOL    HW227927   2.613   0.829   0.526
 9010SOL     OW27928   0.953   0.303   4.411
 9010SOL    HW127929   1.043   0.346   4.404
 9010SOL    HW227930   0.961   0.218   4.463
 9011SOL     OW27931   4.419   2.394   1.558
 9011SOL    HW127932   4.451   2.472   1.612
 9011SOL    HW227933   4.492   2.326   1.550
 9012SOL     OW27934   3.231   4.597   1.090
 9012SOL    HW127935   3.139   4.603   1.050
 9012SOL    HW227936   3.282   4.525   1.044
 9013SOL     OW27937   0.523   6.067   4.296
 9013SOL    HW127938   0.522   5.979   4.249
 9013SOL    HW227939   0.595   6.068   4.366
 9014SOL     OW27940   0.715   0.893   0.105
 9014SOL    HW127941   0.705   0.988   0.134
 9014SOL    HW227942   0.792   0.851   0.154
 9015SOL     OW27943   6.221   2.038   1.401
 9015SOL    HW127944   6.314   2.070   1.383
 9015SOL    HW227945   6.225   1.950   1.449
 9016SOL     OW27946   0.741   6.128   6.326
 9016SOL    HW127947   0.773   6.197   6.391
 9016SOL    HW227948   0.710   6.172   6.242
 9017SOL     OW27949   4.036   2.384   1.647
 9017SOL    HW127950   4.092   2.302   1.651
 9017SOL    HW227951   4.094   2.464   1.632
 9018SOL     OW27952   4.601   1.223   5.757
 9018SOL    HW127953   4.636   1.131   5.771
 9018SOL    HW227954   4.553   1.254   5.840
 9019SOL     OW27955   0.364   0.837   1.639
 9019SOL    HW127956   0.368   0.924   1.688
 9019SOL    HW227957   0.434   0.775   1.675
 9020SOL     OW27958   1.529   3.295   1.254
 9020SOL    HW127959   1.450   3.261   1.305
 9020SOL    HW227960   1.530   3.395   1.257
 9021SOL     OW27961   0.007   0.314   4.050
 9021SOL    HW127962   6.995   0.302   3.959
 9021SOL    HW227963   0.090   0.258   4.059
 9022SOL     OW27964   2.810   1.744   0.392
 9022SOL    HW127965   2.871   1.666   0.403
 9022SOL    HW227966   2.810   1.773   0.296
 9023SOL     OW27967   3.332   3.329   2.459
 9023SOL    HW127968   3.348   3.411   2.404
 9023SOL    HW227969   3.389   3.333   2.541
 9024SOL     OW27970   0.481   5.007   4.521
 9024SOL    HW127971   0.537   5.014   4.603
 9024SOL    HW227972   0.474   4.911   4.493
 9025SOL     OW27973   0.751   5.677   0.255
 9025SOL    HW127974   0.829   5.710   0.308
 9025SOL    HW227975   0.674   5.740   0.265
 9026SOL     OW27976   4.033   3.452   1.797
 9026SOL    HW127977   3.997   3.456   1.890
 9026SOL    HW227978   4.132   3.464   1.798
 9027SOL     OW27979   1.131   1.784   4.345
 9027SOL    HW127980   1.104   1.751   4.255
 9027SOL    HW227981   1.230   1.788   4.352
 9028SOL     OW27982   2.721   3.980   5.851
 9028SOL    HW127983   2.622   3.989   5.838
 9028SOL    HW227984   2.746   4.013   5.942
 9029SOL     OW27985   3.078   5.309   4.621
 9029SOL    HW127986   3.036   5.229   4.664
 9029SOL    HW227987   3.068   5.302   4.521
 9030SOL     OW27988   2.167   1.943   3.683
 9030SOL    HW127989   2.180   1.966   3.779
 9030SOL    HW227990   2.245   1.891   3.649
 9031SOL     OW27991   4.628   5.991   4.592
 9031SOL    HW127992   4.674   5.994   4.503
 9031SOL    HW227993   4.689   5.950   4.659
 9032SOL     OW27994   3.310   3.606   0.907
 9032SOL    HW127995   3.335   3.547   0.830
 9032SOL    HW227996   3.383   3.673   0.922
 9033SOL     OW27997   1.495   5.642   4.003
 9033SOL    HW127998   1.416   5.586   4.028
 9033SOL    HW227999   1.521   5.700   4.080
 9034SOL     OW28000   2.841   0.360   5.282
 9034SOL    HW128001   2.742   0.373   5.293
 9034SOL    HW228002   2.858   0.269   5.246
 9035SOL     OW28003   1.445   4.726   5.758
 9035SOL    HW128004   1.390   4.810   5.753
 9035SOL    HW228005   1.409   4.667   5.831
 9036SOL     OW28006   1.923   0.936   5.443
 9036SOL    HW128007   1.924   0.881   5.526
 9036SOL    HW228008   1.904   1.032   5.467
 9037SOL     OW28009   1.543   3.562   5.761
 9037SOL    HW128010   1.450   3.600   5.757
 9037SOL    HW228011   1.538   3.465   5.784
 9038SOL     OW28012   5.075   6.213   5.885
 9038SOL    HW128013   5.083   6.312   5.876
 9038SOL    HW228014   5.054   6.190   5.980
 9039SOL     OW28015   2.670   4.764   4.714
 9039SOL    HW128016   2.606   4.784   4.640
 9039SOL    HW228017   2.647   4.676   4.755
 9040SOL     OW28018   2.882   2.280   2.735
 9040SOL    HW128019   2.809   2.345   2.714
 9040SOL    HW228020   2.928   2.253   2.651
 9041SOL     OW28021   1.591   2.157   1.889
 9041SOL    HW128022   1.511   2.203   1.929
 9041SOL    HW228023   1.616   2.078   1.945
 9042SOL     OW28024   2.643   6.928   3.858
 9042SOL    HW128025   2.688   6.905   3.771
 9042SOL    HW228026   2.587   6.851   3.888
 9043SOL     OW28027   2.640   1.711   6.741
 9043SOL    HW128028   2.627   1.720   6.642
 9043SOL    HW228029   2.709   1.641   6.760
 9044SOL     OW28030   5.636   1.451   2.331
 9044SOL    HW128031   5.706   1.380   2.336
 9044SOL    HW228032   5.676   1.533   2.289
 9045SOL     OW28033   2.921   1.308   2.237
 9045SOL    HW128034   2.892   1.289   2.331
 9045SOL    HW228035   2.929   1.222   2.186
 9046SOL     OW28036   3.307   4.160   4.282
 9046SOL    HW128037   3.269   4.223   4.215
 9046SOL    HW228038   3.235   4.132   4.346
 9047SOL     OW28039   1.044   2.950   5.787
 9047SOL    HW128040   1.039   2.982   5.881
 9047SOL    HW228041   1.079   3.023   5.728
 9048SOL     OW28042   6.416   1.766   5.849
 9048SOL    HW128043   6.384   1.786   5.756
 9048SOL    HW228044   6.460   1.676   5.851
 9049SOL     OW28045   3.776   6.962   6.575
 9049SOL    HW128046   3.808   6.914   6.657
 9049SOL    HW228047   3.851   6.973   6.511
 9050SOL     OW28048   6.852   3.769   6.526
 9050SOL    HW128049   6.875   3.846   6.586
 9050SOL    HW228050   6.928   3.705   6.523
 9051SOL     OW28051   4.735   6.524   0.807
 9051SOL    HW128052   4.695   6.516   0.716
 9051SOL    HW228053   4.801   6.450   0.821
 9052SOL     OW28054   1.545   2.523   3.682
 9052SOL    HW128055   1.571   2.572   3.765
 9052SOL    HW228056   1.507   2.434   3.706
 9053SOL     OW28057   1.453   1.885   2.841
 9053SOL    HW128058   1.521   1.830   2.792
 9053SOL    HW228059   1.469   1.877   2.939
 9054SOL     OW28060   1.720   0.258   2.181
 9054SOL    HW128061   1.712   0.358   2.186
 9054SOL    HW228062   1.633   0.217   2.208
 9055SOL     OW28063   5.963   3.354   3.643
 9055SOL    HW128064   6.055   3.350   3.682
 9055SOL    HW228065   5.896   3.341   3.716
 9056SOL     OW28066   6.916   1.161   1.712
 9056SOL    HW128067   6.912   1.179   1.810
 9056SOL    HW228068   6.866   1.232   1.663
 9057SOL     OW28069   5.890   4.757   5.925
 9057SOL    HW128070   5.976   4.754   5.976
 9057SOL    HW228071   5.874   4.850   5.891
 9058SOL     OW28072   1.953   1.827   3.420
 9058SOL    HW128073   1.963   1.874   3.507
 9058SOL    HW228074   1.983   1.887   3.346
 9059SOL     OW28075   1.156   1.241   5.403
 9059SOL    HW128076   1.184   1.160   5.351
 9059SOL    HW228077   1.229   1.309   5.402
 9060SOL     OW28078   6.349   3.030   2.291
 9060SOL    HW128079   6.332   3.018   2.193
 9060SOL    HW228080   6.319   3.121   2.319
 9061SOL     OW28081   2.575   5.566   1.972
 9061SOL    HW128082   2.675   5.556   1.966
 9061SOL    HW228083   2.551   5.602   2.062
 9062SOL     OW28084   1.725   6.145   1.845
 9062SOL    HW128085   1.792   6.219   1.857
 9062SOL    HW228086   1.753   6.066   1.899
 9063SOL     OW28087   2.365   0.030   2.842
 9063SOL    HW128088   2.394   0.125   2.832
 9063SOL    HW228089   2.283   0.025   2.900
 9064SOL     OW28090   6.196   2.502   5.827
 9064SOL    HW128091   6.270   2.460   5.880
 9064SOL    HW228092   6.207   2.479   5.731
 9065SOL     OW28093   3.133   6.518   6.204
 9065SOL    HW128094   3.106   6.503   6.299
 9065SOL    HW228095   3.173   6.610   6.195
 9066SOL     OW28096   5.813   6.502   0.276
 9066SOL    HW128097   5.858   6.423   0.318
 9066SOL    HW228098   5.811   6.490   0.177
 9067SOL     OW28099   6.218   0.409   4.543
 9067SOL    HW128100   6.183   0.496   4.579
 9067SOL    HW228101   6.244   0.351   4.620
 9068SOL     OW28102   2.905   6.826   5.616
 9068SOL    HW128103   2.972   6.827   5.690
 9068SOL    HW228104   2.815   6.848   5.653
 9069SOL     OW28105   2.434   2.507   2.122
 9069SOL    HW128106   2.400   2.599   2.139
 9069SOL    HW228107   2.506   2.485   2.187
 9070SOL     OW28108   1.281   3.609   5.993
 9070SOL    HW128109   1.275   3.674   5.918
 9070SOL    HW228110   1.376   3.600   6.022
 9071SOL     OW28111   5.555   0.482   0.868
 9071SOL    HW128112   5.537   0.384   0.857
 9071SOL    HW228113   5.652   0.499   0.857
 9072SOL     OW28114   6.590   1.170   1.862
 9072SOL    HW128115   6.672   1.175   1.918
 9072SOL    HW228116   6.546   1.260   1.858
 9073SOL     OW28117   3.195   6.679   0.575
 9073SOL    HW128118   3.282   6.726   0.588
 9073SOL    HW228119   3.211   6.593   0.526
 9074SOL     OW28120   2.155   1.432   1.917
 9074SOL    HW128121   2.216   1.446   1.995
 9074SOL    HW228122   2.110   1.518   1.894
 9075SOL     OW28123   0.826   1.364   2.750
 9075SOL    HW128124   0.852   1.273   2.784
 9075SOL    HW228125   0.787   1.356   2.658
 9076SOL     OW28126   5.938   1.906   5.046
 9076SOL    HW128127   5.975   1.842   4.979
 9076SOL    HW228128   5.840   1.919   5.030
 9077SOL     OW28129   5.686   6.974   6.611
 9077SOL    HW128130   5.652   0.029   6.565
 9077SOL    HW228131   5.619   6.943   6.679
 9078SOL     OW28132   4.479   3.696   6.391
 9078SOL    HW128133   4.413   3.719   6.462
 9078SOL    HW228134   4.444   3.619   6.336
 9079SOL     OW28135   2.910   6.667   4.199
 9079SOL    HW128136   2.929   6.745   4.139
 9079SOL    HW228137   2.836   6.612   4.159
 9080SOL     OW28138   5.110   2.333   6.848
 9080SOL    HW128139   5.044   2.269   6.808
 9080SOL    HW228140   5.064   2.417   6.874
 9081SOL     OW28141   3.777   5.758   3.101
 9081SOL    HW128142   3.706   5.696   3.070
 9081SOL    HW228143   3.833   5.714   3.171
 9082SOL     OW28144   2.458   6.717   5.252
 9082SOL    HW128145   2.517   6.646   5.212
 9082SOL    HW228146   2.397   6.753   5.181
 9083SOL     OW28147   3.114   5.268   5.908
 9083SOL    HW128148   3.039   5.300   5.849
 9083SOL    HW228149   3.200   5.309   5.878
 9084SOL     OW28150   3.094   3.255   5.341
 9084SOL    HW128151   3.180   3.209   5.316
 9084SOL    HW228152   3.048   3.288   5.258
 9085SOL     OW28153   2.050   4.621   1.334
 9085SOL    HW128154   2.122   4.609   1.402
 9085SOL    HW228155   2.084   4.679   1.260
 9086SOL     OW28156   0.883   4.554   0.340
 9086SOL    HW128157   0.955   4.599   0.286
 9086SOL    HW228158   0.852   4.472   0.291
 9087SOL     OW28159   4.712   2.655   2.058
 9087SOL    HW128160   4.721   2.754   2.051
 9087SOL    HW228161   4.694   2.629   2.153
 9088SOL     OW28162   5.676   5.977   0.419
 9088SOL    HW128163   5.578   5.984   0.398
 9088SOL    HW228164   5.729   6.017   0.344
 9089SOL     OW28165   5.009   6.023   5.630
 9089SOL    HW128166   5.045   6.116   5.624
 9089SOL    HW228167   4.913   6.026   5.659
 9090SOL     OW28168   0.222   0.437   3.277
 9090SOL    HW128169   0.183   0.518   3.233
 9090SOL    HW228170   0.270   0.464   3.360
 9091SOL     OW28171   3.219   4.588   0.759
 9091SOL    HW128172   3.148   4.628   0.701
 9091SOL    HW228173   3.185   4.502   0.799
 9092SOL     OW28174   0.579   1.491   0.916
 9092SOL    HW128175   0.480   1.486   0.903
 9092SOL    HW228176   0.605   1.443   1.000
 9093SOL     OW28177   1.232   6.683   6.152
 9093SOL    HW128178   1.182   6.752   6.204
 9093SOL    HW228179   1.323   6.671   6.190
 9094SOL     OW28180   6.417   5.158   2.858
 9094SOL    HW128181   6.485   5.124   2.923
 9094SOL    HW228182   6.337   5.098   2.859
 9095SOL     OW28183   4.868   4.207   5.751
 9095SOL    HW128184   4.867   4.122   5.698
 9095SOL    HW228185   4.775   4.244   5.755
 9096SOL     OW28186   5.745   4.068   1.975
 9096SOL    HW128187   5.822   4.030   2.026
 9096SOL    HW228188   5.765   4.064   1.877
 9097SOL     OW28189   1.271   2.000   0.577
 9097SOL    HW128190   1.332   2.078   0.596
 9097SOL    HW228191   1.313   1.916   0.612
 9098SOL     OW28192   3.678   1.608   5.482
 9098SOL    HW128193   3.764   1.586   5.528
 9098SOL    HW228194   3.697   1.643   5.390
 9099SOL     OW28195   3.110   2.363   5.747
 9099SOL    HW128196   3.040   2.415   5.698
 9099SOL    HW228197   3.176   2.327   5.681
 9100SOL     OW28198   0.301   4.165   4.101
 9100SOL    HW128199   0.347   4.207   4.023
 9100SOL    HW228200   0.209   4.136   4.073
 9101SOL     OW28201   2.127   2.604   2.969
 9101SOL    HW128202   2.190   2.656   2.912
 9101SOL    HW228203   2.108   2.516   2.925
 9102SOL     OW28204   2.690   0.325   1.962
 9102SOL    HW128205   2.709   0.333   1.864
 9102SOL    HW228206   2.674   0.416   2.001
 9103SOL     OW28207   6.222   2.958   6.627
 9103SOL    HW128208   6.239   2.998   6.537
 9103SOL    HW228209   6.198   3.031   6.692
 9104SOL     OW28210   0.412   6.869   2.416
 9104SOL    HW128211   0.353   6.874   2.335
 9104SOL    HW228212   0.490   6.810   2.396
 9105SOL     OW28213   1.003   1.572   6.616
 9105SOL    HW128214   1.051   1.524   6.543
 9105SOL    HW228215   0.916   1.607   6.582
 9106SOL     OW28216   0.160   2.567   0.904
 9106SOL    HW128217   0.229   2.601   0.968
 9106SOL    HW228218   0.094   2.510   0.953
 9107SOL     OW28219   4.014   0.534   6.186
 9107SOL    HW128220   3.995   0.540   6.284
 9107SOL    HW228221   3.935   0.567   6.134
 9108SOL     OW28222   5.025   4.302   5.981
 9108SOL    HW128223   5.097   4.236   6.004
 9108SOL    HW228224   4.976   4.271   5.900
 9109SOL     OW28225   6.274   2.893   3.811
 9109SOL    HW128226   6.251   2.913   3.716
 9109SOL    HW228227   6.251   2.972   3.868
 9110SOL     OW28228   1.558   5.049   4.338
 9110SOL    HW128229   1.574   5.011   4.429
 9110SOL    HW228230   1.537   4.975   4.274
 9111SOL     OW28231   5.146   2.072   0.598
 9111SOL    HW128232   5.157   2.116   0.509
 9111SOL    HW228233   5.204   1.990   0.602
 9112SOL     OW28234   0.949   5.528   2.808
 9112SOL    HW128235   0.930   5.527   2.906
 9112SOL    HW228236   0.931   5.619   2.771
 9113SOL     OW28237   4.582   2.091   3.188
 9113SOL    HW128238   4.637   2.114   3.268
 9113SOL    HW228239   4.625   2.130   3.106
 9114SOL     OW28240   0.829   5.006   2.518
 9114SOL    HW128241   0.899   5.064   2.561
 9114SOL    HW228242   0.824   4.919   2.567
 9115SOL     OW28243   0.065   5.711   4.472
 9115SOL    HW128244   0.040   5.615   4.472
 9115SOL    HW228245   0.026   5.756   4.391
 9116SOL     OW28246   6.788   0.932   2.043
 9116SOL    HW128247   6.761   0.927   1.947
 9116SOL    HW228248   6.745   0.858   2.094
 9117SOL     OW28249   4.943   2.552   0.130
 9117SOL    HW128250   5.038   2.569   0.101
 9117SOL    HW228251   4.918   2.614   0.203
 9118SOL     OW28252   7.016   3.255   0.551
 9118SOL    HW128253   0.015   3.340   0.506
 9118SOL    HW228254   7.011   3.269   0.650
 9119SOL     OW28255   3.947   0.744   2.370
 9119SOL    HW128256   3.914   0.690   2.447
 9119SOL    HW228257   4.037   0.709   2.341
 9120SOL     OW28258   6.494   1.509   5.931
 9120SOL    HW128259   6.433   1.528   6.008
 9120SOL    HW228260   6.462   1.427   5.883
 9121SOL     OW28261   4.237   0.149   5.794
 9121SOL    HW128262   4.181   0.229   5.774
 9121SOL    HW228263   4.288   0.123   5.712
 9122SOL     OW28264   2.635   4.628   2.221
 9122SOL    HW128265   2.707   4.634   2.152
 9122SOL    HW228266   2.611   4.720   2.252
 9123SOL     OW28267   2.475   0.875   4.232
 9123SOL    HW128268   2.483   0.778   4.208
 9123SOL    HW228269   2.502   0.931   4.153
 9124SOL     OW28270   5.096   5.626   0.793
 9124SOL    HW128271   5.021   5.654   0.854
 9124SOL    HW228272   5.177   5.606   0.848
 9125SOL     OW28273   4.589   4.288   0.518
 9125SOL    HW128274   4.542   4.356   0.573
 9125SOL    HW228275   4.549   4.286   0.426
 9126SOL     OW28276   5.751   3.239   1.219
 9126SOL    HW128277   5.838   3.290   1.222
 9126SOL    HW228278   5.701   3.253   1.304
 9127SOL     OW28279   6.327   1.324   6.529
 9127SOL    HW128280   6.396   1.263   6.490
 9127SOL    HW228281   6.249   1.331   6.466
 9128SOL     OW28282   5.778   2.223   5.334
 9128SOL    HW128283   5.747   2.291   5.400
 9128SOL    HW228284   5.869   2.246   5.301
 9129SOL     OW28285   0.486   3.139   6.928
 9129SOL    HW128286   0.501   3.074   7.003
 9129SOL    HW228287   0.404   3.194   6.947
 9130SOL     OW28288   1.020   3.149   5.997
 9130SOL    HW128289   0.986   3.242   5.988
 9130SOL    HW228290   1.091   3.146   6.068
 9131SOL     OW28291   5.467   2.365   5.971
 9131SOL    HW128292   5.534   2.426   6.013
 9131SOL    HW228293   5.410   2.324   6.042
 9132SOL     OW28294   0.187   5.423   4.270
 9132SOL    HW128295   0.108   5.455   4.322
 9132SOL    HW228296   0.216   5.334   4.307
 9133SOL     OW28297   4.174   6.420   1.351
 9133SOL    HW128298   4.175   6.391   1.446
 9133SOL    HW228299   4.101   6.487   1.337
 9134SOL     OW28300   3.642   5.614   1.971
 9134SOL    HW128301   3.727   5.579   1.932
 9134SOL    HW228302   3.565   5.557   1.941
 9135SOL     OW28303   6.937   0.559   1.528
 9135SOL    HW128304   6.839   0.539   1.522
 9135SOL    HW228305   6.951   0.641   1.583
 9136SOL     OW28306   5.121   6.135   0.172
 9136SOL    HW128307   5.201   6.091   0.132
 9136SOL    HW228308   5.039   6.081   0.150
 9137SOL     OW28309   4.812   1.097   0.296
 9137SOL    HW128310   4.836   1.158   0.371
 9137SOL    HW228311   4.821   1.147   0.209
 9138SOL     OW28312   0.277   5.469   6.558
 9138SOL    HW128313   0.181   5.443   6.571
 9138SOL    HW228314   0.299   5.467   6.460
 9139SOL     OW28315   2.055   2.272   3.038
 9139SOL    HW128316   2.140   2.230   3.069
 9139SOL    HW228317   2.028   2.344   3.103
 9140SOL     OW28318   6.787   3.678   2.275
 9140SOL    HW128319   6.768   3.641   2.366
 9140SOL    HW228320   6.885   3.679   2.259
 9141SOL     OW28321   5.818   6.870   1.560
 9141SOL    HW128322   5.762   6.952   1.548
 9141SOL    HW228323   5.771   6.791   1.520
 9142SOL     OW28324   0.827   3.172   1.536
 9142SOL    HW128325   0.909   3.220   1.566
 9142SOL    HW228326   0.791   3.215   1.453
 9143SOL     OW28327   6.070   2.644   0.064
 9143SOL    HW128328   6.097   2.728   0.018
 9143SOL    HW228329   6.151   2.588   0.083
 9144SOL     OW28330   2.402   5.088   4.795
 9144SOL    HW128331   2.312   5.054   4.822
 9144SOL    HW228332   2.472   5.048   4.855
 9145SOL     OW28333   0.162   5.759   6.914
 9145SOL    HW128334   0.230   5.713   6.971
 9145SOL    HW228335   0.170   5.727   6.820
 9146SOL     OW28336   5.482   3.032   3.589
 9146SOL    HW128337   5.534   3.004   3.508
 9146SOL    HW228338   5.459   2.950   3.642
 9147SOL     OW28339   5.827   6.744   4.907
 9147SOL    HW128340   5.731   6.767   4.892
 9147SOL    HW228341   5.884   6.798   4.846
 9148SOL     OW28342   4.952   5.994   2.595
 9148SOL    HW128343   5.009   6.055   2.650
 9148SOL    HW228344   4.875   6.046   2.557
 9149SOL     OW28345   5.137   3.613   2.581
 9149SOL    HW128346   5.165   3.699   2.624
 9149SOL    HW228347   5.070   3.632   2.509
 9150SOL     OW28348   2.946   5.211   1.229
 9150SOL    HW128349   3.043   5.218   1.207
 9150SOL    HW228350   2.907   5.302   1.239
 9151SOL     OW28351   1.895   4.386   3.753
 9151SOL    HW128352   1.909   4.347   3.844
 9151SOL    HW228353   1.799   4.379   3.729
 9152SOL     OW28354   2.129   4.094   4.316
 9152SOL    HW128355   2.046   4.090   4.372
 9152SOL    HW228356   2.163   4.001   4.302
 9153SOL     OW28357   0.570   2.715   0.353
 9153SOL    HW128358   0.513   2.640   0.386
 9153SOL    HW228359   0.664   2.683   0.343
 9154SOL     OW28360   6.088   4.398   5.227
 9154SOL    HW128361   6.025   4.336   5.180
 9154SOL    HW228362   6.046   4.433   5.310
 9155SOL     OW28363   1.775   4.150   3.000
 9155SOL    HW128364   1.829   4.067   3.017
 9155SOL    HW228365   1.724   4.139   2.915
 9156SOL     OW28366   6.993   1.927   0.425
 9156SOL    HW128367   6.971   1.973   0.511
 9156SOL    HW228368   0.057   1.886   0.432
 9157SOL     OW28369   2.562   4.432   0.045
 9157SOL    HW128370   2.594   4.437   6.977
 9157SOL    HW228371   2.567   4.523   0.087
 9158SOL     OW28372   6.664   4.194   4.964
 9158SOL    HW128373   6.678   4.109   4.914
 9158SOL    HW228374   6.568   4.222   4.958
 9159SOL     OW28375   1.350   0.463   3.079
 9159SOL    HW128376   1.314   0.495   3.166
 9159SOL    HW228377   1.322   0.369   3.063
 9160SOL     OW28378   0.436   6.356   5.837
 9160SOL    HW128379   0.404   6.298   5.762
 9160SOL    HW228380   0.361   6.372   5.901
 9161SOL     OW28381   5.627   5.620   3.561
 9161SOL    HW128382   5.601   5.632   3.465
 9161SOL    HW228383   5.700   5.551   3.567
 9162SOL     OW28384   3.844   0.469   3.122
 9162SOL    HW128385   3.793   0.424   3.048
 9162SOL    HW228386   3.813   0.563   3.131
 9163SOL     OW28387   0.147   3.093   4.063
 9163SOL    HW128388   0.160   3.064   4.158
 9163SOL    HW228389   0.205   3.172   4.044
 9164SOL     OW28390   1.997   0.722   6.873
 9164SOL    HW128391   1.926   0.782   6.836
 9164SOL    HW228392   2.078   0.776   6.895
 9165SOL     OW28393   5.352   1.617   5.930
 9165SOL    HW128394   5.414   1.540   5.947
 9165SOL    HW228395   5.265   1.600   5.976
 9166SOL     OW28396   4.625   5.393   0.654
 9166SOL    HW128397   4.673   5.466   0.607
 9166SOL    HW228398   4.675   5.307   0.643
 9167SOL     OW28399   2.170   2.027   5.667
 9167SOL    HW128400   2.150   2.098   5.599
 9167SOL    HW228401   2.124   2.049   5.752
 9168SOL     OW28402   6.874   6.198   6.678
 9168SOL    HW128403   6.789   6.152   6.652
 9168SOL    HW228404   6.949   6.133   6.675
 9169SOL     OW28405   6.900   6.893   6.726
 9169SOL    HW128406   6.858   6.809   6.692
 9169SOL    HW228407   6.848   6.927   6.804
 9170SOL     OW28408   1.928   0.053   6.519
 9170SOL    HW128409   1.867   0.113   6.571
 9170SOL    HW228410   1.884   0.027   6.433
 9171SOL     OW28411   3.837   5.902   0.802
 9171SOL    HW128412   3.852   5.998   0.828
 9171SOL    HW228413   3.917   5.868   0.753
 9172SOL     OW28414   4.793   0.970   4.161
 9172SOL    HW128415   4.884   1.010   4.148
 9172SOL    HW228416   4.737   0.986   4.080
 9173SOL     OW28417   6.528   3.999   5.250
 9173SOL    HW128418   6.483   4.066   5.190
 9173SOL    HW228419   6.507   4.020   5.345
 9174SOL     OW28420   0.546   5.550   0.561
 9174SOL    HW128421   0.641   5.574   0.579
 9174SOL    HW228422   0.492   5.634   0.550
 9175SOL     OW28423   1.260   6.719   6.554
 9175SOL    HW128424   1.170   6.726   6.511
 9175SOL    HW228425   1.279   6.803   6.605
 9176SOL     OW28426   3.100   0.508   1.936
 9176SOL    HW128427   3.071   0.475   2.026
 9176SOL    HW228428   3.029   0.567   1.897
 9177SOL     OW28429   1.018   3.311   4.121
 9177SOL    HW128430   0.923   3.342   4.112
 9177SOL    HW228431   1.079   3.381   4.084
 9178SOL     OW28432   2.116   5.165   6.563
 9178SOL    HW128433   2.112   5.084   6.505
 9178SOL    HW228434   2.077   5.143   6.653
 9179SOL     OW28435   1.495   5.266   4.675
 9179SOL    HW128436   1.569   5.297   4.735
 9179SOL    HW228437   1.529   5.259   4.581
 9180SOL     OW28438   5.832   2.456   3.246
 9180SOL    HW128439   5.776   2.483   3.168
 9180SOL    HW228440   5.796   2.371   3.285
 9181SOL     OW28441   5.507   2.162   4.082
 9181SOL    HW128442   5.415   2.121   4.083
 9181SOL    HW228443   5.547   2.152   3.991
 9182SOL     OW28444   2.790   7.010   3.361
 9182SOL    HW128445   2.879   7.014   3.407
 9182SOL    HW228446   2.791   0.043   3.281
 9183SOL     OW28447   4.482   4.751   6.816
 9183SOL    HW128448   4.573   4.724   6.784
 9183SOL    HW228449   4.487   4.842   6.858
 9184SOL     OW28450   4.423   2.222   1.083
 9184SOL    HW128451   4.374   2.235   1.169
 9184SOL    HW228452   4.497   2.289   1.076
 9185SOL     OW28453   6.930   6.655   4.837
 9185SOL    HW128454   6.845   6.702   4.815
 9185SOL    HW228455   7.007   6.700   4.790
 9186SOL     OW28456   5.181   0.498   4.829
 9186SOL    HW128457   5.097   0.445   4.821
 9186SOL    HW228458   5.159   0.592   4.854
 9187SOL     OW28459   3.827   1.886   6.916
 9187SOL    HW128460   3.865   1.926   6.833
 9187SOL    HW228461   3.864   1.794   6.930
 9188SOL     OW28462   2.041   0.837   1.455
 9188SOL    HW128463   2.062   0.792   1.368
 9188SOL    HW228464   1.945   0.865   1.455
 9189SOL     OW28465   3.792   6.104   2.536
 9189SOL    HW128466   3.696   6.132   2.531
 9189SOL    HW228467   3.808   6.028   2.473
 9190SOL     OW28468   0.573   3.601   5.380
 9190SOL    HW128469   0.555   3.541   5.302
 9190SOL    HW228470   0.495   3.661   5.395
 9191SOL     OW28471   5.726   0.982   6.611
 9191SOL    HW128472   5.665   0.910   6.578
 9191SOL    HW228473   5.672   1.063   6.633
 9192SOL     OW28474   6.579   2.324   6.521
 9192SOL    HW128475   6.491   2.371   6.512
 9192SOL    HW228476   6.566   2.225   6.510
 9193SOL     OW28477   4.169   3.509   4.378
 9193SOL    HW128478   4.163   3.539   4.473
 9193SOL    HW228479   4.120   3.423   4.367
 9194SOL     OW28480   3.008   6.781   2.408
 9194SOL    HW128481   3.008   6.798   2.507
 9194SOL    HW228482   2.989   6.867   2.360
 9195SOL     OW28483   1.950   3.368   2.884
 9195SOL    HW128484   1.944   3.408   2.792
 9195SOL    HW228485   1.859   3.365   2.924
 9196SOL     OW28486   5.119   6.576   3.534
 9196SOL    HW128487   5.067   6.514   3.592
 9196SOL    HW228488   5.136   6.532   3.446
 9197SOL     OW28489   3.053   5.437   0.968
 9197SOL    HW128490   2.971   5.387   0.998
 9197SOL    HW228491   3.077   5.506   1.036
 9198SOL     OW28492   6.453   4.286   6.901
 9198SOL    HW128493   6.383   4.250   6.839
 9198SOL    HW228494   6.452   4.386   6.898
 9199SOL     OW28495   0.827   2.766   5.956
 9199SOL    HW128496   0.771   2.722   6.026
 9199SOL    HW228497   0.838   2.863   5.978
 9200SOL     OW28498   2.385   5.973   5.551
 9200SOL    HW128499   2.364   6.067   5.578
 9200SOL    HW228500   2.473   5.971   5.504
 9201SOL     OW28501   0.474   2.772   0.817
 9201SOL    HW128502   0.378   2.758   0.791
 9201SOL    HW228503   0.519   2.684   0.831
 9202SOL     OW28504   0.506   5.951   3.352
 9202SOL    HW128505   0.555   5.955   3.439
 9202SOL    HW228506   0.545   5.879   3.295
 9203SOL     OW28507   5.866   3.120   6.148
 9203SOL    HW128508   5.869   3.198   6.086
 9203SOL    HW228509   5.779   3.118   6.195
 9204SOL     OW28510   4.958   3.567   3.981
 9204SOL    HW128511   5.038   3.604   4.028
 9204SOL    HW228512   4.968   3.468   3.969
 9205SOL     OW28513   4.958   5.907   3.072
 9205SOL    HW128514   4.930   5.834   3.134
 9205SOL    HW228515   4.879   5.966   3.053
 9206SOL     OW28516   3.398   6.664   3.608
 9206SOL    HW128517   3.410   6.592   3.675
 9206SOL    HW228518   3.366   6.625   3.522
 9207SOL     OW28519   3.736   5.069   0.280
 9207SOL    HW128520   3.721   4.980   0.325
 9207SOL    HW228521   3.759   5.054   0.184
 9208SOL     OW28522   5.521   3.937   2.067
 9208SOL    HW128523   5.576   4.010   2.028
 9208SOL    HW228524   5.568   3.899   2.146
 9209SOL     OW28525   4.496   0.629   1.205
 9209SOL    HW128526   4.473   0.573   1.284
 9209SOL    HW228527   4.525   0.570   1.130
 9210SOL     OW28528   0.979   0.693   1.555
 9210SOL    HW128529   1.004   0.707   1.460
 9210SOL    HW228530   0.974   0.594   1.573
 9211SOL     OW28531   5.889   3.263   6.735
 9211SOL    HW128532   5.796   3.248   6.703
 9211SOL    HW228533   5.892   3.252   6.835
 9212SOL     OW28534   5.041   4.503   4.827
 9212SOL    HW128535   4.986   4.497   4.910
 9212SOL    HW228536   5.000   4.570   4.765
 9213SOL     OW28537   4.753   5.977   4.835
 9213SOL    HW128538   4.694   6.055   4.856
 9213SOL    HW228539   4.849   6.003   4.851
 9214SOL     OW28540   6.964   2.630   5.235
 9214SOL    HW128541   6.983   2.726   5.216
 9214SOL    HW228542   0.003   2.573   5.185
 9215SOL     OW28543   1.427   4.928   2.506
 9215SOL    HW128544   1.479   4.843   2.514
 9215SOL    HW228545   1.490   5.006   2.513
 9216SOL     OW28546   2.517   6.687   3.852
 9216SOL    HW128547   2.584   6.644   3.792
 9216SOL    HW228548   2.426   6.677   3.814
 9217SOL     OW28549   5.883   2.492   0.446
 9217SOL    HW128550   5.914   2.403   0.410
 9217SOL    HW228551   5.829   2.477   0.529
 9218SOL     OW28552   4.375   0.251   6.637
 9218SOL    HW128553   4.320   0.330   6.663
 9218SOL    HW228554   4.325   0.167   6.655
 9219SOL     OW28555   4.343   3.664   6.114
 9219SOL    HW128556   4.402   3.741   6.138
 9219SOL    HW228557   4.278   3.693   6.044
 9220SOL     OW28558   1.296   6.568   2.074
 9220SOL    HW128559   1.238   6.517   2.136
 9220SOL    HW228560   1.325   6.654   2.118
 9221SOL     OW28561   2.911   0.109   4.180
 9221SOL    HW128562   3.005   0.143   4.184
 9221SOL    HW228563   2.850   0.183   4.153
 9222SOL     OW28564   2.542   5.707   4.793
 9222SOL    HW128565   2.442   5.702   4.801
 9222SOL    HW228566   2.567   5.706   4.696
 9223SOL     OW28567   1.197   3.193   3.880
 9223SOL    HW128568   1.121   3.150   3.831
 9223SOL    HW228569   1.169   3.284   3.910
 9224SOL     OW28570   1.308   4.646   3.303
 9224SOL    HW128571   1.334   4.699   3.383
 9224SOL    HW228572   1.389   4.599   3.267
 9225SOL     OW28573   3.511   5.899   5.776
 9225SOL    HW128574   3.537   5.995   5.774
 9225SOL    HW228575   3.516   5.865   5.870
 9226SOL     OW28576   0.373   6.558   1.378
 9226SOL    HW128577   0.464   6.541   1.416
 9226SOL    HW228578   0.367   6.653   1.349
 9227SOL     OW28579   1.805   6.364   1.469
 9227SOL    HW128580   1.750   6.287   1.436
 9227SOL    HW228581   1.850   6.408   1.391
 9228SOL     OW28582   2.073   2.464   0.259
 9228SOL    HW128583   2.012   2.442   0.335
 9228SOL    HW228584   2.105   2.558   0.269
 9229SOL     OW28585   1.062   4.600   5.769
 9229SOL    HW128586   1.104   4.662   5.703
 9229SOL    HW228587   0.985   4.646   5.814
 9230SOL     OW28588   4.917   3.311   3.150
 9230SOL    HW128589   4.901   3.334   3.054
 9230SOL    HW228590   4.884   3.218   3.168
 9231SOL     OW28591   1.226   2.856   5.176
 9231SOL    HW128592   1.231   2.949   5.211
 9231SOL    HW228593   1.145   2.846   5.118
 9232SOL     OW28594   2.706   5.539   0.264
 9232SOL    HW128595   2.611   5.567   0.279
 9232SOL    HW228596   2.740   5.491   0.345
 9233SOL     OW28597   0.070   6.485   0.696
 9233SOL    HW128598   0.068   6.385   0.693
 9233SOL    HW228599   0.145   6.519   0.640
 9234SOL     OW28600   2.699   5.573   0.890
 9234SOL    HW128601   2.775   5.639   0.889
 9234SOL    HW228602   2.733   5.484   0.859
 9235SOL     OW28603   1.838   2.926   3.316
 9235SOL    HW128604   1.828   2.889   3.409
 9235SOL    HW228605   1.751   2.966   3.287
 9236SOL     OW28606   1.831   3.854   0.109
 9236SOL    HW128607   1.793   3.894   0.026
 9236SOL    HW228608   1.792   3.764   0.124
 9237SOL     OW28609   0.339   5.694   3.580
 9237SOL    HW128610   0.332   5.720   3.484
 9237SOL    HW228611   0.248   5.695   3.621
 9238SOL     OW28612   2.999   2.829   5.995
 9238SOL    HW128613   3.033   2.921   6.013
 9238SOL    HW228614   3.062   2.781   5.934
 9239SOL     OW28615   0.202   4.369   6.692
 9239SOL    HW128616   0.109   4.360   6.729
 9239SOL    HW228617   0.250   4.282   6.703
 9240SOL     OW28618   4.979   2.916   1.946
 9240SOL    HW128619   4.889   2.926   1.988
 9240SOL    HW228620   5.013   3.005   1.917
 9241SOL     OW28621   0.200   5.443   0.733
 9241SOL    HW128622   0.248   5.530   0.747
 9241SOL    HW228623   0.110   5.447   0.776
 9242SOL     OW28624   1.559   3.960   1.283
 9242SOL    HW128625   1.603   3.921   1.202
 9242SOL    HW228626   1.524   4.051   1.261
 9243SOL     OW28627   6.610   0.553   1.313
 9243SOL    HW128628   6.625   0.613   1.392
 9243SOL    HW228629   6.573   0.466   1.344
 9244SOL     OW28630   2.700   5.674   5.934
 9244SOL    HW128631   2.797   5.668   5.908
 9244SOL    HW228632   2.691   5.654   6.032
 9245SOL     OW28633   0.823   4.856   3.498
 9245SOL    HW128634   0.862   4.901   3.578
 9245SOL    HW228635   0.844   4.909   3.416
 9246SOL     OW28636   5.933   0.246   2.837
 9246SOL    HW128637   5.980   0.171   2.790
 9246SOL    HW228638   5.904   0.314   2.770
 9247SOL     OW28639   2.623   6.342   2.957
 9247SOL    HW128640   2.639   6.275   2.884
 9247SOL    HW228641   2.602   6.294   3.042
 9248SOL     OW28642   2.840   1.955   4.289
 9248SOL    HW128643   2.886   1.921   4.370
 9248SOL    HW228644   2.889   2.034   4.252
 9249SOL     OW28645   4.285   4.890   1.118
 9249SOL    HW128646   4.244   4.803   1.145
 9249SOL    HW228647   4.217   4.946   1.071
 9250SOL     OW28648   6.256   3.135   4.489
 9250SOL    HW128649   6.344   3.091   4.470
 9250SOL    HW228650   6.245   3.147   4.588
 9251SOL     OW28651   4.131   1.741   2.379
 9251SOL    HW128652   4.091   1.784   2.298
 9251SOL    HW228653   4.181   1.809   2.432
 9252SOL     OW28654   4.892   0.686   4.833
 9252SOL    HW128655   4.870   0.592   4.856
 9252SOL    HW228656   4.882   0.744   4.914
 9253SOL     OW28657   5.393   4.857   5.621
 9253SOL    HW128658   5.462   4.902   5.678
 9253SOL    HW228659   5.317   4.920   5.605
 9254SOL     OW28660   4.417   4.816   3.407
 9254SOL    HW128661   4.438   4.724   3.377
 9254SOL    HW228662   4.370   4.812   3.495
 9255SOL     OW28663   4.923   3.751   0.010
 9255SOL    HW128664   4.910   3.822   0.079
 9255SOL    HW228665   4.903   3.788   6.946
 9256SOL     OW28666   2.855   0.619   2.429
 9256SOL    HW128667   2.793   0.664   2.493
 9256SOL    HW228668   2.805   0.549   2.379
 9257SOL     OW28669   6.298   5.059   3.263
 9257SOL    HW128670   6.379   5.016   3.224
 9257SOL    HW228671   6.260   4.999   3.334
 9258SOL     OW28672   4.031   3.198   1.675
 9258SOL    HW128673   3.990   3.118   1.718
 9258SOL    HW228674   4.066   3.260   1.746
 9259SOL     OW28675   1.106   1.702   0.923
 9259SOL    HW128676   1.021   1.719   0.973
 9259SOL    HW228677   1.163   1.639   0.976
 9260SOL     OW28678   6.214   1.767   5.647
 9260SOL    HW128679   6.175   1.849   5.690
 9260SOL    HW228680   6.145   1.695   5.645
 9261SOL     OW28681   3.815   1.388   0.319
 9261SOL    HW128682   3.890   1.439   0.278
 9261SOL    HW228683   3.768   1.335   0.248
 9262SOL     OW28684   0.121   5.710   5.211
 9262SOL    HW128685   0.202   5.758   5.244
 9262SOL    HW228686   0.076   5.665   5.288
 9263SOL     OW28687   3.334   6.425   2.719
 9263SOL    HW128688   3.238   6.437   2.694
 9263SOL    HW228689   3.343   6.349   2.782
 9264SOL     OW28690   4.843   4.462   0.521
 9264SOL    HW128691   4.852   4.364   0.540
 9264SOL    HW228692   4.748   4.489   0.528
 9265SOL     OW28693   3.320   2.594   7.023
 9265SOL    HW128694   3.343   2.538   0.077
 9265SOL    HW228695   3.223   2.618   7.026
 9266SOL     OW28696   1.329   6.020   0.874
 9266SOL    HW128697   1.390   6.094   0.846
 9266SOL    HW228698   1.330   5.948   0.805
 9267SOL     OW28699   6.940   2.021   4.777
 9267SOL    HW128700   6.925   1.989   4.683
 9267SOL    HW228701   0.010   2.043   4.789
 9268SOL     OW28702   1.826   0.083   2.381
 9268SOL    HW128703   1.750   0.023   2.409
 9268SOL    HW228704   1.794   0.146   2.311
 9269SOL     OW28705   4.360   1.049   6.190
 9269SOL    HW128706   4.261   1.060   6.202
 9269SOL    HW228707   4.377   0.980   6.119
 9270SOL     OW28708   4.408   6.538   5.898
 9270SOL    HW128709   4.342   6.551   5.973
 9270SOL    HW228710   4.402   6.616   5.836
 9271SOL     OW28711   6.160   0.024   0.335
 9271SOL    HW128712   6.187   6.991   0.260
 9271SOL    HW228713   6.123   6.996   0.410
 9272SOL     OW28714   1.361   5.290   5.837
 9272SOL    HW128715   1.400   5.382   5.843
 9272SOL    HW228716   1.272   5.294   5.791
 9273SOL     OW28717   5.769   6.246   3.142
 9273SOL    HW128718   5.752   6.191   3.224
 9273SOL    HW228719   5.836   6.199   3.084
 9274SOL     OW28720   6.868   1.685   0.326
 9274SOL    HW128721   6.849   1.776   0.362
 9274SOL    HW228722   6.857   1.617   0.398
 9275SOL     OW28723   6.528   0.621   6.954
 9275SOL    HW128724   6.522   0.689   7.027
 9275SOL    HW228725   6.592   0.549   6.980
 9276SOL     OW28726   1.767   4.443   0.991
 9276SOL    HW128727   1.727   4.517   0.937
 9276SOL    HW228728   1.770   4.470   1.087
 9277SOL     OW28729   4.702   4.446   1.806
 9277SOL    HW128730   4.654   4.517   1.858
 9277SOL    HW228731   4.673   4.356   1.839
 9278SOL     OW28732   1.737   0.234   5.487
 9278SOL    HW128733   1.757   0.192   5.575
 9278SOL    HW228734   1.655   0.193   5.448
 9279SOL     OW28735   2.771   0.379   1.381
 9279SOL    HW128736   2.734   0.448   1.444
 9279SOL    HW228737   2.696   0.333   1.334
 9280SOL     OW28738   2.494   1.730   2.431
 9280SOL    HW128739   2.433   1.686   2.365
 9280SOL    HW228740   2.573   1.768   2.384
 9281SOL     OW28741   3.248   4.185   6.713
 9281SOL    HW128742   3.209   4.205   6.623
 9281SOL    HW228743   3.298   4.098   6.709
 9282SOL     OW28744   5.222   1.178   3.805
 9282SOL    HW128745   5.243   1.275   3.818
 9282SOL    HW228746   5.301   1.123   3.834
 9283SOL     OW28747   4.420   0.406   4.360
 9283SOL    HW128748   4.462   0.328   4.407
 9283SOL    HW228749   4.424   0.391   4.262
 9284SOL     OW28750   3.037   2.758   5.330
 9284SOL    HW128751   3.006   2.849   5.355
 9284SOL    HW228752   2.962   2.693   5.339
 9285SOL     OW28753   5.046   3.471   1.477
 9285SOL    HW128754   5.090   3.560   1.490
 9285SOL    HW228755   4.961   3.468   1.529
 9286SOL     OW28756   5.775   5.635   1.055
 9286SOL    HW128757   5.748   5.680   0.970
 9286SOL    HW228758   5.761   5.698   1.132
 9287SOL     OW28759   3.698   4.828   6.897
 9287SOL    HW128760   3.670   4.812   6.803
 9287SOL    HW228761   3.630   4.790   6.959
 9288SOL     OW28762   4.654   1.235   2.780
 9288SOL    HW128763   4.558   1.208   2.784
 9288SOL    HW228764   4.661   1.335   2.779
 9289SOL     OW28765   4.648   0.054   1.380
 9289SOL    HW128766   4.550   0.055   1.399
 9289SOL    HW228767   4.695   7.023   1.447
 9290SOL     OW28768   5.282   0.850   3.705
 9290SOL    HW128769   5.361   0.799   3.670
 9290SOL    HW228770   5.314   0.927   3.760
 9291SOL     OW28771   1.308   4.986   5.740
 9291SOL    HW128772   1.298   5.058   5.809
 9291SOL    HW228773   1.375   5.014   5.672
 9292SOL     OW28774   2.423   2.638   6.196
 9292SOL    HW128775   2.385   2.702   6.130
 9292SOL    HW228776   2.361   2.629   6.274
 9293SOL     OW28777   6.170   3.879   6.671
 9293SOL    HW128778   6.201   3.958   6.618
 9293SOL    HW228779   6.250   3.830   6.706
 9294SOL     OW28780   5.440   0.793   5.921
 9294SOL    HW128781   5.366   0.788   5.988
 9294SOL    HW228782   5.433   0.879   5.871
 9295SOL     OW28783   4.779   0.119   5.677
 9295SOL    HW128784   4.777   0.195   5.611
 9295SOL    HW228785   4.757   0.153   5.768
 9296SOL     OW28786   2.074   5.440   0.110
 9296SOL    HW128787   2.170   5.454   0.084
 9296SOL    HW228788   2.035   5.527   0.140
 9297SOL     OW28789   1.004   6.697   2.933
 9297SOL    HW128790   0.977   6.675   2.839
 9297SOL    HW228791   1.041   6.789   2.937
 9298SOL     OW28792   0.626   6.487   6.505
 9298SOL    HW128793   0.587   6.551   6.439
 9298SOL    HW228794   0.690   6.427   6.459
 9299SOL     OW28795   0.662   2.001   4.266
 9299SOL    HW128796   0.674   1.945   4.184
 9299SOL    HW228797   0.752   2.023   4.304
 9300SOL     OW28798   0.732   4.599   5.892
 9300SOL    HW128799   0.760   4.570   5.983
 9300SOL    HW228800   0.642   4.642   5.896
 9301SOL     OW28801   5.533   5.386   4.325
 9301SOL    HW128802   5.446   5.432   4.343
 9301SOL    HW228803   5.598   5.407   4.398
 9302SOL     OW28804   2.163   3.524   4.055
 9302SOL    HW128805   2.108   3.442   4.067
 9302SOL    HW228806   2.204   3.550   4.143
 9303SOL     OW28807   2.916   3.606   0.491
 9303SOL    HW128808   2.957   3.514   0.492
 9303SOL    HW228809   2.863   3.617   0.408
 9304SOL     OW28810   4.431   4.508   0.604
 9304SOL    HW128811   4.463   4.597   0.634
 9304SOL    HW228812   4.370   4.520   0.525
 9305SOL     OW28813   3.824   0.955   0.669
 9305SOL    HW128814   3.865   0.872   0.707
 9305SOL    HW228815   3.785   0.935   0.579
 9306SOL     OW28816   1.261   3.377   5.510
 9306SOL    HW128817   1.355   3.345   5.517
 9306SOL    HW228818   1.224   3.392   5.603
 9307SOL     OW28819   1.269   3.715   1.150
 9307SOL    HW128820   1.300   3.802   1.112
 9307SOL    HW228821   1.184   3.730   1.202
 9308SOL     OW28822   1.581   3.403   1.704
 9308SOL    HW128823   1.548   3.310   1.688
 9308SOL    HW228824   1.514   3.453   1.760
 9309SOL     OW28825   2.805   5.728   5.657
 9309SOL    HW128826   2.711   5.731   5.692
 9309SOL    HW228827   2.861   5.794   5.707
 9310SOL     OW28828   5.549   5.701   5.562
 9310SOL    HW128829   5.551   5.795   5.529
 9310SOL    HW228830   5.634   5.680   5.610
 9311SOL     OW28831   4.922   4.754   1.181
 9311SOL    HW128832   4.973   4.827   1.135
 9311SOL    HW228833   4.984   4.680   1.206
 9312SOL     OW28834   1.805   2.752   1.054
 9312SOL    HW128835   1.794   2.850   1.033
 9312SOL    HW228836   1.766   2.698   0.980
 9313SOL     OW28837   0.435   0.596   1.368
 9313SOL    HW128838   0.375   0.583   1.447
 9313SOL    HW228839   0.480   0.685   1.374
 9314SOL     OW28840   6.679   3.423   6.621
 9314SOL    HW128841   6.652   3.433   6.525
 9314SOL    HW228842   6.608   3.371   6.670
 9315SOL     OW28843   6.954   6.938   5.534
 9315SOL    HW128844   7.009   6.952   5.617
 9315SOL    HW228845   7.007   6.967   5.455
 9316SOL     OW28846   6.151   6.352   5.389
 9316SOL    HW128847   6.212   6.425   5.418
 9316SOL    HW228848   6.205   6.273   5.359
 9317SOL     OW28849   4.546   5.502   4.322
 9317SOL    HW128850   4.529   5.584   4.268
 9317SOL    HW228851   4.588   5.432   4.265
 9318SOL     OW28852   6.447   0.281   6.760
 9318SOL    HW128853   6.392   0.365   6.767
 9318SOL    HW228854   6.477   0.269   6.666
 9319SOL     OW28855   2.743   3.044   1.263
 9319SOL    HW128856   2.662   3.070   1.316
 9319SOL    HW228857   2.732   2.951   1.228
 9320SOL     OW28858   4.011   0.474   5.428
 9320SOL    HW128859   4.024   0.569   5.402
 9320SOL    HW228860   4.036   0.414   5.351
 9321SOL     OW28861   1.118   0.642   4.728
 9321SOL    HW128862   1.066   0.612   4.808
 9321SOL    HW228863   1.155   0.733   4.745
 9322SOL     OW28864   0.512   4.106   6.869
 9322SOL    HW128865   0.597   4.075   6.911
 9322SOL    HW228866   0.532   4.150   6.781
 9323SOL     OW28867   1.084   0.932   4.732
 9323SOL    HW128868   1.007   0.989   4.703
 9323SOL    HW228869   1.170   0.976   4.702
 9324SOL     OW28870   2.023   4.191   2.389
 9324SOL    HW128871   2.025   4.253   2.311
 9324SOL    HW228872   1.945   4.129   2.380
 9325SOL     OW28873   6.996   7.015   0.036
 9325SOL    HW128874   0.045   6.970   7.015
 9325SOL    HW228875   0.000   0.075   0.073
 9326SOL     OW28876   2.490   5.034   0.321
 9326SOL    HW128877   2.456   4.962   0.260
 9326SOL    HW228878   2.589   5.031   0.324
 9327SOL     OW28879   4.155   0.025   2.586
 9327SOL    HW128880   4.184   0.107   2.537
 9327SOL    HW228881   4.140   0.048   2.682
 9328SOL     OW28882   2.351   0.970   4.951
 9328SOL    HW128883   2.437   0.934   4.914
 9328SOL    HW228884   2.365   1.064   4.983
 9329SOL     OW28885   5.946   4.106   0.920
 9329SOL    HW128886   5.953   4.064   0.830
 9329SOL    HW228887   6.017   4.177   0.929
 9330SOL     OW28888   6.699   0.287   5.824
 9330SOL    HW128889   6.638   0.292   5.745
 9330SOL    HW228890   6.789   0.322   5.798
 9331SOL     OW28891   2.494   0.927   6.343
 9331SOL    HW128892   2.455   1.019   6.347
 9331SOL    HW228893   2.436   0.864   6.394
 9332SOL     OW28894   3.441   5.144   0.608
 9332SOL    HW128895   3.531   5.165   0.647
 9332SOL    HW228896   3.369   5.169   0.672
 9333SOL     OW28897   3.556   5.368   6.773
 9333SOL    HW128898   3.567   5.272   6.800
 9333SOL    HW228899   3.582   5.427   6.850
 9334SOL     OW28900   4.398   6.349   5.060
 9334SOL    HW128901   4.326   6.410   5.028
 9334SOL    HW228902   4.373   6.310   5.148
 9335SOL     OW28903   1.619   1.614   6.950
 9335SOL    HW128904   1.696   1.653   7.001
 9335SOL    HW228905   1.549   1.584   7.014
 9336SOL     OW28906   4.504   6.885   4.481
 9336SOL    HW128907   4.484   6.975   4.442
 9336SOL    HW228908   4.550   6.896   4.569
 9337SOL     OW28909   4.846   0.949   5.370
 9337SOL    HW128910   4.840   0.853   5.342
 9337SOL    HW228911   4.755   0.989   5.373
 9338SOL     OW28912   6.017   0.077   1.267
 9338SOL    HW128913   5.993   0.103   1.360
 9338SOL    HW228914   6.062   0.153   1.221
 9339SOL     OW28915   6.302   6.126   0.036
 9339SOL    HW128916   6.396   6.153   0.013
 9339SOL    HW228917   6.263   6.192   0.101
 9340SOL     OW28918   3.583   4.940   3.195
 9340SOL    HW128919   3.624   5.024   3.159
 9340SOL    HW228920   3.589   4.868   3.126
 9341SOL     OW28921   5.523   4.668   1.158
 9341SOL    HW128922   5.577   4.745   1.192
 9341SOL    HW228923   5.473   4.696   1.076
 9342SOL     OW28924   2.183   0.112   4.840
 9342SOL    HW128925   2.241   0.061   4.904
 9342SOL    HW228926   2.125   0.048   4.789
 9343SOL     OW28927   4.712   4.306   2.140
 9343SOL    HW128928   4.675   4.309   2.232
 9343SOL    HW228929   4.638   4.294   2.074
 9344SOL     OW28930   5.377   6.070   1.627
 9344SOL    HW128931   5.467   6.043   1.662
 9344SOL    HW228932   5.321   5.988   1.614
 9345SOL     OW28933   6.523   4.923   1.291
 9345SOL    HW128934   6.427   4.895   1.300
 9345SOL    HW228935   6.528   5.022   1.279
 9346SOL     OW28936   4.429   0.689   1.711
 9346SOL    HW128937   4.359   0.641   1.658
 9346SOL    HW228938   4.518   0.644   1.695
 9347SOL     OW28939   3.351   5.842   0.443
 9347SOL    HW128940   3.415   5.853   0.367
 9347SOL    HW228941   3.349   5.926   0.498
 9348SOL     OW28942   2.870   5.592   2.532
 9348SOL    HW128943   2.857   5.657   2.456
 9348SOL    HW228944   2.926   5.516   2.502
 9349SOL     OW28945   6.730   5.245   2.134
 9349SOL    HW128946   6.782   5.214   2.214
 9349SOL    HW228947   6.792   5.290   2.070
 9350SOL     OW28948   6.221   1.525   4.581
 9350SOL    HW128949   6.160   1.584   4.633
 9350SOL    HW228950   6.169   1.450   4.541
 9351SOL     OW28951   3.557   7.016   6.414
 9351SOL    HW128952   3.643   7.023   6.464
 9351SOL    HW228953   3.546   0.068   6.355
 9352SOL     OW28954   3.657   2.008   6.347
 9352SOL    HW128955   3.606   2.031   6.264
 9352SOL    HW228956   3.624   1.921   6.384
 9353SOL     OW28957   1.128   4.738   1.301
 9353SOL    HW128958   1.223   4.765   1.284
 9353SOL    HW228959   1.099   4.772   1.390
 9354SOL     OW28960   7.006   1.956   6.104
 9354SOL    HW128961   0.002   1.940   6.008
 9354SOL    HW228962   0.053   1.920   6.162
 9355SOL     OW28963   0.006   1.472   4.391
 9355SOL    HW128964   0.081   1.415   4.427
 9355SOL    HW228965   0.044   1.554   4.348
 9356SOL     OW28966   4.839   5.876   2.337
 9356SOL    HW128967   4.903   5.826   2.395
 9356SOL    HW228968   4.862   5.859   2.241
 9357SOL     OW28969   2.764   3.505   6.253
 9357SOL    HW128970   2.776   3.483   6.349
 9357SOL    HW228971   2.769   3.422   6.198
 9358SOL     OW28972   5.978   3.022   2.372
 9358SOL    HW128973   5.921   3.008   2.453
 9358SOL    HW228974   6.061   3.070   2.398
 9359SOL     OW28975   0.933   3.473   5.735
 9359SOL    HW128976   0.957   3.561   5.696
 9359SOL    HW228977   0.888   3.416   5.665
 9360SOL     OW28978   1.721   5.935   6.409
 9360SOL    HW128979   1.640   5.983   6.445
 9360SOL    HW228980   1.804   5.982   6.440
 9361SOL     OW28981   1.373   6.458   3.032
 9361SOL    HW128982   1.424   6.499   2.956
 9361SOL    HW228983   1.296   6.517   3.057
 9362SOL     OW28984   2.160   3.011   2.777
 9362SOL    HW128985   2.070   3.001   2.820
 9362SOL    HW228986   2.184   3.108   2.774
 9363SOL     OW28987   3.888   6.674   2.116
 9363SOL    HW128988   3.943   6.744   2.162
 9363SOL    HW228989   3.945   6.626   2.049
 9364SOL     OW28990   3.882   2.718   6.120
 9364SOL    HW128991   3.877   2.727   6.020
 9364SOL    HW228992   3.913   2.805   6.159
 9365SOL     OW28993   2.302   2.063   4.830
 9365SOL    HW128994   2.311   2.158   4.798
 9365SOL    HW228995   2.300   2.002   4.752
 9366SOL     OW28996   3.228   6.539   6.956
 9366SOL    HW128997   3.143   6.526   7.007
 9366SOL    HW228998   3.298   6.575   7.018
 9367SOL     OW28999   6.706   6.321   2.588
 9367SOL    HW129000   6.744   6.257   2.521
 9367SOL    HW229001   6.718   6.285   2.680
 9368SOL     OW29002   2.928   1.401   3.560
 9368SOL    HW129003   2.899   1.446   3.476
 9368SOL    HW229004   2.895   1.307   3.561
 9369SOL     OW29005   6.580   6.767   4.696
 9369SOL    HW129006   6.572   6.727   4.787
 9369SOL    HW229007   6.492   6.805   4.668
 9370SOL     OW29008   4.730   0.592   2.265
 9370SOL    HW129009   4.632   0.598   2.247
 9370SOL    HW229010   4.753   0.499   2.293
 9371SOL     OW29011   1.851   4.755   0.753
 9371SOL    HW129012   1.903   4.764   0.838
 9371SOL    HW229013   1.912   4.721   0.681
 9372SOL     OW29014   5.381   5.765   2.645
 9372SOL    HW129015   5.431   5.706   2.709
 9372SOL    HW229016   5.296   5.795   2.687
 9373SOL     OW29017   4.637   1.914   2.659
 9373SOL    HW129018   4.640   1.919   2.559
 9373SOL    HW229019   4.674   1.826   2.689
 9374SOL     OW29020   0.731   3.544   0.683
 9374SOL    HW129021   0.729   3.522   0.781
 9374SOL    HW229022   0.790   3.478   0.636
 9375SOL     OW29023   6.914   1.543   2.844
 9375SOL    HW129024   6.967   1.474   2.892
 9375SOL    HW229025   6.943   1.634   2.872
 9376SOL     OW29026   2.719   4.663   1.248
 9376SOL    HW129027   2.639   4.710   1.212
 9376SOL    HW229028   2.762   4.609   1.176
 9377SOL     OW29029   1.949   5.337   4.393
 9377SOL    HW129030   1.870   5.287   4.358
 9377SOL    HW229031   2.020   5.273   4.421
 9378SOL     OW29032   1.701   1.244   5.029
 9378SOL    HW129033   1.627   1.296   5.072
 9378SOL    HW229034   1.666   1.196   4.948
 9379SOL     OW29035   4.030   5.675   5.565
 9379SOL    HW129036   3.996   5.769   5.563
 9379SOL    HW229037   3.953   5.612   5.576
 9380SOL     OW29038   5.371   5.069   4.554
 9380SOL    HW129039   5.316   5.123   4.490
 9380SOL    HW229040   5.448   5.028   4.504
 9381SOL     OW29041   3.870   2.266   5.980
 9381SOL    HW129042   3.845   2.290   6.074
 9381SOL    HW229043   3.837   2.337   5.918
 9382SOL     OW29044   3.631   0.926   3.405
 9382SOL    HW129045   3.579   0.875   3.474
 9382SOL    HW229046   3.651   0.867   3.327
 9383SOL     OW29047   1.280   5.941   4.673
 9383SOL    HW129048   1.269   5.995   4.757
 9383SOL    HW229049   1.252   5.995   4.594
 9384SOL     OW29050   3.934   0.105   2.031
 9384SOL    HW129051   3.840   0.120   2.063
 9384SOL    HW229052   3.996   0.164   2.082
 9385SOL     OW29053   4.516   0.940   3.649
 9385SOL    HW129054   4.565   1.017   3.609
 9385SOL    HW229055   4.565   0.855   3.630
 9386SOL     OW29056   2.078   5.894   4.940
 9386SOL    HW129057   2.017   5.945   4.880
 9386SOL    HW229058   2.060   5.919   5.035
 9387SOL     OW29059   2.856   1.531   6.787
 9387SOL    HW129060   2.910   1.576   6.716
 9387SOL    HW229061   2.899   1.545   6.876
 9388SOL     OW29062   2.514   5.678   2.243
 9388SOL    HW129063   2.501   5.665   2.342
 9388SOL    HW229064   2.445   5.741   2.208
 9389SOL     OW29065   2.073   6.995   3.936
 9389SOL    HW129066   2.132   0.007   3.864
 9389SOL    HW229067   2.030   0.043   3.987
 9390SOL     OW29068   4.636   4.720   5.310
 9390SOL    HW129069   4.637   4.802   5.367
 9390SOL    HW229070   4.730   4.690   5.293
 9391SOL     OW29071   2.704   1.607   4.848
 9391SOL    HW129072   2.752   1.602   4.935
 9391SOL    HW229073   2.769   1.596   4.773
 9392SOL     OW29074   6.489   6.827   5.177
 9392SOL    HW129075   6.523   6.914   5.141
 9392SOL    HW229076   6.481   6.760   5.104
 9393SOL     OW29077   3.593   6.348   6.458
 9393SOL    HW129078   3.692   6.349   6.469
 9393SOL    HW229079   3.569   6.372   6.364
 9394SOL     OW29080   0.053   1.494   2.192
 9394SOL    HW129081   0.061   1.576   2.136
 9394SOL    HW229082   0.100   1.509   2.279
 9395SOL     OW29083   2.784   1.716   1.117
 9395SOL    HW129084   2.867   1.676   1.155
 9395SOL    HW229085   2.786   1.816   1.129
 9396SOL     OW29086   2.001   5.153   3.746
 9396SOL    HW129087   2.030   5.246   3.769
 9396SOL    HW229088   2.007   5.140   3.647
 9397SOL     OW29089   4.920   0.030   6.304
 9397SOL    HW129090   4.996   0.084   6.268
 9397SOL    HW229091   4.890   6.990   6.236
 9398SOL     OW29092   6.598   0.462   4.971
 9398SOL    HW129093   6.658   0.506   5.038
 9398SOL    HW229094   6.517   0.426   5.017
 9399SOL     OW29095   0.397   1.787   5.677
 9399SOL    HW129096   0.310   1.819   5.641
 9399SOL    HW229097   0.382   1.737   5.763
 9400SOL     OW29098   4.221   0.953   1.655
 9400SOL    HW129099   4.240   0.870   1.603
 9400SOL    HW229100   4.255   1.033   1.606
 9401SOL     OW29101   5.895   0.597   3.450
 9401SOL    HW129102   5.978   0.608   3.395
 9401SOL    HW229103   5.839   0.524   3.412
 9402SOL     OW29104   1.225   5.396   3.204
 9402SOL    HW129105   1.254   5.339   3.281
 9402SOL    HW229106   1.303   5.449   3.170
 9403SOL     OW29107   6.087   1.438   3.136
 9403SOL    HW129108   6.045   1.485   3.057
 9403SOL    HW229109   6.100   1.503   3.210
 9404SOL     OW29110   1.694   3.474   0.097
 9404SOL    HW129111   1.757   3.531   0.043
 9404SOL    HW229112   1.692   3.382   0.059
 9405SOL     OW29113   1.717   4.924   3.112
 9405SOL    HW129114   1.736   5.013   3.069
 9405SOL    HW229115   1.754   4.851   3.055
 9406SOL     OW29116   6.805   3.045   5.986
 9406SOL    HW129117   6.770   3.132   5.951
 9406SOL    HW229118   6.905   3.047   5.986
 9407SOL     OW29119   2.834   5.116   3.063
 9407SOL    HW129120   2.905   5.045   3.063
 9407SOL    HW229121   2.804   5.132   3.157
 9408SOL     OW29122   5.946   2.472   5.933
 9408SOL    HW129123   6.032   2.497   5.888
 9408SOL    HW229124   5.962   2.449   6.028
 9409SOL     OW29125   5.908   6.108   0.189
 9409SOL    HW129126   5.950   6.189   0.231
 9409SOL    HW229127   5.973   6.032   0.193
 9410SOL     OW29128   3.050   0.372   1.444
 9410SOL    HW129129   3.085   0.465   1.453
 9410SOL    HW229130   2.955   0.375   1.412
 9411SOL     OW29131   3.142   2.924   2.209
 9411SOL    HW129132   3.171   2.941   2.115
 9411SOL    HW229133   3.072   2.854   2.210
 9412SOL     OW29134   0.097   2.116   2.946
 9412SOL    HW129135   0.148   2.197   2.916
 9412SOL    HW229136   0.156   2.059   3.003
 9413SOL     OW29137   3.557   5.665   3.395
 9413SOL    HW129138   3.620   5.591   3.371
 9413SOL    HW229139   3.464   5.628   3.404
 9414SOL     OW29140   2.782   0.683   3.101
 9414SOL    HW129141   2.824   0.766   3.138
 9414SOL    HW229142   2.697   0.663   3.151
 9415SOL     OW29143   2.791   6.644   1.705
 9415SOL    HW129144   2.761   6.637   1.610
 9415SOL    HW229145   2.716   6.681   1.761
 9416SOL     OW29146   0.419   2.492   0.442
 9416SOL    HW129147   0.499   2.445   0.480
 9416SOL    HW229148   0.360   2.521   0.517
 9417SOL     OW29149   4.815   0.810   0.368
 9417SOL    HW129150   4.829   0.903   0.336
 9417SOL    HW229151   4.844   0.745   0.297
 9418SOL     OW29152   4.339   6.783   1.085
 9418SOL    HW129153   4.323   6.701   1.029
 9418SOL    HW229154   4.414   6.766   1.149
 9419SOL     OW29155   3.244   5.253   6.143
 9419SOL    HW129156   3.168   5.241   6.078
 9419SOL    HW229157   3.270   5.350   6.147
 9420SOL     OW29158   6.935   3.942   6.003
 9420SOL    HW129159   6.891   3.934   6.093
 9420SOL    HW229160   6.937   4.038   5.975
 9421SOL     OW29161   2.134   6.229   4.166
 9421SOL    HW129162   2.076   6.216   4.246
 9421SOL    HW229163   2.118   6.154   4.101
 9422SOL     OW29164   3.072   5.379   3.412
 9422SOL    HW129165   3.021   5.296   3.435
 9422SOL    HW229166   3.143   5.356   3.344
 9423SOL     OW29167   2.761   6.855   3.642
 9423SOL    HW129168   2.860   6.846   3.657
 9423SOL    HW229169   2.741   6.842   3.545
 9424SOL     OW29170   5.095   1.339   4.413
 9424SOL    HW129171   5.053   1.389   4.489
 9424SOL    HW229172   5.042   1.257   4.393
 9425SOL     OW29173   6.075   3.044   0.594
 9425SOL    HW129174   6.072   2.950   0.628
 9425SOL    HW229175   5.987   3.089   0.612
 9426SOL     OW29176   3.899   1.532   6.058
 9426SOL    HW129177   3.908   1.626   6.091
 9426SOL    HW229178   3.816   1.524   6.003
 9427SOL     OW29179   2.567   4.516   3.157
 9427SOL    HW129180   2.528   4.561   3.237
 9427SOL    HW229181   2.503   4.447   3.123
 9428SOL     OW29182   6.646   0.826   1.030
 9428SOL    HW129183   6.592   0.904   0.999
 9428SOL    HW229184   6.616   0.798   1.121
 9429SOL     OW29185   2.184   3.737   2.817
 9429SOL    HW129186   2.251   3.721   2.890
 9429SOL    HW229187   2.165   3.650   2.770
 9430SOL     OW29188   0.612   3.901   3.241
 9430SOL    HW129189   0.661   3.986   3.220
 9430SOL    HW229190   0.523   3.902   3.195
 9431SOL     OW29191   6.205   3.570   0.895
 9431SOL    HW129192   6.230   3.529   0.983
 9431SOL    HW229193   6.228   3.668   0.897
 9432SOL     OW29194   5.247   0.231   3.416
 9432SOL    HW129195   5.147   0.235   3.420
 9432SOL    HW229196   5.286   0.305   3.471
 9433SOL     OW29197   2.657   6.109   2.793
 9433SOL    HW129198   2.743   6.093   2.746
 9433SOL    HW229199   2.621   6.023   2.829
 9434SOL     OW29200   4.878   5.199   2.910
 9434SOL    HW129201   4.964   5.247   2.891
 9434SOL    HW229202   4.820   5.201   2.828
 9435SOL     OW29203   0.165   2.320   5.274
 9435SOL    HW129204   0.080   2.329   5.327
 9435SOL    HW229205   0.152   2.254   5.201
 9436SOL     OW29206   1.434   2.758   1.154
 9436SOL    HW129207   1.472   2.666   1.138
 9436SOL    HW229208   1.461   2.818   1.079
 9437SOL     OW29209   0.802   6.133   3.049
 9437SOL    HW129210   0.827   6.154   2.955
 9437SOL    HW229211   0.869   6.069   3.087
 9438SOL     OW29212   0.010   0.224   1.619
 9438SOL    HW129213   0.090   0.247   1.675
 9438SOL    HW229214   0.033   0.236   1.522
 9439SOL     OW29215   0.791   3.683   1.361
 9439SOL    HW129216   0.701   3.704   1.399
 9439SOL    HW229217   0.802   3.584   1.353
 9440SOL     OW29218   4.128   4.727   3.452
 9440SOL    HW129219   4.138   4.662   3.376
 9440SOL    HW229220   4.037   4.767   3.448
 9441SOL     OW29221   6.705   3.585   5.722
 9441SOL    HW129222   6.714   3.568   5.821
 9441SOL    HW229223   6.770   3.656   5.695
 9442SOL     OW29224   4.749   3.236   1.119
 9442SOL    HW129225   4.802   3.317   1.145
 9442SOL    HW229226   4.799   3.185   1.049
 9443SOL     OW29227   2.285   5.185   0.725
 9443SOL    HW129228   2.352   5.232   0.781
 9443SOL    HW229229   2.217   5.250   0.691
 9444SOL     OW29230   1.534   3.013   0.417
 9444SOL    HW129231   1.487   3.049   0.497
 9444SOL    HW229232   1.484   2.934   0.381
 9445SOL     OW29233   6.164   3.319   3.279
 9445SOL    HW129234   6.153   3.307   3.180
 9445SOL    HW229235   6.186   3.415   3.299
 9446SOL     OW29236   6.136   5.785   3.692
 9446SOL    HW129237   6.187   5.733   3.624
 9446SOL    HW229238   6.054   5.735   3.718
 9447SOL     OW29239   5.997   4.052   3.427
 9447SOL    HW129240   5.961   4.064   3.335
 9447SOL    HW229241   6.057   4.130   3.450
 9448SOL     OW29242   0.849   0.197   6.853
 9448SOL    HW129243   0.839   0.233   6.946
 9448SOL    HW229244   0.760   0.196   6.807
 9449SOL     OW29245   6.335   6.477   0.402
 9449SOL    HW129246   6.389   6.560   0.388
 9449SOL    HW229247   6.242   6.501   0.427
 9450SOL     OW29248   1.887   5.666   4.870
 9450SOL    HW129249   1.868   5.596   4.940
 9450SOL    HW229250   1.947   5.736   4.909
 9451SOL     OW29251   4.181   6.936   5.958
 9451SOL    HW129252   4.081   6.934   5.963
 9451SOL    HW229253   4.211   7.018   5.910
 9452SOL     OW29254   1.660   4.123   0.587
 9452SOL    HW129255   1.606   4.038   0.591
 9452SOL    HW229256   1.599   4.200   0.570
 9453SOL     OW29257   2.303   4.936   3.157
 9453SOL    HW129258   2.327   4.990   3.238
 9453SOL    HW229259   2.386   4.903   3.112
 9454SOL     OW29260   3.480   3.418   6.310
 9454SOL    HW129261   3.511   3.440   6.402
 9454SOL    HW229262   3.472   3.319   6.300
 9455SOL     OW29263   2.817   1.711   3.641
 9455SOL    HW129264   2.865   1.689   3.556
 9455SOL    HW229265   2.858   1.660   3.716
 9456SOL     OW29266   0.286   3.354   1.111
 9456SOL    HW129267   0.230   3.303   1.045
 9456SOL    HW229268   0.323   3.292   1.180
 9457SOL     OW29269   1.916   3.493   5.263
 9457SOL    HW129270   1.973   3.514   5.342
 9457SOL    HW229271   1.974   3.470   5.185
 9458SOL     OW29272   1.340   2.884   0.247
 9458SOL    HW129273   1.271   2.957   0.250
 9458SOL    HW229274   1.340   2.842   0.156
 9459SOL     OW29275   5.221   4.344   3.685
 9459SOL    HW129276   5.162   4.267   3.659
 9459SOL    HW229277   5.296   4.351   3.620
 9460SOL     OW29278   1.352   3.595   3.745
 9460SOL    HW129279   1.268   3.635   3.709
 9460SOL    HW229280   1.374   3.635   3.834
 9461SOL     OW29281   0.014   1.668   1.500
 9461SOL    HW129282   0.091   1.731   1.503
 9461SOL    HW229283   7.007   1.662   1.405
 9462SOL     OW29284   2.163   3.984   3.098
 9462SOL    HW129285   2.073   3.979   3.054
 9462SOL    HW229286   2.163   3.923   3.178
 9463SOL     OW29287   6.123   0.616   1.906
 9463SOL    HW129288   6.181   0.659   1.836
 9463SOL    HW229289   6.148   0.519   1.914
 9464SOL     OW29290   6.117   0.573   0.423
 9464SOL    HW129291   6.214   0.550   0.413
 9464SOL    HW229292   6.073   0.508   0.484
 9465SOL     OW29293   1.718   4.504   2.535
 9465SOL    HW129294   1.626   4.535   2.559
 9465SOL    HW229295   1.713   4.442   2.457
 9466SOL     OW29296   3.811   4.448   5.553
 9466SOL    HW129297   3.755   4.370   5.581
 9466SOL    HW229298   3.906   4.419   5.545
 9467SOL     OW29299   1.487   2.390   2.303
 9467SOL    HW129300   1.455   2.443   2.381
 9467SOL    HW229301   1.582   2.414   2.283
 9468SOL     OW29302   5.310   3.643   6.486
 9468SOL    HW129303   5.376   3.715   6.462
 9468SOL    HW229304   5.232   3.646   6.424
 9469SOL     OW29305   6.655   5.538   1.601
 9469SOL    HW129306   6.649   5.461   1.538
 9469SOL    HW229307   6.586   5.529   1.673
 9470SOL     OW29308   5.204   3.066   5.891
 9470SOL    HW129309   5.181   3.137   5.958
 9470SOL    HW229310   5.145   2.986   5.906
 9471SOL     OW29311   6.662   1.939   4.261
 9471SOL    HW129312   6.686   1.907   4.169
 9471SOL    HW229313   6.578   1.994   4.256
 9472SOL     OW29314   6.829   3.182   5.280
 9472SOL    HW129315   6.765   3.122   5.231
 9472SOL    HW229316   6.817   3.170   5.378
 9473SOL     OW29317   2.314   5.014   6.767
 9473SOL    HW129318   2.287   4.922   6.739
 9473SOL    HW229319   2.405   5.034   6.731
 9474SOL     OW29320   0.447   2.829   6.875
 9474SOL    HW129321   0.539   2.808   6.842
 9474SOL    HW229322   0.408   2.903   6.820
 9475SOL     OW29323   3.634   3.130   6.766
 9475SOL    HW129324   3.647   3.128   6.865
 9475SOL    HW229325   3.583   3.213   6.742
 9476SOL     OW29326   3.516   4.115   4.703
 9476SOL    HW129327   3.512   4.117   4.802
 9476SOL    HW229328   3.424   4.100   4.666
 9477SOL     OW29329   0.429   3.350   1.591
 9477SOL    HW129330   0.439   3.256   1.560
 9477SOL    HW229331   0.352   3.393   1.544
 9478SOL     OW29332   4.882   3.051   0.304
 9478SOL    HW129333   4.936   3.058   0.221
 9478SOL    HW229334   4.934   3.091   0.381
 9479SOL     OW29335   4.056   6.163   6.577
 9479SOL    HW129336   4.057   6.144   6.479
 9479SOL    HW229337   3.992   6.102   6.623
 9480SOL     OW29338   5.534   4.097   0.416
 9480SOL    HW129339   5.611   4.073   0.476
 9480SOL    HW229340   5.451   4.107   0.471
 9481SOL     OW29341   4.795   2.885   2.300
 9481SOL    HW129342   4.743   2.800   2.292
 9481SOL    HW229343   4.801   2.929   2.211
 9482SOL     OW29344   0.470   1.646   3.372
 9482SOL    HW129345   0.408   1.588   3.425
 9482SOL    HW229346   0.561   1.605   3.370
 9483SOL     OW29347   2.139   1.590   1.628
 9483SOL    HW129348   2.231   1.587   1.669
 9483SOL    HW229349   2.072   1.603   1.701
 9484SOL     OW29350   4.348   0.586   3.795
 9484SOL    HW129351   4.430   0.598   3.851
 9484SOL    HW229352   4.286   0.522   3.840
 9485SOL     OW29353   0.287   0.923   0.570
 9485SOL    HW129354   0.331   1.007   0.600
 9485SOL    HW229355   0.190   0.941   0.551
 9486SOL     OW29356   3.903   6.585   1.208
 9486SOL    HW129357   3.860   6.515   1.265
 9486SOL    HW229358   3.861   6.583   1.117
 9487SOL     OW29359   3.780   3.620   3.845
 9487SOL    HW129360   3.845   3.693   3.825
 9487SOL    HW229361   3.740   3.635   3.936
 9488SOL     OW29362   2.321   6.647   1.179
 9488SOL    HW129363   2.279   6.734   1.202
 9488SOL    HW229364   2.347   6.599   1.263
 9489SOL     OW29365   4.739   4.451   1.539
 9489SOL    HW129366   4.708   4.447   1.634
 9489SOL    HW229367   4.814   4.517   1.531
 9490SOL     OW29368   6.572   4.660   2.105
 9490SOL    HW129369   6.544   4.569   2.074
 9490SOL    HW229370   6.651   4.690   2.053
 9491SOL     OW29371   5.841   5.013   4.048
 9491SOL    HW129372   5.811   4.931   4.097
 9491SOL    HW229373   5.801   5.094   4.091
 9492SOL     OW29374   3.644   2.912   3.574
 9492SOL    HW129375   3.563   2.909   3.515
 9492SOL    HW229376   3.615   2.935   3.667
 9493SOL     OW29377   3.434   5.689   4.045
 9493SOL    HW129378   3.506   5.672   4.112
 9493SOL    HW229379   3.444   5.624   3.969
 9494SOL     OW29380   4.906   3.510   2.169
 9494SOL    HW129381   4.886   3.421   2.128
 9494SOL    HW229382   4.898   3.581   2.099
 9495SOL     OW29383   6.453   2.134   3.596
 9495SOL    HW129384   6.402   2.111   3.678
 9495SOL    HW229385   6.547   2.102   3.605
 9496SOL     OW29386   6.469   4.051   1.601
 9496SOL    HW129387   6.496   4.095   1.516
 9496SOL    HW229388   6.370   4.036   1.601
 9497SOL     OW29389   5.859   6.237   6.286
 9497SOL    HW129390   5.880   6.278   6.375
 9497SOL    HW229391   5.762   6.249   6.265
 9498SOL     OW29392   4.067   6.878   4.636
 9498SOL    HW129393   4.025   6.812   4.698
 9498SOL    HW229394   3.999   6.910   4.570
 9499SOL     OW29395   2.338   5.552   6.482
 9499SOL    HW129396   2.265   5.546   6.549
 9499SOL    HW229397   2.355   5.461   6.443
 9500SOL     OW29398   5.242   0.136   0.955
 9500SOL    HW129399   5.304   0.183   1.017
 9500SOL    HW229400   5.170   0.091   1.007
 9501SOL     OW29401   3.237   1.310   4.356
 9501SOL    HW129402   3.322   1.281   4.400
 9501SOL    HW229403   3.164   1.314   4.424
 9502SOL     OW29404   5.399   2.909   5.064
 9502SOL    HW129405   5.359   2.818   5.055
 9502SOL    HW229406   5.332   2.978   5.037
 9503SOL     OW29407   0.422   1.500   1.557
 9503SOL    HW129408   0.458   1.594   1.550
 9503SOL    HW229409   0.494   1.440   1.592
 9504SOL     OW29410   0.250   2.601   0.642
 9504SOL    HW129411   0.223   2.584   0.737
 9504SOL    HW229412   0.233   2.697   0.620
 9505SOL     OW29413   4.890   4.443   3.496
 9505SOL    HW129414   4.889   4.498   3.579
 9505SOL    HW229415   4.798   4.406   3.480
 9506SOL     OW29416   1.026   2.058   6.432
 9506SOL    HW129417   0.991   2.152   6.435
 9506SOL    HW229418   1.062   2.038   6.341
 9507SOL     OW29419   1.274   2.147   3.344
 9507SOL    HW129420   1.188   2.139   3.293
 9507SOL    HW229421   1.350   2.153   3.280
 9508SOL     OW29422   6.220   2.512   0.895
 9508SOL    HW129423   6.286   2.493   0.822
 9508SOL    HW229424   6.229   2.607   0.924
 9509SOL     OW29425   0.766   1.124   3.943
 9509SOL    HW129426   0.687   1.062   3.936
 9509SOL    HW229427   0.827   1.092   4.016
 9510SOL     OW29428   1.578   3.610   3.185
 9510SOL    HW129429   1.493   3.557   3.192
 9510SOL    HW229430   1.603   3.620   3.089
 9511SOL     OW29431   1.100   0.574   0.546
 9511SOL    HW129432   1.117   0.672   0.546
 9511SOL    HW229433   1.012   0.556   0.591
 9512SOL     OW29434   6.013   1.712   1.871
 9512SOL    HW129435   6.071   1.634   1.896
 9512SOL    HW229436   5.982   1.758   1.954
 9513SOL     OW29437   2.235   3.972   6.510
 9513SOL    HW129438   2.291   3.939   6.586
 9513SOL    HW229439   2.282   3.956   6.423
 9514SOL     OW29440   2.541   4.927   6.054
 9514SOL    HW129441   2.627   4.972   6.029
 9514SOL    HW229442   2.539   4.835   6.015
 9515SOL     OW29443   2.232   5.709   1.016
 9515SOL    HW129444   2.251   5.803   0.991
 9515SOL    HW229445   2.204   5.705   1.112
 9516SOL     OW29446   5.324   4.275   5.484
 9516SOL    HW129447   5.251   4.315   5.540
 9516SOL    HW229448   5.367   4.199   5.534
 9517SOL     OW29449   1.777   5.001   1.037
 9517SOL    HW129450   1.801   5.098   1.036
 9517SOL    HW229451   1.855   4.947   1.004
 9518SOL     OW29452   2.405   2.368   6.906
 9518SOL    HW129453   2.324   2.386   6.962
 9518SOL    HW229454   2.382   2.304   6.834
 9519SOL     OW29455   4.056   3.821   4.616
 9519SOL    HW129456   4.030   3.903   4.666
 9519SOL    HW229457   4.025   3.828   4.521
 9520SOL     OW29458   1.722   1.444   3.430
 9520SOL    HW129459   1.710   1.395   3.344
 9520SOL    HW229460   1.680   1.391   3.504
 9521SOL     OW29461   5.025   5.401   1.577
 9521SOL    HW129462   4.996   5.447   1.661
 9521SOL    HW229463   4.991   5.307   1.577
 9522SOL     OW29464   3.219   5.429   1.287
 9522SOL    HW129465   3.150   5.415   1.358
 9522SOL    HW229466   3.224   5.348   1.229
 9523SOL     OW29467   2.649   4.720   5.255
 9523SOL    HW129468   2.684   4.660   5.183
 9523SOL    HW229469   2.605   4.800   5.213
 9524SOL     OW29470   3.706   3.213   0.866
 9524SOL    HW129471   3.697   3.278   0.790
 9524SOL    HW229472   3.637   3.233   0.935
 9525SOL     OW29473   2.413   2.555   5.427
 9525SOL    HW129474   2.479   2.601   5.368
 9525SOL    HW229475   2.443   2.461   5.444
 9526SOL     OW29476   6.197   5.198   1.878
 9526SOL    HW129477   6.284   5.162   1.844
 9526SOL    HW229478   6.189   5.178   1.976
 9527SOL     OW29479   0.594   0.502   4.202
 9527SOL    HW129480   0.595   0.487   4.301
 9527SOL    HW229481   0.571   0.417   4.155
 9528SOL     OW29482   6.587   1.474   0.307
 9528SOL    HW129483   6.541   1.396   0.350
 9528SOL    HW229484   6.630   1.443   0.222
 9529SOL     OW29485   6.282   3.349   6.410
 9529SOL    HW129486   6.332   3.435   6.415
 9529SOL    HW229487   6.219   3.351   6.332
 9530SOL     OW29488   1.641   4.291   2.360
 9530SOL    HW129489   1.622   4.326   2.268
 9530SOL    HW229490   1.555   4.273   2.407
 9531SOL     OW29491   4.336   5.091   2.752
 9531SOL    HW129492   4.328   5.142   2.838
 9531SOL    HW229493   4.428   5.101   2.715
 9532SOL     OW29494   6.387   0.086   1.575
 9532SOL    HW129495   6.400   0.041   1.486
 9532SOL    HW229496   6.372   0.016   1.645
 9533SOL     OW29497   6.908   6.075   5.695
 9533SOL    HW129498   6.817   6.085   5.735
 9533SOL    HW229499   6.977   6.111   5.758
 9534SOL     OW29500   0.275   4.253   5.012
 9534SOL    HW129501   0.298   4.162   4.977
 9534SOL    HW229502   0.352   4.288   5.067
 9535SOL     OW29503   2.124   1.185   6.296
 9535SOL    HW129504   2.216   1.176   6.333
 9535SOL    HW229505   2.095   1.280   6.301
 9536SOL     OW29506   2.735   4.017   5.517
 9536SOL    HW129507   2.649   4.065   5.499
 9536SOL    HW229508   2.725   3.921   5.490
 9537SOL     OW29509   2.825   6.734   3.314
 9537SOL    HW129510   2.816   6.828   3.347
 9537SOL    HW229511   2.824   6.733   3.214
 9538SOL     OW29512   5.704   2.265   3.440
 9538SOL    HW129513   5.766   2.198   3.482
 9538SOL    HW229514   5.668   2.326   3.511
 9539SOL     OW29515   2.720   3.781   5.321
 9539SOL    HW129516   2.693   3.685   5.316
 9539SOL    HW229517   2.819   3.787   5.331
 9540SOL     OW29518   5.833   3.939   4.129
 9540SOL    HW129519   5.926   3.914   4.156
 9540SOL    HW229520   5.824   3.930   4.030
 9541SOL     OW29521   4.112   0.367   5.681
 9541SOL    HW129522   4.186   0.432   5.699
 9541SOL    HW229523   4.058   0.399   5.604
 9542SOL     OW29524   5.243   4.414   4.515
 9542SOL    HW129525   5.175   4.374   4.454
 9542SOL    HW229526   5.243   4.365   4.603
 9543SOL     OW29527   3.746   0.852   5.118
 9543SOL    HW129528   3.842   0.826   5.111
 9543SOL    HW229529   3.738   0.951   5.130
 9544SOL     OW29530   6.741   1.815   3.726
 9544SOL    HW129531   6.741   1.715   3.723
 9544SOL    HW229532   6.723   1.846   3.820
 9545SOL     OW29533   5.902   5.496   4.191
 9545SOL    HW129534   5.880   5.516   4.286
 9545SOL    HW229535   6.000   5.510   4.176
 9546SOL     OW29536   3.722   2.254   5.295
 9546SOL    HW129537   3.661   2.322   5.335
 9546SOL    HW229538   3.808   2.253   5.346
 9547SOL     OW29539   1.886   6.357   4.483
 9547SOL    HW129540   1.962   6.299   4.514
 9547SOL    HW229541   1.822   6.302   4.429
 9548SOL     OW29542   6.478   5.622   6.158
 9548SOL    HW129543   6.402   5.596   6.098
 9548SOL    HW229544   6.561   5.573   6.129
 9549SOL     OW29545   2.739   2.805   1.143
 9549SOL    HW129546   2.828   2.758   1.149
 9549SOL    HW229547   2.675   2.747   1.092
 9550SOL     OW29548   0.505   1.641   0.290
 9550SOL    HW129549   0.579   1.595   0.340
 9550SOL    HW229550   0.442   1.682   0.355
 9551SOL     OW29551   5.622   1.099   4.755
 9551SOL    HW129552   5.549   1.074   4.818
 9551SOL    HW229553   5.688   1.024   4.748
 9552SOL     OW29554   1.679   6.706   3.162
 9552SOL    HW129555   1.723   6.628   3.118
 9552SOL    HW229556   1.635   6.677   3.247
 9553SOL     OW29557   6.231   4.132   6.536
 9553SOL    HW129558   6.210   4.157   6.631
 9553SOL    HW229559   6.152   4.152   6.478
 9554SOL     OW29560   1.860   0.206   1.391
 9554SOL    HW129561   1.906   0.177   1.308
 9554SOL    HW229562   1.788   0.271   1.368
 9555SOL     OW29563   0.971   1.160   2.859
 9555SOL    HW129564   0.933   1.073   2.827
 9555SOL    HW229565   1.022   1.146   2.944
 9556SOL     OW29566   1.781   2.847   1.719
 9556SOL    HW129567   1.786   2.790   1.802
 9556SOL    HW229568   1.803   2.941   1.743
 9557SOL     OW29569   0.295   0.240   3.000
 9557SOL    HW129570   0.265   0.243   2.905
 9557SOL    HW229571   0.226   0.284   3.058
 9558SOL     OW29572   6.269   6.580   4.503
 9558SOL    HW129573   6.297   6.486   4.482
 9558SOL    HW229574   6.218   6.617   4.425
 9559SOL     OW29575   0.509   4.153   0.979
 9559SOL    HW129576   0.590   4.147   1.038
 9559SOL    HW229577   0.509   4.241   0.932
 9560SOL     OW29578   1.797   2.059   3.661
 9560SOL    HW129579   1.715   2.086   3.609
 9560SOL    HW229580   1.879   2.086   3.610
 9561SOL     OW29581   1.649   6.387   0.422
 9561SOL    HW129582   1.657   6.297   0.466
 9561SOL    HW229583   1.722   6.446   0.454
 9562SOL     OW29584   3.403   0.241   5.956
 9562SOL    HW129585   3.389   0.285   6.045
 9562SOL    HW229586   3.360   0.297   5.884
 9563SOL     OW29587   6.369   0.087   0.921
 9563SOL    HW129588   6.333   0.048   0.836
 9563SOL    HW229589   6.462   0.120   0.906
 9564SOL     OW29590   2.698   0.027   6.942
 9564SOL    HW129591   2.646   0.003   7.024
 9564SOL    HW229592   2.776   6.993   6.933
 9565SOL     OW29593   4.159   6.481   4.737
 9565SOL    HW129594   4.178   6.476   4.835
 9565SOL    HW229595   4.096   6.407   4.712
 9566SOL     OW29596   1.929   4.956   0.250
 9566SOL    HW129597   1.909   4.938   0.154
 9566SOL    HW229598   2.001   5.025   0.257
 9567SOL     OW29599   5.636   4.389   6.685
 9567SOL    HW129600   5.570   4.425   6.751
 9567SOL    HW229601   5.710   4.343   6.734
 9568SOL     OW29602   4.711   2.166   6.388
 9568SOL    HW129603   4.663   2.179   6.301
 9568SOL    HW229604   4.660   2.101   6.445
 9569SOL     OW29605   0.073   1.344   2.966
 9569SOL    HW129606   0.134   1.409   3.012
 9569SOL    HW229607   0.114   1.315   2.880
 9570SOL     OW29608   1.246   3.215   2.397
 9570SOL    HW129609   1.316   3.197   2.328
 9570SOL    HW229610   1.169   3.152   2.385
 9571SOL     OW29611   2.665   3.752   6.756
 9571SOL    HW129612   2.617   3.790   6.677
 9571SOL    HW229613   2.755   3.719   6.727
 9572SOL     OW29614   1.794   5.877   1.986
 9572SOL    HW129615   1.871   5.901   2.045
 9572SOL    HW229616   1.723   5.832   2.041
 9573SOL     OW29617   1.557   0.680   6.704
 9573SOL    HW129618   1.565   0.649   6.609
 9573SOL    HW229619   1.473   0.642   6.744
 9574SOL     OW29620   4.070   3.175   4.009
 9574SOL    HW129621   4.032   3.264   3.986
 9574SOL    HW229622   4.101   3.129   3.926
 9575SOL     OW29623   6.181   1.739   1.448
 9575SOL    HW129624   6.105   1.688   1.409
 9575SOL    HW229625   6.264   1.684   1.447
 9576SOL     OW29626   2.177   0.387   2.207
 9576SOL    HW129627   2.129   0.426   2.286
 9576SOL    HW229628   2.254   0.446   2.183
 9577SOL     OW29629   1.279   0.575   4.510
 9577SOL    HW129630   1.235   0.597   4.596
 9577SOL    HW229631   1.322   0.657   4.472
 9578SOL     OW29632   0.871   3.717   3.299
 9578SOL    HW129633   0.782   3.759   3.281
 9578SOL    HW229634   0.881   3.698   3.396
 9579SOL     OW29635   1.799   5.164   2.988
 9579SOL    HW129636   1.809   5.254   2.946
 9579SOL    HW229637   1.880   5.109   2.968
 9580SOL     OW29638   4.314   2.950   0.903
 9580SOL    HW129639   4.354   2.928   0.992
 9580SOL    HW229640   4.361   2.899   0.831
 9581SOL     OW29641   0.941   5.258   6.607
 9581SOL    HW129642   0.985   5.293   6.524
 9581SOL    HW229643   0.890   5.332   6.652
 9582SOL     OW29644   4.838   4.775   5.108
 9582SOL    HW129645   4.916   4.837   5.099
 9582SOL    HW229646   4.857   4.690   5.060
 9583SOL     OW29647   3.611   4.915   1.236
 9583SOL    HW129648   3.577   4.938   1.145
 9583SOL    HW229649   3.695   4.967   1.254
 9584SOL     OW29650   6.757   6.664   0.157
 9584SOL    HW129651   6.679   6.689   0.099
 9584SOL    HW229652   6.832   6.630   0.100
 9585SOL     OW29653   5.988   0.538   3.866
 9585SOL    HW129654   6.018   0.613   3.807
 9585SOL    HW229655   6.046   0.533   3.947
 9586SOL     OW29656   5.692   3.862   2.592
 9586SOL    HW129657   5.719   3.775   2.633
 9586SOL    HW229658   5.629   3.910   2.653
 9587SOL     OW29659   6.663   1.252   2.426
 9587SOL    HW129660   6.693   1.341   2.461
 9587SOL    HW229661   6.564   1.244   2.436
 9588SOL     OW29662   0.379   1.817   2.532
 9588SOL    HW129663   0.367   1.846   2.627
 9588SOL    HW229664   0.476   1.809   2.512
 9589SOL     OW29665   2.449   5.301   5.570
 9589SOL    HW129666   2.458   5.392   5.612
 9589SOL    HW229667   2.418   5.236   5.639
 9590SOL     OW29668   0.650   4.056   2.384
 9590SOL    HW129669   0.609   4.076   2.473
 9590SOL    HW229670   0.653   3.958   2.369
 9591SOL     OW29671   3.191   6.146   0.112
 9591SOL    HW129672   3.095   6.135   0.138
 9591SOL    HW229673   3.213   6.081   0.039
 9592SOL     OW29674   3.392   4.368   1.028
 9592SOL    HW129675   3.377   4.288   0.969
 9592SOL    HW229676   3.479   4.410   1.005
 9593SOL     OW29677   6.729   6.859   4.481
 9593SOL    HW129678   6.698   6.823   4.569
 9593SOL    HW229679   6.729   6.785   4.413
 9594SOL     OW29680   1.552   6.329   3.205
 9594SOL    HW129681   1.647   6.353   3.187
 9594SOL    HW229682   1.492   6.380   3.145
 9595SOL     OW29683   1.996   4.374   5.191
 9595SOL    HW129684   1.984   4.456   5.136
 9595SOL    HW229685   2.077   4.384   5.250
 9596SOL     OW29686   0.271   6.316   0.468
 9596SOL    HW129687   0.282   6.308   0.369
 9596SOL    HW229688   0.197   6.257   0.499
 9597SOL     OW29689   0.421   4.812   0.838
 9597SOL    HW129690   0.391   4.836   0.745
 9597SOL    HW229691   0.506   4.859   0.858
 9598SOL     OW29692   0.934   3.419   5.223
 9598SOL    HW129693   0.934   3.436   5.321
 9598SOL    HW229694   1.023   3.446   5.184
 9599SOL     OW29695   3.531   0.685   5.475
 9599SOL    HW129696   3.540   0.696   5.376
 9599SOL    HW229697   3.617   0.649   5.512
 9600SOL     OW29698   2.596   6.697   0.499
 9600SOL    HW129699   2.637   6.607   0.514
 9600SOL    HW229700   2.664   6.768   0.516
 9601SOL     OW29701   6.682   3.744   0.176
 9601SOL    HW129702   6.675   3.675   0.103
 9601SOL    HW229703   6.630   3.713   0.255
 9602SOL     OW29704   6.830   4.878   6.669
 9602SOL    HW129705   6.804   4.797   6.616
 9602SOL    HW229706   6.840   4.853   6.766
 9603SOL     OW29707   3.322   1.157   4.840
 9603SOL    HW129708   3.241   1.139   4.784
 9603SOL    HW229709   3.388   1.209   4.787
 9604SOL     OW29710   4.717   0.469   0.592
 9604SOL    HW129711   4.792   0.503   0.649
 9604SOL    HW229712   4.705   0.371   0.608
 9605SOL     OW29713   1.047   4.839   4.624
 9605SOL    HW129714   1.133   4.888   4.608
 9605SOL    HW229715   1.065   4.758   4.679
 9606SOL     OW29716   1.497   5.989   5.424
 9606SOL    HW129717   1.564   6.024   5.358
 9606SOL    HW229718   1.545   5.950   5.503
 9607SOL     OW29719   1.386   2.321   1.975
 9607SOL    HW129720   1.415   2.415   1.962
 9607SOL    HW229721   1.330   2.292   1.898
 9608SOL     OW29722   6.497   6.355   1.903
 9608SOL    HW129723   6.515   6.320   1.995
 9608SOL    HW229724   6.426   6.301   1.860
 9609SOL     OW29725   2.219   4.110   5.918
 9609SOL    HW129726   2.170   4.085   6.002
 9609SOL    HW229727   2.164   4.085   5.839
 9610SOL     OW29728   1.733   4.805   3.798
 9610SOL    HW129729   1.736   4.878   3.730
 9610SOL    HW229730   1.705   4.842   3.886
 9611SOL     OW29731   0.445   0.064   0.090
 9611SOL    HW129732   0.508   7.016   0.111
 9611SOL    HW229733   0.495   0.139   0.047
 9612SOL     OW29734   6.606   3.249   1.389
 9612SOL    HW129735   6.592   3.325   1.325
 9612SOL    HW229736   6.541   3.258   1.465
 9613SOL     OW29737   3.868   6.525   3.574
 9613SOL    HW129738   3.909   6.590   3.639
 9613SOL    HW229739   3.812   6.575   3.509
 9614SOL     OW29740   3.950   2.610   1.007
 9614SOL    HW129741   3.865   2.604   0.955
 9614SOL    HW229742   4.013   2.538   0.977
 9615SOL     OW29743   1.037   0.128   1.976
 9615SOL    HW129744   0.999   0.036   1.988
 9615SOL    HW229745   0.974   0.195   2.015
 9616SOL     OW29746   4.516   3.378   0.378
 9616SOL    HW129747   4.479   3.294   0.339
 9616SOL    HW229748   4.449   3.419   0.440
 9617SOL     OW29749   0.698   4.022   4.380
 9617SOL    HW129750   0.784   4.044   4.334
 9617SOL    HW229751   0.680   4.092   4.450
 9618SOL     OW29752   4.602   0.086   6.081
 9618SOL    HW129753   4.700   0.099   6.065
 9618SOL    HW229754   4.584   0.086   6.179
 9619SOL     OW29755   1.063   0.445   0.272
 9619SOL    HW129756   0.969   0.471   0.249
 9619SOL    HW229757   1.084   0.476   0.365
 9620SOL     OW29758   5.800   1.600   6.657
 9620SOL    HW129759   5.813   1.545   6.739
 9620SOL    HW229760   5.730   1.669   6.674
 9621SOL     OW29761   1.622   1.495   2.999
 9621SOL    HW129762   1.549   1.543   3.048
 9621SOL    HW229763   1.655   1.420   3.056
 9622SOL     OW29764   6.067   1.068   6.836
 9622SOL    HW129765   6.021   1.102   6.918
 9622SOL    HW229766   6.006   1.005   6.787
 9623SOL     OW29767   3.894   5.399   5.705
 9623SOL    HW129768   3.977   5.417   5.758
 9623SOL    HW229769   3.819   5.454   5.741
 9624SOL     OW29770   5.603   4.346   3.622
 9624SOL    HW129771   5.581   4.277   3.691
 9624SOL    HW229772   5.652   4.422   3.665
 9625SOL     OW29773   5.353   5.045   6.975
 9625SOL    HW129774   5.269   4.999   7.005
 9625SOL    HW229775   5.425   5.028   0.015
 9626SOL     OW29776   2.334   6.032   5.911
 9626SOL    HW129777   2.401   6.014   5.983
 9626SOL    HW229778   2.370   6.102   5.848
 9627SOL     OW29779   6.847   4.277   4.495
 9627SOL    HW129780   6.807   4.278   4.403
 9627SOL    HW229781   6.907   4.356   4.507
 9628SOL     OW29782   6.013   4.504   0.398
 9628SOL    HW129783   6.111   4.514   0.413
 9628SOL    HW229784   5.997   4.461   0.308
 9629SOL     OW29785   6.254   6.072   2.687
 9629SOL    HW129786   6.333   6.016   2.711
 9629SOL    HW229787   6.175   6.013   2.670
 9630SOL     OW29788   6.777   6.052   5.387
 9630SOL    HW129789   6.753   5.979   5.451
 9630SOL    HW229790   6.736   6.138   5.418
 9631SOL     OW29791   5.300   1.847   0.584
 9631SOL    HW129792   5.381   1.869   0.530
 9631SOL    HW229793   5.235   1.796   0.528
 9632SOL     OW29794   2.167   5.611   1.541
 9632SOL    HW129795   2.096   5.656   1.594
 9632SOL    HW229796   2.256   5.624   1.586
 9633SOL     OW29797   4.121   4.154   0.382
 9633SOL    HW129798   4.153   4.182   0.473
 9633SOL    HW229799   4.042   4.093   0.392
 9634SOL     OW29800   6.893   6.152   3.825
 9634SOL    HW129801   6.857   6.223   3.884
 9634SOL    HW229802   6.984   6.178   3.792
 9635SOL     OW29803   2.244   4.437   5.307
 9635SOL    HW129804   2.229   4.521   5.359
 9635SOL    HW229805   2.313   4.453   5.237
 9636SOL     OW29806   4.389   1.674   6.117
 9636SOL    HW129807   4.395   1.578   6.087
 9636SOL    HW229808   4.462   1.693   6.183
 9637SOL     OW29809   3.673   2.576   0.349
 9637SOL    HW129810   3.741   2.626   0.295
 9637SOL    HW229811   3.718   2.498   0.393
 9638SOL     OW29812   0.151   3.053   5.683
 9638SOL    HW129813   0.130   3.139   5.637
 9638SOL    HW229814   0.246   3.027   5.662
 9639SOL     OW29815   4.282   2.275   2.200
 9639SOL    HW129816   4.366   2.226   2.176
 9639SOL    HW229817   4.299   2.330   2.282
 9640SOL     OW29818   3.011   0.684   2.708
 9640SOL    HW129819   3.024   0.585   2.703
 9640SOL    HW229820   3.093   0.730   2.671
 9641SOL     OW29821   5.749   5.248   1.484
 9641SOL    HW129822   5.772   5.244   1.581
 9641SOL    HW229823   5.657   5.287   1.474
 9642SOL     OW29824   1.309   5.709   4.366
 9642SOL    HW129825   1.326   5.611   4.370
 9642SOL    HW229826   1.394   5.757   4.347
 9643SOL     OW29827   5.027   4.209   3.535
 9643SOL    HW129828   5.046   4.191   3.439
 9643SOL    HW229829   4.970   4.291   3.543
 9644SOL     OW29830   1.098   5.322   5.698
 9644SOL    HW129831   1.022   5.293   5.641
 9644SOL    HW229832   1.107   5.421   5.695
 9645SOL     OW29833   3.188   5.065   4.285
 9645SOL    HW129834   3.185   4.966   4.272
 9645SOL    HW229835   3.095   5.101   4.295
 9646SOL     OW29836   2.472   4.834   1.738
 9646SOL    HW129837   2.373   4.834   1.723
 9646SOL    HW229838   2.514   4.908   1.686
 9647SOL     OW29839   7.023   6.259   2.383
 9647SOL    HW129840   0.063   6.221   2.319
 9647SOL    HW229841   0.020   6.355   2.402
 9648SOL     OW29842   3.918   2.296   6.834
 9648SOL    HW129843   3.839   2.346   6.798
 9648SOL    HW229844   3.925   2.208   6.787
 9649SOL     OW29845   1.769   4.244   6.946
 9649SOL    HW129846   1.710   4.325   6.957
 9649SOL    HW229847   1.839   4.263   6.877
 9650SOL     OW29848   4.571   4.930   3.228
 9650SOL    HW129849   4.523   4.900   3.311
 9650SOL    HW229850   4.572   5.030   3.224
 9651SOL     OW29851   5.294   1.624   1.281
 9651SOL    HW129852   5.372   1.628   1.344
 9651SOL    HW229853   5.209   1.630   1.334
 9652SOL     OW29854   1.567   4.824   1.655
 9652SOL    HW129855   1.538   4.772   1.574
 9652SOL    HW229856   1.629   4.769   1.710
 9653SOL     OW29857   5.453   5.498   4.632
 9653SOL    HW129858   5.535   5.473   4.581
 9653SOL    HW229859   5.414   5.417   4.675
 9654SOL     OW29860   3.610   3.211   2.955
 9654SOL    HW129861   3.551   3.262   3.018
 9654SOL    HW229862   3.655   3.275   2.893
 9655SOL     OW29863   0.159   1.740   0.311
 9655SOL    HW129864   0.072   1.752   0.263
 9655SOL    HW229865   0.230   1.792   0.263
 9656SOL     OW29866   4.391   2.299   0.751
 9656SOL    HW129867   4.464   2.332   0.812
 9656SOL    HW229868   4.356   2.212   0.786
 9657SOL     OW29869   5.464   3.231   2.798
 9657SOL    HW129870   5.402   3.268   2.728
 9657SOL    HW229871   5.559   3.247   2.770
 9658SOL     OW29872   5.311   1.850   2.356
 9658SOL    HW129873   5.313   1.752   2.337
 9658SOL    HW229874   5.254   1.896   2.289
 9659SOL     OW29875   0.479   3.526   0.101
 9659SOL    HW129876   0.524   3.471   0.172
 9659SOL    HW229877   0.546   3.588   0.061
 9660SOL     OW29878   0.581   6.975   2.761
 9660SOL    HW129879   0.482   6.959   2.755
 9660SOL    HW229880   0.616   6.932   2.844
 9661SOL     OW29881   3.697   6.005   1.385
 9661SOL    HW129882   3.690   6.032   1.481
 9661SOL    HW229883   3.646   5.921   1.370
 9662SOL     OW29884   3.772   3.080   5.845
 9662SOL    HW129885   3.711   3.101   5.921
 9662SOL    HW229886   3.787   2.981   5.841
 9663SOL     OW29887   6.203   6.260   2.508
 9663SOL    HW129888   6.291   6.307   2.506
 9663SOL    HW229889   6.213   6.171   2.552
 9664SOL     OW29890   5.693   5.412   4.542
 9664SOL    HW129891   5.709   5.412   4.641
 9664SOL    HW229892   5.770   5.368   4.496
 9665SOL     OW29893   6.142   5.987   6.570
 9665SOL    HW129894   6.171   5.931   6.492
 9665SOL    HW229895   6.140   6.083   6.542
 9666SOL     OW29896   6.591   4.024   2.322
 9666SOL    HW129897   6.506   4.033   2.270
 9666SOL    HW229898   6.617   4.114   2.358
 9667SOL     OW29899   4.191   2.889   6.780
 9667SOL    HW129900   4.265   2.825   6.797
 9667SOL    HW229901   4.151   2.870   6.690
 9668SOL     OW29902   0.006   0.759   6.299
 9668SOL    HW129903   0.016   0.856   6.279
 9668SOL    HW229904   0.061   0.706   6.234
 9669SOL     OW29905   2.043   6.899   1.926
 9669SOL    HW129906   2.042   6.986   1.975
 9669SOL    HW229907   2.007   6.827   1.985
 9670SOL     OW29908   6.777   4.960   5.667
 9670SOL    HW129909   6.853   4.952   5.732
 9670SOL    HW229910   6.718   5.036   5.695
 9671SOL     OW29911   0.005   4.179   6.980
 9671SOL    HW129912   6.969   4.238   0.004
 9671SOL    HW229913   0.082   4.153   0.012
 9672SOL     OW29914   1.750   5.637   3.163
 9672SOL    HW129915   1.711   5.723   3.131
 9672SOL    HW229916   1.677   5.574   3.187
 9673SOL     OW29917   4.445   3.740   1.224
 9673SOL    HW129918   4.411   3.822   1.269
 9673SOL    HW229919   4.369   3.676   1.211
 9674SOL     OW29920   3.292   6.944   3.278
 9674SOL    HW129921   3.323   6.850   3.291
 9674SOL    HW229922   3.306   6.970   3.182
 9675SOL     OW29923   5.454   2.561   6.651
 9675SOL    HW129924   5.551   2.582   6.661
 9675SOL    HW229925   5.436   2.468   6.683
 9676SOL     OW29926   1.863   3.387   5.759
 9676SOL    HW129927   1.875   3.485   5.743
 9676SOL    HW229928   1.947   3.339   5.732
 9677SOL     OW29929   6.778   5.682   4.789
 9677SOL    HW129930   6.799   5.587   4.769
 9677SOL    HW229931   6.751   5.729   4.705
 9678SOL     OW29932   3.017   3.820   3.710
 9678SOL    HW129933   2.973   3.800   3.798
 9678SOL    HW229934   3.009   3.740   3.650
 9679SOL     OW29935   3.309   1.011   2.929
 9679SOL    HW129936   3.335   0.992   2.835
 9679SOL    HW229937   3.236   0.949   2.958
 9680SOL     OW29938   4.435   0.974   3.215
 9680SOL    HW129939   4.515   1.023   3.180
 9680SOL    HW229940   4.359   0.983   3.150
 9681SOL     OW29941   2.985   1.901   0.974
 9681SOL    HW129942   2.974   1.946   1.063
 9681SOL    HW229943   3.061   1.836   0.979
 9682SOL     OW29944   4.823   4.168   3.830
 9682SOL    HW129945   4.801   4.265   3.822
 9682SOL    HW229946   4.773   4.128   3.906
 9683SOL     OW29947   3.235   5.917   1.928
 9683SOL    HW129948   3.314   5.878   1.880
 9683SOL    HW229949   3.257   5.929   2.025
 9684SOL     OW29950   0.722   3.345   6.529
 9684SOL    HW129951   0.816   3.323   6.553
 9684SOL    HW229952   0.660   3.293   6.588
 9685SOL     OW29953   3.883   4.462   1.272
 9685SOL    HW129954   3.845   4.413   1.351
 9685SOL    HW229955   3.809   4.486   1.209
 9686SOL     OW29956   0.697   2.718   6.723
 9686SOL    HW129957   0.761   2.788   6.691
 9686SOL    HW229958   0.640   2.687   6.646
 9687SOL     OW29959   1.486   0.673   4.190
 9687SOL    HW129960   1.491   0.706   4.284
 9687SOL    HW229961   1.563   0.710   4.138
 9688SOL     OW29962   1.073   2.891   1.566
 9688SOL    HW129963   1.135   2.968   1.557
 9688SOL    HW229964   1.024   2.878   1.479
 9689SOL     OW29965   1.007   4.444   6.132
 9689SOL    HW129966   1.070   4.440   6.055
 9689SOL    HW229967   1.054   4.418   6.216
 9690SOL     OW29968   5.868   5.125   6.796
 9690SOL    HW129969   5.940   5.074   6.843
 9690SOL    HW229970   5.779   5.092   6.827
 9691SOL     OW29971   3.380   5.160   1.364
 9691SOL    HW129972   3.303   5.096   1.371
 9691SOL    HW229973   3.426   5.167   1.452
 9692SOL     OW29974   3.972   5.959   2.268
 9692SOL    HW129975   3.891   6.014   2.246
 9692SOL    HW229976   3.945   5.863   2.277
 9693SOL     OW29977   5.454   4.058   2.534
 9693SOL    HW129978   5.380   3.992   2.526
 9693SOL    HW229979   5.527   4.034   2.471
 9694SOL     OW29980   2.882   1.256   0.780
 9694SOL    HW129981   2.902   1.332   0.718
 9694SOL    HW229982   2.814   1.285   0.848
 9695SOL     OW29983   6.753   3.069   3.129
 9695SOL    HW129984   6.733   3.017   3.212
 9695SOL    HW229985   6.820   3.140   3.150
 9696SOL     OW29986   5.405   3.020   1.462
 9696SOL    HW129987   5.341   2.977   1.398
 9696SOL    HW229988   5.496   2.978   1.450
 9697SOL     OW29989   0.385   4.948   6.930
 9697SOL    HW129990   0.337   5.028   6.893
 9697SOL    HW229991   0.371   4.869   6.870
 9698SOL     OW29992   5.067   1.835   6.279
 9698SOL    HW129993   5.017   1.791   6.353
 9698SOL    HW229994   5.022   1.921   6.254
 9699SOL     OW29995   6.205   5.613   6.624
 9699SOL    HW129996   6.188   5.643   6.718
 9699SOL    HW229997   6.244   5.521   6.625
 9700SOL     OW29998   5.129   5.605   4.934
 9700SOL    HW129999   5.051   5.632   4.877
 9700SOL    HW230000   5.122   5.650   5.023
 9701SOL     OW30001   4.177   4.663   5.681
 9701SOL    HW130002   4.185   4.762   5.669
 9701SOL    HW230003   4.263   4.619   5.654
 9702SOL     OW30004   4.575   0.714   6.620
 9702SOL    HW130005   4.622   0.674   6.699
 9702SOL    HW230006   4.519   0.791   6.650
 9703SOL     OW30007   4.943   3.794   3.840
 9703SOL    HW130008   4.939   3.712   3.896
 9703SOL    HW230009   5.010   3.858   3.878
 9704SOL     OW30010   3.689   0.072   1.638
 9704SOL    HW130011   3.618   0.066   1.707
 9704SOL    HW230012   3.767   0.124   1.674
 9705SOL     OW30013   5.435   4.447   5.716
 9705SOL    HW130014   5.527   4.408   5.703
 9705SOL    HW230015   5.400   4.421   5.805
 9706SOL     OW30016   2.226   3.225   0.822
 9706SOL    HW130017   2.269   3.142   0.858
 9706SOL    HW230018   2.295   3.296   0.810
 9707SOL     OW30019   6.134   4.724   2.356
 9707SOL    HW130020   6.110   4.744   2.451
 9707SOL    HW230021   6.231   4.700   2.351
 9708SOL     OW30022   1.441   1.871   4.318
 9708SOL    HW130023   1.477   1.884   4.411
 9708SOL    HW230024   1.477   1.786   4.280
 9709SOL     OW30025   4.989   6.165   2.838
 9709SOL    HW130026   4.889   6.165   2.837
 9709SOL    HW230027   5.022   6.221   2.914
 9710SOL     OW30028   0.146   1.388   1.161
 9710SOL    HW130029   0.084   1.466   1.174
 9710SOL    HW230030   0.109   1.308   1.207
 9711SOL     OW30031   3.347   5.347   6.559
 9711SOL    HW130032   3.363   5.410   6.482
 9711SOL    HW230033   3.405   5.374   6.636
 9712SOL     OW30034   5.456   3.884   6.469
 9712SOL    HW130035   5.404   3.969   6.464
 9712SOL    HW230036   5.520   3.880   6.392
 9713SOL     OW30037   1.524   4.667   2.998
 9713SOL    HW130038   1.564   4.695   2.911
 9713SOL    HW230039   1.470   4.743   3.036
 9714SOL     OW30040   4.465   6.374   6.735
 9714SOL    HW130041   4.506   6.298   6.787
 9714SOL    HW230042   4.367   6.358   6.724
 9715SOL     OW30043   5.743   4.329   6.945
 9715SOL    HW130044   5.766   4.234   6.966
 9715SOL    HW230045   5.676   4.362   7.012
 9716SOL     OW30046   3.669   4.618   6.674
 9716SOL    HW130047   3.701   4.528   6.645
 9716SOL    HW230048   3.570   4.614   6.690
 9717SOL     OW30049   5.905   6.084   5.847
 9717SOL    HW130050   5.922   5.989   5.824
 9717SOL    HW230051   5.918   6.097   5.945
 9718SOL     OW30052   4.771   3.443   0.304
 9718SOL    HW130053   4.786   3.401   0.214
 9718SOL    HW230054   4.686   3.409   0.343
 9719SOL     OW30055   6.630   1.190   5.532
 9719SOL    HW130056   6.718   1.236   5.545
 9719SOL    HW230057   6.635   1.098   5.570
 9720SOL     OW30058   0.138   5.517   2.020
 9720SOL    HW130059   0.079   5.438   2.036
 9720SOL    HW230060   0.230   5.498   2.054
 9721SOL     OW30061   0.348   1.932   0.188
 9721SOL    HW130062   0.384   2.019   0.221
 9721SOL    HW230063   0.357   1.928   0.088
 9722SOL     OW30064   4.379   0.689   4.403
 9722SOL    HW130065   4.385   0.598   4.362
 9722SOL    HW230066   4.462   0.707   4.455
 9723SOL     OW30067   2.760   6.928   3.055
 9723SOL    HW130068   2.822   6.852   3.036
 9723SOL    HW230069   2.790   7.009   3.006
 9724SOL     OW30070   1.267   4.288   0.341
 9724SOL    HW130071   1.253   4.308   0.244
 9724SOL    HW230072   1.216   4.355   0.396
 9725SOL     OW30073   4.887   5.275   6.080
 9725SOL    HW130074   4.800   5.248   6.038
 9725SOL    HW230075   4.959   5.275   6.010
 9726SOL     OW30076   5.409   1.487   4.061
 9726SOL    HW130077   5.400   1.391   4.088
 9726SOL    HW230078   5.377   1.498   3.967
 9727SOL     OW30079   1.223   2.818   7.002
 9727SOL    HW130080   1.163   2.892   6.972
 9727SOL    HW230081   1.310   2.822   6.951
 9728SOL     OW30082   1.175   0.148   5.520
 9728SOL    HW130083   1.215   0.058   5.506
 9728SOL    HW230084   1.235   0.218   5.479
 9729SOL     OW30085   0.891   4.372   3.122
 9729SOL    HW130086   0.980   4.408   3.151
 9729SOL    HW230087   0.894   4.352   3.024
 9730SOL     OW30088   1.160   4.020   3.521
 9730SOL    HW130089   1.135   4.042   3.615
 9730SOL    HW230090   1.245   3.966   3.521
 9731SOL     OW30091   5.048   4.425   1.346
 9731SOL    HW130092   4.990   4.388   1.273
 9731SOL    HW230093   5.086   4.350   1.399
 9732SOL     OW30094   6.891   5.441   2.507
 9732SOL    HW130095   6.927   5.475   2.420
 9732SOL    HW230096   6.854   5.518   2.559
 9733SOL     OW30097   5.679   5.456   0.206
 9733SOL    HW130098   5.648   5.404   0.126
 9733SOL    HW230099   5.778   5.445   0.216
 9734SOL     OW30100   6.618   1.758   1.302
 9734SOL    HW130101   6.613   1.661   1.277
 9734SOL    HW230102   6.573   1.772   1.391
 9735SOL     OW30103   2.165   3.773   3.967
 9735SOL    HW130104   2.169   3.674   3.981
 9735SOL    HW230105   2.093   3.794   3.901
 9736SOL     OW30106   6.071   1.947   6.551
 9736SOL    HW130107   6.127   1.918   6.474
 9736SOL    HW230108   6.063   1.871   6.617
 9737SOL     OW30109   5.559   2.953   3.319
 9737SOL    HW130110   5.657   2.936   3.333
 9737SOL    HW230111   5.547   3.047   3.287
 9738SOL     OW30112   2.009   0.685   0.498
 9738SOL    HW130113   1.997   0.593   0.535
 9738SOL    HW230114   2.096   0.691   0.449
 9739SOL     OW30115   5.924   5.490   1.467
 9739SOL    HW130116   5.924   5.491   1.367
 9739SOL    HW230117   5.904   5.397   1.500
 9740SOL     OW30118   7.006   1.734   3.474
 9740SOL    HW130119   6.911   1.715   3.448
 9740SOL    HW230120   7.011   1.754   3.571
 9741SOL     OW30121   3.996   1.334   2.653
 9741SOL    HW130122   3.978   1.412   2.593
 9741SOL    HW230123   3.917   1.320   2.714
 9742SOL     OW30124   4.425   0.969   0.664
 9742SOL    HW130125   4.326   0.979   0.676
 9742SOL    HW230126   4.470   0.970   0.753
 9743SOL     OW30127   6.876   2.939   4.857
 9743SOL    HW130128   6.939   2.869   4.825
 9743SOL    HW230129   6.907   3.029   4.826
 9744SOL     OW30130   1.772   6.904   2.111
 9744SOL    HW130131   1.821   6.991   2.109
 9744SOL    HW230132   1.821   6.840   2.170
 9745SOL     OW30133   5.482   2.612   6.375
 9745SOL    HW130134   5.524   2.701   6.392
 9745SOL    HW230135   5.445   2.576   6.460
 9746SOL     OW30136   6.553   0.491   5.363
 9746SOL    HW130137   6.492   0.523   5.290
 9746SOL    HW230138   6.587   0.400   5.340
 9747SOL     OW30139   2.798   1.140   1.507
 9747SOL    HW130140   2.699   1.138   1.498
 9747SOL    HW230141   2.838   1.190   1.430
 9748SOL     OW30142   7.009   0.967   3.411
 9748SOL    HW130143   0.045   0.974   3.489
 9748SOL    HW230144   7.014   1.050   3.357
 9749SOL     OW30145   2.615   0.307   4.528
 9749SOL    HW130146   2.678   0.358   4.586
 9749SOL    HW230147   2.549   0.258   4.586
 9750SOL     OW30148   5.925   4.169   2.822
 9750SOL    HW130149   5.937   4.076   2.787
 9750SOL    HW230150   5.831   4.181   2.852
 9751SOL     OW30151   2.035   1.209   0.279
 9751SOL    HW130152   2.045   1.300   0.240
 9751SOL    HW230153   2.007   1.216   0.375
 9752SOL     OW30154   4.624   2.219   4.861
 9752SOL    HW130155   4.692   2.271   4.811
 9752SOL    HW230156   4.533   2.258   4.845
 9753SOL     OW30157   6.801   5.490   6.099
 9753SOL    HW130158   6.834   5.481   6.193
 9753SOL    HW230159   6.858   5.556   6.050
 9754SOL     OW30160   1.896   0.660   0.101
 9754SOL    HW130161   1.913   0.695   0.008
 9754SOL    HW230162   1.912   0.733   0.167
 9755SOL     OW30163   3.292   3.699   4.295
 9755SOL    HW130164   3.231   3.621   4.308
 9755SOL    HW230165   3.246   3.769   4.239
 9756SOL     OW30166   6.015   3.223   0.136
 9756SOL    HW130167   6.020   3.249   0.233
 9756SOL    HW230168   6.085   3.271   0.084
 9757SOL     OW30169   5.722   3.914   3.722
 9757SOL    HW130170   5.821   3.902   3.724
 9757SOL    HW230171   5.696   3.972   3.644
 9758SOL     OW30172   2.494   7.005   6.730
 9758SOL    HW130173   2.405   0.006   6.768
 9758SOL    HW230174   2.567   0.017   6.785
 9759SOL     OW30175   1.352   0.219   0.310
 9759SOL    HW130176   1.260   0.209   0.274
 9759SOL    HW230177   1.398   0.130   0.310
 9760SOL     OW30178   5.215   2.898   5.558
 9760SOL    HW130179   5.187   2.872   5.651
 9760SOL    HW230180   5.208   2.819   5.498
 9761SOL     OW30181   6.596   1.508   2.291
 9761SOL    HW130182   6.565   1.511   2.386
 9761SOL    HW230183   6.523   1.538   2.230
 9762SOL     OW30184   3.544   1.250   4.105
 9762SOL    HW130185   3.546   1.263   4.205
 9762SOL    HW230186   3.628   1.203   4.076
 9763SOL     OW30187   4.867   1.733   2.030
 9763SOL    HW130188   4.786   1.704   1.979
 9763SOL    HW230189   4.946   1.680   2.001
 9764SOL     OW30190   0.300   2.799   3.118
 9764SOL    HW130191   0.373   2.823   3.054
 9764SOL    HW230192   0.332   2.811   3.212
 9765SOL     OW30193   6.894   0.049   3.517
 9765SOL    HW130194   6.801   0.019   3.498
 9765SOL    HW230195   6.895   0.147   3.532
 9766SOL     OW30196   2.935   6.971   1.960
 9766SOL    HW130197   2.854   7.000   2.011
 9766SOL    HW230198   2.985   0.025   1.929
 9767SOL     OW30199   4.021   0.808   5.144
 9767SOL    HW130200   3.990   0.882   5.205
 9767SOL    HW230201   4.099   0.841   5.090
 9768SOL     OW30202   6.185   1.521   2.389
 9768SOL    HW130203   6.275   1.508   2.432
 9768SOL    HW230204   6.165   1.444   2.329
 9769SOL     OW30205   4.182   1.469   3.406
 9769SOL    HW130206   4.258   1.434   3.461
 9769SOL    HW230207   4.168   1.409   3.327
 9770SOL     OW30208   4.792   0.778   6.414
 9770SOL    HW130209   4.832   0.693   6.381
 9770SOL    HW230210   4.725   0.758   6.485
 9771SOL     OW30211   2.470   6.135   0.208
 9771SOL    HW130212   2.407   6.123   0.131
 9771SOL    HW230213   2.531   6.212   0.188
 9772SOL     OW30214   1.959   6.110   1.611
 9772SOL    HW130215   1.918   6.185   1.663
 9772SOL    HW230216   2.033   6.144   1.554
 9773SOL     OW30217   5.022   5.629   3.990
 9773SOL    HW130218   5.068   5.663   3.908
 9773SOL    HW230219   4.923   5.637   3.980
 9774SOL     OW30220   0.375   5.155   2.032
 9774SOL    HW130221   0.455   5.129   1.978
 9774SOL    HW230222   0.390   5.131   2.128
 9775SOL     OW30223   2.598   0.579   3.269
 9775SOL    HW130224   2.554   0.612   3.353
 9775SOL    HW230225   2.692   0.553   3.288
 9776SOL     OW30226   1.357   3.961   4.836
 9776SOL    HW130227   1.365   3.928   4.742
 9776SOL    HW230228   1.320   4.054   4.837
 9777SOL     OW30229   0.065   6.260   0.216
 9777SOL    HW130230   0.107   6.280   0.127
 9777SOL    HW230231   6.992   6.257   0.205
 9778SOL     OW30232   0.158   1.117   4.151
 9778SOL    HW130233   0.075   1.125   4.096
 9778SOL    HW230234   0.175   1.021   4.173
 9779SOL     OW30235   1.259   1.276   4.033
 9779SOL    HW130236   1.206   1.234   4.107
 9779SOL    HW230237   1.325   1.209   3.998
 9780SOL     OW30238   2.476   2.320   1.443
 9780SOL    HW130239   2.547   2.350   1.379
 9780SOL    HW230240   2.410   2.262   1.395
 9781SOL     OW30241   2.046   3.831   4.287
 9781SOL    HW130242   1.974   3.783   4.337
 9781SOL    HW230243   2.092   3.767   4.225
 9782SOL     OW30244   0.309   1.414   0.915
 9782SOL    HW130245   0.301   1.335   0.854
 9782SOL    HW230246   0.265   1.393   1.002
 9783SOL     OW30247   4.018   2.233   2.963
 9783SOL    HW130248   3.929   2.209   3.001
 9783SOL    HW230249   4.015   2.223   2.863
 9784SOL     OW30250   3.482   1.570   4.507
 9784SOL    HW130251   3.484   1.633   4.430
 9784SOL    HW230252   3.426   1.609   4.581
 9785SOL     OW30253   0.661   2.639   6.151
 9785SOL    HW130254   0.688   2.690   6.234
 9785SOL    HW230255   0.562   2.630   6.148
 9786SOL     OW30256   2.293   4.464   0.379
 9786SOL    HW130257   2.293   4.365   0.364
 9786SOL    HW230258   2.241   4.484   0.462
 9787SOL     OW30259   4.172   4.003   1.753
 9787SOL    HW130260   4.145   3.925   1.810
 9787SOL    HW230261   4.233   4.063   1.805
 9788SOL     OW30262   0.616   0.862   3.830
 9788SOL    HW130263   0.526   0.817   3.826
 9788SOL    HW230264   0.613   0.945   3.774
 9789SOL     OW30265   1.471   5.421   0.614
 9789SOL    HW130266   1.451   5.457   0.522
 9789SOL    HW230267   1.446   5.490   0.682
 9790SOL     OW30268   6.442   4.586   6.919
 9790SOL    HW130269   6.351   4.601   6.958
 9790SOL    HW230270   6.450   4.637   6.833
 9791SOL     OW30271   0.555   1.424   2.367
 9791SOL    HW130272   0.604   1.337   2.377
 9791SOL    HW230273   0.609   1.486   2.310
 9792SOL     OW30274   4.535   4.747   0.676
 9792SOL    HW130275   4.568   4.820   0.617
 9792SOL    HW230276   4.498   4.786   0.760
 9793SOL     OW30277   4.296   6.321   2.786
 9793SOL    HW130278   4.323   6.269   2.867
 9793SOL    HW230279   4.261   6.410   2.814
 9794SOL     OW30280   0.132   4.425   0.112
 9794SOL    HW130281   0.034   4.413   0.102
 9794SOL    HW230282   0.179   4.339   0.094
 9795SOL     OW30283   2.178   1.547   4.500
 9795SOL    HW130284   2.251   1.589   4.446
 9795SOL    HW230285   2.219   1.485   4.567
 9796SOL     OW30286   3.719   2.563   1.431
 9796SOL    HW130287   3.709   2.528   1.524
 9796SOL    HW230288   3.807   2.534   1.394
 9797SOL     OW30289   2.145   5.319   6.849
 9797SOL    HW130290   2.147   5.337   6.947
 9797SOL    HW230291   2.145   5.221   6.832
 9798SOL     OW30292   2.900   0.805   1.914
 9798SOL    HW130293   2.991   0.846   1.914
 9798SOL    HW230294   2.893   0.738   1.840
 9799SOL     OW30295   3.451   2.932   4.493
 9799SOL    HW130296   3.473   2.910   4.588
 9799SOL    HW230297   3.535   2.950   4.443
 9800SOL     OW30298   3.582   6.066   5.120
 9800SOL    HW130299   3.488   6.073   5.087
 9800SOL    HW230300   3.599   5.974   5.155
 9801SOL     OW30301   4.676   3.821   6.759
 9801SOL    HW130302   4.622   3.900   6.791
 9801SOL    HW230303   4.749   3.852   6.699
 9802SOL     OW30304   6.929   3.575   1.094
 9802SOL    HW130305   7.009   3.539   1.143
 9802SOL    HW230306   6.959   3.639   1.024
 9803SOL     OW30307   1.026   2.171   6.698
 9803SOL    HW130308   0.974   2.225   6.764
 9803SOL    HW230309   0.982   2.177   6.608
 9804SOL     OW30310   1.660   6.858   2.479
 9804SOL    HW130311   1.630   6.889   2.570
 9804SOL    HW230312   1.604   6.780   2.450
 9805SOL     OW30313   1.597   0.147   4.139
 9805SOL    HW130314   1.580   0.239   4.174
 9805SOL    HW230315   1.670   0.105   4.193
 9806SOL     OW30316   1.122   0.981   0.056
 9806SOL    HW130317   1.107   0.887   0.088
 9806SOL    HW230318   1.215   1.010   0.078
 9807SOL     OW30319   2.533   4.634   0.496
 9807SOL    HW130320   2.527   4.547   0.544
 9807SOL    HW230321   2.552   4.617   0.399
 9808SOL     OW30322   4.150   0.172   5.415
 9808SOL    HW130323   4.166   0.146   5.320
 9808SOL    HW230324   4.170   0.094   5.474
 9809SOL     OW30325   1.051   2.487   6.403
 9809SOL    HW130326   0.992   2.521   6.477
 9809SOL    HW230327   0.994   2.443   6.334
 9810SOL     OW30328   2.036   3.135   3.812
 9810SOL    HW130329   2.006   3.123   3.906
 9810SOL    HW230330   2.058   3.046   3.772
 9811SOL     OW30331   5.153   4.698   3.212
 9811SOL    HW130332   5.145   4.604   3.181
 9811SOL    HW230333   5.173   4.700   3.309
 9812SOL     OW30334   3.633   2.246   5.658
 9812SOL    HW130335   3.570   2.278   5.587
 9812SOL    HW230336   3.683   2.166   5.624
 9813SOL     OW30337   5.403   1.467   0.484
 9813SOL    HW130338   5.369   1.501   0.572
 9813SOL    HW230339   5.465   1.535   0.444
 9814SOL     OW30340   7.026   0.412   7.009
 9814SOL    HW130341   0.070   0.480   6.992
 9814SOL    HW230342   0.033   0.345   0.048
 9815SOL     OW30343   5.416   4.400   3.443
 9815SOL    HW130344   5.492   4.359   3.494
 9815SOL    HW230345   5.452   4.460   3.372
 9816SOL     OW30346   6.883   0.987   6.053
 9816SOL    HW130347   6.911   0.999   6.148
 9816SOL    HW230348   6.888   0.890   6.029
 9817SOL     OW30349   3.131   7.010   2.688
 9817SOL    HW130350   3.197   0.050   2.722
 9817SOL    HW230351   3.163   6.973   2.601
 9818SOL     OW30352   1.617   1.183   4.764
 9818SOL    HW130353   1.687   1.158   4.698
 9818SOL    HW230354   1.572   1.267   4.735
 9819SOL     OW30355   4.809   3.068   3.594
 9819SOL    HW130356   4.721   3.023   3.577
 9819SOL    HW230357   4.835   3.057   3.690
 9820SOL     OW30358   4.280   3.457   6.312
 9820SOL    HW130359   4.270   3.529   6.243
 9820SOL    HW230360   4.214   3.384   6.294
 9821SOL     OW30361   5.212   0.777   6.940
 9821SOL    HW130362   5.144   0.709   6.969
 9821SOL    HW230363   5.169   0.845   6.881
 9822SOL     OW30364   2.659   6.260   3.762
 9822SOL    HW130365   2.580   6.292   3.815
 9822SOL    HW230366   2.710   6.193   3.816
 9823SOL     OW30367   2.467   0.843   6.760
 9823SOL    HW130368   2.433   0.774   6.824
 9823SOL    HW230369   2.423   0.931   6.778
 9824SOL     OW30370   2.036   4.843   4.296
 9824SOL    HW130371   2.098   4.768   4.274
 9824SOL    HW230372   1.955   4.838   4.237
 9825SOL     OW30373   5.475   6.012   4.604
 9825SOL    HW130374   5.420   6.004   4.521
 9825SOL    HW230375   5.562   6.055   4.583
 9826SOL     OW30376   4.136   5.456   5.816
 9826SOL    HW130377   4.194   5.429   5.739
 9826SOL    HW230378   4.146   5.554   5.833
 9827SOL     OW30379   1.647   4.287   3.668
 9827SOL    HW130380   1.584   4.326   3.601
 9827SOL    HW230381   1.598   4.220   3.724
 9828SOL     OW30382   2.666   2.124   5.433
 9828SOL    HW130383   2.589   2.186   5.452
 9828SOL    HW230384   2.743   2.177   5.398
 9829SOL     OW30385   4.312   5.012   6.437
 9829SOL    HW130386   4.214   5.022   6.417
 9829SOL    HW230387   4.365   5.034   6.355
 9830SOL     OW30388   5.183   1.586   1.700
 9830SOL    HW130389   5.164   1.490   1.714
 9830SOL    HW230390   5.132   1.619   1.620
 9831SOL     OW30391   1.210   4.866   2.324
 9831SOL    HW130392   1.290   4.889   2.380
 9831SOL    HW230393   1.135   4.836   2.383
 9832SOL     OW30394   4.819   5.222   2.479
 9832SOL    HW130395   4.898   5.173   2.515
 9832SOL    HW230396   4.794   5.184   2.390
 9833SOL     OW30397   3.406   3.239   4.342
 9833SOL    HW130398   3.496   3.267   4.308
 9833SOL    HW230399   3.371   3.165   4.285
 9834SOL     OW30400   2.474   4.338   5.155
 9834SOL    HW130401   2.555   4.358   5.210
 9834SOL    HW230402   2.447   4.243   5.169
 9835SOL     OW30403   4.096   3.725   4.923
 9835SOL    HW130404   4.154   3.764   4.851
 9835SOL    HW230405   4.008   3.772   4.923
 9836SOL     OW30406   6.837   4.229   3.391
 9836SOL    HW130407   6.805   4.311   3.437
 9836SOL    HW230408   6.902   4.254   3.319
 9837SOL     OW30409   3.567   0.308   1.809
 9837SOL    HW130410   3.534   0.337   1.719
 9837SOL    HW230411   3.520   0.361   1.880
 9838SOL     OW30412   1.892   6.484   0.808
 9838SOL    HW130413   1.800   6.519   0.823
 9838SOL    HW230414   1.958   6.549   0.847
 9839SOL     OW30415   5.340   6.680   3.645
 9839SOL    HW130416   5.268   6.620   3.608
 9839SOL    HW230417   5.429   6.643   3.620
 9840SOL     OW30418   5.720   1.826   1.334
 9840SOL    HW130419   5.746   1.732   1.311
 9840SOL    HW230420   5.772   1.857   1.413
 9841SOL     OW30421   1.764   4.117   5.577
 9841SOL    HW130422   1.797   4.035   5.530
 9841SOL    HW230423   1.807   4.122   5.668
 9842SOL     OW30424   3.640   2.784   1.520
 9842SOL    HW130425   3.586   2.836   1.454
 9842SOL    HW230426   3.674   2.701   1.477
 9843SOL     OW30427   6.918   0.393   2.077
 9843SOL    HW130428   6.902   0.398   2.175
 9843SOL    HW230429   6.841   0.436   2.029
 9844SOL     OW30430   6.523   1.324   3.032
 9844SOL    HW130431   6.472   1.379   3.099
 9844SOL    HW230432   6.540   1.233   3.070
 9845SOL     OW30433   1.993   2.849   3.684
 9845SOL    HW130434   2.007   2.799   3.770
 9845SOL    HW230435   1.896   2.857   3.665
 9846SOL     OW30436   3.588   2.117   1.340
 9846SOL    HW130437   3.681   2.095   1.313
 9846SOL    HW230438   3.565   2.210   1.311
 9847SOL     OW30439   3.840   2.962   3.131
 9847SOL    HW130440   3.741   2.973   3.125
 9847SOL    HW230441   3.865   2.931   3.223
 9848SOL     OW30442   3.711   3.562   4.781
 9848SOL    HW130443   3.659   3.515   4.711
 9848SOL    HW230444   3.730   3.656   4.751
 9849SOL     OW30445   0.532   7.001   6.127
 9849SOL    HW130446   0.623   6.972   6.156
 9849SOL    HW230447   0.475   6.921   6.109
 9850SOL     OW30448   6.045   0.201   3.961
 9850SOL    HW130449   6.087   0.216   4.050
 9850SOL    HW230450   6.109   0.231   3.889
 9851SOL     OW30451   0.272   6.856   4.333
 9851SOL    HW130452   0.358   6.875   4.286
 9851SOL    HW230453   0.277   6.765   4.376
 9852SOL     OW30454   3.435   1.547   4.143
 9852SOL    HW130455   3.463   1.627   4.196
 9852SOL    HW230456   3.482   1.466   4.176
 9853SOL     OW30457   5.092   4.091   4.922
 9853SOL    HW130458   5.104   4.179   4.970
 9853SOL    HW230459   5.054   4.024   4.986
 9854SOL     OW30460   7.019   6.096   4.432
 9854SOL    HW130461   7.003   6.104   4.531
 9854SOL    HW230462   0.090   6.085   4.416
 9855SOL     OW30463   1.750   3.501   1.285
 9855SOL    HW130464   1.707   3.584   1.320
 9855SOL    HW230465   1.808   3.461   1.356
 9856SOL     OW30466   4.798   4.231   4.930
 9856SOL    HW130467   4.813   4.160   4.862
 9856SOL    HW230468   4.728   4.295   4.897
 9857SOL     OW30469   4.919   3.335   2.889
 9857SOL    HW130470   4.964   3.251   2.858
 9857SOL    HW230471   4.881   3.384   2.811
 9858SOL     OW30472   6.490   6.840   1.093
 9858SOL    HW130473   6.483   6.867   1.189
 9858SOL    HW230474   6.541   6.910   1.043
 9859SOL     OW30475   5.970   6.179   2.864
 9859SOL    HW130476   5.909   6.252   2.833
 9859SOL    HW230477   6.058   6.218   2.890
 9860SOL     OW30478   1.715   2.246   4.006
 9860SOL    HW130479   1.774   2.168   4.026
 9860SOL    HW230480   1.751   2.296   3.927
 9861SOL     OW30481   2.775   0.412   2.763
 9861SOL    HW130482   2.713   0.474   2.715
 9861SOL    HW230483   2.733   0.322   2.770
 9862SOL     OW30484   2.852   2.918   6.970
 9862SOL    HW130485   2.853   2.848   6.899
 9862SOL    HW230486   2.815   3.003   6.932
 9863SOL     OW30487   3.439   6.587   1.885
 9863SOL    HW130488   3.388   6.667   1.853
 9863SOL    HW230489   3.493   6.612   1.965
 9864SOL     OW30490   3.146   0.150   3.884
 9864SOL    HW130491   3.076   0.220   3.895
 9864SOL    HW230492   3.234   0.195   3.867
 9865SOL     OW30493   1.431   6.831   4.809
 9865SOL    HW130494   1.437   6.846   4.908
 9865SOL    HW230495   1.417   6.734   4.792
 9866SOL     OW30496   5.383   4.638   6.177
 9866SOL    HW130497   5.472   4.645   6.132
 9866SOL    HW230498   5.323   4.711   6.144
 9867SOL     OW30499   0.107   1.850   1.109
 9867SOL    HW130500   0.135   1.827   1.016
 9867SOL    HW230501   0.181   1.827   1.173
 9868SOL     OW30502   0.451   3.456   4.286
 9868SOL    HW130503   0.523   3.488   4.347
 9868SOL    HW230504   0.419   3.532   4.229
 9869SOL     OW30505   0.552   2.341   1.400
 9869SOL    HW130506   0.618   2.290   1.456
 9869SOL    HW230507   0.473   2.365   1.456
 9870SOL     OW30508   4.419   5.421   2.894
 9870SOL    HW130509   4.517   5.404   2.905
 9870SOL    HW230510   4.387   5.479   2.968
 9871SOL     OW30511   6.297   4.535   5.637
 9871SOL    HW130512   6.226   4.601   5.660
 9871SOL    HW230513   6.382   4.561   5.683
 9872SOL     OW30514   3.017   5.578   5.123
 9872SOL    HW130515   2.921   5.595   5.143
 9872SOL    HW230516   3.074   5.646   5.170
 9873SOL     OW30517   2.541   2.362   0.850
 9873SOL    HW130518   2.567   2.268   0.831
 9873SOL    HW230519   2.458   2.385   0.798
 9874SOL     OW30520   6.276   3.474   5.668
 9874SOL    HW130521   6.322   3.476   5.756
 9874SOL    HW230522   6.189   3.524   5.675
 9875SOL     OW30523   6.116   5.875   1.968
 9875SOL    HW130524   6.050   5.807   2.001
 9875SOL    HW230525   6.087   5.909   1.879
 9876SOL     OW30526   5.205   0.338   4.175
 9876SOL    HW130527   5.211   0.409   4.105
 9876SOL    HW230528   5.290   0.285   4.176
 9877SOL     OW30529   6.406   4.814   4.239
 9877SOL    HW130530   6.466   4.869   4.297
 9877SOL    HW230531   6.348   4.756   4.296
 9878SOL     OW30532   2.960   3.495   5.824
 9878SOL    HW130533   2.975   3.518   5.920
 9878SOL    HW230534   2.966   3.578   5.768
 9879SOL     OW30535   5.095   5.556   5.545
 9879SOL    HW130536   5.193   5.554   5.563
 9879SOL    HW230537   5.056   5.641   5.583
 9880SOL     OW30538   3.017   1.072   0.368
 9880SOL    HW130539   3.018   1.172   0.365
 9880SOL    HW230540   2.939   1.037   0.316
 9881SOL     OW30541   0.317   1.536   5.003
 9881SOL    HW130542   0.393   1.601   4.996
 9881SOL    HW230543   0.259   1.561   5.081
 9882SOL     OW30544   2.030   3.598   5.506
 9882SOL    HW130545   1.953   3.657   5.530
 9882SOL    HW230546   2.111   3.629   5.555
 9883SOL     OW30547   0.873   6.414   0.955
 9883SOL    HW130548   0.860   6.487   1.023
 9883SOL    HW230549   0.966   6.418   0.920
 9884SOL     OW30550   4.688   1.345   0.682
 9884SOL    HW130551   4.721   1.270   0.740
 9884SOL    HW230552   4.605   1.316   0.634
 9885SOL     OW30553   0.230   3.029   4.716
 9885SOL    HW130554   0.169   3.066   4.646
 9885SOL    HW230555   0.325   3.055   4.695
 9886SOL     OW30556   1.459   5.442   0.955
 9886SOL    HW130557   1.516   5.513   0.996
 9886SOL    HW230558   1.517   5.373   0.912
 9887SOL     OW30559   4.307   6.845   0.338
 9887SOL    HW130560   4.294   6.813   0.431
 9887SOL    HW230561   4.265   6.935   0.327
 9888SOL     OW30562   5.133   5.305   2.797
 9888SOL    HW130563   5.112   5.402   2.810
 9888SOL    HW230564   5.224   5.285   2.834
 9889SOL     OW30565   6.584   4.364   1.103
 9889SOL    HW130566   6.519   4.291   1.086
 9889SOL    HW230567   6.619   4.399   1.016
 9890SOL     OW30568   0.712   2.206   1.557
 9890SOL    HW130569   0.756   2.116   1.557
 9890SOL    HW230570   0.782   2.277   1.563
 9891SOL     OW30571   6.091   3.559   1.326
 9891SOL    HW130572   6.121   3.597   1.414
 9891SOL    HW230573   6.002   3.597   1.302
 9892SOL     OW30574   1.079   5.718   3.033
 9892SOL    HW130575   0.999   5.659   3.046
 9892SOL    HW230576   1.150   5.693   3.098
 9893SOL     OW30577   6.212   0.378   1.996
 9893SOL    HW130578   6.219   0.414   2.090
 9893SOL    HW230579   6.159   0.293   1.997
 9894SOL     OW30580   2.771   2.296   6.352
 9894SOL    HW130581   2.824   2.370   6.393
 9894SOL    HW230582   2.675   2.305   6.379
 9895SOL     OW30583   5.482   3.406   5.746
 9895SOL    HW130584   5.387   3.404   5.714
 9895SOL    HW230585   5.484   3.407   5.846
 9896SOL     OW30586   4.886   1.299   0.469
 9896SOL    HW130587   4.968   1.355   0.465
 9896SOL    HW230588   4.824   1.335   0.539
 9897SOL     OW30589   5.184   6.859   2.458
 9897SOL    HW130590   5.225   6.951   2.457
 9897SOL    HW230591   5.166   6.830   2.364
 9898SOL     OW30592   0.708   4.694   5.645
 9898SOL    HW130593   0.729   4.647   5.731
 9898SOL    HW230594   0.609   4.698   5.633
 9899SOL     OW30595   0.342   5.512   2.691
 9899SOL    HW130596   0.311   5.569   2.615
 9899SOL    HW230597   0.278   5.437   2.705
 9900SOL     OW30598   2.092   3.544   2.619
 9900SOL    HW130599   2.096   3.446   2.599
 9900SOL    HW230600   2.029   3.589   2.555
 9901SOL     OW30601   2.661   0.794   0.073
 9901SOL    HW130602   2.697   0.879   0.035
 9901SOL    HW230603   2.569   0.778   0.037
 9902SOL     OW30604   4.101   3.901   1.237
 9902SOL    HW130605   4.124   3.975   1.174
 9902SOL    HW230606   4.037   3.838   1.192
 9903SOL     OW30607   5.266   1.095   1.707
 9903SOL    HW130608   5.179   1.138   1.730
 9903SOL    HW230609   5.307   1.142   1.629
 9904SOL     OW30610   0.421   3.446   6.744
 9904SOL    HW130611   0.465   3.532   6.717
 9904SOL    HW230612   0.417   3.385   6.664
 9905SOL     OW30613   1.560   0.531   6.473
 9905SOL    HW130614   1.587   0.439   6.500
 9905SOL    HW230615   1.619   0.562   6.399
 9906SOL     OW30616   2.077   3.981   0.145
 9906SOL    HW130617   2.000   3.917   0.136
 9906SOL    HW230618   2.042   4.073   0.163
 9907SOL     OW30619   1.362   0.831   2.503
 9907SOL    HW130620   1.401   0.889   2.574
 9907SOL    HW230621   1.390   0.866   2.413
 9908SOL     OW30622   1.099   2.627   5.870
 9908SOL    HW130623   1.029   2.687   5.909
 9908SOL    HW230624   1.174   2.682   5.834
 9909SOL     OW30625   3.851   0.612   2.604
 9909SOL    HW130626   3.930   0.600   2.664
 9909SOL    HW230627   3.796   0.528   2.605
 9910SOL     OW30628   1.512   5.175   1.474
 9910SOL    HW130629   1.539   5.150   1.567
 9910SOL    HW230630   1.594   5.179   1.416
 9911SOL     OW30631   3.827   5.515   2.429
 9911SOL    HW130632   3.749   5.453   2.424
 9911SOL    HW230633   3.830   5.571   2.345
 9912SOL     OW30634   5.069   1.490   2.023
 9912SOL    HW130635   5.009   1.437   1.963
 9912SOL    HW230636   5.159   1.500   1.980
 9913SOL     OW30637   6.079   2.745   1.376
 9913SOL    HW130638   6.016   2.675   1.343
 9913SOL    HW230639   6.146   2.765   1.304
 9914SOL     OW30640   0.473   6.930   5.155
 9914SOL    HW130641   0.484   0.000   5.134
 9914SOL    HW230642   0.385   6.898   5.121
 9915SOL     OW30643   5.497   2.591   4.002
 9915SOL    HW130644   5.577   2.545   3.962
 9915SOL    HW230645   5.524   2.637   4.087
 9916SOL     OW30646   1.583   2.192   3.501
 9916SOL    HW130647   1.663   2.238   3.463
 9916SOL    HW230648   1.501   2.242   3.474
 9917SOL     OW30649   3.210   3.582   4.621
 9917SOL    HW130650   3.257   3.537   4.696
 9917SOL    HW230651   3.245   3.547   4.534
 9918SOL     OW30652   0.911   2.658   1.936
 9918SOL    HW130653   0.923   2.756   1.925
 9918SOL    HW230654   0.830   2.628   1.887
 9919SOL     OW30655   2.358   5.905   2.217
 9919SOL    HW130656   2.290   5.832   2.221
 9919SOL    HW230657   2.321   5.988   2.259
 9920SOL     OW30658   4.076   0.617   2.742
 9920SOL    HW130659   4.090   0.593   2.838
 9920SOL    HW230660   4.161   0.656   2.704
 9921SOL     OW30661   4.428   0.074   4.893
 9921SOL    HW130662   4.378   0.160   4.892
 9921SOL    HW230663   4.512   0.084   4.840
 9922SOL     OW30664   4.927   4.627   1.517
 9922SOL    HW130665   4.984   4.591   1.443
 9922SOL    HW230666   4.985   4.667   1.588
 9923SOL     OW30667   6.255   3.177   0.253
 9923SOL    HW130668   6.332   3.187   0.191
 9923SOL    HW230669   6.250   3.082   0.285
 9924SOL     OW30670   4.855   1.667   3.133
 9924SOL    HW130671   4.852   1.626   3.041
 9924SOL    HW230672   4.763   1.669   3.171
 9925SOL     OW30673   1.204   5.006   3.550
 9925SOL    HW130674   1.258   4.923   3.533
 9925SOL    HW230675   1.212   5.068   3.473
 9926SOL     OW30676   3.946   2.861   0.880
 9926SOL    HW130677   3.912   2.769   0.900
 9926SOL    HW230678   3.971   2.907   0.965
 9927SOL     OW30679   1.329   1.427   1.009
 9927SOL    HW130680   1.249   1.387   1.054
 9927SOL    HW230681   1.398   1.449   1.078
 9928SOL     OW30682   5.282   3.750   3.210
 9928SOL    HW130683   5.234   3.739   3.123
 9928SOL    HW230684   5.276   3.665   3.262
 9929SOL     OW30685   3.005   3.809   4.457
 9929SOL    HW130686   2.968   3.749   4.386
 9929SOL    HW230687   3.056   3.755   4.524
 9930SOL     OW30688   0.589   0.401   6.173
 9930SOL    HW130689   0.520   0.392   6.101
 9930SOL    HW230690   0.676   0.428   6.132
 9931SOL     OW30691   0.095   5.796   4.217
 9931SOL    HW130692   0.095   5.891   4.187
 9931SOL    HW230693   0.115   5.736   4.139
 9932SOL     OW30694   2.655   1.719   6.197
 9932SOL    HW130695   2.655   1.711   6.297
 9932SOL    HW230696   2.748   1.702   6.162
 9933SOL     OW30697   1.473   0.429   4.030
 9933SOL    HW130698   1.504   0.470   4.116
 9933SOL    HW230699   1.375   0.443   4.020
 9934SOL     OW30700   6.041   1.849   6.979
 9934SOL    HW130701   6.068   1.821   6.887
 9934SOL    HW230702   6.029   1.949   6.981
 9935SOL     OW30703   3.346   0.615   0.606
 9935SOL    HW130704   3.292   0.627   0.689
 9935SOL    HW230705   3.358   0.704   0.562
 9936SOL     OW30706   6.341   4.948   0.727
 9936SOL    HW130707   6.309   5.019   0.665
 9936SOL    HW230708   6.425   4.979   0.773
 9937SOL     OW30709   1.071   1.403   2.188
 9937SOL    HW130710   1.078   1.460   2.106
 9937SOL    HW230711   1.128   1.321   2.176
 9938SOL     OW30712   5.904   6.655   4.210
 9938SOL    HW130713   5.926   6.696   4.122
 9938SOL    HW230714   5.978   6.595   4.239
 9939SOL     OW30715   3.191   2.879   0.413
 9939SOL    HW130716   3.164   2.829   0.330
 9939SOL    HW230717   3.276   2.928   0.395
 9940SOL     OW30718   1.358   0.358   2.761
 9940SOL    HW130719   1.333   0.429   2.694
 9940SOL    HW230720   1.381   0.402   2.848
 9941SOL     OW30721   2.879   5.476   5.553
 9941SOL    HW130722   2.813   5.420   5.503
 9941SOL    HW230723   2.852   5.572   5.547
 9942SOL     OW30724   4.159   5.849   2.586
 9942SOL    HW130725   4.223   5.801   2.526
 9942SOL    HW230726   4.173   5.948   2.576
 9943SOL     OW30727   1.105   4.445   6.450
 9943SOL    HW130728   1.144   4.372   6.506
 9943SOL    HW230729   1.016   4.471   6.487
 9944SOL     OW30730   0.774   4.628   6.172
 9944SOL    HW130731   0.872   4.623   6.150
 9944SOL    HW230732   0.748   4.724   6.183
 9945SOL     OW30733   5.167   4.786   6.450
 9945SOL    HW130734   5.130   4.843   6.524
 9945SOL    HW230735   5.238   4.725   6.487
 9946SOL     OW30736   6.497   0.214   3.278
 9946SOL    HW130737   6.426   0.189   3.211
 9946SOL    HW230738   6.557   0.283   3.237
 9947SOL     OW30739   3.093   1.974   4.622
 9947SOL    HW130740   3.034   1.896   4.599
 9947SOL    HW230741   3.036   2.053   4.646
 9948SOL     OW30742   6.631   5.220   5.098
 9948SOL    HW130743   6.619   5.123   5.114
 9948SOL    HW230744   6.728   5.239   5.080
 9949SOL     OW30745   6.937   4.942   3.685
 9949SOL    HW130746   6.958   5.026   3.736
 9949SOL    HW230747   6.960   4.862   3.740
 9950SOL     OW30748   6.502   5.761   6.869
 9950SOL    HW130749   6.423   5.821   6.865
 9950SOL    HW230750   6.477   5.676   6.916
 9951SOL     OW30751   1.380   2.487   3.376
 9951SOL    HW130752   1.329   2.483   3.461
 9951SOL    HW230753   1.335   2.430   3.307
 9952SOL     OW30754   2.079   3.496   0.672
 9952SOL    HW130755   2.103   3.512   0.768
 9952SOL    HW230756   2.002   3.432   0.667
 9953SOL     OW30757   5.757   2.588   3.870
 9953SOL    HW130758   5.759   2.629   3.961
 9953SOL    HW230759   5.812   2.644   3.807
 9954SOL     OW30760   1.226   6.976   4.645
 9954SOL    HW130761   1.277   6.913   4.704
 9954SOL    HW230762   1.289   0.015   4.603
 9955SOL     OW30763   3.717   3.481   6.478
 9955SOL    HW130764   3.684   3.457   6.569
 9955SOL    HW230765   3.817   3.478   6.476
 9956SOL     OW30766   0.715   4.139   3.146
 9956SOL    HW130767   0.776   4.206   3.187
 9956SOL    HW230768   0.695   4.165   3.051
 9957SOL     OW30769   6.351   0.632   2.692
 9957SOL    HW130770   6.294   0.710   2.668
 9957SOL    HW230771   6.293   0.551   2.701
 9958SOL     OW30772   2.632   6.102   6.664
 9958SOL    HW130773   2.696   6.060   6.600
 9958SOL    HW230774   2.592   6.184   6.622
 9959SOL     OW30775   4.119   3.577   3.232
 9959SOL    HW130776   4.094   3.662   3.185
 9959SOL    HW230777   4.208   3.546   3.198
 9960SOL     OW30778   1.004   6.910   2.077
 9960SOL    HW130779   1.075   6.868   2.021
 9960SOL    HW230780   0.919   6.857   2.068
 9961SOL     OW30781   1.418   5.343   3.834
 9961SOL    HW130782   1.346   5.274   3.824
 9961SOL    HW230783   1.506   5.297   3.844
 9962SOL     OW30784   3.900   0.294   2.437
 9962SOL    HW130785   3.801   0.281   2.428
 9962SOL    HW230786   3.924   0.301   2.534
 9963SOL     OW30787   2.767   2.649   5.590
 9963SOL    HW130788   2.865   2.670   5.585
 9963SOL    HW230789   2.749   2.597   5.673
 9964SOL     OW30790   4.387   5.240   6.009
 9964SOL    HW130791   4.303   5.200   5.972
 9964SOL    HW230792   4.364   5.307   6.079
 9965SOL     OW30793   3.455   4.883   5.174
 9965SOL    HW130794   3.371   4.938   5.180
 9965SOL    HW230795   3.459   4.820   5.252
 9966SOL     OW30796   1.892   5.515   2.240
 9966SOL    HW130797   1.923   5.455   2.315
 9966SOL    HW230798   1.900   5.467   2.153
 9967SOL     OW30799   4.911   5.736   2.107
 9967SOL    HW130800   4.870   5.692   2.027
 9967SOL    HW230801   4.986   5.795   2.077
 9968SOL     OW30802   3.130   5.655   6.815
 9968SOL    HW130803   3.054   5.720   6.814
 9968SOL    HW230804   3.187   5.670   6.734
 9969SOL     OW30805   1.009   3.034   3.782
 9969SOL    HW130806   0.929   3.014   3.839
 9969SOL    HW230807   0.982   3.029   3.685
 9970SOL     OW30808   0.058   4.095   1.990
 9970SOL    HW130809   0.089   4.153   2.065
 9970SOL    HW230810   7.016   4.145   1.936
 9971SOL     OW30811   2.725   4.124   0.385
 9971SOL    HW130812   2.742   4.196   0.317
 9971SOL    HW230813   2.646   4.070   0.357
 9972SOL     OW30814   3.700   4.416   0.741
 9972SOL    HW130815   3.625   4.467   0.699
 9972SOL    HW230816   3.713   4.329   0.694
 9973SOL     OW30817   4.021   1.744   4.901
 9973SOL    HW130818   4.007   1.794   4.815
 9973SOL    HW230819   4.098   1.681   4.892
 9974SOL     OW30820   6.493   3.607   3.458
 9974SOL    HW130821   6.477   3.705   3.474
 9974SOL    HW230822   6.589   3.592   3.435
 9975SOL     OW30823   0.247   4.541   6.922
 9975SOL    HW130824   0.206   4.495   7.000
 9975SOL    HW230825   0.284   4.473   6.858
 9976SOL     OW30826   6.280   5.169   5.510
 9976SOL    HW130827   6.268   5.094   5.445
 9976SOL    HW230828   6.367   5.215   5.493
 9977SOL     OW30829   6.663   5.101   5.396
 9977SOL    HW130830   6.615   5.189   5.403
 9977SOL    HW230831   6.647   5.048   5.479
 9978SOL     OW30832   6.327   1.450   4.274
 9978SOL    HW130833   6.353   1.521   4.209
 9978SOL    HW230834   6.228   1.437   4.271
 9979SOL     OW30835   6.707   4.813   6.267
 9979SOL    HW130836   6.789   4.853   6.307
 9979SOL    HW230837   6.684   4.729   6.316
 9980SOL     OW30838   1.731   0.479   6.800
 9980SOL    HW130839   1.802   0.481   6.730
 9980SOL    HW230840   1.664   0.551   6.783
 9981SOL     OW30841   2.270   2.205   1.307
 9981SOL    HW130842   2.180   2.221   1.347
 9981SOL    HW230843   2.276   2.252   1.219
 9982SOL     OW30844   1.059   1.842   3.192
 9982SOL    HW130845   1.060   1.926   3.138
 9982SOL    HW230846   1.031   1.766   3.134
 9983SOL     OW30847   1.059   1.493   1.684
 9983SOL    HW130848   0.996   1.522   1.612
 9983SOL    HW230849   1.145   1.543   1.675
 9984SOL     OW30850   0.541   0.416   1.012
 9984SOL    HW130851   0.459   0.430   1.067
 9984SOL    HW230852   0.542   0.481   0.936
 9985SOL     OW30853   3.361   0.659   0.961
 9985SOL    HW130854   3.408   0.579   0.922
 9985SOL    HW230855   3.267   0.662   0.927
 9986SOL     OW30856   4.466   4.191   6.390
 9986SOL    HW130857   4.447   4.286   6.413
 9986SOL    HW230858   4.411   4.131   6.448
 9987SOL     OW30859   5.590   2.196   2.330
 9987SOL    HW130860   5.520   2.139   2.372
 9987SOL    HW230861   5.553   2.240   2.248
 9988SOL     OW30862   0.309   5.342   4.704
 9988SOL    HW130863   0.340   5.434   4.726
 9988SOL    HW230864   0.300   5.288   4.788
 9989SOL     OW30865   5.178   3.650   2.968
 9989SOL    HW130866   5.087   3.638   2.927
 9989SOL    HW230867   5.248   3.625   2.902
 9990SOL     OW30868   2.319   6.951   3.283
 9990SOL    HW130869   2.401   6.986   3.237
 9990SOL    HW230870   2.346   6.902   3.366
 9991SOL     OW30871   1.156   3.010   4.622
 9991SOL    HW130872   1.246   3.051   4.635
 9991SOL    HW230873   1.107   3.059   4.550
 9992SOL     OW30874   4.720   3.716   0.420
 9992SOL    HW130875   4.665   3.701   0.502
 9992SOL    HW230876   4.731   3.630   0.371
 9993SOL     OW30877   4.041   6.288   2.407
 9993SOL    HW130878   4.081   6.236   2.331
 9993SOL    HW230879   3.941   6.284   2.401
 9994SOL     OW30880   6.477   4.193   3.978
 9994SOL    HW130881   6.567   4.151   3.978
 9994SOL    HW230882   6.426   4.164   4.060
 9995SOL     OW30883   3.346   0.186   2.910
 9995SOL    HW130884   3.277   0.257   2.925
 9995SOL    HW230885   3.423   0.201   2.972
 9996SOL     OW30886   3.178   2.636   1.117
 9996SOL    HW130887   3.123   2.613   1.197
 9996SOL    HW230888   3.128   2.613   1.034
 9997SOL     OW30889   4.637   1.568   0.843
 9997SOL    HW130890   4.630   1.470   0.822
 9997SOL    HW230891   4.723   1.585   0.890
 9998SOL     OW30892   5.900   3.583   2.277
 9998SOL    HW130893   5.862   3.497   2.311
 9998SOL    HW230894   5.835   3.626   2.214
 9999SOL     OW30895   6.332   5.093   4.641
 9999SOL    HW130896   6.239   5.126   4.658
 9999SOL    HW230897   6.328   5.006   4.591
10000SOL     OW30898   6.322   1.571   6.721
10000SOL    HW130899   6.320   1.490   6.662
10000SOL    HW230900   6.371   1.645   6.674
10001SOL     OW30901   5.328   0.765   1.968
10001SOL    HW130902   5.238   0.722   1.970
10001SOL    HW230903   5.329   0.844   2.030
10002SOL     OW30904   1.361   0.878   1.459
10002SOL    HW130905   1.448   0.862   1.507
10002SOL    HW230906   1.286   0.869   1.524
10003SOL     OW30907   3.717   2.059   3.338
10003SOL    HW130908   3.720   2.012   3.426
10003SOL    HW230909   3.623   2.059   3.303
10004SOL     OW30910   5.646   3.431   4.942
10004SOL    HW130911   5.662   3.483   4.859
10004SOL    HW230912   5.577   3.361   4.924
10005SOL     OW30913   4.685   5.668   3.037
10005SOL    HW130914   4.776   5.632   3.058
10005SOL    HW230915   4.644   5.705   3.120
10006SOL     OW30916   4.946   1.128   4.354
10006SOL    HW130917   4.931   1.031   4.377
10006SOL    HW230918   4.858   1.172   4.335
10007SOL     OW30919   1.080   4.137   4.781
10007SOL    HW130920   1.016   4.084   4.726
10007SOL    HW230921   1.049   4.139   4.876
10008SOL     OW30922   4.416   1.347   3.509
10008SOL    HW130923   4.424   1.248   3.525
10008SOL    HW230924   4.477   1.373   3.434
10009SOL     OW30925   1.667   3.261   2.242
10009SOL    HW130926   1.733   3.205   2.292
10009SOL    HW230927   1.711   3.345   2.210
10010SOL     OW30928   2.108   6.580   0.428
10010SOL    HW130929   2.189   6.635   0.407
10010SOL    HW230930   2.136   6.490   0.461
10011SOL     OW30931   0.765   2.426   5.619
10011SOL    HW130932   0.852   2.472   5.599
10011SOL    HW230933   0.716   2.408   5.534
10012SOL     OW30934   4.986   0.088   2.518
10012SOL    HW130935   5.054   0.161   2.522
10012SOL    HW230936   5.014   0.013   2.578
10013SOL     OW30937   2.117   1.611   5.070
10013SOL    HW130938   2.100   1.592   5.166
10013SOL    HW230939   2.188   1.681   5.061
10014SOL     OW30940   6.986   2.043   0.679
10014SOL    HW130941   6.930   2.126   0.675
10014SOL    HW230942   0.030   2.054   0.748
10015SOL     OW30943   2.984   4.660   0.596
10015SOL    HW130944   2.948   4.569   0.577
10015SOL    HW230945   2.908   4.725   0.604
10016SOL     OW30946   2.040   6.909   4.768
10016SOL    HW130947   2.013   6.890   4.862
10016SOL    HW230948   1.986   6.854   4.705
10017SOL     OW30949   1.900   1.932   2.466
10017SOL    HW130950   1.949   1.872   2.403
10017SOL    HW230951   1.961   2.005   2.496
10018SOL     OW30952   5.845   5.396   6.252
10018SOL    HW130953   5.941   5.416   6.271
10018SOL    HW230954   5.822   5.430   6.160
10019SOL     OW30955   1.026   2.348   3.519
10019SOL    HW130956   1.023   2.252   3.493
10019SOL    HW230957   1.116   2.370   3.556
10020SOL     OW30958   0.158   1.671   0.875
10020SOL    HW130959   0.138   1.683   0.778
10020SOL    HW230960   0.182   1.576   0.892
10021SOL     OW30961   0.977   2.908   1.824
10021SOL    HW130962   1.020   2.902   1.734
10021SOL    HW230963   0.909   2.981   1.824
10022SOL     OW30964   3.460   6.938   0.878
10022SOL    HW130965   3.453   6.947   0.977
10022SOL    HW230966   3.552   6.907   0.854
10023SOL     OW30967   2.032   5.417   5.826
10023SOL    HW130968   2.111   5.443   5.770
10023SOL    HW230969   1.995   5.498   5.871
10024SOL     OW30970   2.140   6.953   1.691
10024SOL    HW130971   2.094   0.011   1.663
10024SOL    HW230972   2.120   6.935   1.788
10025SOL     OW30973   1.654   1.643   1.215
10025SOL    HW130974   1.601   1.715   1.171
10025SOL    HW230975   1.694   1.679   1.300
10026SOL     OW30976   4.435   6.227   3.633
10026SOL    HW130977   4.500   6.277   3.689
10026SOL    HW230978   4.358   6.286   3.609
10027SOL     OW30979   1.027   4.464   4.994
10027SOL    HW130980   0.952   4.530   4.987
10027SOL    HW230981   0.989   4.372   5.004
10028SOL     OW30982   1.453   1.794   1.810
10028SOL    HW130983   1.484   1.866   1.747
10028SOL    HW230984   1.533   1.747   1.847
10029SOL     OW30985   3.345   1.881   3.803
10029SOL    HW130986   3.298   1.824   3.737
10029SOL    HW230987   3.413   1.827   3.853
10030SOL     OW30988   2.606   6.847   4.316
10030SOL    HW130989   2.621   6.759   4.270
10030SOL    HW230990   2.694   6.895   4.325
10031SOL     OW30991   5.536   4.815   3.403
10031SOL    HW130992   5.630   4.790   3.379
10031SOL    HW230993   5.532   4.914   3.419
10032SOL     OW30994   3.408   0.935   5.228
10032SOL    HW130995   3.493   0.988   5.221
10032SOL    HW230996   3.429   0.844   5.264
10033SOL     OW30997   4.951   2.202   4.280
10033SOL    HW130998   4.937   2.123   4.340
10033SOL    HW230999   5.002   2.273   4.329
10034SOL     OW31000   3.460   6.945   4.031
10034SOL    HW131001   3.511   0.003   4.048
10034SOL    HW231002   3.362   6.966   4.025
10035SOL     OW31003   0.455   4.578   2.030
10035SOL    HW131004   0.458   4.659   1.972
10035SOL    HW231005   0.480   4.604   2.124
10036SOL     OW31006   5.679   1.141   1.110
10036SOL    HW131007   5.642   1.232   1.128
10036SOL    HW231008   5.608   1.072   1.121
10037SOL     OW31009   6.064   1.536   1.275
10037SOL    HW131010   6.075   1.490   1.363
10037SOL    HW231011   6.097   1.476   1.202
10038SOL     OW31012   4.240   1.236   6.445
10038SOL    HW131013   4.275   1.212   6.535
10038SOL    HW231014   4.143   1.213   6.439
10039SOL     OW31015   3.239   0.285   4.459
10039SOL    HW131016   3.191   0.292   4.546
10039SOL    HW231017   3.284   0.196   4.452
10040SOL     OW31018   4.099   5.683   6.449
10040SOL    HW131019   4.189   5.707   6.412
10040SOL    HW231020   4.027   5.727   6.395
10041SOL     OW31021   4.403   5.686   6.224
10041SOL    HW131022   4.453   5.730   6.150
10041SOL    HW231023   4.419   5.735   6.309
10042SOL     OW31024   1.147   1.646   4.574
10042SOL    HW131025   1.080   1.572   4.564
10042SOL    HW231026   1.128   1.717   4.506
10043SOL     OW31027   6.079   1.873   4.778
10043SOL    HW131028   6.145   1.904   4.710
10043SOL    HW231029   6.123   1.865   4.867
10044SOL     OW31030   3.115   1.483   5.197
10044SOL    HW131031   3.103   1.482   5.297
10044SOL    HW231032   3.212   1.498   5.176
10045SOL     OW31033   4.073   6.939   3.618
10045SOL    HW131034   4.111   0.001   3.591
10045SOL    HW231035   3.982   6.929   3.579
10046SOL     OW31036   2.397   3.948   0.735
10046SOL    HW131037   2.382   3.859   0.776
10046SOL    HW231038   2.335   4.015   0.777
10047SOL     OW31039   7.008   3.809   5.789
10047SOL    HW131040   6.948   3.858   5.851
10047SOL    HW231041   6.969   3.810   5.697
10048SOL     OW31042   6.170   0.864   2.644
10048SOL    HW131043   6.091   0.882   2.703
10048SOL    HW231044   6.163   0.918   2.561
10049SOL     OW31045   0.277   1.286   6.858
10049SOL    HW131046   0.246   1.337   6.777
10049SOL    HW231047   0.377   1.287   6.861
10050SOL     OW31048   5.745   3.861   5.532
10050SOL    HW131049   5.790   3.829   5.448
10050SOL    HW231050   5.693   3.786   5.572
10051SOL     OW31051   5.672   3.722   5.877
10051SOL    HW131052   5.618   3.806   5.881
10051SOL    HW231053   5.663   3.672   5.963
10052SOL     OW31054   1.715   2.141   3.073
10052SOL    HW131055   1.795   2.101   3.119
10052SOL    HW231056   1.727   2.135   2.974
10053SOL     OW31057   3.869   5.528   3.284
10053SOL    HW131058   3.926   5.599   3.325
10053SOL    HW231059   3.913   5.439   3.297
10054SOL     OW31060   5.925   5.838   7.016
10054SOL    HW131061   5.888   5.792   6.936
10054SOL    HW231062   5.891   5.793   0.072
10055SOL     OW31063   5.590   1.515   4.926
10055SOL    HW131064   5.493   1.520   4.945
10055SOL    HW231065   5.642   1.535   5.009
10056SOL     OW31066   5.281   4.362   2.895
10056SOL    HW131067   5.303   4.345   2.992
10056SOL    HW231068   5.274   4.461   2.880
10057SOL     OW31069   4.585   2.555   5.362
10057SOL    HW131070   4.661   2.493   5.344
10057SOL    HW231071   4.615   2.650   5.349
10058SOL     OW31072   0.285   3.458   4.902
10058SOL    HW131073   0.360   3.396   4.879
10058SOL    HW231074   0.311   3.514   4.980
10059SOL     OW31075   6.560   0.665   0.812
10059SOL    HW131076   6.587   0.701   0.901
10059SOL    HW231077   6.641   0.643   0.758
10060SOL     OW31078   1.892   2.716   1.943
10060SOL    HW131079   1.956   2.701   1.868
10060SOL    HW231080   1.938   2.700   2.030
10061SOL     OW31081   4.608   1.009   3.930
10061SOL    HW131082   4.669   1.082   3.899
10061SOL    HW231083   4.560   0.971   3.851
10062SOL     OW31084   6.025   0.718   3.671
10062SOL    HW131085   5.952   0.771   3.713
10062SOL    HW231086   5.999   0.692   3.578
10063SOL     OW31087   2.877   0.961   4.170
10063SOL    HW131088   2.937   0.904   4.114
10063SOL    HW231089   2.829   0.903   4.236
10064SOL     OW31090   5.078   6.929   0.203
10064SOL    HW131091   5.009   6.888   0.263
10064SOL    HW231092   5.052   7.023   0.181
10065SOL     OW31093   3.316   0.406   2.708
10065SOL    HW131094   3.339   0.467   2.784
10065SOL    HW231095   3.217   0.395   2.703
10066SOL     OW31096   0.216   2.677   4.556
10066SOL    HW131097   0.198   2.705   4.650
10066SOL    HW231098   0.137   2.629   4.520
10067SOL     OW31099   0.521   3.993   5.302
10067SOL    HW131100   0.556   4.014   5.394
10067SOL    HW231101   0.434   4.040   5.289
10068SOL     OW31102   0.378   3.324   3.424
10068SOL    HW131103   0.289   3.285   3.399
10068SOL    HW231104   0.449   3.288   3.363
10069SOL     OW31105   3.266   5.383   2.335
10069SOL    HW131106   3.264   5.294   2.379
10069SOL    HW231107   3.316   5.376   2.249
10070SOL     OW31108   0.349   5.845   5.291
10070SOL    HW131109   0.410   5.806   5.361
10070SOL    HW231110   0.367   5.943   5.282
10071SOL     OW31111   6.459   6.214   4.790
10071SOL    HW131112   6.523   6.275   4.743
10071SOL    HW231113   6.379   6.198   4.732
10072SOL     OW31114   6.382   6.470   4.178
10072SOL    HW131115   6.417   6.424   4.260
10072SOL    HW231116   6.429   6.434   4.097
10073SOL     OW31117   6.287   5.329   4.017
10073SOL    HW131118   6.296   5.248   4.074
10073SOL    HW231119   6.307   5.306   3.922
10074SOL     OW31120   2.143   0.387   5.237
10074SOL    HW131121   2.086   0.320   5.284
10074SOL    HW231122   2.128   0.379   5.138
10075SOL     OW31123   1.689   2.664   2.644
10075SOL    HW131124   1.701   2.697   2.550
10075SOL    HW231125   1.712   2.567   2.648
10076SOL     OW31126   5.976   6.506   3.601
10076SOL    HW131127   5.946   6.460   3.685
10076SOL    HW231128   5.916   6.479   3.525
10077SOL     OW31129   4.226   3.019   7.012
10077SOL    HW131130   4.229   2.986   6.917
10077SOL    HW231131   4.217   2.941   0.047
10078SOL     OW31132   0.081   5.815   3.652
10078SOL    HW131133   0.123   5.864   3.728
10078SOL    HW231134   0.016   5.748   3.687
10079SOL     OW31135   5.852   2.967   3.307
10079SOL    HW131136   5.894   2.952   3.218
10079SOL    HW231137   5.880   3.055   3.343
10080SOL     OW31138   4.886   0.377   5.563
10080SOL    HW131139   4.980   0.342   5.563
10080SOL    HW231140   4.888   0.476   5.550
10081SOL     OW31141   6.959   1.056   0.150
10081SOL    HW131142   0.004   1.114   0.111
10081SOL    HW231143   7.001   0.981   0.201
10082SOL     OW31144   0.369   5.376   1.685
10082SOL    HW131145   0.409   5.437   1.753
10082SOL    HW231146   0.345   5.429   1.603
10083SOL     OW31147   4.137   0.428   3.458
10083SOL    HW131148   4.206   0.499   3.466
10083SOL    HW231149   4.112   0.415   3.362
10084SOL     OW31150   1.937   0.309   6.056
10084SOL    HW131151   2.019   0.295   6.113
10084SOL    HW231152   1.960   0.366   5.978
10085SOL     OW31153   3.158   6.039   1.005
10085SOL    HW131154   3.120   5.988   0.928
10085SOL    HW231155   3.247   6.077   0.979
10086SOL     OW31156   5.425   6.272   2.248
10086SOL    HW131157   5.479   6.227   2.320
10086SOL    HW231158   5.484   6.289   2.168
10087SOL     OW31159   6.538   5.850   4.051
10087SOL    HW131160   6.517   5.754   4.031
10087SOL    HW231161   6.625   5.855   4.100
10088SOL     OW31162   6.942   6.751   2.061
10088SOL    HW131163   7.023   6.774   2.114
10088SOL    HW231164   6.940   6.652   2.044
10089SOL     OW31165   2.373   2.061   3.386
10089SOL    HW131166   2.367   1.963   3.371
10089SOL    HW231167   2.465   2.084   3.418
10090SOL     OW31168   0.614   5.111   1.906
10090SOL    HW131169   0.591   5.199   1.865
10090SOL    HW231170   0.711   5.091   1.891
10091SOL     OW31171   6.865   5.390   6.345
10091SOL    HW131172   6.904   5.302   6.317
10091SOL    HW231173   6.784   5.374   6.401
10092SOL     OW31174   2.553   2.831   5.505
10092SOL    HW131175   2.607   2.768   5.561
10092SOL    HW231176   2.558   2.803   5.409
10093SOL     OW31177   4.737   3.279   5.529
10093SOL    HW131178   4.825   3.285   5.576
10093SOL    HW231179   4.736   3.199   5.470
10094SOL     OW31180   3.381   5.724   1.584
10094SOL    HW131181   3.337   5.814   1.592
10094SOL    HW231182   3.312   5.655   1.566
10095SOL     OW31183   5.724   1.706   4.418
10095SOL    HW131184   5.700   1.667   4.507
10095SOL    HW231185   5.653   1.682   4.351
10096SOL     OW31186   3.642   5.504   3.119
10096SOL    HW131187   3.708   5.510   3.194
10096SOL    HW231188   3.686   5.461   3.040
10097SOL     OW31189   1.586   1.934   0.013
10097SOL    HW131190   1.634   1.881   0.083
10097SOL    HW231191   1.521   1.875   6.992
10098SOL     OW31192   3.183   0.050   5.468
10098SOL    HW131193   3.262   7.022   5.441
10098SOL    HW231194   3.105   7.016   5.487
10099SOL     OW31195   1.089   5.108   1.463
10099SOL    HW131196   1.164   5.057   1.421
10099SOL    HW231197   1.034   5.046   1.519
10100SOL     OW31198   5.242   5.989   5.851
10100SOL    HW131199   5.228   5.891   5.865
10100SOL    HW231200   5.154   6.037   5.854
10101SOL     OW31201   6.361   3.057   2.018
10101SOL    HW131202   6.353   3.119   1.940
10101SOL    HW231203   6.353   2.963   1.986
10102SOL     OW31204   6.824   1.360   2.176
10102SOL    HW131205   6.750   1.415   2.216
10102SOL    HW231206   6.912   1.391   2.212
10103SOL     OW31207   2.837   0.409   5.592
10103SOL    HW131208   2.768   0.339   5.572
10103SOL    HW231209   2.817   0.492   5.540
10104SOL     OW31210   1.341   2.205   5.181
10104SOL    HW131211   1.421   2.245   5.136
10104SOL    HW231212   1.324   2.113   5.144
10105SOL     OW31213   2.231   0.626   6.260
10105SOL    HW131214   2.257   0.693   6.330
10105SOL    HW231215   2.196   0.543   6.304
10106SOL     OW31216   4.111   6.625   0.916
10106SOL    HW131217   4.074   6.533   0.929
10106SOL    HW231218   4.191   6.621   0.856
10107SOL     OW31219   5.227   1.571   5.698
10107SOL    HW131220   5.295   1.618   5.754
10107SOL    HW231221   5.203   1.629   5.619
10108SOL     OW31222   6.778   0.937   0.545
10108SOL    HW131223   6.733   0.910   0.459
10108SOL    HW231224   6.728   1.013   0.587
10109SOL     OW31225   6.868   1.285   0.292
10109SOL    HW131226   6.942   1.218   0.286
10109SOL    HW231227   6.814   1.283   0.208
10110SOL     OW31228   5.222   4.781   4.063
10110SOL    HW131229   5.138   4.832   4.081
10110SOL    HW231230   5.210   4.725   3.981
10111SOL     OW31231   6.155   3.715   3.928
10111SOL    HW131232   6.222   3.757   3.990
10111SOL    HW231233   6.175   3.617   3.920
10112SOL     OW31234   5.943   3.612   3.567
10112SOL    HW131235   5.951   3.515   3.589
10112SOL    HW231236   5.855   3.627   3.520
10113SOL     OW31237   4.244   7.026   7.021
10113SOL    HW131238   4.185   0.024   6.944
10113SOL    HW231239   4.207   6.944   0.039
10114SOL     OW31240   4.091   2.090   2.306
10114SOL    HW131241   3.994   2.103   2.287
10114SOL    HW231242   4.144   2.160   2.259
10115SOL     OW31243   4.580   1.888   5.212
10115SOL    HW131244   4.565   1.969   5.269
10115SOL    HW231245   4.502   1.877   5.150
10116SOL     OW31246   1.227   0.433   0.071
10116SOL    HW131247   1.322   0.409   0.092
10116SOL    HW231248   1.174   0.435   0.156
10117SOL     OW31249   6.510   6.253   5.940
10117SOL    HW131250   6.461   6.280   5.857
10117SOL    HW231251   6.453   6.268   6.020
10118SOL     OW31252   2.387   4.496   3.642
10118SOL    HW131253   2.314   4.430   3.660
10118SOL    HW231254   2.355   4.564   3.577
10119SOL     OW31255   6.531   5.244   4.307
10119SOL    HW131256   6.612   5.218   4.359
10119SOL    HW231257   6.469   5.296   4.365
10120SOL     OW31258   1.886   3.362   4.333
10120SOL    HW131259   1.877   3.297   4.407
10120SOL    HW231260   1.796   3.397   4.307
10121SOL     OW31261   5.472   4.131   6.704
10121SOL    HW131262   5.571   4.138   6.700
10121SOL    HW231263   5.436   4.200   6.767
10122SOL     OW31264   5.555   2.654   3.081
10122SOL    HW131265   5.598   2.736   3.118
10122SOL    HW231266   5.459   2.674   3.057
10123SOL     OW31267   5.710   5.796   0.831
10123SOL    HW131268   5.610   5.794   0.823
10123SOL    HW231269   5.750   5.735   0.762
10124SOL     OW31270   1.686   4.761   0.404
10124SOL    HW131271   1.729   4.819   0.472
10124SOL    HW231272   1.672   4.813   0.320
10125SOL     OW31273   1.949   1.868   1.022
10125SOL    HW131274   1.931   1.770   1.020
10125SOL    HW231275   2.035   1.888   0.976
10126SOL     OW31276   0.188   0.229   0.548
10126SOL    HW131277   0.092   0.255   0.561
10126SOL    HW231278   0.201   0.197   0.455
10127SOL     OW31279   2.251   3.761   0.295
10127SOL    HW131280   2.176   3.711   0.339
10127SOL    HW231281   2.218   3.852   0.269
10128SOL     OW31282   3.407   0.842   6.287
10128SOL    HW131283   3.317   0.839   6.331
10128SOL    HW231284   3.439   0.937   6.282
10129SOL     OW31285   6.387   1.668   3.057
10129SOL    HW131286   6.364   1.593   3.118
10129SOL    HW231287   6.345   1.753   3.090
10130SOL     OW31288   1.274   3.208   1.313
10130SOL    HW131289   1.302   3.131   1.255
10130SOL    HW231290   1.258   3.288   1.255
10131SOL     OW31291   2.123   6.969   4.300
10131SOL    HW131292   2.179   6.943   4.379
10131SOL    HW231293   2.179   6.966   4.218
10132SOL     OW31294   2.416   0.605   3.473
10132SOL    HW131295   2.373   0.596   3.383
10132SOL    HW231296   2.403   0.520   3.524
10133SOL     OW31297   4.995   6.362   1.119
10133SOL    HW131298   5.083   6.395   1.152
10133SOL    HW231299   4.934   6.441   1.103
10134SOL     OW31300   6.173   1.254   2.661
10134SOL    HW131301   6.144   1.228   2.753
10134SOL    HW231302   6.197   1.351   2.660
10135SOL     OW31303   5.181   2.809   3.586
10135SOL    HW131304   5.146   2.809   3.680
10135SOL    HW231305   5.133   2.880   3.534
10136SOL     OW31306   5.090   1.828   2.189
10136SOL    HW131307   5.027   1.767   2.142
10136SOL    HW231308   5.057   1.844   2.282
10137SOL     OW31309   0.459   4.460   4.820
10137SOL    HW131310   0.455   4.547   4.771
10137SOL    HW231311   0.397   4.395   4.776
10138SOL     OW31312   5.054   3.623   0.831
10138SOL    HW131313   4.971   3.604   0.884
10138SOL    HW231314   5.123   3.663   0.891
10139SOL     OW31315   2.990   3.243   3.986
10139SOL    HW131316   2.975   3.193   3.900
10139SOL    HW231317   3.042   3.186   4.049
10140SOL     OW31318   0.368   6.374   0.174
10140SOL    HW131319   0.301   6.371   0.100
10140SOL    HW231320   0.439   6.306   0.158
10141SOL     OW31321   4.549   1.171   5.283
10141SOL    HW131322   4.499   1.258   5.282
10141SOL    HW231323   4.551   1.135   5.376
10142SOL     OW31324   6.073   6.647   5.641
10142SOL    HW131325   6.006   6.581   5.606
10142SOL    HW231326   6.079   6.725   5.578
10143SOL     OW31327   5.472   2.257   1.247
10143SOL    HW131328   5.438   2.191   1.180
10143SOL    HW231329   5.468   2.217   1.339
10144SOL     OW31330   4.354   6.932   6.212
10144SOL    HW131331   4.323   6.951   6.119
10144SOL    HW231332   4.386   7.016   6.254
10145SOL     OW31333   3.187   5.894   2.749
10145SOL    HW131334   3.190   5.881   2.849
10145SOL    HW231335   3.217   5.809   2.705
10146SOL     OW31336   5.600   4.442   4.237
10146SOL    HW131337   5.570   4.357   4.193
10146SOL    HW231338   5.660   4.492   4.174
10147SOL     OW31339   4.743   3.898   6.455
10147SOL    HW131340   4.744   3.799   6.472
10147SOL    HW231341   4.663   3.922   6.401
10148SOL     OW31342   5.622   4.998   6.811
10148SOL    HW131343   5.539   4.956   6.774
10148SOL    HW231344   5.649   4.950   6.895
10149SOL     OW31345   5.562   3.602   1.311
10149SOL    HW131346   5.546   3.504   1.306
10149SOL    HW231347   5.568   3.630   1.407
10150SOL     OW31348   4.189   2.893   1.651
10150SOL    HW131349   4.095   2.908   1.683
10150SOL    HW231350   4.250   2.958   1.695
10151SOL     OW31351   0.799   6.699   0.196
10151SOL    HW131352   0.762   6.789   0.171
10151SOL    HW231353   0.799   6.639   0.117
10152SOL     OW31354   0.163   6.262   3.423
10152SOL    HW131355   0.157   6.208   3.507
10152SOL    HW231356   0.251   6.243   3.378
10153SOL     OW31357   5.026   6.355   3.705
10153SOL    HW131358   5.008   6.267   3.748
10153SOL    HW231359   5.013   6.428   3.771
10154SOL     OW31360   3.804   6.510   5.206
10154SOL    HW131361   3.773   6.464   5.289
10154SOL    HW231362   3.903   6.496   5.196
10155SOL     OW31363   4.971   2.134   6.234
10155SOL    HW131364   4.958   2.172   6.142
10155SOL    HW231365   5.004   2.206   6.295
10156SOL     OW31366   5.822   0.334   2.021
10156SOL    HW131367   5.827   0.325   1.921
10156SOL    HW231368   5.865   0.421   2.048
10157SOL     OW31369   0.080   2.373   0.301
10157SOL    HW131370   0.089   2.291   0.245
10157SOL    HW231371   0.127   2.359   0.389
10158SOL     OW31372   6.193   6.322   1.161
10158SOL    HW131373   6.242   6.245   1.201
10158SOL    HW231374   6.215   6.329   1.063
10159SOL     OW31375   3.604   2.697   1.775
10159SOL    HW131376   3.648   2.608   1.784
10159SOL    HW231377   3.621   2.734   1.683
10160SOL     OW31378   1.230   3.270   3.219
10160SOL    HW131379   1.248   3.368   3.215
10160SOL    HW231380   1.226   3.240   3.314
10161SOL     OW31381   3.629   4.272   6.958
10161SOL    HW131382   3.674   4.359   6.940
10161SOL    HW231383   3.541   4.287   7.002
10162SOL     OW31384   2.708   5.441   0.524
10162SOL    HW131385   2.763   5.373   0.573
10162SOL    HW231386   2.617   5.403   0.507
10163SOL     OW31387   0.716   3.988   7.016
10163SOL    HW131388   0.669   3.900   7.010
10163SOL    HW231389   0.815   3.973   7.014
10164SOL     OW31390   6.079   3.582   5.088
10164SOL    HW131391   6.050   3.499   5.136
10164SOL    HW231392   6.005   3.614   5.030
10165SOL     OW31393   6.465   1.852   3.304
10165SOL    HW131394   6.481   1.846   3.205
10165SOL    HW231395   6.490   1.943   3.336
10166SOL     OW31396   2.407   1.883   1.719
10166SOL    HW131397   2.374   1.789   1.732
10166SOL    HW231398   2.420   1.901   1.622
10167SOL     OW31399   0.467   5.364   0.371
10167SOL    HW131400   0.548   5.310   0.348
10167SOL    HW231401   0.485   5.417   0.453
10168SOL     OW31402   0.029   2.742   6.064
10168SOL    HW131403   6.988   2.743   5.990
10168SOL    HW231404   0.120   2.757   6.026
10169SOL     OW31405   0.279   4.051   3.660
10169SOL    HW131406   0.245   3.957   3.665
10169SOL    HW231407   0.368   4.052   3.615
10170SOL     OW31408   6.520   5.001   6.375
10170SOL    HW131409   6.579   4.932   6.332
10170SOL    HW231410   6.561   5.031   6.461
10171SOL     OW31411   0.767   2.742   4.944
10171SOL    HW131412   0.744   2.678   4.871
10171SOL    HW231413   0.714   2.720   5.026
10172SOL     OW31414   0.863   6.206   4.247
10172SOL    HW131415   0.875   6.108   4.264
10172SOL    HW231416   0.818   6.248   4.326
10173SOL     OW31417   2.076   3.163   0.597
10173SOL    HW131418   2.143   3.180   0.669
10173SOL    HW231419   1.987   3.202   0.625
10174SOL     OW31420   5.047   4.821   3.605
10174SOL    HW131421   5.109   4.768   3.547
10174SOL    HW231422   5.058   4.918   3.585
10175SOL     OW31423   4.928   2.648   3.567
10175SOL    HW131424   5.020   2.685   3.567
10175SOL    HW231425   4.914   2.591   3.648
10176SOL     OW31426   6.760   2.945   5.473
10176SOL    HW131427   6.783   2.874   5.540
10176SOL    HW231428   6.708   3.017   5.518
10177SOL     OW31429   1.911   0.959   0.192
10177SOL    HW131430   1.948   1.047   0.224
10177SOL    HW231431   1.845   0.975   0.119
10178SOL     OW31432   0.612   0.754   0.455
10178SOL    HW131433   0.647   0.721   0.543
10178SOL    HW231434   0.558   0.681   0.412
10179SOL     OW31435   0.561   3.116   6.679
10179SOL    HW131436   0.492   3.079   6.617
10179SOL    HW231437   0.523   3.125   6.771
10180SOL     OW31438   4.999   0.489   0.468
10180SOL    HW131439   4.932   0.545   0.419
10180SOL    HW231440   4.975   0.392   0.458
10181SOL     OW31441   0.303   2.294   1.206
10181SOL    HW131442   0.303   2.389   1.176
10181SOL    HW231443   0.319   2.290   1.305
10182SOL     OW31444   5.108   0.802   0.191
10182SOL    HW131445   5.094   0.714   0.145
10182SOL    HW231446   5.194   0.799   0.242
10183SOL     OW31447   5.946   2.528   5.485
10183SOL    HW131448   5.870   2.464   5.475
10183SOL    HW231449   5.911   2.622   5.487
10184SOL     OW31450   4.298   2.261   6.505
10184SOL    HW131451   4.391   2.263   6.542
10184SOL    HW231452   4.277   2.169   6.471
10185SOL     OW31453   6.237   5.995   2.151
10185SOL    HW131454   6.182   5.964   2.073
10185SOL    HW231455   6.213   5.943   2.232
10186SOL     OW31456   5.213   4.046   4.466
10186SOL    HW131457   5.212   4.125   4.527
10186SOL    HW231458   5.224   3.962   4.519
10187SOL     OW31459   1.153   3.870   6.763
10187SOL    HW131460   1.081   3.889   6.696
10187SOL    HW231461   1.234   3.836   6.716
10188SOL     OW31462   2.802   5.340   6.750
10188SOL    HW131463   2.768   5.382   6.835
10188SOL    HW231464   2.782   5.401   6.673
10189SOL     OW31465   0.667   0.961   6.229
10189SOL    HW131466   0.761   0.985   6.254
10189SOL    HW231467   0.616   1.044   6.207
10190SOL     OW31468   4.032   2.738   1.449
10190SOL    HW131469   4.084   2.659   1.483
10190SOL    HW231470   4.040   2.813   1.514
10191SOL     OW31471   4.992   5.413   6.858
10191SOL    HW131472   4.930   5.401   6.936
10191SOL    HW231473   5.081   5.375   6.880
10192SOL     OW31474   3.696   1.169   4.897
10192SOL    HW131475   3.732   1.085   4.856
10192SOL    HW231476   3.699   1.243   4.831
10193SOL     OW31477   3.098   3.415   2.566
10193SOL    HW131478   3.007   3.405   2.525
10193SOL    HW231479   3.165   3.366   2.512
10194SOL     OW31480   4.638   0.424   4.881
10194SOL    HW131481   4.577   0.449   4.956
10194SOL    HW231482   4.588   0.429   4.794
10195SOL     OW31483   6.335   6.767   0.870
10195SOL    HW131484   6.245   6.811   0.866
10195SOL    HW231485   6.387   6.806   0.946
10196SOL     OW31486   4.851   2.146   3.898
10196SOL    HW131487   4.792   2.193   3.833
10196SOL    HW231488   4.936   2.120   3.854
10197SOL     OW31489   5.196   2.358   4.421
10197SOL    HW131490   5.171   2.442   4.374
10197SOL    HW231491   5.271   2.313   4.371
10198SOL     OW31492   3.876   0.293   1.516
10198SOL    HW131493   3.805   0.227   1.493
10198SOL    HW231494   3.871   0.313   1.614
10199SOL     OW31495   0.986   1.955   0.044
10199SOL    HW131496   0.900   1.907   0.027
10199SOL    HW231497   0.969   2.053   0.051
10200SOL     OW31498   5.010   3.370   5.653
10200SOL    HW131499   5.090   3.364   5.593
10200SOL    HW231500   4.958   3.452   5.631
10201SOL     OW31501   0.659   6.398   0.545
10201SOL    HW131502   0.641   6.420   0.640
10201SOL    HW231503   0.693   6.479   0.497
10202SOL     OW31504   2.202   4.576   0.148
10202SOL    HW131505   2.189   4.673   0.166
10202SOL    HW231506   2.237   4.531   0.231
10203SOL     OW31507   0.067   2.809   1.873
10203SOL    HW131508   0.054   2.904   1.846
10203SOL    HW231509   0.160   2.780   1.850
10204SOL     OW31510   3.864   5.837   0.067
10204SOL    HW131511   3.800   5.912   0.087
10204SOL    HW231512   3.861   5.817   6.996
10205SOL     OW31513   3.209   1.166   2.103
10205SOL    HW131514   3.227   1.212   2.190
10205SOL    HW231515   3.129   1.208   2.059
10206SOL     OW31516   6.077   6.969   6.534
10206SOL    HW131517   6.163   7.013   6.563
10206SOL    HW231518   6.033   6.928   6.613
10207SOL     OW31519   2.036   1.417   6.744
10207SOL    HW131520   2.078   1.414   6.834
10207SOL    HW231521   1.936   1.414   6.753
10208SOL     OW31522   6.345   4.521   3.580
10208SOL    HW131523   6.342   4.470   3.666
10208SOL    HW231524   6.411   4.479   3.519
10209SOL     OW31525   7.023   0.058   6.214
10209SOL    HW131526   6.969   0.107   6.282
10209SOL    HW231527   7.004   6.987   6.220
10210SOL     OW31528   5.237   6.548   1.085
10210SOL    HW131529   5.336   6.547   1.101
10210SOL    HW231530   5.211   6.634   1.042
10211SOL     OW31531   4.137   6.101   5.101
10211SOL    HW131532   4.038   6.099   5.089
10211SOL    HW231533   4.181   6.053   5.025
10212SOL     OW31534   6.965   6.831   5.102
10212SOL    HW131535   6.923   6.840   5.012
10212SOL    HW231536   6.926   6.753   5.150
10213SOL     OW31537   5.162   3.250   2.635
10213SOL    HW131538   5.099   3.328   2.636
10213SOL    HW231539   5.171   3.214   2.728
10214SOL     OW31540   1.152   1.906   2.300
10214SOL    HW131541   1.191   1.814   2.297
10214SOL    HW231542   1.146   1.937   2.395
10215SOL     OW31543   3.230   2.970   3.660
10215SOL    HW131544   3.203   3.048   3.604
10215SOL    HW231545   3.158   2.951   3.727
10216SOL     OW31546   0.720   0.019   1.109
10216SOL    HW131547   0.627   0.041   1.138
10216SOL    HW231548   0.740   0.064   1.022
10217SOL     OW31549   2.066   2.160   3.530
10217SOL    HW131550   2.117   2.092   3.582
10217SOL    HW231551   2.124   2.240   3.513
10218SOL     OW31552   1.571   0.791   1.971
10218SOL    HW131553   1.502   0.749   2.031
10218SOL    HW231554   1.650   0.731   1.965
10219SOL     OW31555   0.011   3.272   2.370
10219SOL    HW131556   0.017   3.275   2.470
10219SOL    HW231557   0.103   3.265   2.332
10220SOL     OW31558   4.212   1.801   1.109
10220SOL    HW131559   4.172   1.711   1.095
10220SOL    HW231560   4.295   1.810   1.053
10221SOL     OW31561   1.838   3.760   4.531
10221SOL    HW131562   1.929   3.756   4.572
10221SOL    HW231563   1.772   3.713   4.590
10222SOL     OW31564   2.673   3.557   5.578
10222SOL    HW131565   2.671   3.461   5.607
10222SOL    HW231566   2.715   3.613   5.649
10223SOL     OW31567   2.063   5.896   6.686
10223SOL    HW131568   2.008   5.840   6.748
10223SOL    HW231569   2.147   5.846   6.663
10224SOL     OW31570   6.997   1.645   5.142
10224SOL    HW131571   6.996   1.688   5.051
10224SOL    HW231572   6.917   1.674   5.194
10225SOL     OW31573   2.153   6.349   5.734
10225SOL    HW131574   2.232   6.359   5.795
10225SOL    HW231575   2.069   6.354   5.787
10226SOL     OW31576   2.311   0.775   6.471
10226SOL    HW131577   2.251   0.844   6.511
10226SOL    HW231578   2.336   0.708   6.541
10227SOL     OW31579   5.224   4.395   0.576
10227SOL    HW131580   5.160   4.454   0.627
10227SOL    HW231581   5.179   4.362   0.493
10228SOL     OW31582   0.866   6.587   1.783
10228SOL    HW131583   0.854   6.630   1.694
10228SOL    HW231584   0.843   6.490   1.777
10229SOL     OW31585   1.506   1.631   4.181
10229SOL    HW131586   1.440   1.620   4.107
10229SOL    HW231587   1.597   1.604   4.149
10230SOL     OW31588   6.243   6.854   2.845
10230SOL    HW131589   6.176   6.825   2.912
10230SOL    HW231590   6.202   6.851   2.753
10231SOL     OW31591   6.339   5.476   4.942
10231SOL    HW131592   6.260   5.430   4.982
10231SOL    HW231593   6.402   5.407   4.905
10232SOL     OW31594   2.959   1.080   4.450
10232SOL    HW131595   2.930   1.020   4.375
10232SOL    HW231596   2.879   1.127   4.488
10233SOL     OW31597   4.825   3.327   5.221
10233SOL    HW131598   4.789   3.417   5.196
10233SOL    HW231599   4.777   3.257   5.168
10234SOL     OW31600   5.585   0.109   6.907
10234SOL    HW131601   5.635   0.191   6.935
10234SOL    HW231602   5.633   0.028   6.940
10235SOL     OW31603   3.773   2.988   0.469
10235SOL    HW131604   3.821   3.057   0.524
10235SOL    HW231605   3.797   3.000   0.373
10236SOL     OW31606   2.336   0.901   1.517
10236SOL    HW131607   2.380   0.935   1.434
10236SOL    HW231608   2.244   0.868   1.495
10237SOL     OW31609   6.987   4.471   0.393
10237SOL    HW131610   6.909   4.409   0.389
10237SOL    HW231611   0.045   4.418   0.386
10238SOL     OW31612   3.221   4.090   2.913
10238SOL    HW131613   3.230   4.189   2.921
10238SOL    HW231614   3.276   4.046   2.984
10239SOL     OW31615   2.268   4.349   5.706
10239SOL    HW131616   2.246   4.445   5.716
10239SOL    HW231617   2.353   4.329   5.755
10240SOL     OW31618   1.648   4.717   2.773
10240SOL    HW131619   1.655   4.816   2.782
10240SOL    HW231620   1.626   4.693   2.678
10241SOL     OW31621   6.674   0.597   2.400
10241SOL    HW131622   6.736   0.523   2.376
10241SOL    HW231623   6.641   0.583   2.494
10242SOL     OW31624   6.696   1.576   0.539
10242SOL    HW131625   6.642   1.555   0.457
10242SOL    HW231626   6.678   1.669   0.568
10243SOL     OW31627   1.474   5.149   1.937
10243SOL    HW131628   1.490   5.149   2.036
10243SOL    HW231629   1.391   5.201   1.916
10244SOL     OW31630   1.374   4.262   0.750
10244SOL    HW131631   1.278   4.253   0.777
10244SOL    HW231632   1.427   4.188   0.792
10245SOL     OW31633   2.815   4.769   0.346
10245SOL    HW131634   2.885   4.698   0.338
10245SOL    HW231635   2.795   4.786   0.443
10246SOL     OW31636   3.268   4.050   3.291
10246SOL    HW131637   3.200   3.999   3.344
10246SOL    HW231638   3.311   4.119   3.350
10247SOL     OW31639   6.651   4.452   5.944
10247SOL    HW131640   6.567   4.467   5.996
10247SOL    HW231641   6.709   4.534   5.950
10248SOL     OW31642   2.287   0.157   2.427
10248SOL    HW131643   2.232   0.210   2.491
10248SOL    HW231644   2.226   0.108   2.364
10249SOL     OW31645   3.327   0.335   6.523
10249SOL    HW131646   3.349   0.432   6.510
10249SOL    HW231647   3.328   0.314   6.621
10250SOL     OW31648   6.390   2.955   1.602
10250SOL    HW131649   6.310   3.001   1.564
10250SOL    HW231650   6.467   3.019   1.605
10251SOL     OW31651   2.907   1.567   5.061
10251SOL    HW131652   2.956   1.608   4.983
10251SOL    HW231653   2.973   1.535   5.129
10252SOL     OW31654   4.393   4.551   0.107
10252SOL    HW131655   4.491   4.566   0.091
10252SOL    HW231656   4.369   4.459   0.079
10253SOL     OW31657   2.818   5.890   0.413
10253SOL    HW131658   2.874   5.862   0.335
10253SOL    HW231659   2.824   5.820   0.484
10254SOL     OW31660   4.355   0.633   4.959
10254SOL    HW131661   4.325   0.647   4.864
10254SOL    HW231662   4.327   0.712   5.014
10255SOL     OW31663   2.194   6.881   1.274
10255SOL    HW131664   2.213   6.979   1.266
10255SOL    HW231665   2.135   6.865   1.353
10256SOL     OW31666   6.291   1.040   1.713
10256SOL    HW131667   6.338   1.056   1.800
10256SOL    HW231668   6.352   0.990   1.651
10257SOL     OW31669   1.925   5.090   4.678
10257SOL    HW131670   2.001   5.060   4.620
10257SOL    HW231671   1.902   5.185   4.656
10258SOL     OW31672   3.276   0.952   4.051
10258SOL    HW131673   3.341   0.964   3.975
10258SOL    HW231674   3.270   1.036   4.104
10259SOL     OW31675   0.319   4.264   2.847
10259SOL    HW131676   0.361   4.175   2.831
10259SOL    HW231677   0.220   4.255   2.844
10260SOL     OW31678   0.319   1.028   4.493
10260SOL    HW131679   0.315   0.939   4.448
10260SOL    HW231680   0.396   1.030   4.557
10261SOL     OW31681   6.910   5.976   2.930
10261SOL    HW131682   6.939   5.998   2.837
10261SOL    HW231683   6.810   5.981   2.936
10262SOL     OW31684   1.836   0.004   4.233
10262SOL    HW131685   1.812   6.936   4.256
10262SOL    HW231686   1.934   0.018   4.250
10263SOL     OW31687   5.280   0.750   6.441
10263SOL    HW131688   5.279   0.728   6.344
10263SOL    HW231689   5.207   0.700   6.488
10264SOL     OW31690   5.806   1.667   5.781
10264SOL    HW131691   5.723   1.715   5.809
10264SOL    HW231692   5.803   1.573   5.817
10265SOL     OW31693   2.223   2.352   3.429
10265SOL    HW131694   2.198   2.423   3.363
10265SOL    HW231695   2.289   2.290   3.388
10266SOL     OW31696   3.625   2.896   4.140
10266SOL    HW131697   3.655   2.802   4.147
10266SOL    HW231698   3.652   2.947   4.222
10267SOL     OW31699   0.093   1.608   6.939
10267SOL    HW131700   0.032   1.616   7.018
10267SOL    HW231701   0.076   1.521   6.892
10268SOL     OW31702   5.742   5.152   2.267
10268SOL    HW131703   5.656   5.131   2.313
10268SOL    HW231704   5.723   5.182   2.173
10269SOL     OW31705   0.317   3.305   0.001
10269SOL    HW131706   0.240   3.312   0.063
10269SOL    HW231707   0.388   3.370   0.028
10270SOL     OW31708   2.785   4.755   3.354
10270SOL    HW131709   2.712   4.817   3.380
10270SOL    HW231710   2.762   4.662   3.383
10271SOL     OW31711   3.800   2.312   0.060
10271SOL    HW131712   3.870   2.306   7.015
10271SOL    HW231713   3.830   2.376   0.130
10272SOL     OW31714   0.748   0.760   4.871
10272SOL    HW131715   0.736   0.850   4.913
10272SOL    HW231716   0.671   0.702   4.896
10273SOL     OW31717   3.564   5.679   2.584
10273SOL    HW131718   3.638   5.731   2.626
10273SOL    HW231719   3.565   5.693   2.485
10274SOL     OW31720   6.785   5.431   3.907
10274SOL    HW131721   6.730   5.470   3.980
10274SOL    HW231722   6.779   5.331   3.911
10275SOL     OW31723   1.057   0.105   1.695
10275SOL    HW131724   0.964   0.132   1.716
10275SOL    HW231725   1.099   0.062   1.775
10276SOL     OW31726   5.908   5.015   5.318
10276SOL    HW131727   5.872   4.925   5.292
10276SOL    HW231728   5.925   5.069   5.236
10277SOL     OW31729   2.104   5.497   4.224
10277SOL    HW131730   2.050   5.434   4.279
10277SOL    HW231731   2.047   5.573   4.194
10278SOL     OW31732   0.109   0.684   4.392
10278SOL    HW131733   0.020   0.640   4.402
10278SOL    HW231734   0.181   0.614   4.390
10279SOL     OW31735   2.777   5.044   3.965
10279SOL    HW131736   2.863   5.048   4.016
10279SOL    HW231737   2.709   5.102   4.009
10280SOL     OW31738   0.922   4.153   1.164
10280SOL    HW131739   0.927   4.095   1.083
10280SOL    HW231740   0.917   4.249   1.137
10281SOL     OW31741   5.900   1.248   2.620
10281SOL    HW131742   5.980   1.246   2.680
10281SOL    HW231743   5.848   1.332   2.636
10282SOL     OW31744   5.748   4.637   4.027
10282SOL    HW131745   5.649   4.625   4.028
10282SOL    HW231746   5.772   4.717   4.082
10283SOL     OW31747   1.050   3.774   1.287
10283SOL    HW131748   1.055   3.868   1.320
10283SOL    HW231749   0.966   3.731   1.320
10284SOL     OW31750   5.635   3.168   5.737
10284SOL    HW131751   5.611   3.264   5.720
10284SOL    HW231752   5.556   3.110   5.718
10285SOL     OW31753   5.463   1.050   1.864
10285SOL    HW131754   5.385   1.073   1.807
10285SOL    HW231755   5.438   1.057   1.960
10286SOL     OW31756   2.873   1.958   3.734
10286SOL    HW131757   2.855   1.866   3.699
10286SOL    HW231758   2.946   1.954   3.802
10287SOL     OW31759   2.317   6.290   1.240
10287SOL    HW131760   2.278   6.355   1.306
10287SOL    HW231761   2.337   6.203   1.287
10288SOL     OW31762   4.655   5.942   3.001
10288SOL    HW131763   4.699   5.852   3.001
10288SOL    HW231764   4.565   5.934   3.043
10289SOL     OW31765   2.558   6.756   1.793
10289SOL    HW131766   2.550   6.847   1.752
10289SOL    HW231767   2.569   6.764   1.892
10290SOL     OW31768   2.977   3.505   1.986
10290SOL    HW131769   2.990   3.580   1.921
10290SOL    HW231770   3.022   3.528   2.072
10291SOL     OW31771   3.480   2.145   3.698
10291SOL    HW131772   3.422   2.075   3.740
10291SOL    HW231773   3.555   2.167   3.760
10292SOL     OW31774   1.437   0.113   4.907
10292SOL    HW131775   1.369   0.075   4.971
10292SOL    HW231776   1.390   0.164   4.835
10293SOL     OW31777   1.973   5.111   3.214
10293SOL    HW131778   1.984   5.041   3.143
10293SOL    HW231779   1.882   5.151   3.209
10294SOL     OW31780   5.183   3.442   2.218
10294SOL    HW131781   5.099   3.491   2.195
10294SOL    HW231782   5.262   3.501   2.201
10295SOL     OW31783   5.554   4.316   6.227
10295SOL    HW131784   5.476   4.363   6.268
10295SOL    HW231785   5.565   4.348   6.133
10296SOL     OW31786   4.507   2.623   0.031
10296SOL    HW131787   4.507   2.666   6.967
10296SOL    HW231788   4.569   2.545   0.030
10297SOL     OW31789   2.128   6.910   6.975
10297SOL    HW131790   2.126   6.821   6.929
10297SOL    HW231791   2.181   6.975   6.920
10298SOL     OW31792   3.633   5.057   1.895
10298SOL    HW131793   3.632   4.957   1.897
10298SOL    HW231794   3.686   5.087   1.816
10299SOL     OW31795   4.655   5.261   3.061
10299SOL    HW131796   4.641   5.240   3.158
10299SOL    HW231797   4.745   5.227   3.033
10300SOL     OW31798   0.938   4.082   3.371
10300SOL    HW131799   0.999   4.062   3.447
10300SOL    HW231800   0.954   4.016   3.297
10301SOL     OW31801   5.610   2.229   4.630
10301SOL    HW131802   5.566   2.225   4.720
10301SOL    HW231803   5.588   2.146   4.579
10302SOL     OW31804   1.043   6.096   3.723
10302SOL    HW131805   1.038   6.195   3.736
10302SOL    HW231806   1.136   6.065   3.741
10303SOL     OW31807   1.696   5.884   2.726
10303SOL    HW131808   1.642   5.950   2.778
10303SOL    HW231809   1.672   5.889   2.629
10304SOL     OW31810   4.950   0.450   2.073
10304SOL    HW131811   5.001   0.496   2.000
10304SOL    HW231812   4.978   0.487   2.161
10305SOL     OW31813   0.930   4.337   6.895
10305SOL    HW131814   1.027   4.353   6.877
10305SOL    HW231815   0.881   4.330   6.809
10306SOL     OW31816   4.498   6.066   0.034
10306SOL    HW131817   4.453   6.150   0.063
10306SOL    HW231818   4.441   5.988   0.060
10307SOL     OW31819   2.246   1.850   5.104
10307SOL    HW131820   2.154   1.889   5.100
10307SOL    HW231821   2.308   1.905   5.048
10308SOL     OW31822   2.378   4.473   4.427
10308SOL    HW131823   2.362   4.402   4.359
10308SOL    HW231824   2.390   4.431   4.517
10309SOL     OW31825   5.751   1.321   4.811
10309SOL    HW131826   5.699   1.390   4.862
10309SOL    HW231827   5.688   1.257   4.768
10310SOL     OW31828   3.642   3.291   1.589
10310SOL    HW131829   3.610   3.197   1.595
10310SOL    HW231830   3.623   3.327   1.498
10311SOL     OW31831   1.015   6.617   0.718
10311SOL    HW131832   0.987   6.693   0.660
10311SOL    HW231833   0.966   6.622   0.805
10312SOL     OW31834   2.900   6.323   1.570
10312SOL    HW131835   2.947   6.390   1.512
10312SOL    HW231836   2.917   6.345   1.666
10313SOL     OW31837   4.875   0.220   1.271
10313SOL    HW131838   4.814   0.170   1.333
10313SOL    HW231839   4.846   0.205   1.177
10314SOL     OW31840   6.636   0.129   2.407
10314SOL    HW131841   6.640   0.176   2.319
10314SOL    HW231842   6.727   0.094   2.430
10315SOL     OW31843   6.501   6.094   4.404
10315SOL    HW131844   6.580   6.035   4.385
10315SOL    HW231845   6.433   6.043   4.457
10316SOL     OW31846   6.544   2.897   4.843
10316SOL    HW131847   6.561   2.866   4.936
10316SOL    HW231848   6.568   2.994   4.835
10317SOL     OW31849   3.310   5.551   6.105
10317SOL    HW131850   3.258   5.613   6.047
10317SOL    HW231851   3.285   5.566   6.201
10318SOL     OW31852   5.679   5.783   6.581
10318SOL    HW131853   5.643   5.728   6.506
10318SOL    HW231854   5.733   5.724   6.642
10319SOL     OW31855   1.373   2.406   5.667
10319SOL    HW131856   1.464   2.366   5.670
10319SOL    HW231857   1.360   2.453   5.579
10320SOL     OW31858   0.646   0.601   2.836
10320SOL    HW131859   0.572   0.648   2.787
10320SOL    HW231860   0.607   0.534   2.899
10321SOL     OW31861   4.542   0.774   2.487
10321SOL    HW131862   4.627   0.821   2.463
10321SOL    HW231863   4.483   0.768   2.407
10322SOL     OW31864   6.960   5.842   6.634
10322SOL    HW131865   6.956   5.757   6.687
10322SOL    HW231866   7.014   5.910   6.685
10323SOL     OW31867   6.336   3.636   6.320
10323SOL    HW131868   6.350   3.668   6.226
10323SOL    HW231869   6.257   3.682   6.359
10324SOL     OW31870   3.271   2.906   3.185
10324SOL    HW131871   3.190   2.957   3.157
10324SOL    HW231872   3.278   2.823   3.130
10325SOL     OW31873   0.338   3.528   3.079
10325SOL    HW131874   0.298   3.456   3.022
10325SOL    HW231875   0.344   3.613   3.026
10326SOL     OW31876   3.872   3.861   0.091
10326SOL    HW131877   3.881   3.937   0.026
10326SOL    HW231878   3.959   3.847   0.138
10327SOL     OW31879   2.647   2.213   2.023
10327SOL    HW131880   2.729   2.269   2.009
10327SOL    HW231881   2.637   2.149   1.947
10328SOL     OW31882   6.214   2.429   1.385
10328SOL    HW131883   6.152   2.412   1.309
10328SOL    HW231884   6.167   2.481   1.456
10329SOL     OW31885   3.532   0.416   3.493
10329SOL    HW131886   3.526   0.316   3.488
10329SOL    HW231887   3.623   0.442   3.524
10330SOL     OW31888   3.816   5.854   1.924
10330SOL    HW131889   3.763   5.882   2.005
10330SOL    HW231890   3.910   5.886   1.933
10331SOL     OW31891   6.875   0.591   4.374
10331SOL    HW131892   6.788   0.584   4.425
10331SOL    HW231893   6.858   0.635   4.286
10332SOL     OW31894   5.842   1.662   0.879
10332SOL    HW131895   5.744   1.677   0.876
10332SOL    HW231896   5.890   1.749   0.873
10333SOL     OW31897   6.688   4.558   4.390
10333SOL    HW131898   6.734   4.508   4.316
10333SOL    HW231899   6.742   4.638   4.415
10334SOL     OW31900   2.514   6.291   4.425
10334SOL    HW131901   2.495   6.334   4.337
10334SOL    HW231902   2.609   6.309   4.451
10335SOL     OW31903   2.585   4.988   6.771
10335SOL    HW131904   2.565   4.893   6.796
10335SOL    HW231905   2.638   5.031   6.844
10336SOL     OW31906   5.831   0.323   3.082
10336SOL    HW131907   5.928   0.307   3.066
10336SOL    HW231908   5.781   0.314   2.996
10337SOL     OW31909   6.737   6.537   5.646
10337SOL    HW131910   6.720   6.515   5.550
10337SOL    HW231911   6.760   6.633   5.655
10338SOL     OW31912   2.180   6.343   1.820
10338SOL    HW131913   2.218   6.262   1.864
10338SOL    HW231914   2.254   6.400   1.785
10339SOL     OW31915   2.574   5.883   0.312
10339SOL    HW131916   2.529   5.963   0.274
10339SOL    HW231917   2.668   5.906   0.337
10340SOL     OW31918   0.923   5.639   0.608
10340SOL    HW131919   0.903   5.719   0.551
10340SOL    HW231920   0.956   5.564   0.551
10341SOL     OW31921   2.025   3.459   1.800
10341SOL    HW131922   2.094   3.478   1.870
10341SOL    HW231923   1.984   3.370   1.817
10342SOL     OW31924   0.969   5.914   5.203
10342SOL    HW131925   1.019   5.983   5.150
10342SOL    HW231926   0.870   5.927   5.191
10343SOL     OW31927   1.767   3.998   0.833
10343SOL    HW131928   1.858   3.970   0.802
10343SOL    HW231929   1.726   4.058   0.765
10344SOL     OW31930   4.299   3.447   1.708
10344SOL    HW131931   4.393   3.436   1.676
10344SOL    HW231932   4.240   3.464   1.629
10345SOL     OW31933   1.278   0.961   6.381
10345SOL    HW131934   1.372   0.952   6.349
10345SOL    HW231935   1.220   0.893   6.337
10346SOL     OW31936   5.842   0.751   0.668
10346SOL    HW131937   5.754   0.723   0.628
10346SOL    HW231938   5.841   0.849   0.685
10347SOL     OW31939   5.374   2.617   2.401
10347SOL    HW131940   5.308   2.682   2.438
10347SOL    HW231941   5.344   2.586   2.311
10348SOL     OW31942   6.283   1.550   0.411
10348SOL    HW131943   6.284   1.622   0.480
10348SOL    HW231944   6.376   1.527   0.385
10349SOL     OW31945   6.240   1.195   0.572
10349SOL    HW131946   6.251   1.103   0.611
10349SOL    HW231947   6.292   1.260   0.626
10350SOL     OW31948   2.184   5.960   5.364
10350SOL    HW131949   2.259   5.948   5.429
10350SOL    HW231950   2.104   5.997   5.411
10351SOL     OW31951   5.287   4.818   5.954
10351SOL    HW131952   5.380   4.817   5.917
10351SOL    HW231953   5.255   4.724   5.965
10352SOL     OW31954   5.337   2.042   0.189
10352SOL    HW131955   5.423   2.071   0.147
10352SOL    HW231956   5.298   1.967   0.135
10353SOL     OW31957   5.983   2.520   4.732
10353SOL    HW131958   6.044   2.502   4.808
10353SOL    HW231959   5.954   2.434   4.690
10354SOL     OW31960   0.008   2.111   1.719
10354SOL    HW131961   0.002   2.096   1.818
10354SOL    HW231962   6.952   2.076   1.676
10355SOL     OW31963   1.544   0.660   1.037
10355SOL    HW131964   1.473   0.687   1.101
10355SOL    HW231965   1.527   0.566   1.006
10356SOL     OW31966   0.158   3.744   5.280
10356SOL    HW131967   0.145   3.760   5.378
10356SOL    HW231968   0.071   3.754   5.232
10357SOL     OW31969   3.310   2.674   6.131
10357SOL    HW131970   3.214   2.657   6.155
10357SOL    HW231971   3.319   2.680   6.032
10358SOL     OW31972   6.997   3.271   3.506
10358SOL    HW131973   0.004   3.191   3.457
10358SOL    HW231974   0.017   3.353   3.471
10359SOL     OW31975   5.033   1.372   2.284
10359SOL    HW131976   4.936   1.393   2.289
10359SOL    HW231977   5.071   1.409   2.199
10360SOL     OW31978   4.589   5.676   1.911
10360SOL    HW131979   4.598   5.613   1.834
10360SOL    HW231980   4.537   5.633   1.984
10361SOL     OW31981   2.908   0.965   3.132
10361SOL    HW131982   2.842   0.948   3.205
10361SOL    HW231983   2.971   1.037   3.160
10362SOL     OW31984   0.273   5.473   2.986
10362SOL    HW131985   0.301   5.483   2.891
10362SOL    HW231986   0.221   5.553   3.015
10363SOL     OW31987   4.898   2.754   0.899
10363SOL    HW131988   4.871   2.767   0.995
10363SOL    HW231989   4.991   2.718   0.895
10364SOL     OW31990   3.687   3.950   1.530
10364SOL    HW131991   3.625   3.998   1.468
10364SOL    HW231992   3.716   3.864   1.488
10365SOL     OW31993   4.799   4.093   6.019
10365SOL    HW131994   4.744   4.140   5.950
10365SOL    HW231995   4.843   4.161   6.078
10366SOL     OW31996   3.474   6.684   4.033
10366SOL    HW131997   3.517   6.654   4.119
10366SOL    HW231998   3.464   6.784   4.035
10367SOL     OW31999   0.235   1.954   2.036
10367SOL    HW132000   0.295   1.951   2.116
10367SOL    HW232001   0.241   2.045   1.993
10368SOL     OW32002   2.258   1.200   2.443
10368SOL    HW132003   2.209   1.287   2.441
10368SOL    HW232004   2.195   1.126   2.468
10369SOL     OW32005   3.119   6.877   5.783
10369SOL    HW132006   3.212   6.906   5.762
10369SOL    HW232007   3.114   6.846   5.878
10370SOL     OW32008   6.360   0.858   5.252
10370SOL    HW132009   6.427   0.929   5.230
10370SOL    HW232010   6.268   0.893   5.235
10371SOL     OW32011   1.723   6.169   4.338
10371SOL    HW132012   1.796   6.105   4.363
10371SOL    HW232013   1.654   6.169   4.410
10372SOL     OW32014   2.249   1.430   6.574
10372SOL    HW132015   2.177   1.436   6.643
10372SOL    HW232016   2.208   1.429   6.483
10373SOL     OW32017   1.347   6.133   5.173
10373SOL    HW132018   1.405   6.180   5.239
10373SOL    HW232019   1.404   6.075   5.114
10374SOL     OW32020   3.011   0.583   3.800
10374SOL    HW132021   3.002   0.652   3.728
10374SOL    HW232022   3.032   0.494   3.759
10375SOL     OW32023   2.211   2.124   6.121
10375SOL    HW132024   2.169   2.158   6.205
10375SOL    HW232025   2.265   2.042   6.141
10376SOL     OW32026   1.251   5.652   3.595
10376SOL    HW132027   1.333   5.687   3.640
10376SOL    HW232028   1.171   5.703   3.627
10377SOL     OW32029   0.188   1.040   2.710
10377SOL    HW132030   0.147   1.121   2.667
10377SOL    HW232031   0.135   0.959   2.686
10378SOL     OW32032   5.922   5.840   5.756
10378SOL    HW132033   5.885   5.749   5.735
10378SOL    HW232034   6.022   5.834   5.762
10379SOL     OW32035   2.542   6.062   3.956
10379SOL    HW132036   2.637   6.050   3.928
10379SOL    HW232037   2.520   5.998   4.029
10380SOL     OW32038   0.418   2.452   4.925
10380SOL    HW132039   0.425   2.367   4.978
10380SOL    HW232040   0.372   2.434   4.838
10381SOL     OW32041   4.346   4.098   0.975
10381SOL    HW132042   4.403   4.025   0.936
10381SOL    HW232043   4.349   4.178   0.916
10382SOL     OW32044   1.936   5.497   1.720
10382SOL    HW132045   2.014   5.434   1.719
10382SOL    HW232046   1.866   5.464   1.657
10383SOL     OW32047   1.042   4.037   1.380
10383SOL    HW132048   1.012   4.070   1.291
10383SOL    HW232049   1.081   4.113   1.432
10384SOL     OW32050   6.741   0.289   0.994
10384SOL    HW132051   6.760   0.383   1.021
10384SOL    HW232052   6.827   0.239   0.984
10385SOL     OW32053   4.229   5.906   6.160
10385SOL    HW132054   4.193   5.839   6.095
10385SOL    HW232055   4.323   5.929   6.135
10386SOL     OW32056   6.847   1.547   5.457
10386SOL    HW132057   6.859   1.453   5.490
10386SOL    HW232058   6.760   1.583   5.490
10387SOL     OW32059   4.684   1.598   2.697
10387SOL    HW132060   4.725   1.610   2.788
10387SOL    HW232061   4.589   1.570   2.706
10388SOL     OW32062   1.625   5.730   2.134
10388SOL    HW132063   1.537   5.772   2.156
10388SOL    HW232064   1.614   5.631   2.126
10389SOL     OW32065   6.415   5.694   0.833
10389SOL    HW132066   6.478   5.617   0.825
10389SOL    HW232067   6.387   5.705   0.928
10390SOL     OW32068   1.954   3.020   1.289
10390SOL    HW132069   1.871   3.075   1.299
10390SOL    HW232070   1.939   2.930   1.330
10391SOL     OW32071   0.233   6.631   3.379
10391SOL    HW132072   0.206   6.667   3.290
10391SOL    HW232073   0.324   6.592   3.373
10392SOL     OW32074   6.554   4.507   5.447
10392SOL    HW132075   6.476   4.467   5.496
10392SOL    HW232076   6.570   4.456   5.362
10393SOL     OW32077   2.224   2.526   3.699
10393SOL    HW132078   2.288   2.489   3.632
10393SOL    HW232079   2.264   2.606   3.743
10394SOL     OW32080   2.087   5.535   5.537
10394SOL    HW132081   2.183   5.530   5.563
10394SOL    HW232082   2.045   5.617   5.576
10395SOL     OW32083   0.388   0.596   2.057
10395SOL    HW132084   0.298   0.567   2.091
10395SOL    HW232085   0.393   0.582   1.958
10396SOL     OW32086   4.025   1.077   3.218
10396SOL    HW132087   4.033   1.040   3.311
10396SOL    HW232088   4.065   1.169   3.215
10397SOL     OW32089   2.839   1.508   4.584
10397SOL    HW132090   2.762   1.554   4.540
10397SOL    HW232091   2.821   1.410   4.589
10398SOL     OW32092   5.035   2.578   0.445
10398SOL    HW132093   5.102   2.608   0.512
10398SOL    HW232094   4.961   2.530   0.491
10399SOL     OW32095   4.953   2.544   4.600
10399SOL    HW132096   5.047   2.509   4.601
10399SOL    HW232097   4.954   2.643   4.609
10400SOL     OW32098   4.308   5.958   0.245
10400SOL    HW132099   4.239   5.932   0.178
10400SOL    HW232100   4.265   5.969   0.335
10401SOL     OW32101   0.171   0.006   2.163
10401SOL    HW132102   0.162   0.061   2.247
10401SOL    HW232103   0.156   6.936   2.186
10402SOL     OW32104   0.207   1.635   5.286
10402SOL    HW132105   0.119   1.623   5.240
10402SOL    HW232106   0.193   1.629   5.385
10403SOL     OW32107   4.366   1.569   2.761
10403SOL    HW132108   4.314   1.516   2.828
10403SOL    HW232109   4.305   1.631   2.712
10404SOL     OW32110   6.690   6.569   4.016
10404SOL    HW132111   6.724   6.612   3.933
10404SOL    HW232112   6.607   6.516   3.995
10405SOL     OW32113   1.004   5.772   4.886
10405SOL    HW132114   0.982   5.674   4.880
10405SOL    HW232115   0.982   5.816   4.799
10406SOL     OW32116   2.247   2.926   5.304
10406SOL    HW132117   2.334   2.952   5.260
10406SOL    HW232118   2.175   2.921   5.235
10407SOL     OW32119   2.351   6.967   0.221
10407SOL    HW132120   2.314   6.925   0.303
10407SOL    HW232121   2.277   6.986   0.157
10408SOL     OW32122   4.516   6.671   1.933
10408SOL    HW132123   4.477   6.755   1.971
10408SOL    HW232124   4.572   6.625   2.002
10409SOL     OW32125   6.959   4.332   0.813
10409SOL    HW132126   6.994   4.425   0.822
10409SOL    HW232127   0.009   4.268   0.807
10410SOL     OW32128   5.329   2.704   2.140
10410SOL    HW132129   5.293   2.780   2.085
10410SOL    HW232130   5.353   2.628   2.080
10411SOL     OW32131   3.033   5.935   4.146
10411SOL    HW132132   3.089   6.012   4.114
10411SOL    HW232133   3.039   5.860   4.080
10412SOL     OW32134   0.097   1.195   0.400
10412SOL    HW132135   0.178   1.159   0.353
10412SOL    HW232136   0.067   1.129   0.469
10413SOL     OW32137   6.248   2.548   1.827
10413SOL    HW132138   6.191   2.522   1.749
10413SOL    HW232139   6.214   2.501   1.909
10414SOL     OW32140   3.632   5.079   6.206
10414SOL    HW132141   3.638   4.998   6.147
10414SOL    HW232142   3.537   5.101   6.223
10415SOL     OW32143   1.766   4.750   4.156
10415SOL    HW132144   1.725   4.675   4.103
10415SOL    HW232145   1.770   4.724   4.252
10416SOL     OW32146   5.773   6.693   5.179
10416SOL    HW132147   5.752   6.677   5.083
10416SOL    HW232148   5.870   6.672   5.196
10417SOL     OW32149   4.120   4.895   4.381
10417SOL    HW132150   4.112   4.806   4.337
10417SOL    HW232151   4.120   4.967   4.312
10418SOL     OW32152   6.976   4.363   6.119
10418SOL    HW132153   6.956   4.320   6.031
10418SOL    HW232154   0.016   4.308   6.169
10419SOL     OW32155   3.613   6.650   6.349
10419SOL    HW132156   3.557   6.579   6.307
10419SOL    HW232157   3.564   6.692   6.425
10420SOL     OW32158   0.418   4.315   4.365
10420SOL    HW132159   0.380   4.403   4.393
10420SOL    HW232160   0.358   4.273   4.296
10421SOL     OW32161   1.394   3.701   4.011
10421SOL    HW132162   1.472   3.751   3.973
10421SOL    HW232163   1.319   3.765   4.029
10422SOL     OW32164   6.413   3.367   5.917
10422SOL    HW132165   6.446   3.437   5.980
10422SOL    HW232166   6.487   3.302   5.896
10423SOL     OW32167   5.327   5.215   5.757
10423SOL    HW132168   5.399   5.282   5.776
10423SOL    HW232169   5.243   5.243   5.802
10424SOL     OW32170   3.958   3.402   0.567
10424SOL    HW132171   3.915   3.317   0.596
10424SOL    HW232172   3.917   3.479   0.616
10425SOL     OW32173   0.902   6.430   2.444
10425SOL    HW132174   0.872   6.457   2.352
10425SOL    HW232175   0.954   6.345   2.438
10426SOL     OW32176   5.391   4.832   6.809
10426SOL    HW132177   5.345   4.756   6.856
10426SOL    HW232178   5.378   4.916   6.861
10427SOL     OW32179   4.553   0.963   6.803
10427SOL    HW132180   4.526   0.911   6.884
10427SOL    HW232181   4.649   0.991   6.813
10428SOL     OW32182   3.271   1.222   4.103
10428SOL    HW132183   3.258   1.249   4.199
10428SOL    HW232184   3.368   1.227   4.080
10429SOL     OW32185   0.132   4.316   2.468
10429SOL    HW132186   0.215   4.319   2.524
10429SOL    HW232187   0.064   4.259   2.515
10430SOL     OW32188   3.999   6.665   5.329
10430SOL    HW132189   4.098   6.679   5.332
10430SOL    HW232190   3.957   6.737   5.274
10431SOL     OW32191   2.399   6.379   4.183
10431SOL    HW132192   2.306   6.342   4.173
10431SOL    HW232193   2.396   6.478   4.170
10432SOL     OW32194   6.317   0.545   4.845
10432SOL    HW132195   6.390   0.591   4.794
10432SOL    HW232196   6.298   0.456   4.804
10433SOL     OW32197   0.823   6.624   2.712
10433SOL    HW132198   0.756   6.556   2.681
10433SOL    HW232199   0.798   6.714   2.674
10434SOL     OW32200   3.389   6.325   3.009
10434SOL    HW132201   3.294   6.320   3.039
10434SOL    HW232202   3.432   6.235   3.019
10435SOL     OW32203   1.234   2.487   5.371
10435SOL    HW132204   1.187   2.568   5.408
10435SOL    HW232205   1.326   2.513   5.341
10436SOL     OW32206   5.952   4.482   5.434
10436SOL    HW132207   5.931   4.504   5.529
10436SOL    HW232208   5.876   4.512   5.375
10437SOL     OW32209   5.335   4.379   5.952
10437SOL    HW132210   5.312   4.285   5.980
10437SOL    HW232211   5.282   4.444   6.007
10438SOL     OW32212   0.580   5.731   6.407
10438SOL    HW132213   0.663   5.678   6.389
10438SOL    HW232214   0.530   5.744   6.322
10439SOL     OW32215   4.388   1.329   4.588
10439SOL    HW132216   4.348   1.250   4.541
10439SOL    HW232217   4.339   1.411   4.560
10440SOL     OW32218   0.677   6.932   0.585
10440SOL    HW132219   0.715   6.945   0.493
10440SOL    HW232220   0.636   7.018   0.616
10441SOL     OW32221   3.693   1.765   1.441
10441SOL    HW132222   3.641   1.816   1.372
10441SOL    HW232223   3.763   1.825   1.481
10442SOL     OW32224   4.057   6.529   5.774
10442SOL    HW132225   4.108   6.564   5.695
10442SOL    HW232226   4.100   6.560   5.858
10443SOL     OW32227   4.826   2.555   3.296
10443SOL    HW132228   4.889   2.575   3.371
10443SOL    HW232229   4.877   2.548   3.210
10444SOL     OW32230   3.587   5.244   3.330
10444SOL    HW132231   3.542   5.275   3.246
10444SOL    HW232232   3.637   5.159   3.312
10445SOL     OW32233   0.618   5.213   3.811
10445SOL    HW132234   0.577   5.237   3.723
10445SOL    HW232235   0.596   5.118   3.833
10446SOL     OW32236   2.370   3.023   6.333
10446SOL    HW132237   2.360   3.104   6.275
10446SOL    HW232238   2.437   2.961   6.293
10447SOL     OW32239   0.193   1.389   3.255
10447SOL    HW132240   0.172   1.293   3.237
10447SOL    HW232241   0.263   1.421   3.192
10448SOL     OW32242   4.670   0.622   2.678
10448SOL    HW132243   4.760   0.599   2.642
10448SOL    HW232244   4.618   0.672   2.609
10449SOL     OW32245   1.671   5.504   6.054
10449SOL    HW132246   1.740   5.555   6.106
10449SOL    HW232247   1.704   5.413   6.034
10450SOL     OW32248   0.329   1.348   0.212
10450SOL    HW132249   0.323   1.250   0.232
10450SOL    HW232250   0.331   1.400   0.297
10451SOL     OW32251   1.951   6.057   3.291
10451SOL    HW132252   2.019   5.984   3.287
10451SOL    HW232253   1.917   6.077   3.199
10452SOL     OW32254   6.142   3.239   2.464
10452SOL    HW132255   6.121   3.236   2.562
10452SOL    HW232256   6.227   3.290   2.450
10453SOL     OW32257   5.561   6.957   1.424
10453SOL    HW132258   5.586   6.862   1.409
10453SOL    HW232259   5.463   6.964   1.443
10454SOL     OW32260   5.036   3.036   6.823
10454SOL    HW132261   4.952   3.086   6.801
10454SOL    HW232262   5.056   2.971   6.749
10455SOL     OW32263   0.004   6.411   3.264
10455SOL    HW132264   0.040   6.504   3.253
10455SOL    HW232265   0.062   6.360   3.327
10456SOL     OW32266   1.687   5.322   0.302
10456SOL    HW132267   1.665   5.319   0.204
10456SOL    HW232268   1.705   5.230   0.334
10457SOL     OW32269   3.791   3.582   0.705
10457SOL    HW132270   3.709   3.563   0.651
10457SOL    HW232271   3.764   3.614   0.796
10458SOL     OW32272   6.626   0.072   6.240
10458SOL    HW132273   6.676   0.154   6.211
10458SOL    HW232274   6.533   0.098   6.266
10459SOL     OW32275   4.711   5.996   1.028
10459SOL    HW132276   4.694   5.910   1.077
10459SOL    HW232277   4.649   6.067   1.063
10460SOL     OW32278   0.973   4.219   1.821
10460SOL    HW132279   0.914   4.237   1.743
10460SOL    HW232280   1.069   4.228   1.794
10461SOL     OW32281   5.688   5.022   4.784
10461SOL    HW132282   5.592   5.042   4.804
10461SOL    HW232283   5.714   4.936   4.827
10462SOL     OW32284   5.099   2.015   3.366
10462SOL    HW132285   5.180   2.046   3.317
10462SOL    HW232286   5.031   2.089   3.370
10463SOL     OW32287   4.255   2.789   6.095
10463SOL    HW132288   4.258   2.783   6.195
10463SOL    HW232289   4.347   2.784   6.058
10464SOL     OW32290   0.050   6.748   1.749
10464SOL    HW132291   7.018   6.682   1.796
10464SOL    HW232292   0.020   6.841   1.770
10465SOL     OW32293   6.311   5.790   0.562
10465SOL    HW132294   6.383   5.793   0.494
10465SOL    HW232295   6.330   5.857   0.634
10466SOL     OW32296   4.669   4.960   5.769
10466SOL    HW132297   4.723   5.022   5.712
10466SOL    HW232298   4.639   4.882   5.715
10467SOL     OW32299   2.596   1.940   0.043
10467SOL    HW132300   2.568   1.951   6.974
10467SOL    HW232301   2.673   1.876   0.048
10468SOL     OW32302   3.278   5.009   3.179
10468SOL    HW132303   3.367   4.963   3.184
10468SOL    HW232304   3.214   4.965   3.241
10469SOL     OW32305   4.076   4.365   5.458
10469SOL    HW132306   4.044   4.283   5.411
10469SOL    HW232307   4.056   4.445   5.401
10470SOL     OW32308   1.819   2.602   4.010
10470SOL    HW132309   1.820   2.544   4.091
10470SOL    HW232310   1.910   2.605   3.969
10471SOL     OW32311   3.114   1.083   0.793
10471SOL    HW132312   3.059   1.159   0.826
10471SOL    HW232313   3.059   1.026   0.732
10472SOL     OW32314   3.536   5.967   0.713
10472SOL    HW132315   3.634   5.953   0.727
10472SOL    HW232316   3.487   5.883   0.735
10473SOL     OW32317   6.820   0.250   6.749
10473SOL    HW132318   6.888   0.293   6.808
10473SOL    HW232319   6.731   0.292   6.765
10474SOL     OW32320   3.984   1.397   4.126
10474SOL    HW132321   3.900   1.438   4.162
10474SOL    HW232322   3.995   1.424   4.031
10475SOL     OW32323   4.542   6.708   1.258
10475SOL    HW132324   4.598   6.790   1.257
10475SOL    HW232325   4.553   6.660   1.345
10476SOL     OW32326   6.778   6.936   0.200
10476SOL    HW132327   6.751   6.841   0.187
10476SOL    HW232328   6.851   6.959   0.136
10477SOL     OW32329   6.531   0.436   4.395
10477SOL    HW132330   6.587   0.421   4.476
10477SOL    HW232331   6.445   0.385   4.404
10478SOL     OW32332   6.112   0.810   0.593
10478SOL    HW132333   6.139   0.748   0.519
10478SOL    HW232334   6.023   0.782   0.629
10479SOL     OW32335   0.013   1.763   2.992
10479SOL    HW132336   0.042   1.707   3.070
10479SOL    HW232337   6.959   1.817   3.018
10480SOL     OW32338   0.180   0.536   1.503
10480SOL    HW132339   0.083   0.514   1.497
10480SOL    HW232340   0.204   0.557   1.598
10481SOL     OW32341   2.776   0.044   4.413
10481SOL    HW132342   2.774   0.118   4.481
10481SOL    HW232343   2.846   0.064   4.345
10482SOL     OW32344   6.305   5.077   4.181
10482SOL    HW132345   6.400   5.092   4.208
10482SOL    HW232346   6.282   4.980   4.192
10483SOL     OW32347   6.302   4.751   0.153
10483SOL    HW132348   6.385   4.805   0.145
10483SOL    HW232349   6.300   4.705   0.242
10484SOL     OW32350   6.279   2.021   2.016
10484SOL    HW132351   6.280   2.117   2.044
10484SOL    HW232352   6.317   2.013   1.923
10485SOL     OW32353   2.833   3.852   0.232
10485SOL    HW132354   2.791   3.836   0.321
10485SOL    HW232355   2.864   3.765   0.193
10486SOL     OW32356   0.572   0.502   0.626
10486SOL    HW132357   0.566   0.600   0.642
10486SOL    HW232358   0.490   0.471   0.576
10487SOL     OW32359   4.879   1.164   1.022
10487SOL    HW132360   4.848   1.128   0.934
10487SOL    HW232361   4.891   1.088   1.086
10488SOL     OW32362   3.380   1.388   5.915
10488SOL    HW132363   3.355   1.484   5.901
10488SOL    HW232364   3.304   1.341   5.960
10489SOL     OW32365   0.794   6.643   5.196
10489SOL    HW132366   0.778   6.685   5.286
10489SOL    HW232367   0.773   6.546   5.201
10490SOL     OW32368   5.580   1.728   0.862
10490SOL    HW132369   5.586   1.801   0.793
10490SOL    HW232370   5.492   1.734   0.908
10491SOL     OW32371   2.101   2.505   6.170
10491SOL    HW132372   2.069   2.590   6.128
10491SOL    HW232373   2.175   2.466   6.114
10492SOL     OW32374   5.748   5.082   0.354
10492SOL    HW132375   5.816   5.109   0.286
10492SOL    HW232376   5.764   5.132   0.439
10493SOL     OW32377   3.177   0.515   1.656
10493SOL    HW132378   3.171   0.465   1.743
10493SOL    HW232379   3.256   0.482   1.604
10494SOL     OW32380   5.471   4.076   5.730
10494SOL    HW132381   5.457   4.003   5.796
10494SOL    HW232382   5.510   4.156   5.777
10495SOL     OW32383   1.693   0.027   1.557
10495SOL    HW132384   1.651   6.973   1.514
10495SOL    HW232385   1.772   0.056   1.503
10496SOL     OW32386   6.525   3.967   6.080
10496SOL    HW132387   6.572   4.051   6.054
10496SOL    HW232388   6.582   3.916   6.145
10497SOL     OW32389   1.919   0.099   2.061
10497SOL    HW132390   1.862   0.175   2.090
10497SOL    HW232391   2.013   0.131   2.048
10498SOL     OW32392   4.528   5.115   0.881
10498SOL    HW132393   4.588   5.114   0.801
10498SOL    HW232394   4.467   5.036   0.878
10499SOL     OW32395   4.342   6.904   2.062
10499SOL    HW132396   4.257   6.852   2.064
10499SOL    HW232397   4.332   6.982   2.000
10500SOL     OW32398   6.284   1.048   5.630
10500SOL    HW132399   6.257   1.067   5.724
10500SOL    HW232400   6.226   0.974   5.594
10501SOL     OW32401   2.163   5.744   2.193
10501SOL    HW132402   2.136   5.668   2.135
10501SOL    HW232403   2.096   5.818   2.185
10502SOL     OW32404   2.577   1.512   1.976
10502SOL    HW132405   2.599   1.497   1.880
10502SOL    HW232406   2.661   1.525   2.029
10503SOL     OW32407   4.515   2.702   1.049
10503SOL    HW132408   4.578   2.638   1.094
10503SOL    HW232409   4.504   2.783   1.107
10504SOL     OW32410   1.040   1.547   5.723
10504SOL    HW132411   1.097   1.588   5.652
10504SOL    HW232412   1.050   1.599   5.807
10505SOL     OW32413   5.193   4.933   1.194
10505SOL    HW132414   5.289   4.937   1.222
10505SOL    HW232415   5.167   5.019   1.150
10506SOL     OW32416   6.964   4.723   0.462
10506SOL    HW132417   6.932   4.708   0.555
10506SOL    HW232418   6.975   4.635   0.416
10507SOL     OW32419   1.859   6.562   0.497
10507SOL    HW132420   1.954   6.566   0.466
10507SOL    HW232421   1.846   6.627   0.573
10508SOL     OW32422   6.265   5.949   4.493
10508SOL    HW132423   6.221   6.015   4.552
10508SOL    HW232424   6.251   5.974   4.397
10509SOL     OW32425   0.322   5.217   4.483
10509SOL    HW132426   0.396   5.151   4.499
10509SOL    HW232427   0.312   5.276   4.563
10510SOL     OW32428   4.597   5.655   6.671
10510SOL    HW132429   4.651   5.571   6.675
10510SOL    HW232430   4.651   5.730   6.710
10511SOL     OW32431   3.505   1.150   2.025
10511SOL    HW132432   3.557   1.077   2.069
10511SOL    HW232433   3.413   1.155   2.065
10512SOL     OW32434   4.575   0.104   6.358
10512SOL    HW132435   4.585   0.186   6.414
10512SOL    HW232436   4.596   0.023   6.413
10513SOL     OW32437   5.896   2.249   4.632
10513SOL    HW132438   5.915   2.151   4.631
10513SOL    HW232439   5.808   2.265   4.676
10514SOL     OW32440   0.315   3.145   1.334
10514SOL    HW132441   0.269   3.075   1.389
10514SOL    HW232442   0.343   3.106   1.247
10515SOL     OW32443   0.724   3.458   3.479
10515SOL    HW132444   0.806   3.511   3.499
10515SOL    HW232445   0.643   3.517   3.488
10516SOL     OW32446   4.342   1.352   0.777
10516SOL    HW132447   4.387   1.345   0.688
10516SOL    HW232448   4.318   1.261   0.810
10517SOL     OW32449   0.564   3.088   1.570
10517SOL    HW132450   0.660   3.117   1.574
10517SOL    HW232451   0.549   3.012   1.633
10518SOL     OW32452   0.621   5.900   0.356
10518SOL    HW132453   0.634   5.999   0.347
10518SOL    HW232454   0.557   5.882   0.430
10519SOL     OW32455   3.193   3.706   0.535
10519SOL    HW132456   3.117   3.759   0.498
10519SOL    HW232457   3.254   3.766   0.586
10520SOL     OW32458   0.336   2.396   6.026
10520SOL    HW132459   0.270   2.398   5.951
10520SOL    HW232460   0.422   2.356   5.994
10521SOL     OW32461   6.173   5.889   1.522
10521SOL    HW132462   6.087   5.896   1.572
10521SOL    HW232463   6.239   5.836   1.575
10522SOL     OW32464   1.097   0.551   5.481
10522SOL    HW132465   1.104   0.641   5.524
10522SOL    HW232466   1.065   0.484   5.547
10523SOL     OW32467   1.197   4.750   2.951
10523SOL    HW132468   1.273   4.795   2.998
10523SOL    HW232469   1.115   4.806   2.959
10524SOL     OW32470   1.676   0.075   3.873
10524SOL    HW132471   1.588   0.094   3.831
10524SOL    HW232472   1.668   0.082   3.972
10525SOL     OW32473   4.368   6.509   6.302
10525SOL    HW132474   4.377   6.431   6.364
10525SOL    HW232475   4.451   6.516   6.246
10526SOL     OW32476   1.822   6.756   3.457
10526SOL    HW132477   1.888   6.806   3.401
10526SOL    HW232478   1.757   6.821   3.497
10527SOL     OW32479   0.919   0.949   5.712
10527SOL    HW132480   0.973   0.909   5.638
10527SOL    HW232481   0.971   0.947   5.797
10528SOL     OW32482   1.489   3.241   6.023
10528SOL    HW132483   1.574   3.240   6.076
10528SOL    HW232484   1.509   3.268   5.929
10529SOL     OW32485   3.014   5.811   4.406
10529SOL    HW132486   3.022   5.868   4.324
10529SOL    HW232487   3.060   5.723   4.390
10530SOL     OW32488   1.560   0.236   6.512
10530SOL    HW132489   1.586   0.194   6.425
10530SOL    HW232490   1.610   0.192   6.587
10531SOL     OW32491   1.070   2.753   4.564
10531SOL    HW132492   0.982   2.760   4.517
10531SOL    HW232493   1.106   2.845   4.581
10532SOL     OW32494   1.133   6.447   6.295
10532SOL    HW132495   1.137   6.389   6.214
10532SOL    HW232496   1.135   6.543   6.268
10533SOL     OW32497   3.018   6.580   3.725
10533SOL    HW132498   2.986   6.546   3.637
10533SOL    HW232499   3.030   6.679   3.721
10534SOL     OW32500   6.532   6.287   1.414
10534SOL    HW132501   6.573   6.341   1.487
10534SOL    HW232502   6.445   6.328   1.387
10535SOL     OW32503   1.434   2.016   1.608
10535SOL    HW132504   1.468   2.075   1.682
10535SOL    HW232505   1.503   2.008   1.537
10536SOL     OW32506   4.555   0.697   3.912
10536SOL    HW132507   4.649   0.715   3.884
10536SOL    HW232508   4.520   0.776   3.963
10537SOL     OW32509   3.951   5.971   3.655
10537SOL    HW132510   3.875   5.927   3.607
10537SOL    HW232511   3.931   6.069   3.664
10538SOL     OW32512   5.857   2.596   1.003
10538SOL    HW132513   5.851   2.510   0.953
10538SOL    HW232514   5.876   2.577   1.100
10539SOL     OW32515   0.806   4.700   6.907
10539SOL    HW132516   0.764   4.788   6.932
10539SOL    HW232517   0.891   4.716   6.857
10540SOL     OW32518   1.392   1.845   5.356
10540SOL    HW132519   1.408   1.943   5.353
10540SOL    HW232520   1.312   1.821   5.302
10541SOL     OW32521   3.150   3.857   2.019
10541SOL    HW132522   3.190   3.765   2.016
10541SOL    HW232523   3.137   3.885   2.114
10542SOL     OW32524   0.246   0.231   5.300
10542SOL    HW132525   0.170   0.219   5.235
10542SOL    HW232526   0.332   0.240   5.249
10543SOL     OW32527   6.884   1.963   4.472
10543SOL    HW132528   6.968   1.982   4.421
10543SOL    HW232529   6.809   1.949   4.408
10544SOL     OW32530   2.543   0.029   1.702
10544SOL    HW132531   2.643   0.027   1.699
10544SOL    HW232532   2.509   0.099   1.640
10545SOL     OW32533   0.837   1.951   1.809
10545SOL    HW132534   0.922   1.912   1.774
10545SOL    HW232535   0.851   1.979   1.904
10546SOL     OW32536   1.866   1.200   0.870
10546SOL    HW132537   1.838   1.289   0.832
10546SOL    HW232538   1.859   1.130   0.799
10547SOL     OW32539   5.339   3.505   2.768
10547SOL    HW132540   5.295   3.558   2.695
10547SOL    HW232541   5.427   3.469   2.735
10548SOL     OW32542   5.780   4.509   3.786
10548SOL    HW132543   5.772   4.569   3.866
10548SOL    HW232544   5.806   4.417   3.816
10549SOL     OW32545   0.467   0.157   1.808
10549SOL    HW132546   0.518   0.091   1.753
10549SOL    HW232547   0.489   0.143   1.905
10550SOL     OW32548   4.592   6.419   3.746
10550SOL    HW132549   4.525   6.454   3.811
10550SOL    HW232550   4.608   6.487   3.674
10551SOL     OW32551   1.592   2.508   6.651
10551SOL    HW132552   1.519   2.575   6.636
10551SOL    HW232553   1.615   2.464   6.564
10552SOL     OW32554   3.317   0.469   6.141
10552SOL    HW132555   3.233   0.437   6.185
10552SOL    HW232556   3.293   0.519   6.057
10553SOL     OW32557   0.736   4.418   1.957
10553SOL    HW132558   0.713   4.413   2.055
10553SOL    HW232559   0.749   4.325   1.922
10554SOL     OW32560   5.883   4.576   0.806
10554SOL    HW132561   5.919   4.491   0.767
10554SOL    HW232562   5.893   4.650   0.740
10555SOL     OW32563   1.623   2.682   0.357
10555SOL    HW132564   1.681   2.658   0.279
10555SOL    HW232565   1.661   2.763   0.403
10556SOL     OW32566   1.913   1.717   4.905
10556SOL    HW132567   1.965   1.762   4.832
10556SOL    HW232568   1.976   1.676   4.970
10557SOL     OW32569   2.067   2.727   3.454
10557SOL    HW132570   2.081   2.815   3.408
10557SOL    HW232571   2.029   2.743   3.545
10558SOL     OW32572   4.360   0.287   4.098
10558SOL    HW132573   4.318   0.213   4.149
10558SOL    HW232574   4.289   0.335   4.046
10559SOL     OW32575   4.688   0.562   1.688
10559SOL    HW132576   4.771   0.550   1.632
10559SOL    HW232577   4.706   0.528   1.781
10560SOL     OW32578   4.083   5.975   2.838
10560SOL    HW132579   4.131   6.038   2.776
10560SOL    HW232580   4.089   5.882   2.801
10561SOL     OW32581   3.460   3.958   1.715
10561SOL    HW132582   3.464   3.890   1.789
10561SOL    HW232583   3.530   3.937   1.648
10562SOL     OW32584   4.355   5.164   0.122
10562SOL    HW132585   4.355   5.236   0.053
10562SOL    HW232586   4.271   5.171   0.177
10563SOL     OW32587   0.740   1.666   3.754
10563SOL    HW132588   0.688   1.594   3.708
10563SOL    HW232589   0.708   1.755   3.721
10564SOL     OW32590   5.856   5.968   2.349
10564SOL    HW132591   5.851   6.055   2.398
10564SOL    HW232592   5.783   5.908   2.379
10565SOL     OW32593   0.529   6.822   5.700
10565SOL    HW132594   0.524   6.742   5.759
10565SOL    HW232595   0.574   6.798   5.614
10566SOL     OW32596   3.552   1.743   6.363
10566SOL    HW132597   3.646   1.712   6.351
10566SOL    HW232598   3.504   1.740   6.275
10567SOL     OW32599   2.945   2.171   4.749
10567SOL    HW132600   2.864   2.172   4.807
10567SOL    HW232601   3.027   2.179   4.806
10568SOL     OW32602   5.809   3.304   1.602
10568SOL    HW132603   5.884   3.249   1.638
10568SOL    HW232604   5.797   3.386   1.658
10569SOL     OW32605   6.022   2.137   2.290
10569SOL    HW132606   6.091   2.209   2.293
10569SOL    HW232607   5.961   2.145   2.369
10570SOL     OW32608   0.843   5.440   3.608
10570SOL    HW132609   0.792   5.475   3.687
10570SOL    HW232610   0.789   5.455   3.525
10571SOL     OW32611   0.146   4.468   5.538
10571SOL    HW132612   0.195   4.399   5.484
10571SOL    HW232613   0.104   4.534   5.477
10572SOL     OW32614   6.536   4.229   3.555
10572SOL    HW132615   6.460   4.201   3.613
10572SOL    HW232616   6.616   4.250   3.612
10573SOL     OW32617   5.000   0.529   5.284
10573SOL    HW132618   4.971   0.473   5.207
10573SOL    HW232619   5.093   0.562   5.268
10574SOL     OW32620   1.751   1.623   4.104
10574SOL    HW132621   1.830   1.564   4.084
10574SOL    HW232622   1.778   1.693   4.171
10575SOL     OW32623   6.702   1.658   4.035
10575SOL    HW132624   6.745   1.748   4.043
10575SOL    HW232625   6.757   1.590   4.083
10576SOL     OW32626   0.032   5.514   5.019
10576SOL    HW132627   0.066   5.551   4.932
10576SOL    HW232628   0.048   5.580   5.092
10577SOL     OW32629   1.951   4.479   0.274
10577SOL    HW132630   1.909   4.418   0.341
10577SOL    HW232631   2.028   4.432   0.231
10578SOL     OW32632   4.646   1.065   3.018
10578SOL    HW132633   4.719   0.998   3.029
10578SOL    HW232634   4.664   1.123   2.939
10579SOL     OW32635   4.425   2.778   1.483
10579SOL    HW132636   4.372   2.852   1.523
10579SOL    HW232637   4.461   2.720   1.556
10580SOL     OW32638   6.602   0.338   6.515
10580SOL    HW132639   6.628   0.332   6.418
10580SOL    HW232640   6.652   0.413   6.558
10581SOL     OW32641   6.605   0.050   3.511
10581SOL    HW132642   6.563   0.119   3.452
10581SOL    HW232643   6.542   0.028   3.586
10582SOL     OW32644   4.805   4.636   5.982
10582SOL    HW132645   4.810   4.730   6.015
10582SOL    HW232646   4.866   4.625   5.904
10583SOL     OW32647   4.315   0.854   3.814
10583SOL    HW132648   4.353   0.906   3.738
10583SOL    HW232649   4.353   0.762   3.815
10584SOL     OW32650   6.564   0.259   0.796
10584SOL    HW132651   6.620   0.220   0.723
10584SOL    HW232652   6.622   0.277   0.876
10585SOL     OW32653   2.277   1.697   5.512
10585SOL    HW132654   2.299   1.785   5.470
10585SOL    HW232655   2.360   1.653   5.544
10586SOL     OW32656   6.760   5.575   4.197
10586SOL    HW132657   6.797   5.667   4.181
10586SOL    HW232658   6.776   5.550   4.293
10587SOL     OW32659   6.460   4.331   0.334
10587SOL    HW132660   6.444   4.260   0.265
10587SOL    HW232661   6.457   4.421   0.291
10588SOL     OW32662   1.413   3.467   4.154
10588SOL    HW132663   1.331   3.468   4.211
10588SOL    HW232664   1.416   3.550   4.098
10589SOL     OW32665   6.263   0.886   4.646
10589SOL    HW132666   6.174   0.916   4.612
10589SOL    HW232667   6.280   0.926   4.736
10590SOL     OW32668   0.808   0.214   1.607
10590SOL    HW132669   0.727   0.271   1.593
10590SOL    HW232670   0.805   0.136   1.544
10591SOL     OW32671   1.891   1.921   6.855
10591SOL    HW132672   1.798   1.933   6.889
10591SOL    HW232673   1.891   1.926   6.755
10592SOL     OW32674   5.334   3.452   2.476
10592SOL    HW132675   5.252   3.492   2.516
10592SOL    HW232676   5.309   3.391   2.402
10593SOL     OW32677   2.167   6.328   0.465
10593SOL    HW132678   2.202   6.236   0.445
10593SOL    HW232679   2.131   6.331   0.558
10594SOL     OW32680   5.001   0.788   2.670
10594SOL    HW132681   5.041   0.762   2.759
10594SOL    HW232682   4.944   0.869   2.682
10595SOL     OW32683   4.794   6.270   0.187
10595SOL    HW132684   4.865   6.323   0.140
10595SOL    HW232685   4.790   6.178   0.149
10596SOL     OW32686   4.307   0.140   0.222
10596SOL    HW132687   4.298   0.089   0.136
10596SOL    HW232688   4.217   0.166   0.255
10597SOL     OW32689   3.467   1.379   5.472
10597SOL    HW132690   3.495   1.473   5.490
10597SOL    HW232691   3.446   1.368   5.375
10598SOL     OW32692   3.404   2.781   6.774
10598SOL    HW132693   3.429   2.687   6.750
10598SOL    HW232694   3.402   2.790   6.874
10599SOL     OW32695   5.194   3.501   5.966
10599SOL    HW132696   5.143   3.563   6.025
10599SOL    HW232697   5.142   3.417   5.953
10600SOL     OW32698   2.683   2.616   0.663
10600SOL    HW132699   2.597   2.613   0.611
10600SOL    HW232700   2.756   2.648   0.603
10601SOL     OW32701   2.014   4.640   5.066
10601SOL    HW132702   1.980   4.697   4.991
10601SOL    HW232703   1.948   4.640   5.141
10602SOL     OW32704   3.168   0.924   1.920
10602SOL    HW132705   3.154   0.942   1.823
10602SOL    HW232706   3.192   1.010   1.966
10603SOL     OW32707   3.651   0.127   3.505
10603SOL    HW132708   3.707   0.107   3.424
10603SOL    HW232709   3.559   0.153   3.477
10604SOL     OW32710   6.086   5.376   4.998
10604SOL    HW132711   6.052   5.399   4.907
10604SOL    HW232712   6.055   5.445   5.064
10605SOL     OW32713   1.596   6.285   6.931
10605SOL    HW132714   1.562   6.348   6.861
10605SOL    HW232715   1.646   6.337   7.000
10606SOL     OW32716   6.858   1.090   2.339
10606SOL    HW132717   6.898   1.175   2.304
10606SOL    HW232718   6.761   1.106   2.360
10607SOL     OW32719   4.367   5.127   5.586
10607SOL    HW132720   4.291   5.133   5.521
10607SOL    HW232721   4.372   5.211   5.639
10608SOL     OW32722   5.953   2.847   5.936
10608SOL    HW132723   5.979   2.930   5.986
10608SOL    HW232724   6.007   2.839   5.853
10609SOL     OW32725   2.442   6.546   6.940
10609SOL    HW132726   2.450   6.568   0.010
10609SOL    HW232727   2.363   6.486   6.925
10610SOL     OW32728   0.752   1.877   4.879
10610SOL    HW132729   0.678   1.923   4.829
10610SOL    HW232730   0.840   1.905   4.840
10611SOL     OW32731   2.843   3.952   6.341
10611SOL    HW132732   2.942   3.950   6.332
10611SOL    HW232733   2.805   4.022   6.280
10612SOL     OW32734   3.565   1.649   4.835
10612SOL    HW132735   3.608   1.739   4.836
10612SOL    HW232736   3.466   1.659   4.828
10613SOL     OW32737   5.665   6.191   5.497
10613SOL    HW132738   5.609   6.232   5.568
10613SOL    HW232739   5.757   6.231   5.499
10614SOL     OW32740   5.682   1.662   4.687
10614SOL    HW132741   5.624   1.619   4.757
10614SOL    HW232742   5.725   1.744   4.724
10615SOL     OW32743   4.202   6.959   5.526
10615SOL    HW132744   4.240   6.939   5.436
10615SOL    HW232745   4.261   6.919   5.596
10616SOL     OW32746   2.841   6.678   0.895
10616SOL    HW132747   2.918   6.644   0.840
10616SOL    HW232748   2.813   6.608   0.960
10617SOL     OW32749   3.118   3.243   1.386
10617SOL    HW132750   3.088   3.156   1.424
10617SOL    HW232751   3.214   3.237   1.361
10618SOL     OW32752   0.573   3.783   5.951
10618SOL    HW132753   0.600   3.808   6.044
10618SOL    HW232754   0.648   3.803   5.887
10619SOL     OW32755   7.004   3.836   2.059
10619SOL    HW132756   6.918   3.883   2.076
10619SOL    HW232757   0.042   3.899   2.016
10620SOL     OW32758   0.942   5.657   5.160
10620SOL    HW132759   0.966   5.754   5.158
10620SOL    HW232760   0.934   5.622   5.067
10621SOL     OW32761   1.004   5.617   1.625
10621SOL    HW132762   0.906   5.626   1.612
10621SOL    HW232763   1.028   5.642   1.719
10622SOL     OW32764   5.215   2.106   1.465
10622SOL    HW132765   5.270   2.033   1.505
10622SOL    HW232766   5.254   2.195   1.489
10623SOL     OW32767   6.735   4.949   5.178
10623SOL    HW132768   6.722   4.986   5.270
10623SOL    HW232769   6.823   4.901   5.174
10624SOL     OW32770   0.630   2.720   4.593
10624SOL    HW132771   0.649   2.645   4.656
10624SOL    HW232772   0.547   2.767   4.622
10625SOL     OW32773   0.363   4.401   1.014
10625SOL    HW132774   0.289   4.440   0.958
10625SOL    HW232775   0.328   4.320   1.062
10626SOL     OW32776   2.686   3.044   0.310
10626SOL    HW132777   2.701   3.125   0.366
10626SOL    HW232778   2.767   2.986   0.312
10627SOL     OW32779   5.526   7.016   1.129
10627SOL    HW132780   5.463   6.943   1.155
10627SOL    HW232781   5.556   7.002   1.035
10628SOL     OW32782   5.138   6.224   0.424
10628SOL    HW132783   5.072   6.287   0.464
10628SOL    HW232784   5.121   6.215   0.326
10629SOL     OW32785   2.475   4.904   5.170
10629SOL    HW132786   2.422   4.947   5.242
10629SOL    HW232787   2.415   4.849   5.111
10630SOL     OW32788   6.074   1.437   3.761
10630SOL    HW132789   5.979   1.428   3.728
10630SOL    HW232790   6.128   1.485   3.692
10631SOL     OW32791   2.722   5.371   5.118
10631SOL    HW132792   2.669   5.296   5.077
10631SOL    HW232793   2.793   5.400   5.055
10632SOL     OW32794   5.781   1.685   3.990
10632SOL    HW132795   5.863   1.732   4.025
10632SOL    HW232796   5.777   1.593   4.028
10633SOL     OW32797   2.821   2.941   0.814
10633SOL    HW132798   2.856   2.922   0.723
10633SOL    HW232799   2.733   2.895   0.826
10634SOL     OW32800   3.193   5.154   1.098
10634SOL    HW132801   3.205   5.057   1.119
10634SOL    HW232802   3.253   5.178   1.021
10635SOL     OW32803   2.437   2.887   1.060
10635SOL    HW132804   2.498   2.899   1.138
10635SOL    HW232805   2.466   2.807   1.007
10636SOL     OW32806   1.137   1.947   1.506
10636SOL    HW132807   1.205   1.998   1.558
10636SOL    HW232808   1.078   1.896   1.569
10637SOL     OW32809   2.492   4.583   6.591
10637SOL    HW132810   2.587   4.556   6.612
10637SOL    HW232811   2.434   4.501   6.594
10638SOL     OW32812   6.271   5.768   2.761
10638SOL    HW132813   6.245   5.755   2.857
10638SOL    HW232814   6.360   5.814   2.757
10639SOL     OW32815   0.974   3.191   3.418
10639SOL    HW132816   0.884   3.184   3.461
10639SOL    HW232817   1.016   3.278   3.442
10640SOL     OW32818   3.599   0.285   5.381
10640SOL    HW132819   3.646   0.237   5.455
10640SOL    HW232820   3.538   0.354   5.420
10641SOL     OW32821   2.383   2.040   1.953
10641SOL    HW132822   2.347   2.133   1.952
10641SOL    HW232823   2.382   2.003   1.860
10642SOL     OW32824   6.317   2.813   1.894
10642SOL    HW132825   6.311   2.881   1.821
10642SOL    HW232826   6.282   2.725   1.861
10643SOL     OW32827   1.832   5.139   5.097
10643SOL    HW132828   1.763   5.210   5.105
10643SOL    HW232829   1.788   5.049   5.093
10644SOL     OW32830   5.829   3.014   2.637
10644SOL    HW132831   5.771   2.937   2.663
10644SOL    HW232832   5.925   2.989   2.649
10645SOL     OW32833   1.820   2.357   4.857
10645SOL    HW132834   1.775   2.269   4.845
10645SOL    HW232835   1.792   2.419   4.784
10646SOL     OW32836   0.416   0.656   6.692
10646SOL    HW132837   0.481   0.702   6.632
10646SOL    HW232838   0.337   0.715   6.708
10647SOL     OW32839   3.064   5.586   4.633
10647SOL    HW132840   3.137   5.613   4.695
10647SOL    HW232841   3.070   5.488   4.613
10648SOL     OW32842   5.676   4.737   6.093
10648SOL    HW132843   5.716   4.782   6.172
10648SOL    HW232844   5.746   4.720   6.024
10649SOL     OW32845   0.126   4.789   2.403
10649SOL    HW132846   0.083   4.870   2.365
10649SOL    HW232847   0.177   4.741   2.331
10650SOL     OW32848   1.234   0.105   3.611
10650SOL    HW132849   1.298   0.119   3.535
10650SOL    HW232850   1.149   0.065   3.575
10651SOL     OW32851   5.341   5.761   6.476
10651SOL    HW132852   5.422   5.733   6.425
10651SOL    HW232853   5.333   5.861   6.474
10652SOL     OW32854   3.577   6.932   5.911
10652SOL    HW132855   3.548   6.918   6.006
10652SOL    HW232856   3.564   6.848   5.859
10653SOL     OW32857   4.357   4.643   3.941
10653SOL    HW132858   4.306   4.593   4.011
10653SOL    HW232859   4.455   4.643   3.964
10654SOL     OW32860   5.219   0.897   0.522
10654SOL    HW132861   5.134   0.847   0.540
10654SOL    HW232862   5.250   0.941   0.606
10655SOL     OW32863   2.179   5.429   1.001
10655SOL    HW132864   2.187   5.527   0.986
10655SOL    HW232865   2.262   5.396   1.046
10656SOL     OW32866   6.700   2.368   2.611
10656SOL    HW132867   6.797   2.351   2.623
10656SOL    HW232868   6.648   2.323   2.683
10657SOL     OW32869   6.716   6.953   6.012
10657SOL    HW132870   6.684   6.998   6.096
10657SOL    HW232871   6.687   6.858   6.012
10658SOL     OW32872   6.145   4.383   4.930
10658SOL    HW132873   6.170   4.434   5.012
10658SOL    HW232874   6.108   4.294   4.956
10659SOL     OW32875   6.652   5.819   1.006
10659SOL    HW132876   6.563   5.828   1.049
10659SOL    HW232877   6.694   5.909   0.994
10660SOL     OW32878   4.900   4.479   6.569
10660SOL    HW132879   4.879   4.447   6.476
10660SOL    HW232880   4.895   4.579   6.571
10661SOL     OW32881   1.542   0.435   2.041
10661SOL    HW132882   1.587   0.463   1.956
10661SOL    HW232883   1.495   0.348   2.026
10662SOL     OW32884   5.717   0.007   2.788
10662SOL    HW132885   5.726   0.100   2.754
10662SOL    HW232886   5.652   6.983   2.730
10663SOL     OW32887   0.640   1.303   1.639
10663SOL    HW132888   0.679   1.388   1.675
10663SOL    HW232889   0.600   1.250   1.714
10664SOL     OW32890   0.167   4.709   5.373
10664SOL    HW132891   0.264   4.718   5.349
10664SOL    HW232892   0.148   4.761   5.456
10665SOL     OW32893   1.214   1.150   0.287
10665SOL    HW132894   1.297   1.196   0.252
10665SOL    HW232895   1.212   1.156   0.387
10666SOL     OW32896   3.224   4.038   1.302
10666SOL    HW132897   3.198   3.960   1.244
10666SOL    HW232898   3.303   4.014   1.357
10667SOL     OW32899   3.803   3.356   5.247
10667SOL    HW132900   3.780   3.262   5.272
10667SOL    HW232901   3.847   3.401   5.325
10668SOL     OW32902   2.029   0.683   4.869
10668SOL    HW132903   1.945   0.721   4.907
10668SOL    HW232904   2.028   0.584   4.879
10669SOL     OW32905   5.731   6.707   1.170
10669SOL    HW132906   5.689   6.744   1.087
10669SOL    HW232907   5.831   6.711   1.161
10670SOL     OW32908   5.236   3.556   5.255
10670SOL    HW132909   5.230   3.619   5.333
10670SOL    HW232910   5.329   3.558   5.218
10671SOL     OW32911   2.452   2.676   3.265
10671SOL    HW132912   2.383   2.631   3.209
10671SOL    HW232913   2.542   2.636   3.247
10672SOL     OW32914   6.046   2.786   0.725
10672SOL    HW132915   5.954   2.786   0.762
10672SOL    HW232916   6.061   2.703   0.672
10673SOL     OW32917   1.518   1.322   6.629
10673SOL    HW132918   1.578   1.400   6.646
10673SOL    HW232919   1.445   1.321   6.698
10674SOL     OW32920   3.712   3.725   1.858
10674SOL    HW132921   3.699   3.824   1.852
10674SOL    HW232922   3.751   3.691   1.773
10675SOL     OW32923   1.827   6.479   0.043
10675SOL    HW132924   1.819   6.550   0.113
10675SOL    HW232925   1.853   6.520   6.983
10676SOL     OW32926   6.774   6.314   6.452
10676SOL    HW132927   6.821   6.270   6.529
10676SOL    HW232928   6.740   6.244   6.389
10677SOL     OW32929   0.901   0.852   2.701
10677SOL    HW132930   0.908   0.764   2.747
10677SOL    HW232931   0.993   0.884   2.676
10678SOL     OW32932   3.248   5.830   3.770
10678SOL    HW132933   3.338   5.819   3.814
10678SOL    HW232934   3.177   5.792   3.830
10679SOL     OW32935   4.436   5.799   6.473
10679SOL    HW132936   4.482   5.885   6.452
10679SOL    HW232937   4.493   5.743   6.534
10680SOL     OW32938   2.780   1.934   3.103
10680SOL    HW132939   2.811   2.014   3.155
10680SOL    HW232940   2.783   1.954   3.005
10681SOL     OW32941   1.294   3.564   0.256
10681SOL    HW132942   1.238   3.497   0.305
10681SOL    HW232943   1.313   3.530   0.164
10682SOL     OW32944   2.002   1.080   4.277
10682SOL    HW132945   2.058   1.162   4.264
10682SOL    HW232946   2.021   1.039   4.366
10683SOL     OW32947   3.293   2.136   4.015
10683SOL    HW132948   3.391   2.134   4.035
10683SOL    HW232949   3.278   2.161   3.920
10684SOL     OW32950   5.101   4.107   1.177
10684SOL    HW132951   5.199   4.104   1.158
10684SOL    HW232952   5.078   4.034   1.241
10685SOL     OW32953   0.381   5.844   2.830
10685SOL    HW132954   0.300   5.890   2.868
10685SOL    HW232955   0.352   5.776   2.763
10686SOL     OW32956   1.860   4.811   6.276
10686SOL    HW132957   1.870   4.812   6.176
10686SOL    HW232958   1.816   4.896   6.306
10687SOL     OW32959   6.918   5.387   2.003
10687SOL    HW132960   6.903   5.479   2.038
10687SOL    HW232961   6.907   5.387   1.903
10688SOL     OW32962   6.148   4.684   3.013
10688SOL    HW132963   6.128   4.600   3.064
10688SOL    HW232964   6.143   4.665   2.915
10689SOL     OW32965   0.615   6.713   3.744
10689SOL    HW132966   0.673   6.770   3.686
10689SOL    HW232967   0.522   6.749   3.744
10690SOL     OW32968   6.844   6.586   2.771
10690SOL    HW132969   6.899   6.520   2.822
10690SOL    HW232970   6.821   6.549   2.681
10691SOL     OW32971   0.393   1.975   2.302
10691SOL    HW132972   0.389   1.906   2.374
10691SOL    HW232973   0.488   1.988   2.274
10692SOL     OW32974   2.955   5.243   2.828
10692SOL    HW132975   2.920   5.224   2.919
10692SOL    HW232976   2.892   5.206   2.759
10693SOL     OW32977   2.700   0.083   0.406
10693SOL    HW132978   2.623   0.060   0.347
10693SOL    HW232979   2.704   0.019   0.483
10694SOL     OW32980   5.301   6.758   1.651
10694SOL    HW132981   5.273   6.777   1.745
10694SOL    HW232982   5.401   6.762   1.645
10695SOL     OW32983   5.616   2.140   2.804
10695SOL    HW132984   5.633   2.173   2.712
10695SOL    HW232985   5.533   2.182   2.840
10696SOL     OW32986   6.758   3.825   3.634
10696SOL    HW132987   6.788   3.899   3.573
10696SOL    HW232988   6.732   3.863   3.722
10697SOL     OW32989   0.640   5.385   4.814
10697SOL    HW132990   0.733   5.382   4.849
10697SOL    HW232991   0.637   5.445   4.733
10698SOL     OW32992   3.978   5.651   4.815
10698SOL    HW132993   3.943   5.557   4.808
10698SOL    HW232994   4.059   5.652   4.874
10699SOL     OW32995   3.911   2.938   1.732
10699SOL    HW132996   3.936   2.941   1.828
10699SOL    HW232997   3.824   2.890   1.721
10700SOL     OW32998   0.875   6.827   0.917
10700SOL    HW132999   0.778   6.812   0.902
10700SOL    HW233000   0.888   6.893   0.991
10701SOL     OW33001   3.239   5.869   0.046
10701SOL    HW133002   3.331   5.834   0.064
10701SOL    HW233003   3.185   5.867   0.130
10702SOL     OW33004   6.156   2.656   2.197
10702SOL    HW133005   6.149   2.617   2.105
10702SOL    HW233006   6.089   2.729   2.208
10703SOL     OW33007   3.108   3.097   4.243
10703SOL    HW133008   3.202   3.075   4.219
10703SOL    HW233009   3.085   3.055   4.331
10704SOL     OW33010   6.229   5.539   1.180
10704SOL    HW133011   6.159   5.512   1.246
10704SOL    HW233012   6.316   5.552   1.228
10705SOL     OW33013   6.686   4.273   2.386
10705SOL    HW133014   6.752   4.284   2.312
10705SOL    HW233015   6.709   4.334   2.462
10706SOL     OW33016   4.619   6.611   2.374
10706SOL    HW133017   4.557   6.666   2.319
10706SOL    HW233018   4.572   6.580   2.457
10707SOL     OW33019   0.370   6.974   3.945
10707SOL    HW133020   0.341   6.898   3.886
10707SOL    HW233021   0.466   6.996   3.926
10708SOL     OW33022   4.304   0.703   2.625
10708SOL    HW133023   4.322   0.613   2.666
10708SOL    HW233024   4.372   0.720   2.553
10709SOL     OW33025   6.115   0.094   4.977
10709SOL    HW133026   6.166   0.133   5.054
10709SOL    HW233027   6.129   7.021   4.976
10710SOL     OW33028   0.460   6.642   4.956
10710SOL    HW133029   0.506   6.689   4.881
10710SOL    HW233030   0.378   6.693   4.983
10711SOL     OW33031   1.823   6.433   3.120
10711SOL    HW133032   1.865   6.472   3.202
10711SOL    HW233033   1.872   6.465   3.039
10712SOL     OW33034   2.715   1.203   1.171
10712SOL    HW133035   2.787   1.219   1.239
10712SOL    HW233036   2.708   1.283   1.111
10713SOL     OW33037   0.614   3.484   1.786
10713SOL    HW133038   0.632   3.576   1.751
10713SOL    HW233039   0.581   3.426   1.712
10714SOL     OW33040   6.602   3.932   5.803
10714SOL    HW133041   6.581   3.891   5.891
10714SOL    HW233042   6.631   4.027   5.817
10715SOL     OW33043   4.700   7.020   2.865
10715SOL    HW133044   4.698   6.994   2.961
10715SOL    HW233045   4.709   6.938   2.808
10716SOL     OW33046   6.209   2.847   4.390
10716SOL    HW133047   6.255   2.799   4.465
10716SOL    HW233048   6.181   2.938   4.422
10717SOL     OW33049   1.254   2.581   0.912
10717SOL    HW133050   1.320   2.621   0.850
10717SOL    HW233051   1.177   2.645   0.924
10718SOL     OW33052   0.346   3.249   6.551
10718SOL    HW133053   0.253   3.249   6.514
10718SOL    HW233054   0.411   3.219   6.480
10719SOL     OW33055   4.804   6.046   0.056
10719SOL    HW133056   4.714   6.001   0.061
10719SOL    HW233057   4.866   5.990   0.002
10720SOL     OW33058   6.517   2.983   5.817
10720SOL    HW133059   6.601   3.037   5.825
10720SOL    HW233060   6.474   3.002   5.729
10721SOL     OW33061   6.486   3.771   5.099
10721SOL    HW133062   6.563   3.764   5.035
10721SOL    HW233063   6.498   3.852   5.156
10722SOL     OW33064   6.843   3.786   0.488
10722SOL    HW133065   6.767   3.737   0.530
10722SOL    HW233066   6.918   3.796   0.554
10723SOL     OW33067   6.984   3.578   7.025
10723SOL    HW133068   6.924   3.514   0.047
10723SOL    HW233069   6.932   3.629   6.958
10724SOL     OW33070   4.567   0.230   0.101
10724SOL    HW133071   4.569   0.168   0.022
10724SOL    HW233072   4.474   0.235   0.137
10725SOL     OW33073   6.993   5.227   3.765
10725SOL    HW133074   6.947   5.199   3.680
10725SOL    HW233075   0.020   5.310   3.748
10726SOL     OW33076   6.018   6.125   5.564
10726SOL    HW133077   5.947   6.060   5.591
10726SOL    HW233078   5.995   6.216   5.598
10727SOL     OW33079   0.964   4.977   3.708
10727SOL    HW133080   0.963   5.033   3.791
10727SOL    HW233081   1.056   4.979   3.667
10728SOL     OW33082   6.560   6.068   1.571
10728SOL    HW133083   6.513   6.090   1.656
10728SOL    HW233084   6.553   6.146   1.508
10729SOL     OW33085   5.831   1.029   3.001
10729SOL    HW133086   5.895   0.953   2.994
10729SOL    HW233087   5.825   1.060   3.096
10730SOL     OW33088   2.655   0.446   1.021
10730SOL    HW133089   2.619   0.532   0.983
10730SOL    HW233090   2.755   0.449   1.019
10731SOL     OW33091   2.347   5.918   6.465
10731SOL    HW133092   2.358   5.842   6.530
10731SOL    HW233093   2.339   5.883   6.372
10732SOL     OW33094   5.499   6.260   2.768
10732SOL    HW133095   5.533   6.296   2.855
10732SOL    HW233096   5.471   6.165   2.780
10733SOL     OW33097   5.551   2.116   6.830
10733SOL    HW133098   5.491   2.047   6.790
10733SOL    HW233099   5.504   2.204   6.833
10734SOL     OW33100   1.293   6.918   6.711
10734SOL    HW133101   1.244   6.890   6.793
10734SOL    HW233102   1.293   7.018   6.704
10735SOL     OW33103   1.728   4.964   2.824
10735SOL    HW133104   1.718   5.055   2.864
10735SOL    HW233105   1.816   4.959   2.776
10736SOL     OW33106   0.581   1.065   3.608
10736SOL    HW133107   0.669   1.107   3.584
10736SOL    HW233108   0.509   1.103   3.550
10737SOL     OW33109   1.633   1.948   0.426
10737SOL    HW133110   1.715   1.915   0.473
10737SOL    HW233111   1.606   1.881   0.356
10738SOL     OW33112   2.395   0.552   2.203
10738SOL    HW133113   2.343   0.624   2.249
10738SOL    HW233114   2.461   0.594   2.141
10739SOL     OW33115   0.620   1.260   2.105
10739SOL    HW133116   0.676   1.263   2.188
10739SOL    HW233117   0.545   1.195   2.118
10740SOL     OW33118   1.539   4.203   6.284
10740SOL    HW133119   1.575   4.200   6.377
10740SOL    HW233120   1.445   4.238   6.287
10741SOL     OW33121   0.287   1.213   3.680
10741SOL    HW133122   0.250   1.305   3.668
10741SOL    HW233123   0.337   1.185   3.598
10742SOL     OW33124   6.058   0.432   1.665
10742SOL    HW133125   6.013   0.502   1.719
10742SOL    HW233126   6.149   0.415   1.702
10743SOL     OW33127   2.459   2.455   3.544
10743SOL    HW133128   2.400   2.417   3.472
10743SOL    HW233129   2.458   2.555   3.538
10744SOL     OW33130   3.441   1.773   2.861
10744SOL    HW133131   3.472   1.750   2.953
10744SOL    HW233132   3.447   1.872   2.846
10745SOL     OW33133   0.799   5.007   0.510
10745SOL    HW133134   0.724   4.966   0.459
10745SOL    HW233135   0.886   4.968   0.479
10746SOL     OW33136   1.924   4.017   1.569
10746SOL    HW133137   1.939   4.072   1.487
10746SOL    HW233138   1.996   3.949   1.577
10747SOL     OW33139   4.616   1.682   3.256
10747SOL    HW133140   4.529   1.731   3.247
10747SOL    HW233141   4.598   1.584   3.264
10748SOL     OW33142   4.705   6.903   1.185
10748SOL    HW133143   4.803   6.883   1.176
10748SOL    HW233144   4.691   6.963   1.264
10749SOL     OW33145   0.214   4.642   2.855
10749SOL    HW133146   0.305   4.623   2.816
10749SOL    HW233147   0.224   4.660   2.953
10750SOL     OW33148   3.827   6.087   4.362
10750SOL    HW133149   3.764   6.062   4.288
10750SOL    HW233150   3.783   6.153   4.422
10751SOL     OW33151   0.858   3.545   5.445
10751SOL    HW133152   0.889   3.618   5.505
10751SOL    HW233153   0.764   3.564   5.415
10752SOL     OW33154   6.215   4.047   6.114
10752SOL    HW133155   6.308   4.021   6.141
10752SOL    HW233156   6.149   3.997   6.169
10753SOL     OW33157   5.436   0.661   3.501
10753SOL    HW133158   5.460   0.629   3.410
10753SOL    HW233159   5.514   0.648   3.563
10754SOL     OW33160   1.980   1.536   3.490
10754SOL    HW133161   2.005   1.630   3.469
10754SOL    HW233162   1.886   1.519   3.462
10755SOL     OW33163   0.444   1.947   0.647
10755SOL    HW133164   0.531   1.959   0.696
10755SOL    HW233165   0.431   2.024   0.584
10756SOL     OW33166   6.288   4.000   6.962
10756SOL    HW133167   6.340   3.936   6.904
10756SOL    HW233168   6.196   3.965   6.976
10757SOL     OW33169   0.374   3.454   0.492
10757SOL    HW133170   0.391   3.546   0.529
10757SOL    HW233171   0.446   3.430   0.428
10758SOL     OW33172   1.502   6.050   4.940
10758SOL    HW133173   1.415   6.094   4.919
10758SOL    HW233174   1.559   6.048   4.858
10759SOL     OW33175   1.636   2.864   7.025
10759SOL    HW133176   1.701   2.856   0.074
10759SOL    HW233177   1.657   2.796   6.956
10760SOL     OW33178   0.034   0.648   0.546
10760SOL    HW133179   0.091   0.626   0.626
10760SOL    HW233180   7.015   0.736   0.561
10761SOL     OW33181   0.892   1.773   6.086
10761SOL    HW133182   0.853   1.861   6.057
10761SOL    HW233183   0.967   1.748   6.025
10762SOL     OW33184   4.204   1.534   4.811
10762SOL    HW133185   4.196   1.521   4.712
10762SOL    HW233186   4.278   1.477   4.847
10763SOL     OW33187   4.636   6.120   0.677
10763SOL    HW133188   4.678   6.126   0.586
10763SOL    HW233189   4.599   6.028   0.691
10764SOL     OW33190   5.721   1.334   5.599
10764SOL    HW133191   5.667   1.253   5.576
10764SOL    HW233192   5.675   1.415   5.563
10765SOL     OW33193   5.653   2.932   1.398
10765SOL    HW133194   5.730   2.992   1.378
10765SOL    HW233195   5.625   2.884   1.314
10766SOL     OW33196   3.586   3.349   0.325
10766SOL    HW133197   3.666   3.296   0.298
10766SOL    HW233198   3.531   3.369   0.243
10767SOL     OW33199   1.492   0.418   0.157
10767SOL    HW133200   1.545   0.464   0.229
10767SOL    HW233201   1.468   0.326   0.188
10768SOL     OW33202   5.497   5.315   1.325
10768SOL    HW133203   5.472   5.389   1.387
10768SOL    HW233204   5.511   5.352   1.233
10769SOL     OW33205   2.080   4.851   4.591
10769SOL    HW133206   2.051   4.832   4.497
10769SOL    HW233207   2.158   4.792   4.614
10770SOL     OW33208   5.236   0.136   4.670
10770SOL    HW133209   5.146   0.121   4.630
10770SOL    HW233210   5.248   0.075   4.749
10771SOL     OW33211   4.456   0.052   5.154
10771SOL    HW133212   4.551   0.071   5.176
10771SOL    HW233213   4.441   0.064   5.056
10772SOL     OW33214   6.348   6.564   3.643
10772SOL    HW133215   6.275   6.526   3.701
10772SOL    HW233216   6.322   6.554   3.547
10773SOL     OW33217   6.396   5.232   6.269
10773SOL    HW133218   6.444   5.147   6.291
10773SOL    HW233219   6.450   5.286   6.205
10774SOL     OW33220   1.598   1.816   6.711
10774SOL    HW133221   1.587   1.770   6.799
10774SOL    HW233222   1.564   1.757   6.638
10775SOL     OW33223   0.767   3.776   1.075
10775SOL    HW133224   0.803   3.742   1.162
10775SOL    HW233225   0.842   3.807   1.017
10776SOL     OW33226   1.069   6.191   0.864
10776SOL    HW133227   1.011   6.159   0.789
10776SOL    HW233228   1.097   6.114   0.920
10777SOL     OW33229   4.215   6.645   4.024
10777SOL    HW133230   4.184   6.643   4.118
10777SOL    HW233231   4.144   6.609   3.964
10778SOL     OW33232   5.947   6.163   5.250
10778SOL    HW133233   6.034   6.159   5.300
10778SOL    HW233234   5.899   6.076   5.261
10779SOL     OW33235   5.788   4.717   3.425
10779SOL    HW133236   5.839   4.798   3.399
10779SOL    HW233237   5.850   4.649   3.463
10780SOL     OW33238   1.540   6.897   2.990
10780SOL    HW133239   1.444   6.873   2.974
10780SOL    HW233240   1.579   6.833   3.056
10781SOL     OW33241   3.995   1.396   3.584
10781SOL    HW133242   3.951   1.311   3.554
10781SOL    HW233243   4.045   1.436   3.507
10782SOL     OW33244   6.698   2.041   3.595
10782SOL    HW133245   6.733   1.970   3.655
10782SOL    HW233246   6.758   2.051   3.516
10783SOL     OW33247   1.432   3.324   3.769
10783SOL    HW133248   1.364   3.260   3.804
10783SOL    HW233249   1.396   3.417   3.773
10784SOL     OW33250   2.739   0.385   2.310
10784SOL    HW133251   2.647   0.351   2.293
10784SOL    HW233252   2.788   0.320   2.368
10785SOL     OW33253   0.918   5.007   0.905
10785SOL    HW133254   0.968   5.038   0.823
10785SOL    HW233255   0.907   5.084   0.968
10786SOL     OW33256   4.946   3.345   1.866
10786SOL    HW133257   4.910   3.360   1.958
10786SOL    HW233258   4.892   3.274   1.821
10787SOL     OW33259   2.896   2.258   4.394
10787SOL    HW133260   2.973   2.242   4.333
10787SOL    HW233261   2.892   2.355   4.419
10788SOL     OW33262   1.873   4.397   0.540
10788SOL    HW133263   1.789   4.443   0.512
10788SOL    HW233264   1.878   4.307   0.497
10789SOL     OW33265   5.792   2.294   0.172
10789SOL    HW133266   5.871   2.233   0.165
10789SOL    HW233267   5.810   2.378   0.120
10790SOL     OW33268   1.339   0.796   3.826
10790SOL    HW133269   1.423   0.745   3.845
10790SOL    HW233270   1.268   0.767   3.890
10791SOL     OW33271   0.388   1.391   1.300
10791SOL    HW133272   0.295   1.376   1.266
10791SOL    HW233273   0.384   1.414   1.397
10792SOL     OW33274   3.749   3.572   1.625
10792SOL    HW133275   3.780   3.620   1.542
10792SOL    HW233276   3.717   3.481   1.600
10793SOL     OW33277   5.388   2.797   4.436
10793SOL    HW133278   5.309   2.856   4.419
10793SOL    HW233279   5.376   2.710   4.388
10794SOL     OW33280   3.016   3.897   2.965
10794SOL    HW133281   3.011   3.860   2.873
10794SOL    HW233282   3.083   3.971   2.967
10795SOL     OW33283   6.569   3.940   3.833
10795SOL    HW133284   6.500   4.010   3.815
10795SOL    HW233285   6.528   3.849   3.824
10796SOL     OW33286   4.997   6.414   0.072
10796SOL    HW133287   5.047   6.492   0.107
10796SOL    HW233288   5.045   6.376   7.020
10797SOL     OW33289   4.594   2.437   1.096
10797SOL    HW133290   4.659   2.407   1.165
10797SOL    HW233291   4.635   2.426   1.005
10798SOL     OW33292   2.072   6.788   0.722
10798SOL    HW133293   2.138   6.787   0.798
10798SOL    HW233294   2.120   6.779   0.635
10799SOL     OW33295   3.680   1.369   2.000
10799SOL    HW133296   3.765   1.336   2.041
10799SOL    HW233297   3.610   1.298   2.007
10800SOL     OW33298   1.421   0.059   6.936
10800SOL    HW133299   1.406   0.107   6.850
10800SOL    HW233300   1.512   0.082   6.971
10801SOL     OW33301   1.071   0.101   4.849
10801SOL    HW133302   1.090   0.127   4.754
10801SOL    HW233303   1.009   0.167   4.890
10802SOL     OW33304   1.908   3.086   4.474
10802SOL    HW133305   1.945   3.003   4.432
10802SOL    HW233306   1.907   3.074   4.574
10803SOL     OW33307   4.104   4.044   5.488
10803SOL    HW133308   4.009   4.015   5.473
10803SOL    HW233309   4.131   4.107   5.416
10804SOL     OW33310   6.818   4.097   1.334
10804SOL    HW133311   6.806   4.064   1.241
10804SOL    HW233312   6.780   4.190   1.341
10805SOL     OW33313   3.110   6.499   6.485
10805SOL    HW133314   3.144   6.590   6.460
10805SOL    HW233315   3.135   6.479   6.579
10806SOL     OW33316   4.993   4.720   6.209
10806SOL    HW133317   4.901   4.694   6.239
10806SOL    HW233318   5.050   4.737   6.290
10807SOL     OW33319   2.558   0.107   3.510
10807SOL    HW133320   2.617   0.161   3.449
10807SOL    HW233321   2.557   0.012   3.481
10808SOL     OW33322   6.628   4.225   6.700
10808SOL    HW133323   6.581   4.253   6.617
10808SOL    HW233324   6.574   4.252   6.780
10809SOL     OW33325   2.285   6.193   3.633
10809SOL    HW133326   2.256   6.257   3.563
10809SOL    HW233327   2.335   6.241   3.705
10810SOL     OW33328   1.660   0.108   4.779
10810SOL    HW133329   1.682   0.013   4.758
10810SOL    HW233330   1.572   0.114   4.824
10811SOL     OW33331   4.582   4.639   5.653
10811SOL    HW133332   4.493   4.611   5.616
10811SOL    HW233333   4.655   4.595   5.602
10812SOL     OW33334   0.826   3.639   1.975
10812SOL    HW133335   0.798   3.680   1.888
10812SOL    HW233336   0.745   3.611   2.026
10813SOL     OW33337   1.512   6.001   0.187
10813SOL    HW133338   1.579   6.075   0.192
10813SOL    HW233339   1.436   6.020   0.249
10814SOL     OW33340   1.467   6.649   0.093
10814SOL    HW133341   1.558   6.681   0.121
10814SOL    HW233342   1.429   6.591   0.165
10815SOL     OW33343   4.839   4.966   3.135
10815SOL    HW133344   4.741   4.944   3.141
10815SOL    HW233345   4.854   5.029   3.059
10816SOL     OW33346   1.262   1.977   1.899
10816SOL    HW133347   1.314   1.904   1.855
10816SOL    HW233348   1.298   1.994   1.990
10817SOL     OW33349   5.244   0.276   2.247
10817SOL    HW133350   5.185   0.329   2.308
10817SOL    HW233351   5.307   0.338   2.199
10818SOL     OW33352   4.360   4.308   5.365
10818SOL    HW133353   4.417   4.238   5.322
10818SOL    HW233354   4.319   4.367   5.294
10819SOL     OW33355   6.894   4.368   0.103
10819SOL    HW133356   6.851   4.341   0.190
10819SOL    HW233357   6.825   4.411   0.044
10820SOL     OW33358   5.880   5.890   4.242
10820SOL    HW133359   5.812   5.827   4.280
10820SOL    HW233360   5.935   5.928   4.317
10821SOL     OW33361   5.475   6.491   1.955
10821SOL    HW133362   5.548   6.527   2.014
10821SOL    HW233363   5.386   6.518   1.991
10822SOL     OW33364   1.039   2.793   2.994
10822SOL    HW133365   1.005   2.880   2.958
10822SOL    HW233366   1.135   2.802   3.020
10823SOL     OW33367   1.525   5.129   2.202
10823SOL    HW133368   1.578   5.044   2.212
10823SOL    HW233369   1.575   5.204   2.244
10824SOL     OW33370   4.948   0.268   3.926
10824SOL    HW133371   4.925   0.171   3.919
10824SOL    HW233372   5.027   0.287   3.867
10825SOL     OW33373   3.058   0.453   6.553
10825SOL    HW133374   3.108   0.395   6.489
10825SOL    HW233375   3.122   0.516   6.597
10826SOL     OW33376   0.594   3.733   3.919
10826SOL    HW133377   0.575   3.771   3.828
10826SOL    HW233378   0.594   3.633   3.913
10827SOL     OW33379   5.809   3.823   4.504
10827SOL    HW133380   5.811   3.763   4.424
10827SOL    HW233381   5.883   3.890   4.498
10828SOL     OW33382   1.272   5.515   1.956
10828SOL    HW133383   1.172   5.504   1.953
10828SOL    HW233384   1.294   5.612   1.958
10829SOL     OW33385   3.739   2.346   0.507
10829SOL    HW133386   3.652   2.304   0.534
10829SOL    HW233387   3.804   2.275   0.480
10830SOL     OW33388   5.578   2.117   3.809
10830SOL    HW133389   5.639   2.195   3.794
10830SOL    HW233390   5.632   2.034   3.819
10831SOL     OW33391   4.052   6.032   1.905
10831SOL    HW133392   4.059   6.126   1.938
10831SOL    HW233393   4.137   5.983   1.925
10832SOL     OW33394   0.399   2.220   0.581
10832SOL    HW133395   0.306   2.251   0.601
10832SOL    HW233396   0.465   2.282   0.625
10833SOL     OW33397   1.465   1.163   3.210
10833SOL    HW133398   1.386   1.175   3.270
10833SOL    HW233399   1.463   1.072   3.169
10834SOL     OW33400   1.412   2.062   6.184
10834SOL    HW133401   1.415   2.027   6.278
10834SOL    HW233402   1.418   2.161   6.185
10835SOL     OW33403   6.137   1.874   0.938
10835SOL    HW133404   6.180   1.784   0.930
10835SOL    HW233405   6.207   1.945   0.938
10836SOL     OW33406   6.487   1.246   4.808
10836SOL    HW133407   6.511   1.314   4.878
10836SOL    HW233408   6.388   1.249   4.792
10837SOL     OW33409   0.571   4.872   0.304
10837SOL    HW133410   0.513   4.838   0.379
10837SOL    HW233411   0.528   4.852   0.217
10838SOL     OW33412   5.766   6.327   5.133
10838SOL    HW133413   5.845   6.296   5.184
10838SOL    HW233414   5.795   6.382   5.055
10839SOL     OW33415   3.244   3.447   0.523
10839SOL    HW133416   3.322   3.429   0.583
10839SOL    HW233417   3.211   3.540   0.537
10840SOL     OW33418   3.972   5.414   1.320
10840SOL    HW133419   3.932   5.331   1.359
10840SOL    HW233420   3.902   5.463   1.268
10841SOL     OW33421   3.772   6.755   0.595
10841SOL    HW133422   3.692   6.705   0.629
10841SOL    HW233423   3.854   6.699   0.610
10842SOL     OW33424   5.395   3.232   1.203
10842SOL    HW133425   5.408   3.140   1.167
10842SOL    HW233426   5.443   3.242   1.290
10843SOL     OW33427   1.228   2.226   1.760
10843SOL    HW133428   1.263   2.136   1.788
10843SOL    HW233429   1.133   2.217   1.732
10844SOL     OW33430   0.172   6.991   4.117
10844SOL    HW133431   0.197   6.945   4.202
10844SOL    HW233432   0.254   7.007   4.062
10845SOL     OW33433   3.177   0.494   0.127
10845SOL    HW133434   3.188   0.549   0.044
10845SOL    HW233435   3.136   0.406   0.103
10846SOL     OW33436   4.826   3.202   0.856
10846SOL    HW133437   4.765   3.145   0.800
10846SOL    HW233438   4.887   3.254   0.797
10847SOL     OW33439   3.510   2.969   6.582
10847SOL    HW133440   3.546   3.048   6.631
10847SOL    HW233441   3.478   2.900   6.648
10848SOL     OW33442   3.250   2.325   6.681
10848SOL    HW133443   3.234   2.357   6.588
10848SOL    HW233444   3.306   2.243   6.679
10849SOL     OW33445   2.442   4.455   2.784
10849SOL    HW133446   2.343   4.468   2.786
10849SOL    HW233447   2.467   4.374   2.837
10850SOL     OW33448   4.116   6.206   0.033
10850SOL    HW133449   4.185   6.263   0.077
10850SOL    HW233450   4.161   6.134   7.006
10851SOL     OW33451   3.020   2.836   6.349
10851SOL    HW133452   3.045   2.745   6.317
10851SOL    HW233453   2.921   2.849   6.338
10852SOL     OW33454   0.353   6.306   6.289
10852SOL    HW133455   0.429   6.258   6.244
10852SOL    HW233456   0.353   6.284   6.387
10853SOL     OW33457   3.692   1.586   5.865
10853SOL    HW133458   3.656   1.501   5.826
10853SOL    HW233459   3.619   1.655   5.867
10854SOL     OW33460   5.878   6.393   5.538
10854SOL    HW133461   5.840   6.469   5.486
10854SOL    HW233462   5.946   6.345   5.482
10855SOL     OW33463   2.909   6.166   2.014
10855SOL    HW133464   2.836   6.107   2.048
10855SOL    HW233465   2.870   6.236   1.955
10856SOL     OW33466   6.102   1.754   2.502
10856SOL    HW133467   6.113   1.661   2.466
10856SOL    HW233468   6.174   1.812   2.465
10857SOL     OW33469   5.667   3.405   3.415
10857SOL    HW133470   5.656   3.374   3.509
10857SOL    HW233471   5.670   3.505   3.414
10858SOL     OW33472   0.769   2.237   6.492
10858SOL    HW133473   0.702   2.225   6.566
10858SOL    HW233474   0.729   2.206   6.406
10859SOL     OW33475   2.148   4.039   3.923
10859SOL    HW133476   2.148   4.032   3.823
10859SOL    HW233477   2.209   3.970   3.962
10860SOL     OW33478   6.444   1.187   6.129
10860SOL    HW133479   6.512   1.180   6.056
10860SOL    HW233480   6.473   1.256   6.195
10861SOL     OW33481   3.813   2.980   2.687
10861SOL    HW133482   3.713   2.976   2.689
10861SOL    HW233483   3.847   2.999   2.780
10862SOL     OW33484   3.015   1.638   6.601
10862SOL    HW133485   3.084   1.567   6.603
10862SOL    HW233486   3.015   1.682   6.511
10863SOL     OW33487   4.076   0.298   2.220
10863SOL    HW133488   4.017   0.314   2.300
10863SOL    HW233489   4.166   0.337   2.237
10864SOL     OW33490   2.528   5.332   0.773
10864SOL    HW133491   2.507   5.341   0.676
10864SOL    HW233492   2.517   5.421   0.817
10865SOL     OW33493   5.565   1.522   3.822
10865SOL    HW133494   5.519   1.605   3.793
10865SOL    HW233495   5.656   1.544   3.857
10866SOL     OW33496   5.021   5.074   0.918
10866SOL    HW133497   5.061   5.134   0.987
10866SOL    HW233498   5.012   5.124   0.831
10867SOL     OW33499   3.415   4.378   0.117
10867SOL    HW133500   3.365   4.362   0.202
10867SOL    HW233501   3.494   4.436   0.135
10868SOL     OW33502   1.970   1.972   4.029
10868SOL    HW133503   1.884   1.962   3.979
10868SOL    HW233504   2.014   1.882   4.036
10869NA      NA33505   0.299   2.248   6.219
10870NA      NA33506   4.452   4.611   5.197
10871NA      NA33507   2.456   4.464   2.269
10872NA      NA33508   4.938   4.005   3.661
10873NA      NA33509   4.390   2.449   5.174
10874NA      NA33510   3.243   4.438   1.513
10875NA      NA33511   0.888   4.515   7.022
10876NA      NA33512   3.599   3.891   2.378
10877NA      NA33513   4.730   4.910   1.282
10878NA      NA33514   3.517   0.090   5.786
10879NA      NA33515   6.198   5.640   0.711
10880NA      NA33516   2.237   0.738   5.247
10881NA      NA33517   4.105   4.795   1.743
10882NA      NA33518   4.048   2.678   1.209
   7.02671   7.02671   7.02671
