Generated by trjconv : CNT in water t= 180.00000
33518
    1C        C    1   2.846   2.772   4.747
    1C        C    2   2.899   2.718   4.866
    1C        C    3   2.845   2.772   4.984
    1C        C    4   2.849   2.775   4.261
    1C        C    5   2.896   2.724   4.384
    1C        C    6   2.841   2.769   4.506
    1C        C    7   3.011   2.637   4.624
    1C        C    8   2.894   2.718   4.626
    1C        C    9   3.077   2.607   4.745
    1C        C   10   3.010   2.631   4.867
    1C        C   11   3.181   2.493   4.975
    1C        C   12   3.056   2.556   4.975
    1C        C   13   2.842   2.766   3.770
    1C        C   14   2.894   2.717   3.892
    1C        C   15   2.846   2.771   4.014
    1C        C   16   3.014   2.646   4.137
    1C        C   17   2.897   2.726   4.138
    1C        C   18   3.079   2.615   4.259
    1C        C   19   3.016   2.648   4.381
    1C        C   20   3.207   2.558   4.502
    1C        C   21   3.074   2.605   4.502
    1C        C   22   3.278   2.537   4.622
    1C        C   23   3.209   2.553   4.744
    1C        C   24   3.412   2.486   4.863
    1C        C   25   3.269   2.502   4.862
    1C        C   26   3.489   2.482   4.980
    1C        C   27   2.847   2.765   3.282
    1C        C   28   2.905   2.726   3.405
    1C        C   29   2.851   2.772   3.527
    1C        C   30   3.019   2.645   3.648
    1C        C   31   2.899   2.721   3.649
    1C        C   32   3.080   2.612   3.771
    1C        C   33   3.014   2.642   3.892
    1C        C   34   3.208   2.560   4.016
    1C        C   35   3.077   2.613   4.016
    1C        C   36   3.277   2.539   4.137
    1C        C   37   3.212   2.568   4.259
    1C        C   38   3.416   2.509   4.380
    1C        C   39   3.279   2.543   4.381
    1C        C   40   3.488   2.498   4.501
    1C        C   41   3.416   2.507   4.623
    1C        C   42   3.630   2.493   4.743
    1C        C   43   3.488   2.492   4.744
    1C        C   44   3.703   2.487   4.864
    1C        C   45   3.628   2.482   4.981
    1C        C   46   2.836   2.752   2.792
    1C        C   47   2.894   2.712   2.915
    1C        C   48   2.842   2.762   3.036
    1C        C   49   3.017   2.643   3.160
    1C        C   50   2.897   2.717   3.158
    1C        C   51   3.079   2.611   3.282
    1C        C   52   3.017   2.640   3.405
    1C        C   53   3.208   2.548   3.524
    1C        C   54   3.079   2.604   3.527
    1C        C   55   3.276   2.531   3.647
    1C        C   56   3.210   2.556   3.770
    1C        C   57   3.414   2.510   3.893
    1C        C   58   3.275   2.536   3.894
    1C        C   59   3.485   2.507   4.015
    1C        C   60   3.415   2.510   4.137
    1C        C   61   3.628   2.499   4.257
    1C        C   62   3.487   2.497   4.259
    1C        C   63   3.701   2.507   4.378
    1C        C   64   3.629   2.501   4.499
    1C        C   65   3.836   2.539   4.620
    1C        C   66   3.700   2.501   4.621
    1C        C   67   3.902   2.565   4.742
    1C        C   68   3.840   2.524   4.862
    1C        C   69   4.051   2.588   4.977
    1C        C   70   3.922   2.532   4.975
    1C        C   71   2.828   2.738   2.308
    1C        C   72   2.883   2.690   2.430
    1C        C   73   2.831   2.746   2.549
    1C        C   74   3.005   2.625   2.672
    1C        C   75   2.886   2.700   2.671
    1C        C   76   3.071   2.594   2.793
    1C        C   77   3.011   2.633   2.915
    1C        C   78   3.205   2.548   3.034
    1C        C   79   3.074   2.602   3.037
    1C        C   80   3.272   2.526   3.156
    1C        C   81   3.208   2.552   3.279
    1C        C   82   3.414   2.501   3.401
    1C        C   83   3.275   2.529   3.401
    1C        C   84   3.484   2.498   3.524
    1C        C   85   3.415   2.508   3.647
    1C        C   86   3.624   2.501   3.770
    1C        C   87   3.483   2.498   3.771
    1C        C   88   3.696   2.513   3.891
    1C        C   89   3.627   2.509   4.014
    1C        C   90   3.836   2.546   4.134
    1C        C   91   3.698   2.514   4.136
    1C        C   92   3.901   2.570   4.257
    1C        C   93   3.837   2.546   4.380
    1C        C   94   4.029   2.637   4.501
    1C        C   95   3.908   2.565   4.501
    1C        C   96   4.091   2.673   4.623
    1C        C   97   4.030   2.628   4.742
    1C        C   98   4.198   2.762   4.865
    1C        C   99   4.100   2.658   4.862
    1C        C  100   4.215   2.842   4.979
    1C        C  101   2.825   2.730   2.068
    1C        C  102   2.988   2.590   2.189
    1C        C  103   2.877   2.680   2.188
    1C        C  104   3.061   2.566   2.309
    1C        C  105   3.001   2.612   2.428
    1C        C  106   3.198   2.535   2.548
    1C        C  107   3.067   2.588   2.550
    1C        C  108   3.268   2.519   2.669
    1C        C  109   3.200   2.536   2.792
    1C        C  110   3.410   2.494   2.912
    1C        C  111   3.271   2.518   2.912
    1C        C  112   3.482   2.497   3.034
    1C        C  113   3.412   2.506   3.156
    1C        C  114   3.624   2.506   3.279
    1C        C  115   3.483   2.499   3.278
    1C        C  116   3.693   2.513   3.402
    1C        C  117   3.625   2.503   3.525
    1C        C  118   3.832   2.542   3.645
    1C        C  119   3.695   2.508   3.648
    1C        C  120   3.897   2.569   3.767
    1C        C  121   3.834   2.545   3.891
    1C        C  122   4.027   2.636   4.013
    1C        C  123   3.903   2.570   4.012
    1C        C  124   4.089   2.672   4.135
    1C        C  125   4.026   2.637   4.256
    1C        C  126   4.195   2.767   4.376
    1C        C  127   4.087   2.675   4.378
    1C        C  128   4.239   2.823   4.498
    1C        C  129   4.195   2.768   4.620
    1C        C  130   4.326   2.935   4.737
    1C        C  131   4.243   2.819   4.743
    1C        C  132   4.362   2.998   4.859
    1C        C  133   4.291   2.958   4.973
    1C        C  134   3.172   2.462   2.082
    1C        C  135   3.040   2.508   2.083
    1C        C  136   3.259   2.471   2.191
    1C        C  137   3.193   2.514   2.308
    1C        C  138   3.405   2.477   2.428
    1C        C  139   3.267   2.505   2.428
    1C        C  140   3.480   2.481   2.547
    1C        C  141   3.408   2.497   2.667
    1C        C  142   3.620   2.488   2.791
    1C        C  143   3.479   2.487   2.789
    1C        C  144   3.692   2.504   2.912
    1C        C  145   3.623   2.495   3.035
    1C        C  146   3.833   2.533   3.155
    1C        C  147   3.695   2.503   3.156
    1C        C  148   3.900   2.555   3.277
    1C        C  149   3.832   2.538   3.400
    1C        C  150   4.025   2.624   3.525
    1C        C  151   3.901   2.556   3.522
    1C        C  152   4.086   2.663   3.646
    1C        C  153   4.026   2.627   3.769
    1C        C  154   4.195   2.761   3.886
    1C        C  155   4.086   2.671   3.889
    1C        C  156   4.246   2.809   4.009
    1C        C  157   4.199   2.761   4.133
    1C        C  158   4.342   2.919   4.253
    1C        C  159   4.254   2.809   4.254
    1C        C  160   4.375   2.984   4.374
    1C        C  161   4.331   2.930   4.497
    1C        C  162   4.441   3.115   4.615
    1C        C  163   4.367   2.995   4.617
    1C        C  164   4.470   3.182   4.736
    1C        C  165   4.440   3.115   4.856
    1C        C  166   4.511   3.321   4.972
    1C        C  167   4.487   3.184   4.969
    1C        C  168   3.475   2.440   2.071
    1C        C  169   3.400   2.454   2.189
    1C        C  170   3.619   2.462   2.308
    1C        C  171   3.476   2.458   2.307
    1C        C  172   3.693   2.484   2.426
    1C        C  173   3.622   2.488   2.548
    1C        C  174   3.828   2.538   2.666
    1C        C  175   3.692   2.499   2.670
    1C        C  176   3.892   2.565   2.789
    1C        C  177   3.828   2.541   2.912
    1C        C  178   4.023   2.629   3.034
    1C        C  179   3.898   2.562   3.033
    1C        C  180   4.084   2.659   3.158
    1C        C  181   4.028   2.615   3.280
    1C        C  182   4.194   2.747   3.398
    1C        C  183   4.087   2.655   3.402
    1C        C  184   4.243   2.802   3.519
    1C        C  185   4.196   2.751   3.642
    1C        C  186   4.334   2.916   3.764
    1C        C  187   4.246   2.805   3.763
    1C        C  188   4.375   2.975   3.885
    1C        C  189   4.336   2.918   4.009
    1C        C  190   4.444   3.102   4.127
    1C        C  191   4.382   2.975   4.130
    1C        C  192   4.466   3.172   4.248
    1C        C  193   4.442   3.108   4.371
    1C        C  194   4.506   3.314   4.490
    1C        C  195   4.468   3.178   4.491
    1C        C  196   4.519   3.387   4.610
    1C        C  197   4.509   3.319   4.733
    1C        C  198   4.552   3.533   4.852
    1C        C  199   4.532   3.392   4.853
    1C        C  200   4.585   3.618   4.963
    1C        C  201   3.614   2.421   2.070
    1C        C  202   3.825   2.508   2.184
    1C        C  203   3.689   2.463   2.185
    1C        C  204   3.898   2.539   2.302
    1C        C  205   3.830   2.518   2.424
    1C        C  206   4.022   2.619   2.542
    1C        C  207   3.898   2.552   2.544
    1C        C  208   4.081   2.656   2.665
    1C        C  209   4.020   2.624   2.788
    1C        C  210   4.194   2.748   2.907
    1C        C  211   4.080   2.665   2.910
    1C        C  212   4.246   2.794   3.030
    1C        C  213   4.196   2.745   3.153
    1C        C  214   4.328   2.910   3.272
    1C        C  215   4.242   2.798   3.275
    1C        C  216   4.365   2.973   3.394
    1C        C  217   4.327   2.916   3.517
    1C        C  218   4.435   3.098   3.639
    1C        C  219   4.371   2.972   3.639
    1C        C  220   4.463   3.167   3.759
    1C        C  221   4.441   3.100   3.882
    1C        C  222   4.504   3.302   4.002
    1C        C  223   4.470   3.165   4.004
    1C        C  224   4.512   3.376   4.123
    1C        C  225   4.503   3.308   4.247
    1C        C  226   4.525   3.523   4.364
    1C        C  227   4.517   3.382   4.366
    1C        C  228   4.524   3.598   4.484
    1C        C  229   4.528   3.528   4.606
    1C        C  230   4.504   3.738   4.725
    1C        C  231   4.540   3.600   4.727
    1C        C  232   4.494   3.816   4.843
    1C        C  233   4.543   3.751   4.957
    1C        C  234   4.015   2.609   2.064
    1C        C  235   3.895   2.538   2.065
    1C        C  236   4.083   2.651   2.178
    1C        C  237   4.024   2.605   2.298
    1C        C  238   4.197   2.734   2.421
    1C        C  239   4.083   2.649   2.418
    1C        C  240   4.249   2.786   2.542
    1C        C  241   4.196   2.739   2.664
    1C        C  242   4.334   2.904   2.784
    1C        C  243   4.246   2.794   2.784
    1C        C  244   4.375   2.962   2.906
    1C        C  245   4.331   2.908   3.029
    1C        C  246   4.430   3.097   3.150
    1C        C  247   4.367   2.970   3.151
    1C        C  248   4.457   3.163   3.272
    1C        C  249   4.428   3.099   3.394
    1C        C  250   4.501   3.299   3.512
    1C        C  251   4.458   3.164   3.516
    1C        C  252   4.516   3.370   3.633
    1C        C  253   4.498   3.304   3.757
    1C        C  254   4.526   3.513   3.875
    1C        C  255   4.515   3.372   3.880
    1C        C  256   4.519   3.586   3.996
    1C        C  257   4.519   3.517   4.119
    1C        C  258   4.503   3.730   4.240
    1C        C  259   4.520   3.590   4.240
    1C        C  260   4.473   3.799   4.360
    1C        C  261   4.488   3.735   4.485
    1C        C  262   4.424   3.938   4.603
    1C        C  263   4.476   3.807   4.605
    1C        C  264   4.401   4.009   4.723
    1C        C  265   4.433   3.943   4.844
    1C        C  266   4.320   4.131   4.959
    1C        C  267   4.391   4.012   4.958
    1C        C  268   4.264   2.775   2.062
    1C        C  269   4.195   2.736   2.178
    1C        C  270   4.346   2.888   2.297
    1C        C  271   4.251   2.781   2.300
    1C        C  272   4.382   2.952   2.418
    1C        C  273   4.334   2.899   2.539
    1C        C  274   4.441   3.084   2.660
    1C        C  275   4.370   2.962   2.660
    1C        C  276   4.471   3.151   2.781
    1C        C  277   4.444   3.085   2.903
    1C        C  278   4.500   3.290   3.023
    1C        C  279   4.464   3.153   3.025
    1C        C  280   4.508   3.364   3.144
    1C        C  281   4.501   3.298   3.268
    1C        C  282   4.517   3.510   3.388
    1C        C  283   4.512   3.369   3.390
    1C        C  284   4.517   3.581   3.510
    1C        C  285   4.525   3.510   3.632
    1C        C  286   4.491   3.722   3.753
    1C        C  287   4.522   3.584   3.753
    1C        C  288   4.476   3.792   3.874
    1C        C  289   4.494   3.725   3.998
    1C        C  290   4.428   3.927   4.116
    1C        C  291   4.487   3.799   4.118
    1C        C  292   4.390   3.992   4.236
    1C        C  293   4.423   3.931   4.359
    1C        C  294   4.322   4.121   4.476
    1C        C  295   4.394   4.000   4.479
    1C        C  296   4.280   4.181   4.597
    1C        C  297   4.325   4.129   4.720
    1C        C  298   4.198   4.309   4.836
    1C        C  299   4.277   4.190   4.840
    1C        C  300   4.169   4.397   4.946
    1C        C  301   4.350   2.884   2.063
    1C        C  302   4.468   3.072   2.176
    1C        C  303   4.396   2.948   2.179
    1C        C  304   4.482   3.143   2.298
    1C        C  305   4.444   3.079   2.417
    1C        C  306   4.505   3.285   2.536
    1C        C  307   4.471   3.148   2.537
    1C        C  308   4.514   3.357   2.657
    1C        C  309   4.504   3.288   2.780
    1C        C  310   4.522   3.500   2.899
    1C        C  311   4.518   3.359   2.902
    1C        C  312   4.516   3.573   3.020
    1C        C  313   4.516   3.505   3.143
    1C        C  314   4.490   3.717   3.264
    1C        C  315   4.514   3.577   3.264
    1C        C  316   4.471   3.786   3.385
    1C        C  317   4.491   3.720   3.509
    1C        C  318   4.427   3.923   3.627
    1C        C  319   4.475   3.791   3.630
    1C        C  320   4.394   3.985   3.750
    1C        C  321   4.431   3.926   3.873
    1C        C  322   4.321   4.110   3.991
    1C        C  323   4.401   3.994   3.994
    1C        C  324   4.274   4.167   4.111
    1C        C  325   4.319   4.114   4.234
    1C        C  326   4.184   4.281   4.353
    1C        C  327   4.280   4.177   4.354
    1C        C  328   4.134   4.334   4.474
    1C        C  329   4.184   4.285   4.596
    1C        C  330   4.026   4.435   4.712
    1C        C  331   4.141   4.351   4.713
    1C        C  332   3.970   4.490   4.829
    1C        C  333   4.051   4.473   4.942
    1C        C  334   4.558   3.266   2.060
    1C        C  335   4.531   3.128   2.060
    1C        C  336   4.542   3.348   2.172
    1C        C  337   4.520   3.280   2.294
    1C        C  338   4.520   3.497   2.411
    1C        C  339   4.520   3.356   2.414
    1C        C  340   4.519   3.569   2.532
    1C        C  341   4.524   3.498   2.654
    1C        C  342   4.499   3.709   2.774
    1C        C  343   4.521   3.570   2.776
    1C        C  344   4.485   3.780   2.895
    1C        C  345   4.500   3.713   3.019
    1C        C  346   4.421   3.913   3.137
    1C        C  347   4.474   3.782   3.140
    1C        C  348   4.393   3.980   3.258
    1C        C  349   4.427   3.920   3.381
    1C        C  350   4.317   4.100   3.503
    1C        C  351   4.400   3.985   3.503
    1C        C  352   4.271   4.156   3.624
    1C        C  353   4.316   4.102   3.747
    1C        C  354   4.174   4.261   3.865
    1C        C  355   4.272   4.160   3.868
    1C        C  356   4.117   4.308   3.985
    1C        C  357   4.173   4.266   4.108
    1C        C  358   4.010   4.400   4.229
    1C        C  359   4.127   4.321   4.230
    1C        C  360   3.952   4.442   4.350
    1C        C  361   4.017   4.414   4.472
    1C        C  362   3.824   4.508   4.590
    1C        C  363   3.956   4.458   4.591
    1C        C  364   3.759   4.543   4.710
    1C        C  365   3.837   4.537   4.827
    1C        C  366   3.627   4.585   4.947
    1C        C  367   3.764   4.563   4.944
    1C        C  368   4.511   3.560   2.049
    1C        C  369   4.527   3.488   2.168
    1C        C  370   4.500   3.704   2.285
    1C        C  371   4.522   3.564   2.287
    1C        C  372   4.486   3.776   2.405
    1C        C  373   4.504   3.710   2.528
    1C        C  374   4.426   3.907   2.651
    1C        C  375   4.480   3.776   2.651
    1C        C  376   4.392   3.972   2.772
    1C        C  377   4.429   3.909   2.894
    1C        C  378   4.313   4.091   3.013
    1C        C  379   4.393   3.975   3.013
    1C        C  380   4.269   4.150   3.134
    1C        C  381   4.314   4.098   3.257
    1C        C  382   4.170   4.251   3.377
    1C        C  383   4.270   4.151   3.380
    1C        C  384   4.118   4.301   3.498
    1C        C  385   4.171   4.256   3.621
    1C        C  386   4.001   4.385   3.742
    1C        C  387   4.118   4.306   3.743
    1C        C  388   3.941   4.426   3.863
    1C        C  389   4.001   4.389   3.985
    1C        C  390   3.814   4.485   4.105
    1C        C  391   3.943   4.428   4.108
    1C        C  392   3.749   4.509   4.228
    1C        C  393   3.821   4.496   4.349
    1C        C  394   3.614   4.551   4.474
    1C        C  395   3.754   4.528   4.469
    1C        C  396   3.542   4.562   4.595
    1C        C  397   3.620   4.566   4.712
    1C        C  398   3.407   4.552   4.840
    1C        C  399   3.546   4.572   4.833
    1C        C  400   3.340   4.512   4.956
    1C        C  401   4.507   3.699   2.049
    1C        C  402   4.447   3.911   2.163
    1C        C  403   4.493   3.777   2.164
    1C        C  404   4.409   3.971   2.285
    1C        C  405   4.432   3.907   2.409
    1C        C  406   4.320   4.090   2.524
    1C        C  407   4.396   3.971   2.529
    1C        C  408   4.277   4.147   2.646
    1C        C  409   4.317   4.091   2.769
    1C        C  410   4.173   4.249   2.888
    1C        C  411   4.272   4.148   2.890
    1C        C  412   4.118   4.295   3.009
    1C        C  413   4.171   4.252   3.133
    1C        C  414   3.997   4.371   3.253
    1C        C  415   4.118   4.299   3.255
    1C        C  416   3.936   4.410   3.374
    1C        C  417   3.999   4.378   3.497
    1C        C  418   3.810   4.473   3.616
    1C        C  419   3.939   4.416   3.619
    1C        C  420   3.742   4.494   3.738
    1C        C  421   3.811   4.481   3.861
    1C        C  422   3.608   4.536   3.985
    1C        C  423   3.746   4.508   3.983
    1C        C  424   3.540   4.540   4.108
    1C        C  425   3.610   4.534   4.231
    1C        C  426   3.399   4.546   4.356
    1C        C  427   3.541   4.546   4.354
    1C        C  428   3.328   4.544   4.478
    1C        C  429   3.401   4.555   4.598
    1C        C  430   3.191   4.522   4.720
    1C        C  431   3.331   4.548   4.721
    1C        C  432   3.122   4.495   4.842
    1C        C  433   3.204   4.482   4.955
    1C        C  434   4.385   4.129   2.054
    1C        C  435   4.434   3.998   2.054
    1C        C  436   4.303   4.164   2.167
    1C        C  437   4.333   4.091   2.285
    1C        C  438   4.180   4.250   2.403
    1C        C  439   4.277   4.147   2.402
    1C        C  440   4.123   4.298   2.524
    1C        C  441   4.180   4.250   2.644
    1C        C  442   4.003   4.372   2.765
    1C        C  443   4.122   4.295   2.764
    1C        C  444   3.938   4.407   2.886
    1C        C  445   3.999   4.370   3.008
    1C        C  446   3.807   4.462   3.128
    1C        C  447   3.936   4.405   3.130
    1C        C  448   3.742   4.489   3.251
    1C        C  449   3.809   4.471   3.374
    1C        C  450   3.603   4.527   3.495
    1C        C  451   3.741   4.498   3.495
    1C        C  452   3.534   4.536   3.618
    1C        C  453   3.604   4.528   3.740
    1C        C  454   3.397   4.553   3.864
    1C        C  455   3.538   4.548   3.863
    1C        C  456   3.328   4.539   3.987
    1C        C  457   3.398   4.544   4.110
    1C        C  458   3.194   4.501   4.237
    1C        C  459   3.330   4.539   4.233
    1C        C  460   3.124   4.482   4.358
    1C        C  461   3.190   4.513   4.479
    1C        C  462   2.994   4.435   4.602
    1C        C  463   3.120   4.500   4.601
    1C        C  464   2.927   4.401   4.722
    1C        C  465   2.987   4.447   4.842
    1C        C  466   2.801   4.336   4.961
    1C        C  467   2.907   4.427   4.959
    1C        C  468   4.119   4.284   2.044
    1C        C  469   4.186   4.246   2.162
    1C        C  470   4.005   4.370   2.281
    1C        C  471   4.127   4.297   2.281
    1C        C  472   3.940   4.404   2.401
    1C        C  473   4.002   4.371   2.524
    1C        C  474   3.812   4.469   2.641
    1C        C  475   3.939   4.409   2.644
    1C        C  476   3.745   4.491   2.764
    1C        C  477   3.809   4.464   2.886
    1C        C  478   3.601   4.517   3.007
    1C        C  479   3.738   4.486   3.007
    1C        C  480   3.530   4.525   3.129
    1C        C  481   3.603   4.516   3.249
    1C        C  482   3.393   4.541   3.376
    1C        C  483   3.534   4.535   3.371
    1C        C  484   3.321   4.537   3.497
    1C        C  485   3.393   4.543   3.619
    1C        C  486   3.188   4.506   3.745
    1C        C  487   3.326   4.539   3.743
    1C        C  488   3.126   4.481   3.869
    1C        C  489   3.191   4.506   3.992
    1C        C  490   3.002   4.413   4.116
    1C        C  491   3.127   4.479   4.115
    1C        C  492   2.939   4.380   4.238
    1C        C  493   2.997   4.420   4.360
    1C        C  494   2.824   4.301   4.484
    1C        C  495   2.936   4.387   4.483
    1C        C  496   2.771   4.251   4.605
    1C        C  497   2.816   4.312   4.724
    1C        C  498   2.667   4.162   4.846
    1C        C  499   2.753   4.274   4.844
    1C        C  500   2.593   4.113   4.954
    1C        C  501   4.005   4.363   2.041
    1C        C  502   3.816   4.467   2.155
    1C        C  503   3.942   4.404   2.160
    1C        C  504   3.746   4.489   2.276
    1C        C  505   3.811   4.462   2.398
    1C        C  506   3.603   4.510   2.518
    1C        C  507   3.741   4.481   2.520
    1C        C  508   3.535   4.518   2.641
    1C        C  509   3.606   4.517   2.763
    1C        C  510   3.391   4.528   2.885
    1C        C  511   3.532   4.526   2.884
    1C        C  512   3.320   4.528   3.007
    1C        C  513   3.389   4.536   3.130
    1C        C  514   3.185   4.498   3.254
    1C        C  515   3.322   4.530   3.254
    1C        C  516   3.119   4.472   3.376
    1C        C  517   3.185   4.499   3.498
    1C        C  518   2.999   4.411   3.625
    1C        C  519   3.121   4.482   3.623
    1C        C  520   2.942   4.372   3.748
    1C        C  521   3.003   4.411   3.869
    1C        C  522   2.835   4.285   3.994
    1C        C  523   2.947   4.371   3.993
    1C        C  524   2.786   4.236   4.117
    1C        C  525   2.833   4.286   4.241
    1C        C  526   2.693   4.131   4.364
    1C        C  527   2.776   4.245   4.363
    1C        C  528   2.647   4.075   4.485
    1C        C  529   2.681   4.142   4.605
    1C        C  530   2.585   3.957   4.731
    1C        C  531   2.641   4.088   4.729
    1C        C  532   2.539   3.899   4.852
    1C        C  533   2.524   3.991   4.961
    1C        C  534   3.616   4.559   2.038
    1C        C  535   3.747   4.509   2.041
    1C        C  536   3.535   4.539   2.154
    1C        C  537   3.605   4.510   2.275
    1C        C  538   3.392   4.516   2.397
    1C        C  539   3.533   4.519   2.396
    1C        C  540   3.323   4.508   2.520
    1C        C  541   3.394   4.520   2.642
    1C        C  542   3.183   4.488   2.763
    1C        C  543   3.321   4.521   2.763
    1C        C  544   3.120   4.463   2.886
    1C        C  545   3.184   4.489   3.009
    1C        C  546   2.993   4.403   3.133
    1C        C  547   3.117   4.470   3.133
    1C        C  548   2.937   4.362   3.256
    1C        C  549   2.993   4.408   3.378
    1C        C  550   2.833   4.279   3.505
    1C        C  551   2.937   4.375   3.503
    1C        C  552   2.787   4.225   3.627
    1C        C  553   2.834   4.281   3.748
    1C        C  554   2.704   4.118   3.874
    1C        C  555   2.787   4.233   3.872
    1C        C  556   2.663   4.061   3.997
    1C        C  557   2.702   4.123   4.118
    1C        C  558   2.604   3.939   4.245
    1C        C  559   2.662   4.068   4.242
    1C        C  560   2.574   3.876   4.368
    1C        C  561   2.592   3.945   4.489
    1C        C  562   2.533   3.744   4.612
    1C        C  563   2.569   3.881   4.613
    1C        C  564   2.519   3.678   4.736
    1C        C  565   2.520   3.757   4.854
    1C        C  566   2.529   3.541   4.979
    1C        C  567   2.524   3.679   4.970
    1C        C  568   3.325   4.480   2.040
    1C        C  569   3.395   4.518   2.155
    1C        C  570   3.183   4.473   2.279
    1C        C  571   3.320   4.514   2.276
    1C        C  572   3.116   4.453   2.401
    1C        C  573   3.184   4.481   2.521
    1C        C  574   2.987   4.400   2.646
    1C        C  575   3.113   4.462   2.642
    1C        C  576   2.928   4.365   2.769
    1C        C  577   2.991   4.403   2.889
    1C        C  578   2.822   4.277   3.014
    1C        C  579   2.932   4.365   3.012
    1C        C  580   2.778   4.222   3.136
    1C        C  581   2.829   4.271   3.259
    1C        C  582   2.699   4.112   3.382
    1C        C  583   2.784   4.224   3.384
    1C        C  584   2.662   4.054   3.505
    1C        C  585   2.704   4.111   3.628
    1C        C  586   2.605   3.929   3.754
    1C        C  587   2.668   4.056   3.753
    1C        C  588   2.577   3.867   3.878
    1C        C  589   2.606   3.932   4.000
    1C        C  590   2.533   3.736   4.127
    1C        C  591   2.581   3.869   4.124
    1C        C  592   2.522   3.667   4.250
    1C        C  593   2.533   3.741   4.370
    1C        C  594   2.509   3.530   4.496
    1C        C  595   2.518   3.671   4.492
    1C        C  596   2.515   3.462   4.620
    1C        C  597   2.516   3.536   4.740
    1C        C  598   2.528   3.324   4.861
    1C        C  599   2.524   3.465   4.862
    1C        C  600   2.529   3.246   4.977
    1C        C  601   3.194   4.439   2.042
    1C        C  602   2.979   4.399   2.159
    1C        C  603   3.116   4.437   2.159
    1C        C  604   2.924   4.356   2.283
    1C        C  605   2.988   4.391   2.403
    1C        C  606   2.815   4.272   2.527
    1C        C  607   2.923   4.363   2.525
    1C        C  608   2.768   4.220   2.650
    1C        C  609   2.819   4.275   2.770
    1C        C  610   2.691   4.108   2.894
    1C        C  611   2.771   4.225   2.893
    1C        C  612   2.659   4.046   3.017
    1C        C  613   2.694   4.108   3.139
    1C        C  614   2.597   3.922   3.263
    1C        C  615   2.656   4.051   3.262
    1C        C  616   2.571   3.862   3.388
    1C        C  617   2.601   3.927   3.510
    1C        C  618   2.535   3.727   3.638
    1C        C  619   2.575   3.863   3.633
    1C        C  620   2.520   3.661   3.762
    1C        C  621   2.535   3.732   3.883
    1C        C  622   2.509   3.524   4.006
    1C        C  623   2.519   3.665   4.006
    1C        C  624   2.512   3.454   4.129
    1C        C  625   2.510   3.526   4.250
    1C        C  626   2.531   3.319   4.376
    1C        C  627   2.508   3.459   4.374
    1C        C  628   2.553   3.253   4.499
    1C        C  629   2.534   3.322   4.621
    1C        C  630   2.592   3.115   4.743
    1C        C  631   2.551   3.252   4.742
    1C        C  632   2.616   3.047   4.866
    1C        C  633   2.564   3.111   4.983
    1C        C  634   2.778   4.301   2.052
    1C        C  635   2.889   4.387   2.048
    1C        C  636   2.750   4.226   2.166
    1C        C  637   2.809   4.272   2.286
    1C        C  638   2.672   4.110   2.408
    1C        C  639   2.758   4.222   2.408
    1C        C  640   2.638   4.048   2.530
    1C        C  641   2.683   4.107   2.650
    1C        C  642   2.590   3.919   2.775
    1C        C  643   2.650   4.047   2.774
    1C        C  644   2.567   3.853   2.898
    1C        C  645   2.596   3.920   3.019
    1C        C  646   2.532   3.719   3.147
    1C        C  647   2.576   3.853   3.142
    1C        C  648   2.518   3.652   3.271
    1C        C  649   2.532   3.726   3.390
    1C        C  650   2.514   3.518   3.516
    1C        C  651   2.522   3.659   3.515
    1C        C  652   2.523   3.449   3.639
    1C        C  653   2.518   3.520   3.761
    1C        C  654   2.531   3.312   3.887
    1C        C  655   2.513   3.452   3.885
    1C        C  656   2.552   3.246   4.010
    1C        C  657   2.537   3.315   4.133
    1C        C  658   2.601   3.116   4.257
    1C        C  659   2.548   3.246   4.256
    1C        C  660   2.634   3.056   4.380
    1C        C  661   2.602   3.121   4.501
    1C        C  662   2.705   2.934   4.625
    1C        C  663   2.629   3.053   4.622
    1C        C  664   2.749   2.876   4.746
    1C        C  665   2.696   2.929   4.867
    1C        C  666   2.740   2.863   4.983
    1C        C  667   2.681   4.019   2.050
    1C        C  668   2.683   4.102   2.164
    1C        C  669   2.589   3.913   2.291
    1C        C  670   2.642   4.045   2.287
    1C        C  671   2.559   3.846   2.412
    1C        C  672   2.581   3.918   2.531
    1C        C  673   2.525   3.716   2.658
    1C        C  674   2.556   3.854   2.654
    1C        C  675   2.517   3.646   2.780
    1C        C  676   2.534   3.716   2.902
    1C        C  677   2.505   3.509   3.027
    1C        C  678   2.518   3.649   3.025
    1C        C  679   2.509   3.438   3.150
    1C        C  680   2.508   3.511   3.271
    1C        C  681   2.525   3.304   3.398
    1C        C  682   2.512   3.444   3.395
    1C        C  683   2.544   3.238   3.521
    1C        C  684   2.534   3.309   3.643
    1C        C  685   2.599   3.108   3.767
    1C        C  686   2.550   3.241   3.766
    1C        C  687   2.630   3.048   3.891
    1C        C  688   2.599   3.113   4.013
    1C        C  689   2.712   2.934   4.138
    1C        C  690   2.631   3.050   4.135
    1C        C  691   2.756   2.881   4.261
    1C        C  692   2.709   2.936   4.383
    1C        C  693   2.747   2.874   4.504
    1C        C  694   2.629   3.889   2.053
    1C        C  695   2.527   3.706   2.174
    1C        C  696   2.581   3.836   2.173
    1C        C  697   2.509   3.636   2.296
    1C        C  698   2.526   3.709   2.415
    1C        C  699   2.492   3.502   2.540
    1C        C  700   2.506   3.643   2.539
    1C        C  701   2.495   3.433   2.663
    1C        C  702   2.500   3.506   2.784
    1C        C  703   2.523   3.296   2.908
    1C        C  704   2.502   3.435   2.907
    1C        C  705   2.541   3.228   3.031
    1C        C  706   2.530   3.298   3.153
    1C        C  707   2.590   3.099   3.278
    1C        C  708   2.539   3.231   3.277
    1C        C  709   2.629   3.042   3.401
    1C        C  710   2.600   3.108   3.523
    1C        C  711   2.705   2.925   3.647
    1C        C  712   2.629   3.044   3.645
    1C        C  713   2.751   2.874   3.770
    1C        C  714   2.710   2.932   3.893
    1C        C  715   2.751   2.876   4.016
    1C        C  716   2.446   3.501   2.063
    1C        C  717   2.485   3.635   2.061
    1C        C  718   2.465   3.420   2.180
    1C        C  719   2.482   3.496   2.299
    1C        C  720   2.513   3.288   2.420
    1C        C  721   2.485   3.426   2.421
    1C        C  722   2.536   3.223   2.543
    1C        C  723   2.523   3.294   2.665
    1C        C  724   2.593   3.095   2.787
    1C        C  725   2.540   3.225   2.787
    1C        C  726   2.622   3.032   2.910
    1C        C  727   2.592   3.096   3.032
    1C        C  728   2.704   2.921   3.157
    1C        C  729   2.620   3.035   3.156
    1C        C  730   2.750   2.868   3.279
    1C        C  731   2.703   2.922   3.401
    1C        C  732   2.749   2.871   3.524
    1C        C  733   2.489   3.191   2.070
    1C        C  734   2.484   3.278   2.180
    1C        C  735   2.580   3.083   2.303
    1C        C  736   2.521   3.213   2.300
    1C        C  737   2.606   3.017   2.425
    1C        C  738   2.582   3.089   2.544
    1C        C  739   2.687   2.904   2.666
    1C        C  740   2.616   3.026   2.665
    1C        C  741   2.734   2.850   2.788
    1C        C  742   2.700   2.914   2.910
    1C        C  743   2.743   2.863   3.034
    1C        C  744   2.550   3.067   2.068
    1C        C  745   2.691   2.899   2.182
    1C        C  746   2.613   3.016   2.183
    1C        C  747   2.729   2.839   2.304
    1C        C  748   2.683   2.899   2.424
    1C        C  749   2.730   2.845   2.546
    1C        C  750   2.733   2.833   2.065
    1C        C  751   3.652   2.314   1.975
    1C        O  752   3.675   2.197   2.017
    1C        O  753   3.641   2.330   1.837
    1C        C  754   4.606   3.053   1.957
    1C        O  755   4.554   3.027   1.845
    1C        O  756   4.745   3.036   1.953
    1C        C  757   4.457   4.225   1.967
    1C        O  758   4.560   4.287   2.003
    1C        O  759   4.473   4.202   1.829
    1C        C  760   3.607   4.688   1.965
    1C        O  761   3.635   4.803   2.006
    1C        O  762   3.562   4.672   1.833
    1C        C  763   2.870   4.499   1.953
    1C        O  764   2.861   4.481   1.829
    1C        O  765   2.823   4.626   1.989
    1C        C  766   2.339   3.465   1.967
    1C        O  767   2.352   3.477   1.842
    1C        O  768   2.204   3.485   1.999
    1C        C  769   4.694   3.586   5.059
    1C        O  770   4.657   3.575   5.179
    1C        O  771   4.833   3.593   5.046
    1C        C  772   4.270   4.452   5.039
    1C        O  773   4.268   4.420   5.161
    1C        O  774   4.354   4.563   5.023
    1C        C  775   4.142   2.519   5.071
    1C        O  776   4.198   2.408   5.052
    1C        O  777   4.152   2.565   5.203
    1C        C  778   2.903   4.533   5.063
    1C        O  779   2.862   4.650   5.041
    1C        O  780   2.904   4.496   5.198
    1C        C  781   2.476   3.037   5.076
    1C        O  782   2.362   2.992   5.048
    1C        O  783   2.516   3.011   5.207
    1C        C  784   2.394   4.003   5.030
    1C        O  785   2.287   4.045   4.977
    1C        O  786   2.372   3.936   5.151
    1C        C  787   2.949   2.428   1.998
    1C        O  788   2.963   2.435   1.873
    1C        O  789   2.894   2.306   2.034
    1C        C  790   3.202   2.396   5.085
    1C        O  791   3.148   2.282   5.083
    1C        O  792   3.210   2.445   5.216
    1C        H  793   4.272   3.029   5.050
    1C        H  794   4.211   2.798   5.077
    1C        H  795   4.483   3.129   5.061
    1C        H  796   4.458   3.372   5.050
    1C        H  797   4.548   3.805   5.050
    1C        H  798   4.398   3.962   5.053
    1C        H  799   4.288   4.168   5.055
    1C        H  800   4.050   4.556   5.010
    1C        H  801   3.819   4.587   5.032
    1C        H  802   3.591   4.660   5.015
    1C        H  803   3.401   4.461   5.027
    1C        H  804   3.162   4.459   5.051
    1C        H  805   3.900   2.470   5.059
    1C        H  806   3.679   2.478   5.075
    1C        H  807   3.008   2.577   5.068
    1C        H  808   3.438   2.454   5.070
    1C        H  809   2.866   2.723   5.077
    1C        H  810   2.683   2.871   5.074
    1C        H  811   2.521   3.299   5.070
    1C        H  812   2.581   3.497   5.062
    1C        H  813   2.485   3.720   5.061
    1C        H  814   2.604   4.162   5.049
    1C        H  815   2.791   4.282   5.053
    1C        H  816   2.671   2.840   1.978
    1C        H  817   2.817   2.665   1.983
    1C        H  818   3.217   2.433   1.989
    1C        H  819   3.425   2.450   1.978
    1C        H  820   3.880   2.472   1.983
    1C        H  821   4.070   2.606   1.972
    1C        H  822   4.268   2.704   1.982
    1C        H  823   4.343   2.944   1.975
    1C        H  824   4.599   3.308   1.970
    1C        H  825   4.447   3.509   1.981
    1C        H  826   4.510   3.749   1.954
    1C        H  827   3.803   4.512   1.950
    1C        H  828   3.948   4.353   1.951
    1C        H  829   4.139   4.233   1.952
    1C        H  830   4.470   3.967   1.959
    1C        H  831   2.675   3.826   1.980
    1C        H  832   2.754   4.036   1.974
    1C        H  833   2.707   4.304   1.971
    1C        H  834   3.384   4.442   1.959
    1C        H  835   3.148   4.416   1.948
    1C        H  836   2.489   2.991   2.024
    1C        H  837   2.429   3.222   1.987
    1C        H  838   2.468   3.689   1.970
    2V3OU   H29  839   2.799   3.543   1.966
    2V3OU   C27  840   2.781   3.497   2.066
    2V3OU   H27  841   2.722   3.565   2.132
    2V3OU   H28  842   2.725   3.401   2.054
    2V3OU   O11  843   2.909   3.476   2.127
    2V3OU   C15  844   2.922   3.395   2.238
    2V3OU   C13  845   3.052   3.372   2.288
    2V3OU   C14  846   3.080   3.268   2.378
    2V3OU   C16  847   2.976   3.186   2.421
    2V3OU    H6  848   2.992   3.102   2.490
    2V3OU   C12  849   3.216   3.219   2.410
    2V3OU    O2  850   3.231   3.122   2.488
    2V3OU   C10  851   3.326   3.307   2.370
    2V3OU    C8  852   3.456   3.262   2.393
    2V3OU   O10  853   3.490   3.152   2.466
    2V3OU   H26  854   3.401   3.118   2.485
    2V3OU    C6  855   3.564   3.343   2.345
    2V3OU    C5  856   3.539   3.462   2.277
    2V3OU    C4  857   3.705   3.294   2.350
    2V3OU    H4  858   3.726   3.224   2.435
    2V3OU    H5  859   3.715   3.228   2.259
    2V3OU    C2  860   3.817   3.398   2.344
    2V3OU    O6  861   3.806   3.475   2.464
    2V3OU   H21  862   3.758   3.555   2.438
    2V3OU    C3  863   3.784   3.496   2.231
    2V3OU    H2  864   3.864   3.574   2.227
    2V3OU    H3  865   3.784   3.435   2.137
    2V3OU   C25  866   3.952   3.329   2.323
    2V3OU    O7  867   3.998   3.296   2.214
    2V3OU   C26  868   4.028   3.290   2.449
    2V3OU   H22  869   4.058   3.385   2.500
    2V3OU   H23  870   4.118   3.229   2.421
    2V3OU    O8  871   3.957   3.214   2.543
    2V3OU   H24  872   3.924   3.277   2.610
    2V3OU    C1  873   3.648   3.561   2.251
    2V3OU    H1  874   3.622   3.615   2.155
    2V3OU    O3  875   3.657   3.653   2.360
    2V3OU   C19  876   3.617   3.790   2.351
    2V3OU    H9  877   3.515   3.804   2.304
    2V3OU    O4  878   3.714   3.845   2.264
    2V3OU   C20  879   3.843   3.875   2.318
    2V3OU   H10  880   3.896   3.776   2.335
    2V3OU   C24  881   3.609   3.857   2.488
    2V3OU   H16  882   3.548   3.792   2.555
    2V3OU   H17  883   3.559   3.957   2.483
    2V3OU   C23  884   3.747   3.874   2.551
    2V3OU   H15  885   3.790   3.773   2.582
    2V3OU    N1  886   3.734   3.953   2.672
    2V3OU   H19  887   3.810   3.932   2.734
    2V3OU   H20  888   3.645   3.925   2.707
    2V3OU   C21  889   3.844   3.947   2.453
    2V3OU   H11  890   3.946   3.929   2.496
    2V3OU    O5  891   3.826   4.088   2.444
    2V3OU   H18  892   3.775   4.106   2.524
    2V3OU   C22  893   3.912   3.952   2.207
    2V3OU   H12  894   3.859   4.050   2.192
    2V3OU   H13  895   3.910   3.894   2.112
    2V3OU   H14  896   4.021   3.961   2.232
    2V3OU   C11  897   3.159   3.470   2.267
    2V3OU    O1  898   3.129   3.585   2.226
    2V3OU    C9  899   3.297   3.426   2.298
    2V3OU    C7  900   3.404   3.499   2.248
    2V3OU    O9  901   3.385   3.616   2.177
    2V3OU   H25  902   3.289   3.629   2.171
    2V3OU   C17  903   2.820   3.310   2.284
    2V3OU    H7  904   2.721   3.348   2.258
    2V3OU   C18  905   2.848   3.205   2.371
    2V3OU    H8  906   2.775   3.164   2.442
    3SOL     OW  907   2.953   3.984   0.568
    3SOL    HW1  908   2.939   3.924   0.488
    3SOL    HW2  909   2.944   4.079   0.540
    4SOL     OW  910   6.271   5.723   1.780
    4SOL    HW1  911   6.350   5.662   1.783
    4SOL    HW2  912   6.262   5.762   1.688
    5SOL     OW  913   3.740   1.393   2.790
    5SOL    HW1  914   3.791   1.454   2.728
    5SOL    HW2  915   3.785   1.391   2.879
    6SOL     OW  916   4.549   1.414   1.665
    6SOL    HW1  917   4.477   1.345   1.666
    6SOL    HW2  918   4.510   1.504   1.646
    7SOL     OW  919   6.374   3.447   2.581
    7SOL    HW1  920   6.417   3.364   2.617
    7SOL    HW2  921   6.421   3.527   2.618
    8SOL     OW  922   2.967   0.330   5.594
    8SOL    HW1  923   2.990   0.239   5.627
    8SOL    HW2  924   3.048   0.389   5.599
    9SOL     OW  925   6.650   5.565   5.612
    9SOL    HW1  926   6.572   5.626   5.622
    9SOL    HW2  927   6.735   5.614   5.632
   10SOL     OW  928   0.765   4.592   5.957
   10SOL    HW1  929   0.739   4.661   5.890
   10SOL    HW2  930   0.717   4.610   6.043
   11SOL     OW  931   3.084   0.186   0.063
   11SOL    HW1  932   3.103   0.113   7.018
   11SOL    HW2  933   3.086   0.274   0.017
   12SOL     OW  934   4.304   6.208   4.098
   12SOL    HW1  935   4.248   6.130   4.126
   12SOL    HW2  936   4.251   6.292   4.107
   13SOL     OW  937   3.121   5.443   4.003
   13SOL    HW1  938   3.023   5.464   3.993
   13SOL    HW2  939   3.139   5.417   4.098
   14SOL     OW  940   5.084   5.671   6.329
   14SOL    HW1  941   5.053   5.710   6.416
   14SOL    HW2  942   5.015   5.606   6.296
   15SOL     OW  943   0.866   5.580   0.584
   15SOL    HW1  944   0.818   5.661   0.618
   15SOL    HW2  945   0.863   5.580   0.484
   16SOL     OW  946   5.586   2.855   5.569
   16SOL    HW1  947   5.541   2.924   5.512
   16SOL    HW2  948   5.630   2.787   5.511
   17SOL     OW  949   5.102   6.082   5.380
   17SOL    HW1  950   5.139   6.139   5.452
   17SOL    HW2  951   5.161   6.086   5.299
   18SOL     OW  952   2.773   0.970   6.337
   18SOL    HW1  953   2.861   0.965   6.384
   18SOL    HW2  954   2.788   0.970   6.238
   19SOL     OW  955   0.138   7.016   3.163
   19SOL    HW1  956   0.046   0.006   3.202
   19SOL    HW2  957   0.180   6.933   3.201
   20SOL     OW  958   4.812   1.883   4.371
   20SOL    HW1  959   4.850   1.803   4.417
   20SOL    HW2  960   4.885   1.933   4.325
   21SOL     OW  961   2.993   2.199   2.635
   21SOL    HW1  962   2.959   2.225   2.544
   21SOL    HW2  963   2.935   2.241   2.705
   22SOL     OW  964   2.628   6.882   0.606
   22SOL    HW1  965   2.579   6.840   0.682
   22SOL    HW2  966   2.725   6.856   0.609
   23SOL     OW  967   4.653   6.835   3.771
   23SOL    HW1  968   4.587   6.910   3.760
   23SOL    HW2  969   4.694   6.815   3.682
   24SOL     OW  970   5.086   1.186   2.634
   24SOL    HW1  971   5.098   1.251   2.709
   24SOL    HW2  972   5.170   1.183   2.579
   25SOL     OW  973   3.528   6.489   5.859
   25SOL    HW1  974   3.515   6.455   5.952
   25SOL    HW2  975   3.509   6.587   5.856
   26SOL     OW  976   6.209   1.066   0.589
   26SOL    HW1  977   6.266   1.111   0.521
   26SOL    HW2  978   6.149   1.134   0.632
   27SOL     OW  979   0.537   1.557   1.413
   27SOL    HW1  980   0.580   1.622   1.476
   27SOL    HW2  981   0.438   1.556   1.429
   28SOL     OW  982   3.877   1.643   0.171
   28SOL    HW1  983   3.852   1.672   0.264
   28SOL    HW2  984   3.823   1.563   0.146
   29SOL     OW  985   5.499   3.029   2.196
   29SOL    HW1  986   5.439   2.993   2.125
   29SOL    HW2  987   5.593   3.002   2.178
   30SOL     OW  988   3.531   0.483   5.272
   30SOL    HW1  989   3.449   0.427   5.282
   30SOL    HW2  990   3.515   0.574   5.309
   31SOL     OW  991   0.662   1.834   5.838
   31SOL    HW1  992   0.597   1.827   5.763
   31SOL    HW2  993   0.657   1.926   5.879
   32SOL     OW  994   6.970   1.667   2.976
   32SOL    HW1  995   6.986   1.763   2.952
   32SOL    HW2  996   0.022   1.637   3.038
   33SOL     OW  997   2.652   3.635   7.016
   33SOL    HW1  998   2.740   3.636   6.967
   33SOL    HW2  999   2.579   3.665   6.954
   34SOL     OW 1000   2.232   1.658   3.365
   34SOL    HW1 1001   2.222   1.749   3.325
   34SOL    HW2 1002   2.287   1.665   3.448
   35SOL     OW 1003   3.158   2.541   0.084
   35SOL    HW1 1004   3.214   2.606   0.135
   35SOL    HW2 1005   3.066   2.539   0.122
   36SOL     OW 1006   0.061   0.788   6.140
   36SOL    HW1 1007   0.080   0.698   6.180
   36SOL    HW2 1008   6.990   0.818   6.167
   37SOL     OW 1009   1.319   6.924   0.504
   37SOL    HW1 1010   1.225   6.911   0.536
   37SOL    HW2 1011   1.353   7.012   0.537
   38SOL     OW 1012   0.101   4.450   2.318
   38SOL    HW1 1013   0.051   4.436   2.233
   38SOL    HW2 1014   0.130   4.546   2.324
   39SOL     OW 1015   6.680   4.958   6.353
   39SOL    HW1 1016   6.621   5.015   6.410
   39SOL    HW2 1017   6.640   4.948   6.262
   40SOL     OW 1018   5.776   2.555   1.386
   40SOL    HW1 1019   5.812   2.463   1.372
   40SOL    HW2 1020   5.837   2.605   1.448
   41SOL     OW 1021   0.160   6.816   4.172
   41SOL    HW1 1022   0.084   6.763   4.210
   41SOL    HW2 1023   0.230   6.829   4.242
   42SOL     OW 1024   2.231   5.632   5.693
   42SOL    HW1 1025   2.296   5.586   5.753
   42SOL    HW2 1026   2.159   5.567   5.667
   43SOL     OW 1027   5.501   6.567   5.075
   43SOL    HW1 1028   5.523   6.651   5.124
   43SOL    HW2 1029   5.449   6.588   4.993
   44SOL     OW 1030   5.776   1.992   6.116
   44SOL    HW1 1031   5.793   2.050   6.196
   44SOL    HW2 1032   5.863   1.972   6.070
   45SOL     OW 1033   3.627   6.529   2.945
   45SOL    HW1 1034   3.663   6.445   2.986
   45SOL    HW2 1035   3.639   6.605   3.008
   46SOL     OW 1036   1.334   3.610   3.638
   46SOL    HW1 1037   1.272   3.531   3.636
   46SOL    HW2 1038   1.315   3.665   3.719
   47SOL     OW 1039   4.791   4.537   1.523
   47SOL    HW1 1040   4.824   4.523   1.429
   47SOL    HW2 1041   4.740   4.456   1.552
   48SOL     OW 1042   6.813   3.040   6.239
   48SOL    HW1 1043   6.855   2.998   6.320
   48SOL    HW2 1044   6.747   2.977   6.199
   49SOL     OW 1045   4.667   4.047   1.666
   49SOL    HW1 1046   4.614   4.108   1.726
   49SOL    HW2 1047   4.645   4.067   1.571
   50SOL     OW 1048   6.965   2.660   5.790
   50SOL    HW1 1049   6.947   2.573   5.743
   50SOL    HW2 1050   6.881   2.692   5.834
   51SOL     OW 1051   2.671   6.302   2.362
   51SOL    HW1 1052   2.681   6.268   2.455
   51SOL    HW2 1053   2.757   6.288   2.312
   52SOL     OW 1054   5.227   2.810   3.420
   52SOL    HW1 1055   5.138   2.767   3.413
   52SOL    HW2 1056   5.298   2.740   3.429
   53SOL     OW 1057   4.005   0.147   4.770
   53SOL    HW1 1058   4.007   0.204   4.688
   53SOL    HW2 1059   3.984   0.053   4.745
   54SOL     OW 1060   4.096   4.570   0.613
   54SOL    HW1 1061   4.185   4.557   0.569
   54SOL    HW2 1062   4.041   4.634   0.559
   55SOL     OW 1063   3.355   1.635   6.556
   55SOL    HW1 1064   3.305   1.619   6.470
   55SOL    HW2 1065   3.390   1.728   6.557
   56SOL     OW 1066   0.145   6.877   0.861
   56SOL    HW1 1067   0.224   6.859   0.920
   56SOL    HW2 1068   0.068   6.907   0.918
   57SOL     OW 1069   5.357   0.589   0.641
   57SOL    HW1 1070   5.276   0.590   0.699
   57SOL    HW2 1071   5.341   0.645   0.560
   58SOL     OW 1072   6.337   6.983   5.586
   58SOL    HW1 1073   6.270   0.002   5.648
   58SOL    HW2 1074   6.346   6.885   5.604
   59SOL     OW 1075   1.294   1.218   6.075
   59SOL    HW1 1076   1.387   1.191   6.054
   59SOL    HW2 1077   1.232   1.185   6.004
   60SOL     OW 1078   5.437   1.193   6.067
   60SOL    HW1 1079   5.470   1.212   6.159
   60SOL    HW2 1080   5.449   1.274   6.010
   61SOL     OW 1081   5.161   1.738   5.198
   61SOL    HW1 1082   5.205   1.799   5.264
   61SOL    HW2 1083   5.228   1.706   5.132
   62SOL     OW 1084   0.278   0.833   3.302
   62SOL    HW1 1085   0.280   0.873   3.210
   62SOL    HW2 1086   0.348   0.761   3.309
   63SOL     OW 1087   5.877   1.833   3.913
   63SOL    HW1 1088   5.844   1.760   3.854
   63SOL    HW2 1089   5.854   1.813   4.008
   64SOL     OW 1090   0.384   3.954   6.094
   64SOL    HW1 1091   0.358   3.906   6.010
   64SOL    HW2 1092   0.471   3.917   6.128
   65SOL     OW 1093   6.950   4.736   5.217
   65SOL    HW1 1094   6.962   4.826   5.259
   65SOL    HW2 1095   6.960   4.665   5.287
   66SOL     OW 1096   3.820   0.898   6.451
   66SOL    HW1 1097   3.793   0.923   6.358
   66SOL    HW2 1098   3.840   0.800   6.455
   67SOL     OW 1099   5.205   4.333   5.739
   67SOL    HW1 1100   5.281   4.367   5.686
   67SOL    HW2 1101   5.172   4.404   5.801
   68SOL     OW 1102   5.757   0.394   6.783
   68SOL    HW1 1103   5.664   0.430   6.792
   68SOL    HW2 1104   5.799   0.431   6.701
   69SOL     OW 1105   0.695   3.545   6.658
   69SOL    HW1 1106   0.660   3.544   6.565
   69SOL    HW2 1107   0.744   3.460   6.676
   70SOL     OW 1108   5.872   4.703   3.993
   70SOL    HW1 1109   5.861   4.802   4.001
   70SOL    HW2 1110   5.932   4.671   4.066
   71SOL     OW 1111   4.267   1.459   2.696
   71SOL    HW1 1112   4.215   1.449   2.611
   71SOL    HW2 1113   4.238   1.389   2.761
   72SOL     OW 1114   2.761   6.167   4.891
   72SOL    HW1 1115   2.829   6.098   4.866
   72SOL    HW2 1116   2.698   6.181   4.815
   73SOL     OW 1117   3.668   0.777   0.832
   73SOL    HW1 1118   3.741   0.745   0.892
   73SOL    HW2 1119   3.579   0.756   0.874
   74SOL     OW 1120   5.077   6.331   5.910
   74SOL    HW1 1121   5.048   6.236   5.906
   74SOL    HW2 1122   5.001   6.391   5.885
   75SOL     OW 1123   4.106   0.347   6.519
   75SOL    HW1 1124   4.026   0.289   6.533
   75SOL    HW2 1125   4.121   0.404   6.599
   76SOL     OW 1126   2.649   2.843   1.081
   76SOL    HW1 1127   2.599   2.843   0.995
   76SOL    HW2 1128   2.698   2.756   1.092
   77SOL     OW 1129   6.329   6.472   4.009
   77SOL    HW1 1130   6.291   6.553   4.053
   77SOL    HW2 1131   6.394   6.428   4.071
   78SOL     OW 1132   5.762   0.766   5.842
   78SOL    HW1 1133   5.706   0.841   5.878
   78SOL    HW2 1134   5.738   0.681   5.889
   79SOL     OW 1135   2.984   6.976   0.277
   79SOL    HW1 1136   2.995   0.024   0.205
   79SOL    HW2 1137   3.002   6.885   0.238
   80SOL     OW 1138   5.322   1.728   4.242
   80SOL    HW1 1139   5.321   1.803   4.309
   80SOL    HW2 1140   5.349   1.643   4.288
   81SOL     OW 1141   1.937   0.523   3.069
   81SOL    HW1 1142   2.035   0.536   3.057
   81SOL    HW2 1143   1.889   0.562   2.991
   82SOL     OW 1144   6.401   4.806   0.752
   82SOL    HW1 1145   6.450   4.797   0.839
   82SOL    HW2 1146   6.401   4.902   0.724
   83SOL     OW 1147   0.313   0.559   0.737
   83SOL    HW1 1148   0.332   0.490   0.667
   83SOL    HW2 1149   0.216   0.581   0.737
   84SOL     OW 1150   5.213   3.269   3.511
   84SOL    HW1 1151   5.268   3.188   3.529
   84SOL    HW2 1152   5.122   3.243   3.479
   85SOL     OW 1153   1.985   1.798   5.068
   85SOL    HW1 1154   1.893   1.832   5.086
   85SOL    HW2 1155   1.991   1.766   4.973
   86SOL     OW 1156   0.425   0.550   5.356
   86SOL    HW1 1157   0.350   0.570   5.293
   86SOL    HW2 1158   0.426   0.451   5.375
   87SOL     OW 1159   5.171   3.514   0.521
   87SOL    HW1 1160   5.125   3.511   0.609
   87SOL    HW2 1161   5.267   3.491   0.533
   88SOL     OW 1162   3.796   1.917   6.609
   88SOL    HW1 1163   3.853   1.993   6.579
   88SOL    HW2 1164   3.725   1.951   6.671
   89SOL     OW 1165   0.870   2.593   5.860
   89SOL    HW1 1166   0.946   2.556   5.913
   89SOL    HW2 1167   0.906   2.657   5.791
   90SOL     OW 1168   4.153   6.204   2.865
   90SOL    HW1 1169   4.219   6.171   2.797
   90SOL    HW2 1170   4.119   6.294   2.837
   91SOL     OW 1171   4.794   4.333   4.945
   91SOL    HW1 1172   4.771   4.278   5.025
   91SOL    HW2 1173   4.716   4.389   4.919
   92SOL     OW 1174   3.403   3.863   0.220
   92SOL    HW1 1175   3.490   3.821   0.245
   92SOL    HW2 1176   3.402   3.959   0.250
   93SOL     OW 1177   2.701   3.613   6.377
   93SOL    HW1 1178   2.637   3.588   6.305
   93SOL    HW2 1179   2.656   3.671   6.444
   94SOL     OW 1180   2.672   5.906   6.015
   94SOL    HW1 1181   2.579   5.941   6.011
   94SOL    HW2 1182   2.733   5.976   6.053
   95SOL     OW 1183   1.334   0.724   3.212
   95SOL    HW1 1184   1.367   0.630   3.217
   95SOL    HW2 1185   1.411   0.787   3.223
   96SOL     OW 1186   3.843   0.194   4.992
   96SOL    HW1 1187   3.882   0.140   4.917
   96SOL    HW2 1188   3.768   0.250   4.957
   97SOL     OW 1189   1.835   3.503   6.048
   97SOL    HW1 1190   1.756   3.465   6.000
   97SOL    HW2 1191   1.809   3.524   6.142
   98SOL     OW 1192   6.242   4.026   0.571
   98SOL    HW1 1193   6.231   4.124   0.588
   98SOL    HW2 1194   6.305   3.987   0.639
   99SOL     OW 1195   4.720   3.705   1.136
   99SOL    HW1 1196   4.684   3.613   1.120
   99SOL    HW2 1197   4.796   3.700   1.201
  100SOL     OW 1198   0.276   0.539   5.101
  100SOL    HW1 1199   0.370   0.514   5.076
  100SOL    HW2 1200   0.212   0.484   5.048
  101SOL     OW 1201   1.615   5.580   2.241
  101SOL    HW1 1202   1.636   5.678   2.241
  101SOL    HW2 1203   1.604   5.548   2.335
  102SOL     OW 1204   4.616   0.095   2.531
  102SOL    HW1 1205   4.603   0.139   2.620
  102SOL    HW2 1206   4.564   0.009   2.529
  103SOL     OW 1207   3.256   1.273   2.236
  103SOL    HW1 1208   3.288   1.303   2.326
  103SOL    HW2 1209   3.158   1.294   2.226
  104SOL     OW 1210   0.401   5.176   2.480
  104SOL    HW1 1211   0.364   5.268   2.469
  104SOL    HW2 1212   0.353   5.129   2.554
  105SOL     OW 1213   7.005   2.874   6.734
  105SOL    HW1 1214   6.919   2.840   6.772
  105SOL    HW2 1215   0.051   2.884   6.807
  106SOL     OW 1216   3.986   6.103   4.627
  106SOL    HW1 1217   3.988   6.167   4.549
  106SOL    HW2 1218   4.071   6.112   4.679
  107SOL     OW 1219   1.891   1.350   1.998
  107SOL    HW1 1220   1.989   1.350   2.018
  107SOL    HW2 1221   1.871   1.283   1.927
  108SOL     OW 1222   3.783   5.059   5.562
  108SOL    HW1 1223   3.736   4.981   5.521
  108SOL    HW2 1224   3.738   5.144   5.535
  109SOL     OW 1225   6.959   0.587   1.341
  109SOL    HW1 1226   6.992   0.681   1.346
  109SOL    HW2 1227   6.931   0.556   1.432
  110SOL     OW 1228   3.484   5.921   5.494
  110SOL    HW1 1229   3.541   5.976   5.554
  110SOL    HW2 1230   3.401   5.973   5.471
  111SOL     OW 1231   3.207   0.933   4.506
  111SOL    HW1 1232   3.161   0.914   4.419
  111SOL    HW2 1233   3.213   0.849   4.559
  112SOL     OW 1234   5.238   6.903   5.668
  112SOL    HW1 1235   5.228   6.885   5.766
  112SOL    HW2 1236   5.266   6.818   5.622
  113SOL     OW 1237   6.175   4.945   3.252
  113SOL    HW1 1238   6.232   4.879   3.301
  113SOL    HW2 1239   6.194   4.939   3.154
  114SOL     OW 1240   0.786   0.417   1.032
  114SOL    HW1 1241   0.720   0.368   0.975
  114SOL    HW2 1242   0.879   0.394   1.001
  115SOL     OW 1243   3.857   1.453   3.041
  115SOL    HW1 1244   3.916   1.534   3.034
  115SOL    HW2 1245   3.873   1.407   3.128
  116SOL     OW 1246   5.823   5.133   1.882
  116SOL    HW1 1247   5.919   5.135   1.852
  116SOL    HW2 1248   5.786   5.041   1.867
  117SOL     OW 1249   1.445   1.467   0.516
  117SOL    HW1 1250   1.353   1.449   0.550
  117SOL    HW2 1251   1.471   1.397   0.450
  118SOL     OW 1252   1.709   1.339   3.225
  118SOL    HW1 1253   1.755   1.424   3.252
  118SOL    HW2 1254   1.631   1.360   3.166
  119SOL     OW 1255   0.920   1.467   6.806
  119SOL    HW1 1256   1.017   1.469   6.831
  119SOL    HW2 1257   0.906   1.402   6.732
  120SOL     OW 1258   6.235   6.661   0.320
  120SOL    HW1 1259   6.281   6.575   0.296
  120SOL    HW2 1260   6.138   6.655   0.294
  121SOL     OW 1261   2.514   3.515   6.212
  121SOL    HW1 1262   2.530   3.417   6.222
  121SOL    HW2 1263   2.502   3.537   6.115
  122SOL     OW 1264   1.950   4.557   6.438
  122SOL    HW1 1265   1.930   4.537   6.534
  122SOL    HW2 1266   2.049   4.557   6.425
  123SOL     OW 1267   0.285   1.611   1.561
  123SOL    HW1 1268   0.186   1.620   1.550
  123SOL    HW2 1269   0.311   1.636   1.655
  124SOL     OW 1270   5.158   3.231   0.639
  124SOL    HW1 1271   5.097   3.232   0.560
  124SOL    HW2 1272   5.115   3.281   0.714
  125SOL     OW 1273   3.100   1.588   2.027
  125SOL    HW1 1274   3.163   1.630   1.962
  125SOL    HW2 1275   3.090   1.648   2.107
  126SOL     OW 1276   2.699   3.732   1.310
  126SOL    HW1 1277   2.652   3.720   1.223
  126SOL    HW2 1278   2.632   3.747   1.382
  127SOL     OW 1279   0.223   5.385   6.255
  127SOL    HW1 1280   0.157   5.460   6.260
  127SOL    HW2 1281   0.183   5.302   6.293
  128SOL     OW 1282   4.722   2.799   1.007
  128SOL    HW1 1283   4.807   2.747   1.010
  128SOL    HW2 1284   4.741   2.895   1.029
  129SOL     OW 1285   2.697   2.899   6.310
  129SOL    HW1 1286   2.666   2.903   6.405
  129SOL    HW2 1287   2.681   2.987   6.266
  130SOL     OW 1288   0.735   1.353   3.969
  130SOL    HW1 1289   0.741   1.373   3.871
  130SOL    HW2 1290   0.827   1.346   4.008
  131SOL     OW 1291   4.996   1.891   3.635
  131SOL    HW1 1292   4.995   1.987   3.663
  131SOL    HW2 1293   4.977   1.885   3.537
  132SOL     OW 1294   2.373   2.593   1.102
  132SOL    HW1 1295   2.385   2.640   1.189
  132SOL    HW2 1296   2.321   2.652   1.040
  133SOL     OW 1297   5.102   6.387   4.353
  133SOL    HW1 1298   5.016   6.390   4.303
  133SOL    HW2 1299   5.091   6.333   4.436
  134SOL     OW 1300   6.419   1.484   2.558
  134SOL    HW1 1301   6.449   1.566   2.509
  134SOL    HW2 1302   6.346   1.440   2.506
  135SOL     OW 1303   5.591   3.687   3.189
  135SOL    HW1 1304   5.607   3.637   3.104
  135SOL    HW2 1305   5.576   3.784   3.168
  136SOL     OW 1306   3.112   3.502   6.180
  136SOL    HW1 1307   3.161   3.435   6.236
  136SOL    HW2 1308   3.144   3.496   6.085
  137SOL     OW 1309   5.317   1.598   5.007
  137SOL    HW1 1310   5.400   1.553   5.041
  137SOL    HW2 1311   5.258   1.531   4.963
  138SOL     OW 1312   0.670   4.676   2.992
  138SOL    HW1 1313   0.717   4.738   2.928
  138SOL    HW2 1314   0.643   4.593   2.944
  139SOL     OW 1315   2.134   6.679   4.996
  139SOL    HW1 1316   2.205   6.708   5.060
  139SOL    HW2 1317   2.169   6.605   4.938
  140SOL     OW 1318   0.808   5.806   3.299
  140SOL    HW1 1319   0.832   5.734   3.363
  140SOL    HW2 1320   0.851   5.788   3.210
  141SOL     OW 1321   6.015   3.671   4.925
  141SOL    HW1 1322   6.064   3.644   5.008
  141SOL    HW2 1323   6.070   3.651   4.845
  142SOL     OW 1324   2.020   4.006   0.537
  142SOL    HW1 1325   1.923   4.021   0.553
  142SOL    HW2 1326   2.049   4.057   0.456
  143SOL     OW 1327   5.920   4.778   1.126
  143SOL    HW1 1328   5.988   4.823   1.185
  143SOL    HW2 1329   5.831   4.821   1.139
  144SOL     OW 1330   1.085   6.368   6.291
  144SOL    HW1 1331   1.177   6.337   6.318
  144SOL    HW2 1332   1.092   6.457   6.247
  145SOL     OW 1333   6.885   5.787   0.175
  145SOL    HW1 1334   6.846   5.851   0.109
  145SOL    HW2 1335   6.852   5.809   0.267
  146SOL     OW 1336   5.090   0.480   6.288
  146SOL    HW1 1337   5.161   0.481   6.218
  146SOL    HW2 1338   5.030   0.559   6.276
  147SOL     OW 1339   6.188   3.813   6.486
  147SOL    HW1 1340   6.131   3.852   6.559
  147SOL    HW2 1341   6.254   3.882   6.455
  148SOL     OW 1342   0.158   5.469   6.585
  148SOL    HW1 1343   0.147   5.378   6.545
  148SOL    HW2 1344   0.146   5.464   6.684
  149SOL     OW 1345   3.054   1.686   4.839
  149SOL    HW1 1346   3.069   1.744   4.919
  149SOL    HW2 1347   3.118   1.713   4.766
  150SOL     OW 1348   5.662   6.014   6.251
  150SOL    HW1 1349   5.655   5.917   6.276
  150SOL    HW2 1350   5.740   6.054   6.299
  151SOL     OW 1351   3.115   2.338   1.141
  151SOL    HW1 1352   3.151   2.302   1.227
  151SOL    HW2 1353   3.165   2.299   1.064
  152SOL     OW 1354   1.417   1.018   2.985
  152SOL    HW1 1355   1.425   1.117   2.998
  152SOL    HW2 1356   1.438   0.995   2.890
  153SOL     OW 1357   3.304   0.539   2.112
  153SOL    HW1 1358   3.322   0.627   2.156
  153SOL    HW2 1359   3.385   0.480   2.120
  154SOL     OW 1360   0.789   2.134   2.827
  154SOL    HW1 1361   0.692   2.109   2.831
  154SOL    HW2 1362   0.802   2.223   2.871
  155SOL     OW 1363   6.455   1.753   3.439
  155SOL    HW1 1364   6.398   1.687   3.489
  155SOL    HW2 1365   6.399   1.798   3.369
  156SOL     OW 1366   0.388   1.913   0.654
  156SOL    HW1 1367   0.312   1.849   0.658
  156SOL    HW2 1368   0.365   1.995   0.707
  157SOL     OW 1369   5.850   3.229   1.085
  157SOL    HW1 1370   5.861   3.151   1.147
  157SOL    HW2 1371   5.811   3.306   1.135
  158SOL     OW 1372   2.198   6.120   2.560
  158SOL    HW1 1373   2.140   6.188   2.516
  158SOL    HW2 1374   2.273   6.165   2.607
  159SOL     OW 1375   4.238   4.614   1.833
  159SOL    HW1 1376   4.238   4.519   1.804
  159SOL    HW2 1377   4.306   4.628   1.905
  160SOL     OW 1378   6.351   5.686   0.265
  160SOL    HW1 1379   6.258   5.650   0.269
  160SOL    HW2 1380   6.391   5.662   0.176
  161SOL     OW 1381   1.976   5.633   4.578
  161SOL    HW1 1382   1.957   5.549   4.527
  161SOL    HW2 1383   1.983   5.612   4.675
  162SOL     OW 1384   3.891   6.710   6.809
  162SOL    HW1 1385   3.866   6.806   6.798
  162SOL    HW2 1386   3.991   6.703   6.816
  163SOL     OW 1387   5.489   6.014   0.920
  163SOL    HW1 1388   5.470   5.960   1.002
  163SOL    HW2 1389   5.499   5.953   0.841
  164SOL     OW 1390   6.258   4.096   0.007
  164SOL    HW1 1391   6.254   4.183   6.979
  164SOL    HW2 1392   6.203   4.101   0.090
  165SOL     OW 1393   5.305   2.983   2.005
  165SOL    HW1 1394   5.367   2.919   1.959
  165SOL    HW2 1395   5.243   3.024   1.938
  166SOL     OW 1396   0.051   5.012   3.426
  166SOL    HW1 1397   0.082   5.101   3.394
  166SOL    HW2 1398   6.984   5.023   3.473
  167SOL     OW 1399   5.911   2.611   0.240
  167SOL    HW1 1400   5.813   2.594   0.233
  167SOL    HW2 1401   5.938   2.680   0.173
  168SOL     OW 1402   2.354   3.215   1.420
  168SOL    HW1 1403   2.331   3.118   1.425
  168SOL    HW2 1404   2.438   3.233   1.472
  169SOL     OW 1405   4.324   0.706   1.892
  169SOL    HW1 1406   4.326   0.719   1.793
  169SOL    HW2 1407   4.416   0.687   1.925
  170SOL     OW 1408   0.998   1.049   3.866
  170SOL    HW1 1409   0.973   0.963   3.822
  170SOL    HW2 1410   0.941   1.063   3.948
  171SOL     OW 1411   3.808   4.532   0.068
  171SOL    HW1 1412   3.786   4.458   0.005
  171SOL    HW2 1413   3.884   4.503   0.127
  172SOL     OW 1414   5.618   1.950   4.228
  172SOL    HW1 1415   5.612   1.865   4.280
  172SOL    HW2 1416   5.589   1.933   4.134
  173SOL     OW 1417   6.770   2.335   4.607
  173SOL    HW1 1418   6.766   2.249   4.659
  173SOL    HW2 1419   6.865   2.364   4.600
  174SOL     OW 1420   3.293   5.287   4.623
  174SOL    HW1 1421   3.351   5.240   4.557
  174SOL    HW2 1422   3.204   5.242   4.629
  175SOL     OW 1423   2.565   6.952   1.912
  175SOL    HW1 1424   2.638   6.896   1.950
  175SOL    HW2 1425   2.560   0.018   1.961
  176SOL     OW 1426   1.198   4.437   1.006
  176SOL    HW1 1427   1.147   4.415   1.089
  176SOL    HW2 1428   1.249   4.356   0.976
  177SOL     OW 1429   5.955   3.492   2.466
  177SOL    HW1 1430   5.855   3.495   2.457
  177SOL    HW2 1431   5.993   3.578   2.431
  178SOL     OW 1432   2.530   2.384   6.689
  178SOL    HW1 1433   2.514   2.318   6.762
  178SOL    HW2 1434   2.499   2.345   6.602
  179SOL     OW 1435   2.354   1.182   6.483
  179SOL    HW1 1436   2.310   1.233   6.410
  179SOL    HW2 1437   2.419   1.116   6.443
  180SOL     OW 1438   1.429   6.748   6.803
  180SOL    HW1 1439   1.507   6.700   6.842
  180SOL    HW2 1440   1.446   6.769   6.707
  181SOL     OW 1441   2.904   2.197   6.166
  181SOL    HW1 1442   2.911   2.136   6.245
  181SOL    HW2 1443   2.953   2.158   6.088
  182SOL     OW 1444   3.376   1.191   3.823
  182SOL    HW1 1445   3.341   1.270   3.774
  182SOL    HW2 1446   3.339   1.190   3.916
  183SOL     OW 1447   3.532   2.050   3.525
  183SOL    HW1 1448   3.491   2.036   3.615
  183SOL    HW2 1449   3.630   2.034   3.530
  184SOL     OW 1450   1.889   6.338   4.147
  184SOL    HW1 1451   1.838   6.408   4.098
  184SOL    HW2 1452   1.867   6.248   4.109
  185SOL     OW 1453   0.060   1.543   6.273
  185SOL    HW1 1454   0.103   1.458   6.304
  185SOL    HW2 1455   7.015   1.575   6.341
  186SOL     OW 1456   5.644   1.226   3.977
  186SOL    HW1 1457   5.713   1.221   3.906
  186SOL    HW2 1458   5.598   1.315   3.973
  187SOL     OW 1459   4.404   0.464   3.020
  187SOL    HW1 1460   4.456   0.393   3.067
  187SOL    HW2 1461   4.447   0.484   2.932
  188SOL     OW 1462   6.796   2.271   2.451
  188SOL    HW1 1463   6.738   2.351   2.435
  188SOL    HW2 1464   6.843   2.246   2.367
  189SOL     OW 1465   2.211   5.441   1.442
  189SOL    HW1 1466   2.282   5.500   1.480
  189SOL    HW2 1467   2.244   5.346   1.439
  190SOL     OW 1468   4.369   1.529   4.601
  190SOL    HW1 1469   4.425   1.607   4.575
  190SOL    HW2 1470   4.427   1.461   4.647
  191SOL     OW 1471   5.547   6.066   6.522
  191SOL    HW1 1472   5.588   6.111   6.442
  191SOL    HW2 1473   5.460   6.024   6.495
  192SOL     OW 1474   0.347   5.325   1.876
  192SOL    HW1 1475   0.333   5.226   1.879
  192SOL    HW2 1476   0.345   5.361   1.969
  193SOL     OW 1477   4.792   2.962   5.402
  193SOL    HW1 1478   4.695   2.943   5.423
  193SOL    HW2 1479   4.826   3.032   5.465
  194SOL     OW 1480   4.110   0.583   2.727
  194SOL    HW1 1481   4.039   0.643   2.691
  194SOL    HW2 1482   4.150   0.530   2.653
  195SOL     OW 1483   1.812   0.125   4.889
  195SOL    HW1 1484   1.807   0.029   4.915
  195SOL    HW2 1485   1.903   0.144   4.852
  196SOL     OW 1486   2.416   0.887   0.039
  196SOL    HW1 1487   2.423   0.976   7.015
  196SOL    HW2 1488   2.330   0.843   0.013
  197SOL     OW 1489   2.513   0.216   1.016
  197SOL    HW1 1490   2.578   0.142   0.999
  197SOL    HW2 1491   2.430   0.199   0.964
  198SOL     OW 1492   4.543   0.914   2.741
  198SOL    HW1 1493   4.473   0.953   2.681
  198SOL    HW2 1494   4.626   0.969   2.735
  199SOL     OW 1495   0.530   2.146   3.944
  199SOL    HW1 1496   0.457   2.184   3.887
  199SOL    HW2 1497   0.618   2.158   3.899
  200SOL     OW 1498   1.483   3.562   0.702
  200SOL    HW1 1499   1.511   3.548   0.797
  200SOL    HW2 1500   1.386   3.587   0.699
  201SOL     OW 1501   0.376   6.991   6.222
  201SOL    HW1 1502   0.431   6.934   6.162
  201SOL    HW2 1503   0.281   6.960   6.221
  202SOL     OW 1504   3.623   1.647   6.782
  202SOL    HW1 1505   3.690   1.711   6.819
  202SOL    HW2 1506   3.531   1.674   6.811
  203SOL     OW 1507   5.976   2.315   5.706
  203SOL    HW1 1508   6.068   2.275   5.705
  203SOL    HW2 1509   5.971   2.384   5.779
  204SOL     OW 1510   0.910   0.141   4.472
  204SOL    HW1 1511   0.973   0.218   4.473
  204SOL    HW2 1512   0.959   0.058   4.445
  205SOL     OW 1513   0.952   2.440   2.883
  205SOL    HW1 1514   0.907   2.486   2.959
  205SOL    HW2 1515   1.051   2.455   2.888
  206SOL     OW 1516   0.254   4.077   0.925
  206SOL    HW1 1517   0.289   4.167   0.950
  206SOL    HW2 1518   0.327   4.024   0.882
  207SOL     OW 1519   6.200   1.387   4.174
  207SOL    HW1 1520   6.281   1.327   4.171
  207SOL    HW2 1521   6.227   1.478   4.205
  208SOL     OW 1522   6.929   4.505   5.358
  208SOL    HW1 1523   6.852   4.560   5.389
  208SOL    HW2 1524   6.946   4.430   5.422
  209SOL     OW 1525   0.462   5.217   3.798
  209SOL    HW1 1526   0.398   5.292   3.815
  209SOL    HW2 1527   0.516   5.200   3.881
  210SOL     OW 1528   4.646   1.334   0.432
  210SOL    HW1 1529   4.623   1.416   0.379
  210SOL    HW2 1530   4.744   1.316   0.425
  211SOL     OW 1531   1.206   6.203   1.929
  211SOL    HW1 1532   1.156   6.198   2.015
  211SOL    HW2 1533   1.304   6.199   1.948
  212SOL     OW 1534   1.312   3.952   1.915
  212SOL    HW1 1535   1.394   3.909   1.952
  212SOL    HW2 1536   1.287   4.030   1.972
  213SOL     OW 1537   2.945   6.751   0.670
  213SOL    HW1 1538   2.995   6.806   0.603
  213SOL    HW2 1539   2.931   6.659   0.634
  214SOL     OW 1540   3.502   5.559   3.033
  214SOL    HW1 1541   3.489   5.471   2.988
  214SOL    HW2 1542   3.487   5.633   2.968
  215SOL     OW 1543   2.978   3.645   0.601
  215SOL    HW1 1544   2.999   3.739   0.629
  215SOL    HW2 1545   3.059   3.588   0.615
  216SOL     OW 1546   0.828   5.453   3.023
  216SOL    HW1 1547   0.917   5.460   2.978
  216SOL    HW2 1548   0.778   5.538   3.010
  217SOL     OW 1549   1.615   2.767   4.378
  217SOL    HW1 1550   1.649   2.841   4.436
  217SOL    HW2 1551   1.647   2.679   4.415
  218SOL     OW 1552   1.037   2.866   4.204
  218SOL    HW1 1553   0.960   2.911   4.160
  218SOL    HW2 1554   1.120   2.921   4.190
  219SOL     OW 1555   4.194   6.885   0.106
  219SOL    HW1 1556   4.161   6.890   0.201
  219SOL    HW2 1557   4.290   6.912   0.103
  220SOL     OW 1558   2.985   6.642   1.420
  220SOL    HW1 1559   2.928   6.573   1.466
  220SOL    HW2 1560   2.987   6.725   1.475
  221SOL     OW 1561   5.775   4.224   1.040
  221SOL    HW1 1562   5.845   4.271   1.094
  221SOL    HW2 1563   5.792   4.126   1.042
  222SOL     OW 1564   1.318   4.982   5.536
  222SOL    HW1 1565   1.228   5.021   5.517
  222SOL    HW2 1566   1.311   4.922   5.616
  223SOL     OW 1567   6.801   3.326   6.149
  223SOL    HW1 1568   6.714   3.360   6.114
  223SOL    HW2 1569   6.792   3.229   6.172
  224SOL     OW 1570   3.125   1.859   5.931
  224SOL    HW1 1571   3.081   1.814   5.853
  224SOL    HW2 1572   3.091   1.953   5.939
  225SOL     OW 1573   4.929   3.905   6.465
  225SOL    HW1 1574   4.910   3.966   6.542
  225SOL    HW2 1575   4.891   3.815   6.482
  226SOL     OW 1576   0.688   1.066   5.767
  226SOL    HW1 1577   0.761   1.041   5.703
  226SOL    HW2 1578   0.698   1.012   5.851
  227SOL     OW 1579   0.773   4.001   2.314
  227SOL    HW1 1580   0.691   3.989   2.259
  227SOL    HW2 1581   0.812   3.912   2.337
  228SOL     OW 1582   2.167   0.197   2.967
  228SOL    HW1 1583   2.078   0.160   2.941
  228SOL    HW2 1584   2.232   0.184   2.893
  229SOL     OW 1585   6.074   6.179   5.886
  229SOL    HW1 1586   5.991   6.228   5.913
  229SOL    HW2 1587   6.058   6.130   5.800
  230SOL     OW 1588   3.823   5.626   4.119
  230SOL    HW1 1589   3.911   5.652   4.160
  230SOL    HW2 1590   3.810   5.527   4.129
  231SOL     OW 1591   5.853   1.347   0.043
  231SOL    HW1 1592   5.898   1.390   0.121
  231SOL    HW2 1593   5.894   1.258   0.025
  232SOL     OW 1594   0.192   3.253   6.606
  232SOL    HW1 1595   0.277   3.200   6.610
  232SOL    HW2 1596   0.203   3.330   6.543
  233SOL     OW 1597   3.429   0.816   2.907
  233SOL    HW1 1598   3.342   0.814   2.858
  233SOL    HW2 1599   3.458   0.911   2.919
  234SOL     OW 1600   5.225   1.031   6.238
  234SOL    HW1 1601   5.156   0.981   6.289
  234SOL    HW2 1602   5.263   0.972   6.166
  235SOL     OW 1603   4.816   2.785   1.946
  235SOL    HW1 1604   4.743   2.746   1.891
  235SOL    HW2 1605   4.816   2.885   1.935
  236SOL     OW 1606   5.566   3.068   6.743
  236SOL    HW1 1607   5.630   3.055   6.818
  236SOL    HW2 1608   5.476   3.033   6.769
  237SOL     OW 1609   0.350   4.349   2.058
  237SOL    HW1 1610   0.415   4.327   1.986
  237SOL    HW2 1611   0.257   4.330   2.027
  238SOL     OW 1612   5.776   1.091   0.508
  238SOL    HW1 1613   5.690   1.064   0.465
  238SOL    HW2 1614   5.834   1.011   0.520
  239SOL     OW 1615   0.980   4.420   6.551
  239SOL    HW1 1616   1.018   4.500   6.598
  239SOL    HW2 1617   0.929   4.365   6.617
  240SOL     OW 1618   0.359   2.896   3.301
  240SOL    HW1 1619   0.336   2.972   3.362
  240SOL    HW2 1620   0.297   2.819   3.318
  241SOL     OW 1621   2.718   2.393   4.664
  241SOL    HW1 1622   2.800   2.450   4.668
  241SOL    HW2 1623   2.674   2.391   4.753
  242SOL     OW 1624   3.364   4.187   4.511
  242SOL    HW1 1625   3.297   4.157   4.443
  242SOL    HW2 1626   3.318   4.202   4.599
  243SOL     OW 1627   4.804   0.915   6.954
  243SOL    HW1 1628   4.739   0.839   6.959
  243SOL    HW2 1629   4.788   0.968   6.871
  244SOL     OW 1630   6.394   3.713   5.596
  244SOL    HW1 1631   6.449   3.630   5.602
  244SOL    HW2 1632   6.408   3.756   5.506
  245SOL     OW 1633   5.082   2.318   4.223
  245SOL    HW1 1634   5.150   2.371   4.273
  245SOL    HW2 1635   4.991   2.353   4.243
  246SOL     OW 1636   4.891   2.131   3.435
  246SOL    HW1 1637   4.860   2.183   3.514
  246SOL    HW2 1638   4.952   2.188   3.379
  247SOL     OW 1639   2.388   1.778   0.582
  247SOL    HW1 1640   2.402   1.680   0.598
  247SOL    HW2 1641   2.393   1.796   0.484
  248SOL     OW 1642   3.655   1.152   2.749
  248SOL    HW1 1643   3.699   1.241   2.738
  248SOL    HW2 1644   3.645   1.108   2.660
  249SOL     OW 1645   5.018   0.407   5.084
  249SOL    HW1 1646   4.969   0.449   5.160
  249SOL    HW2 1647   5.050   0.316   5.110
  250SOL     OW 1648   4.860   3.555   0.086
  250SOL    HW1 1649   4.958   3.568   0.097
  250SOL    HW2 1650   4.813   3.643   0.092
  251SOL     OW 1651   4.765   3.383   5.319
  251SOL    HW1 1652   4.813   3.431   5.393
  251SOL    HW2 1653   4.740   3.448   5.248
  252SOL     OW 1654   6.706   6.541   5.649
  252SOL    HW1 1655   6.806   6.536   5.659
  252SOL    HW2 1656   6.682   6.530   5.553
  253SOL     OW 1657   2.668   5.188   6.012
  253SOL    HW1 1658   2.715   5.126   5.948
  253SOL    HW2 1659   2.621   5.134   6.082
  254SOL     OW 1660   6.214   2.638   3.883
  254SOL    HW1 1661   6.305   2.657   3.919
  254SOL    HW2 1662   6.148   2.701   3.923
  255SOL     OW 1663   1.994   4.828   5.653
  255SOL    HW1 1664   2.064   4.897   5.673
  255SOL    HW2 1665   1.927   4.866   5.590
  256SOL     OW 1666   6.011   3.965   6.233
  256SOL    HW1 1667   5.935   3.916   6.190
  256SOL    HW2 1668   6.097   3.937   6.191
  257SOL     OW 1669   5.270   0.412   3.553
  257SOL    HW1 1670   5.293   0.338   3.616
  257SOL    HW2 1671   5.182   0.452   3.579
  258SOL     OW 1672   2.241   5.215   5.371
  258SOL    HW1 1673   2.156   5.239   5.419
  258SOL    HW2 1674   2.252   5.115   5.372
  259SOL     OW 1675   6.623   1.925   3.014
  259SOL    HW1 1676   6.640   1.952   3.109
  259SOL    HW2 1677   6.524   1.926   2.997
  260SOL     OW 1678   4.246   6.444   1.969
  260SOL    HW1 1679   4.325   6.443   2.029
  260SOL    HW2 1680   4.222   6.539   1.948
  261SOL     OW 1681   6.180   2.879   0.662
  261SOL    HW1 1682   6.253   2.944   0.641
  261SOL    HW2 1683   6.204   2.789   0.628
  262SOL     OW 1684   0.795   3.903   6.949
  262SOL    HW1 1685   0.789   3.920   6.850
  262SOL    HW2 1686   0.703   3.896   6.987
  263SOL     OW 1687   2.501   0.488   4.645
  263SOL    HW1 1688   2.550   0.435   4.714
  263SOL    HW2 1689   2.532   0.583   4.647
  264SOL     OW 1690   5.889   2.912   6.782
  264SOL    HW1 1691   5.895   3.011   6.770
  264SOL    HW2 1692   5.964   2.869   6.731
  265SOL     OW 1693   5.394   6.401   2.695
  265SOL    HW1 1694   5.342   6.428   2.776
  265SOL    HW2 1695   5.449   6.478   2.663
  266SOL     OW 1696   3.551   2.777   5.881
  266SOL    HW1 1697   3.523   2.763   5.787
  266SOL    HW2 1698   3.484   2.735   5.943
  267SOL     OW 1699   0.907   1.268   6.315
  267SOL    HW1 1700   1.006   1.285   6.317
  267SOL    HW2 1701   0.869   1.303   6.230
  268SOL     OW 1702   3.239   1.496   6.359
  268SOL    HW1 1703   3.144   1.478   6.333
  268SOL    HW2 1704   3.297   1.490   6.278
  269SOL     OW 1705   1.598   3.772   1.380
  269SOL    HW1 1706   1.600   3.774   1.480
  269SOL    HW2 1707   1.594   3.678   1.348
  270SOL     OW 1708   1.342   6.214   0.316
  270SOL    HW1 1709   1.385   6.162   0.243
  270SOL    HW2 1710   1.412   6.255   0.375
  271SOL     OW 1711   0.021   1.630   7.018
  271SOL    HW1 1712   0.005   1.728   7.003
  271SOL    HW2 1713   0.048   1.615   0.093
  272SOL     OW 1714   3.542   5.552   4.211
  272SOL    HW1 1715   3.472   5.548   4.139
  272SOL    HW2 1716   3.607   5.624   4.189
  273SOL     OW 1717   2.513   4.561   4.244
  273SOL    HW1 1718   2.486   4.467   4.265
  273SOL    HW2 1719   2.451   4.598   4.174
  274SOL     OW 1720   3.978   1.749   3.071
  274SOL    HW1 1721   3.922   1.805   3.132
  274SOL    HW2 1722   4.037   1.809   3.017
  275SOL     OW 1723   6.458   5.095   3.684
  275SOL    HW1 1724   6.404   5.174   3.711
  275SOL    HW2 1725   6.525   5.074   3.756
  276SOL     OW 1726   6.667   6.264   2.492
  276SOL    HW1 1727   6.711   6.218   2.415
  276SOL    HW2 1728   6.719   6.346   2.515
  277SOL     OW 1729   1.654   4.308   0.453
  277SOL    HW1 1730   1.699   4.395   0.474
  277SOL    HW2 1731   1.559   4.325   0.427
  278SOL     OW 1732   0.291   4.792   1.938
  278SOL    HW1 1733   0.243   4.722   1.886
  278SOL    HW2 1734   0.337   4.750   2.017
  279SOL     OW 1735   5.864   3.327   4.380
  279SOL    HW1 1736   5.964   3.327   4.371
  279SOL    HW2 1737   5.833   3.234   4.399
  280SOL     OW 1738   2.990   6.307   3.280
  280SOL    HW1 1739   3.081   6.287   3.243
  280SOL    HW2 1740   2.947   6.222   3.310
  281SOL     OW 1741   2.362   4.326   1.527
  281SOL    HW1 1742   2.439   4.269   1.497
  281SOL    HW2 1743   2.276   4.283   1.498
  282SOL     OW 1744   3.053   1.373   6.051
  282SOL    HW1 1745   2.957   1.372   6.079
  282SOL    HW2 1746   3.081   1.467   6.028
  283SOL     OW 1747   5.771   2.141   6.339
  283SOL    HW1 1748   5.770   2.241   6.335
  283SOL    HW2 1749   5.857   2.110   6.380
  284SOL     OW 1750   1.174   3.854   3.674
  284SOL    HW1 1751   1.144   3.760   3.690
  284SOL    HW2 1752   1.124   3.916   3.735
  285SOL     OW 1753   5.717   4.883   4.609
  285SOL    HW1 1754   5.637   4.835   4.644
  285SOL    HW2 1755   5.699   4.915   4.516
  286SOL     OW 1756   3.625   5.028   6.165
  286SOL    HW1 1757   3.584   4.950   6.117
  286SOL    HW2 1758   3.552   5.084   6.206
  287SOL     OW 1759   0.829   3.668   1.460
  287SOL    HW1 1760   0.798   3.574   1.446
  287SOL    HW2 1761   0.776   3.730   1.402
  288SOL     OW 1762   3.503   1.583   0.082
  288SOL    HW1 1763   3.461   1.613   7.016
  288SOL    HW2 1764   3.593   1.544   0.063
  289SOL     OW 1765   1.530   4.564   5.588
  289SOL    HW1 1766   1.540   4.484   5.647
  289SOL    HW2 1767   1.434   4.590   5.582
  290SOL     OW 1768   6.235   2.196   4.623
  290SOL    HW1 1769   6.182   2.270   4.664
  290SOL    HW2 1770   6.312   2.173   4.681
  291SOL     OW 1771   1.345   2.373   4.548
  291SOL    HW1 1772   1.411   2.379   4.623
  291SOL    HW2 1773   1.391   2.393   4.462
  292SOL     OW 1774   1.835   2.301   3.344
  292SOL    HW1 1775   1.859   2.268   3.253
  292SOL    HW2 1776   1.879   2.244   3.413
  293SOL     OW 1777   4.341   6.186   2.678
  293SOL    HW1 1778   4.434   6.222   2.688
  293SOL    HW2 1779   4.303   6.215   2.590
  294SOL     OW 1780   0.684   6.285   6.740
  294SOL    HW1 1781   0.607   6.250   6.686
  294SOL    HW2 1782   0.649   6.345   6.812
  295SOL     OW 1783   3.734   1.205   3.517
  295SOL    HW1 1784   3.701   1.227   3.425
  295SOL    HW2 1785   3.830   1.231   3.525
  296SOL     OW 1786   3.472   2.094   3.107
  296SOL    HW1 1787   3.405   2.109   3.179
  296SOL    HW2 1788   3.439   2.136   3.022
  297SOL     OW 1789   2.769   4.715   3.348
  297SOL    HW1 1790   2.746   4.645   3.281
  297SOL    HW2 1791   2.714   4.797   3.331
  298SOL     OW 1792   3.290   5.656   1.596
  298SOL    HW1 1793   3.248   5.696   1.677
  298SOL    HW2 1794   3.338   5.727   1.545
  299SOL     OW 1795   5.426   3.323   6.289
  299SOL    HW1 1796   5.429   3.357   6.195
  299SOL    HW2 1797   5.446   3.225   6.289
  300SOL     OW 1798   6.406   0.675   2.659
  300SOL    HW1 1799   6.316   0.717   2.644
  300SOL    HW2 1800   6.446   0.649   2.571
  301SOL     OW 1801   4.872   3.276   1.019
  301SOL    HW1 1802   4.806   3.351   1.013
  301SOL    HW2 1803   4.954   3.299   0.967
  302SOL     OW 1804   1.247   0.274   3.588
  302SOL    HW1 1805   1.237   0.310   3.495
  302SOL    HW2 1806   1.292   0.342   3.646
  303SOL     OW 1807   5.763   0.685   2.157
  303SOL    HW1 1808   5.718   0.688   2.068
  303SOL    HW2 1809   5.764   0.777   2.196
  304SOL     OW 1810   2.293   0.440   3.433
  304SOL    HW1 1811   2.313   0.390   3.517
  304SOL    HW2 1812   2.239   0.383   3.372
  305SOL     OW 1813   0.283   3.532   0.398
  305SOL    HW1 1814   0.306   3.474   0.476
  305SOL    HW2 1815   0.210   3.489   0.345
  306SOL     OW 1816   1.564   0.612   3.578
  306SOL    HW1 1817   1.560   0.709   3.604
  306SOL    HW2 1818   1.656   0.577   3.595
  307SOL     OW 1819   4.620   6.691   0.824
  307SOL    HW1 1820   4.564   6.634   0.884
  307SOL    HW2 1821   4.563   6.727   0.750
  308SOL     OW 1822   6.372   4.240   4.899
  308SOL    HW1 1823   6.328   4.162   4.854
  308SOL    HW2 1824   6.380   4.222   4.997
  309SOL     OW 1825   4.266   3.886   5.957
  309SOL    HW1 1826   4.364   3.874   5.974
  309SOL    HW2 1827   4.252   3.965   5.897
  310SOL     OW 1828   6.924   6.875   5.957
  310SOL    HW1 1829   6.958   6.848   5.866
  310SOL    HW2 1830   6.839   6.926   5.946
  311SOL     OW 1831   6.642   5.364   1.843
  311SOL    HW1 1832   6.584   5.306   1.785
  311SOL    HW2 1833   6.686   5.308   1.913
  312SOL     OW 1834   4.491   2.195   5.817
  312SOL    HW1 1835   4.450   2.133   5.750
  312SOL    HW2 1836   4.462   2.170   5.909
  313SOL     OW 1837   3.006   4.392   1.615
  313SOL    HW1 1838   2.944   4.406   1.692
  313SOL    HW2 1839   3.010   4.476   1.560
  314SOL     OW 1840   2.978   5.579   6.777
  314SOL    HW1 1841   2.911   5.620   6.838
  314SOL    HW2 1842   2.932   5.513   6.717
  315SOL     OW 1843   1.098   2.749   3.489
  315SOL    HW1 1844   1.108   2.665   3.542
  315SOL    HW2 1845   1.189   2.786   3.468
  316SOL     OW 1846   2.251   2.444   4.081
  316SOL    HW1 1847   2.243   2.430   3.983
  316SOL    HW2 1848   2.327   2.506   4.100
  317SOL     OW 1849   0.575   0.797   1.234
  317SOL    HW1 1850   0.647   0.736   1.202
  317SOL    HW2 1851   0.615   0.875   1.282
  318SOL     OW 1852   0.971   5.909   0.440
  318SOL    HW1 1853   0.996   5.952   0.353
  318SOL    HW2 1854   1.054   5.883   0.489
  319SOL     OW 1855   0.226   0.540   2.682
  319SOL    HW1 1856   0.243   0.466   2.748
  319SOL    HW2 1857   0.283   0.526   2.601
  320SOL     OW 1858   5.336   2.598   6.545
  320SOL    HW1 1859   5.265   2.642   6.489
  320SOL    HW2 1860   5.350   2.651   6.629
  321SOL     OW 1861   2.952   1.409   2.130
  321SOL    HW1 1862   3.006   1.481   2.087
  321SOL    HW2 1863   2.959   1.416   2.230
  322SOL     OW 1864   3.427   3.316   4.550
  322SOL    HW1 1865   3.358   3.349   4.486
  322SOL    HW2 1866   3.398   3.228   4.589
  323SOL     OW 1867   0.522   3.977   6.992
  323SOL    HW1 1868   0.529   3.987   6.893
  323SOL    HW2 1869   0.494   3.884   7.014
  324SOL     OW 1870   2.177   2.974   3.903
  324SOL    HW1 1871   2.267   2.960   3.943
  324SOL    HW2 1872   2.183   3.043   3.831
  325SOL     OW 1873   1.931   2.980   1.723
  325SOL    HW1 1874   2.015   2.965   1.775
  325SOL    HW2 1875   1.953   3.014   1.632
  326SOL     OW 1876   2.130   5.426   6.662
  326SOL    HW1 1877   2.151   5.337   6.620
  326SOL    HW2 1878   2.214   5.480   6.669
  327SOL     OW 1879   1.272   5.364   3.800
  327SOL    HW1 1880   1.230   5.276   3.823
  327SOL    HW2 1881   1.228   5.436   3.854
  328SOL     OW 1882   3.207   4.887   2.494
  328SOL    HW1 1883   3.210   4.884   2.394
  328SOL    HW2 1884   3.297   4.864   2.531
  329SOL     OW 1885   3.298   4.009   4.039
  329SOL    HW1 1886   3.328   3.918   4.011
  329SOL    HW2 1887   3.374   4.073   4.028
  330SOL     OW 1888   3.528   5.916   2.341
  330SOL    HW1 1889   3.576   5.946   2.259
  330SOL    HW2 1890   3.431   5.904   2.320
  331SOL     OW 1891   4.453   5.048   6.385
  331SOL    HW1 1892   4.369   5.004   6.351
  331SOL    HW2 1893   4.491   5.106   6.313
  332SOL     OW 1894   3.828   2.123   4.428
  332SOL    HW1 1895   3.919   2.153   4.402
  332SOL    HW2 1896   3.775   2.102   4.346
  333SOL     OW 1897   3.570   6.857   6.726
  333SOL    HW1 1898   3.541   6.938   6.675
  333SOL    HW2 1899   3.624   6.797   6.666
  334SOL     OW 1900   2.834   6.812   1.211
  334SOL    HW1 1901   2.779   6.749   1.156
  334SOL    HW2 1902   2.890   6.759   1.275
  335SOL     OW 1903   3.371   6.918   4.015
  335SOL    HW1 1904   3.273   6.935   4.021
  335SOL    HW2 1905   3.400   6.864   4.094
  336SOL     OW 1906   2.354   0.556   3.863
  336SOL    HW1 1907   2.437   0.499   3.864
  336SOL    HW2 1908   2.373   0.642   3.816
  337SOL     OW 1909   0.087   3.817   0.600
  337SOL    HW1 1910   0.118   3.828   0.505
  337SOL    HW2 1911   0.114   3.726   0.633
  338SOL     OW 1912   2.851   2.572   0.922
  338SOL    HW1 1913   2.913   2.502   0.886
  338SOL    HW2 1914   2.781   2.529   0.979
  339SOL     OW 1915   3.644   6.697   3.889
  339SOL    HW1 1916   3.728   6.750   3.885
  339SOL    HW2 1917   3.635   6.643   3.805
  340SOL     OW 1918   5.344   4.106   4.934
  340SOL    HW1 1919   5.426   4.077   4.984
  340SOL    HW2 1920   5.363   4.192   4.887
  341SOL     OW 1921   6.534   6.943   3.895
  341SOL    HW1 1922   6.605   6.987   3.950
  341SOL    HW2 1923   6.445   6.982   3.919
  342SOL     OW 1924   5.814   4.094   6.684
  342SOL    HW1 1925   5.757   4.018   6.654
  342SOL    HW2 1926   5.800   4.109   6.782
  343SOL     OW 1927   2.255   5.727   0.943
  343SOL    HW1 1928   2.303   5.645   0.976
  343SOL    HW2 1929   2.174   5.699   0.890
  344SOL     OW 1930   1.864   5.687   1.431
  344SOL    HW1 1931   1.778   5.650   1.466
  344SOL    HW2 1932   1.937   5.670   1.497
  345SOL     OW 1933   6.670   0.899   5.673
  345SOL    HW1 1934   6.746   0.964   5.675
  345SOL    HW2 1935   6.704   0.807   5.693
  346SOL     OW 1936   2.448   0.180   1.736
  346SOL    HW1 1937   2.413   0.089   1.761
  346SOL    HW2 1938   2.491   0.222   1.817
  347SOL     OW 1939   4.695   6.975   6.434
  347SOL    HW1 1940   4.642   6.946   6.354
  347SOL    HW2 1941   4.759   6.903   6.459
  348SOL     OW 1942   4.803   5.056   1.721
  348SOL    HW1 1943   4.850   5.029   1.637
  348SOL    HW2 1944   4.705   5.043   1.710
  349SOL     OW 1945   6.925   4.502   2.133
  349SOL    HW1 1946   6.843   4.505   2.190
  349SOL    HW2 1947   6.934   4.588   2.083
  350SOL     OW 1948   3.613   3.573   1.820
  350SOL    HW1 1949   3.535   3.526   1.862
  350SOL    HW2 1950   3.583   3.661   1.783
  351SOL     OW 1951   2.436   2.585   0.727
  351SOL    HW1 1952   2.386   2.602   0.642
  351SOL    HW2 1953   2.402   2.501   0.769
  352SOL     OW 1954   3.727   0.025   4.722
  352SOL    HW1 1955   3.813   6.998   4.742
  352SOL    HW2 1956   3.695   7.019   4.631
  353SOL     OW 1957   3.026   0.096   0.903
  353SOL    HW1 1958   2.969   0.135   0.831
  353SOL    HW2 1959   3.022   0.155   0.984
  354SOL     OW 1960   4.317   2.518   0.271
  354SOL    HW1 1961   4.260   2.584   0.223
  354SOL    HW2 1962   4.412   2.529   0.242
  355SOL     OW 1963   6.737   2.777   3.064
  355SOL    HW1 1964   6.713   2.694   3.114
  355SOL    HW2 1965   6.814   2.758   3.003
  356SOL     OW 1966   4.174   5.432   4.400
  356SOL    HW1 1967   4.178   5.369   4.323
  356SOL    HW2 1968   4.264   5.438   4.443
  357SOL     OW 1969   6.927   6.945   5.217
  357SOL    HW1 1970   6.882   6.942   5.306
  357SOL    HW2 1971   6.940   0.020   5.190
  358SOL     OW 1972   5.906   0.411   1.446
  358SOL    HW1 1973   5.978   0.399   1.515
  358SOL    HW2 1974   5.856   0.495   1.465
  359SOL     OW 1975   1.651   2.330   2.182
  359SOL    HW1 1976   1.595   2.325   2.265
  359SOL    HW2 1977   1.723   2.399   2.195
  360SOL     OW 1978   2.540   6.252   6.333
  360SOL    HW1 1979   2.592   6.184   6.384
  360SOL    HW2 1980   2.602   6.313   6.285
  361SOL     OW 1981   5.621   5.610   2.808
  361SOL    HW1 1982   5.600   5.520   2.769
  361SOL    HW2 1983   5.564   5.626   2.889
  362SOL     OW 1984   3.432   3.578   0.521
  362SOL    HW1 1985   3.461   3.668   0.553
  362SOL    HW2 1986   3.338   3.561   0.549
  363SOL     OW 1987   3.460   4.901   3.677
  363SOL    HW1 1988   3.475   4.943   3.767
  363SOL    HW2 1989   3.543   4.907   3.623
  364SOL     OW 1990   0.831   5.533   5.385
  364SOL    HW1 1991   0.736   5.512   5.364
  364SOL    HW2 1992   0.865   5.466   5.451
  365SOL     OW 1993   4.799   6.239   2.441
  365SOL    HW1 1994   4.757   6.149   2.430
  365SOL    HW2 1995   4.783   6.272   2.534
  366SOL     OW 1996   5.618   0.722   0.143
  366SOL    HW1 1997   5.667   0.670   0.213
  366SOL    HW2 1998   5.666   0.807   0.125
  367SOL     OW 1999   5.191   2.721   0.787
  367SOL    HW1 2000   5.245   2.787   0.734
  367SOL    HW2 2001   5.182   2.636   0.736
  368SOL     OW 2002   0.997   4.044   5.157
  368SOL    HW1 2003   1.006   4.130   5.106
  368SOL    HW2 2004   1.024   4.059   5.252
  369SOL     OW 2005   6.480   4.251   1.963
  369SOL    HW1 2006   6.559   4.308   1.941
  369SOL    HW2 2007   6.399   4.309   1.973
  370SOL     OW 2008   2.862   1.533   5.377
  370SOL    HW1 2009   2.847   1.619   5.426
  370SOL    HW2 2010   2.879   1.551   5.281
  371SOL     OW 2011   2.329   3.463   6.512
  371SOL    HW1 2012   2.360   3.429   6.423
  371SOL    HW2 2013   2.260   3.534   6.499
  372SOL     OW 2014   0.071   0.757   5.112
  372SOL    HW1 2015   0.150   0.702   5.086
  372SOL    HW2 2016   0.049   0.742   5.208
  373SOL     OW 2017   7.017   6.546   5.643
  373SOL    HW1 2018   0.035   6.464   5.684
  373SOL    HW2 2019   0.059   6.623   5.658
  374SOL     OW 2020   4.554   6.830   2.615
  374SOL    HW1 2021   4.630   6.799   2.558
  374SOL    HW2 2022   4.563   6.792   2.707
  375SOL     OW 2023   6.934   4.678   3.661
  375SOL    HW1 2024   6.947   4.605   3.729
  375SOL    HW2 2025   6.841   4.672   3.624
  376SOL     OW 2026   1.766   3.575   3.596
  376SOL    HW1 2027   1.756   3.537   3.504
  376SOL    HW2 2028   1.863   3.593   3.614
  377SOL     OW 2029   6.369   3.054   2.433
  377SOL    HW1 2030   6.345   3.112   2.356
  377SOL    HW2 2031   6.285   3.016   2.473
  378SOL     OW 2032   3.755   2.620   5.643
  378SOL    HW1 2033   3.838   2.673   5.660
  378SOL    HW2 2034   3.682   2.681   5.615
  379SOL     OW 2035   5.759   3.956   1.114
  379SOL    HW1 2036   5.691   3.978   1.184
  379SOL    HW2 2037   5.820   3.885   1.147
  380SOL     OW 2038   2.334   1.778   1.879
  380SOL    HW1 2039   2.287   1.718   1.814
  380SOL    HW2 2040   2.431   1.756   1.880
  381SOL     OW 2041   1.893   4.690   1.453
  381SOL    HW1 2042   1.954   4.657   1.525
  381SOL    HW2 2043   1.824   4.620   1.433
  382SOL     OW 2044   3.996   5.722   6.659
  382SOL    HW1 2045   4.093   5.742   6.671
  382SOL    HW2 2046   3.944   5.760   6.736
  383SOL     OW 2047   6.457   2.797   6.049
  383SOL    HW1 2048   6.498   2.886   6.071
  383SOL    HW2 2049   6.520   2.744   5.992
  384SOL     OW 2050   1.119   3.867   4.972
  384SOL    HW1 2051   1.077   3.903   5.056
  384SOL    HW2 2052   1.219   3.876   4.979
  385SOL     OW 2053   5.084   6.322   0.196
  385SOL    HW1 2054   5.006   6.370   0.156
  385SOL    HW2 2055   5.165   6.339   0.141
  386SOL     OW 2056   3.920   6.941   5.190
  386SOL    HW1 2057   3.973   6.919   5.109
  386SOL    HW2 2058   3.977   6.930   5.271
  387SOL     OW 2059   0.344   6.873   3.965
  387SOL    HW1 2060   0.306   6.855   3.873
  387SOL    HW2 2061   0.274   6.855   4.033
  388SOL     OW 2062   0.373   2.233   4.876
  388SOL    HW1 2063   0.332   2.157   4.825
  388SOL    HW2 2064   0.472   2.234   4.861
  389SOL     OW 2065   4.296   4.054   1.694
  389SOL    HW1 2066   4.303   3.954   1.699
  389SOL    HW2 2067   4.351   4.095   1.767
  390SOL     OW 2068   3.571   1.436   0.377
  390SOL    HW1 2069   3.531   1.362   0.432
  390SOL    HW2 2070   3.502   1.505   0.359
  391SOL     OW 2071   2.720   4.167   5.330
  391SOL    HW1 2072   2.656   4.102   5.290
  391SOL    HW2 2073   2.712   4.166   5.430
  392SOL     OW 2074   1.233   3.250   2.299
  392SOL    HW1 2075   1.287   3.278   2.378
  392SOL    HW2 2076   1.208   3.331   2.245
  393SOL     OW 2077   1.291   4.543   0.736
  393SOL    HW1 2078   1.304   4.586   0.647
  393SOL    HW2 2079   1.224   4.594   0.789
  394SOL     OW 2080   0.367   3.077   0.052
  394SOL    HW1 2081   0.322   3.162   0.024
  394SOL    HW2 2082   0.396   3.086   0.147
  395SOL     OW 2083   5.678   3.872   2.129
  395SOL    HW1 2084   5.636   3.958   2.157
  395SOL    HW2 2085   5.719   3.882   2.039
  396SOL     OW 2086   2.638   2.018   2.559
  396SOL    HW1 2087   2.703   1.973   2.496
  396SOL    HW2 2088   2.643   2.117   2.546
  397SOL     OW 2089   4.787   1.415   5.624
  397SOL    HW1 2090   4.828   1.503   5.599
  397SOL    HW2 2091   4.851   1.341   5.607
  398SOL     OW 2092   1.305   6.471   4.686
  398SOL    HW1 2093   1.353   6.482   4.599
  398SOL    HW2 2094   1.367   6.492   4.761
  399SOL     OW 2095   6.240   6.144   4.413
  399SOL    HW1 2096   6.203   6.066   4.361
  399SOL    HW2 2097   6.184   6.225   4.395
  400SOL     OW 2098   6.733   0.019   4.834
  400SOL    HW1 2099   6.758   6.948   4.803
  400SOL    HW2 2100   6.664   0.011   4.906
  401SOL     OW 2101   6.233   0.851   6.244
  401SOL    HW1 2102   6.323   0.851   6.201
  401SOL    HW2 2103   6.237   0.802   6.331
  402SOL     OW 2104   6.323   0.578   2.219
  402SOL    HW1 2105   6.395   0.646   2.203
  402SOL    HW2 2106   6.318   0.516   2.141
  403SOL     OW 2107   3.234   0.379   5.928
  403SOL    HW1 2108   3.184   0.297   5.956
  403SOL    HW2 2109   3.326   0.353   5.899
  404SOL     OW 2110   3.723   6.148   5.424
  404SOL    HW1 2111   3.719   6.243   5.391
  404SOL    HW2 2112   3.706   6.146   5.523
  405SOL     OW 2113   1.799   4.141   3.195
  405SOL    HW1 2114   1.835   4.139   3.101
  405SOL    HW2 2115   1.868   4.103   3.257
  406SOL     OW 2116   1.002   4.707   5.306
  406SOL    HW1 2117   0.935   4.671   5.371
  406SOL    HW2 2118   1.083   4.649   5.305
  407SOL     OW 2119   1.874   3.295   3.792
  407SOL    HW1 2120   1.779   3.293   3.761
  407SOL    HW2 2121   1.929   3.350   3.728
  408SOL     OW 2122   3.786   2.101   2.739
  408SOL    HW1 2123   3.737   2.132   2.657
  408SOL    HW2 2124   3.858   2.166   2.762
  409SOL     OW 2125   0.276   3.654   1.807
  409SOL    HW1 2126   0.193   3.646   1.862
  409SOL    HW2 2127   0.252   3.683   1.714
  410SOL     OW 2128   1.555   2.396   1.239
  410SOL    HW1 2129   1.519   2.311   1.278
  410SOL    HW2 2130   1.536   2.398   1.141
  411SOL     OW 2131   0.284   1.904   1.870
  411SOL    HW1 2132   0.314   1.809   1.869
  411SOL    HW2 2133   0.362   1.963   1.890
  412SOL     OW 2134   2.870   4.931   2.794
  412SOL    HW1 2135   2.901   4.865   2.727
  412SOL    HW2 2136   2.869   4.889   2.885
  413SOL     OW 2137   3.478   4.889   2.236
  413SOL    HW1 2138   3.520   4.840   2.160
  413SOL    HW2 2139   3.383   4.860   2.247
  414SOL     OW 2140   3.323   0.242   4.075
  414SOL    HW1 2141   3.393   0.223   4.006
  414SOL    HW2 2142   3.244   0.182   4.060
  415SOL     OW 2143   0.039   1.627   0.488
  415SOL    HW1 2144   6.962   1.638   0.472
  415SOL    HW2 2145   0.069   1.691   0.558
  416SOL     OW 2146   5.372   3.595   4.724
  416SOL    HW1 2147   5.296   3.660   4.723
  416SOL    HW2 2148   5.447   3.630   4.668
  417SOL     OW 2149   2.296   1.273   6.726
  417SOL    HW1 2150   2.220   1.338   6.736
  417SOL    HW2 2151   2.293   1.232   6.635
  418SOL     OW 2152   3.319   6.720   4.471
  418SOL    HW1 2153   3.405   6.733   4.521
  418SOL    HW2 2154   3.265   6.649   4.515
  419SOL     OW 2155   6.923   6.755   1.924
  419SOL    HW1 2156   6.866   6.692   1.977
  419SOL    HW2 2157   6.877   6.843   1.916
  420SOL     OW 2158   5.361   0.649   6.549
  420SOL    HW1 2159   5.414   0.595   6.615
  420SOL    HW2 2160   5.263   0.633   6.566
  421SOL     OW 2161   5.007   4.296   4.802
  421SOL    HW1 2162   4.924   4.324   4.850
  421SOL    HW2 2163   5.075   4.369   4.809
  422SOL     OW 2164   4.925   2.072   1.116
  422SOL    HW1 2165   4.895   1.989   1.068
  422SOL    HW2 2166   4.846   2.129   1.135
  423SOL     OW 2167   2.926   0.778   6.601
  423SOL    HW1 2168   2.915   0.792   6.699
  423SOL    HW2 2169   2.973   0.858   6.561
  424SOL     OW 2170   1.523   5.258   2.729
  424SOL    HW1 2171   1.606   5.297   2.688
  424SOL    HW2 2172   1.504   5.170   2.687
  425SOL     OW 2173   4.660   1.019   4.971
  425SOL    HW1 2174   4.563   1.043   4.976
  425SOL    HW2 2175   4.715   1.097   5.002
  426SOL     OW 2176   2.436   2.547   4.926
  426SOL    HW1 2177   2.430   2.645   4.908
  426SOL    HW2 2178   2.348   2.504   4.907
  427SOL     OW 2179   4.547   1.563   3.697
  427SOL    HW1 2180   4.633   1.529   3.735
  427SOL    HW2 2181   4.565   1.613   3.612
  428SOL     OW 2182   2.847   0.783   4.873
  428SOL    HW1 2183   2.861   0.878   4.844
  428SOL    HW2 2184   2.819   0.781   4.969
  429SOL     OW 2185   0.772   5.960   3.983
  429SOL    HW1 2186   0.820   6.009   4.056
  429SOL    HW2 2187   0.837   5.941   3.909
  430SOL     OW 2188   1.601   0.054   3.748
  430SOL    HW1 2189   1.623   6.979   3.768
  430SOL    HW2 2190   1.676   0.113   3.778
  431SOL     OW 2191   3.037   1.957   1.369
  431SOL    HW1 2192   3.120   1.909   1.397
  431SOL    HW2 2193   3.032   1.958   1.269
  432SOL     OW 2194   5.208   2.103   1.063
  432SOL    HW1 2195   5.112   2.082   1.078
  432SOL    HW2 2196   5.218   2.164   0.985
  433SOL     OW 2197   3.364   6.569   6.416
  433SOL    HW1 2198   3.352   6.510   6.496
  433SOL    HW2 2199   3.276   6.582   6.371
  434SOL     OW 2200   3.549   6.247   3.681
  434SOL    HW1 2201   3.553   6.177   3.754
  434SOL    HW2 2202   3.481   6.220   3.614
  435SOL     OW 2203   3.461   1.840   5.738
  435SOL    HW1 2204   3.455   1.740   5.747
  435SOL    HW2 2205   3.408   1.869   5.658
  436SOL     OW 2206   3.489   6.001   3.273
  436SOL    HW1 2207   3.513   5.917   3.322
  436SOL    HW2 2208   3.392   6.020   3.288
  437SOL     OW 2209   6.994   1.171   4.520
  437SOL    HW1 2210   0.022   1.085   4.506
  437SOL    HW2 2211   6.991   1.223   4.434
  438SOL     OW 2212   0.873   5.169   3.621
  438SOL    HW1 2213   0.910   5.209   3.537
  438SOL    HW2 2214   0.917   5.081   3.638
  439SOL     OW 2215   6.061   0.547   2.570
  439SOL    HW1 2216   6.057   0.630   2.624
  439SOL    HW2 2217   6.006   0.558   2.487
  440SOL     OW 2218   3.566   0.949   7.005
  440SOL    HW1 2219   3.637   0.893   6.962
  440SOL    HW2 2220   3.498   0.974   6.937
  441SOL     OW 2221   6.541   4.246   2.988
  441SOL    HW1 2222   6.454   4.199   2.973
  441SOL    HW2 2223   6.569   4.291   2.903
  442SOL     OW 2224   4.891   4.195   5.807
  442SOL    HW1 2225   4.880   4.096   5.794
  442SOL    HW2 2226   4.967   4.211   5.870
  443SOL     OW 2227   4.685   4.318   3.080
  443SOL    HW1 2228   4.777   4.353   3.099
  443SOL    HW2 2229   4.673   4.307   2.981
  444SOL     OW 2230   3.897   1.140   0.597
  444SOL    HW1 2231   3.877   1.178   0.507
  444SOL    HW2 2232   3.983   1.089   0.592
  445SOL     OW 2233   2.612   5.947   2.955
  445SOL    HW1 2234   2.669   5.873   2.989
  445SOL    HW2 2235   2.518   5.914   2.944
  446SOL     OW 2236   5.472   5.647   3.016
  446SOL    HW1 2237   5.409   5.725   3.006
  446SOL    HW2 2238   5.479   5.622   3.112
  447SOL     OW 2239   5.791   4.118   5.999
  447SOL    HW1 2240   5.717   4.069   6.045
  447SOL    HW2 2241   5.768   4.129   5.902
  448SOL     OW 2242   3.196   1.584   2.559
  448SOL    HW1 2243   3.223   1.679   2.543
  448SOL    HW2 2244   3.261   1.540   2.621
  449SOL     OW 2245   1.987   2.787   3.801
  449SOL    HW1 2246   1.901   2.803   3.752
  449SOL    HW2 2247   2.025   2.874   3.830
  450SOL     OW 2248   0.609   4.978   3.187
  450SOL    HW1 2249   0.680   4.932   3.240
  450SOL    HW2 2250   0.649   5.015   3.103
  451SOL     OW 2251   0.316   2.268   3.809
  451SOL    HW1 2252   0.217   2.259   3.803
  451SOL    HW2 2253   0.354   2.283   3.718
  452SOL     OW 2254   3.704   6.398   2.729
  452SOL    HW1 2255   3.761   6.320   2.753
  452SOL    HW2 2256   3.690   6.455   2.810
  453SOL     OW 2257   4.231   0.183   6.818
  453SOL    HW1 2258   4.270   0.100   6.858
  453SOL    HW2 2259   4.164   0.158   6.749
  454SOL     OW 2260   6.858   4.321   5.903
  454SOL    HW1 2261   6.773   4.269   5.900
  454SOL    HW2 2262   6.838   4.417   5.883
  455SOL     OW 2263   7.008   3.900   6.209
  455SOL    HW1 2264   7.016   3.908   6.109
  455SOL    HW2 2265   0.071   3.934   6.252
  456SOL     OW 2266   2.021   1.019   3.084
  456SOL    HW1 2267   2.037   0.940   3.024
  456SOL    HW2 2268   2.061   1.000   3.174
  457SOL     OW 2269   1.634   5.836   6.072
  457SOL    HW1 2270   1.707   5.775   6.040
  457SOL    HW2 2271   1.591   5.880   5.993
  458SOL     OW 2272   2.527   1.543   3.622
  458SOL    HW1 2273   2.623   1.541   3.649
  458SOL    HW2 2274   2.486   1.453   3.635
  459SOL     OW 2275   2.084   0.257   5.329
  459SOL    HW1 2276   2.148   0.250   5.405
  459SOL    HW2 2277   2.125   0.216   5.247
  460SOL     OW 2278   1.151   1.545   5.231
  460SOL    HW1 2279   1.227   1.567   5.171
  460SOL    HW2 2280   1.149   1.609   5.308
  461SOL     OW 2281   0.173   4.571   5.417
  461SOL    HW1 2282   0.081   4.549   5.384
  461SOL    HW2 2283   0.180   4.669   5.433
  462SOL     OW 2284   3.591   3.781   4.127
  462SOL    HW1 2285   3.541   3.746   4.048
  462SOL    HW2 2286   3.541   3.759   4.211
  463SOL     OW 2287   6.238   6.903   2.581
  463SOL    HW1 2288   6.311   6.948   2.632
  463SOL    HW2 2289   6.213   6.960   2.502
  464SOL     OW 2290   3.433   6.081   5.916
  464SOL    HW1 2291   3.445   6.149   5.844
  464SOL    HW2 2292   3.433   5.989   5.877
  465SOL     OW 2293   1.385   2.119   0.743
  465SOL    HW1 2294   1.369   2.200   0.686
  465SOL    HW2 2295   1.297   2.083   0.774
  466SOL     OW 2296   3.182   6.154   5.185
  466SOL    HW1 2297   3.242   6.234   5.182
  466SOL    HW2 2298   3.207   6.096   5.263
  467SOL     OW 2299   0.208   2.042   2.586
  467SOL    HW1 2300   0.221   1.992   2.501
  467SOL    HW2 2301   0.235   1.984   2.663
  468SOL     OW 2302   4.184   0.509   6.293
  468SOL    HW1 2303   4.274   0.536   6.327
  468SOL    HW2 2304   4.129   0.475   6.369
  469SOL     OW 2305   2.781   4.673   5.870
  469SOL    HW1 2306   2.829   4.710   5.949
  469SOL    HW2 2307   2.702   4.731   5.848
  470SOL     OW 2308   2.348   5.324   3.279
  470SOL    HW1 2309   2.407   5.333   3.359
  470SOL    HW2 2310   2.377   5.389   3.209
  471SOL     OW 2311   2.744   2.307   3.942
  471SOL    HW1 2312   2.647   2.288   3.926
  471SOL    HW2 2313   2.792   2.310   3.854
  472SOL     OW 2314   6.160   4.278   6.228
  472SOL    HW1 2315   6.140   4.271   6.326
  472SOL    HW2 2316   6.078   4.258   6.175
  473SOL     OW 2317   6.827   2.485   2.736
  473SOL    HW1 2318   6.884   2.514   2.659
  473SOL    HW2 2319   6.808   2.387   2.728
  474SOL     OW 2320   6.397   6.154   4.764
  474SOL    HW1 2321   6.334   6.136   4.839
  474SOL    HW2 2322   6.390   6.082   4.695
  475SOL     OW 2323   5.559   1.984   0.484
  475SOL    HW1 2324   5.627   2.019   0.420
  475SOL    HW2 2325   5.490   1.932   0.434
  476SOL     OW 2326   0.944   4.139   2.080
  476SOL    HW1 2327   0.900   4.067   2.026
  476SOL    HW2 2328   0.911   4.135   2.174
  477SOL     OW 2329   2.706   6.236   3.810
  477SOL    HW1 2330   2.617   6.263   3.846
  477SOL    HW2 2331   2.737   6.153   3.857
  478SOL     OW 2332   4.660   5.979   2.667
  478SOL    HW1 2333   4.729   5.921   2.710
  478SOL    HW2 2334   4.595   6.010   2.736
  479SOL     OW 2335   3.993   3.512   3.895
  479SOL    HW1 2336   3.995   3.417   3.863
  479SOL    HW2 2337   4.025   3.516   3.990
  480SOL     OW 2338   1.429   6.632   2.919
  480SOL    HW1 2339   1.373   6.705   2.958
  480SOL    HW2 2340   1.525   6.651   2.935
  481SOL     OW 2341   0.674   6.371   0.496
  481SOL    HW1 2342   0.744   6.333   0.556
  481SOL    HW2 2343   0.718   6.417   0.418
  482SOL     OW 2344   5.267   4.498   2.328
  482SOL    HW1 2345   5.238   4.406   2.300
  482SOL    HW2 2346   5.365   4.509   2.309
  483SOL     OW 2347   5.716   2.098   3.063
  483SOL    HW1 2348   5.718   2.038   2.983
  483SOL    HW2 2349   5.787   2.069   3.127
  484SOL     OW 2350   2.229   4.313   4.595
  484SOL    HW1 2351   2.201   4.293   4.689
  484SOL    HW2 2352   2.291   4.391   4.595
  485SOL     OW 2353   5.792   3.481   2.864
  485SOL    HW1 2354   5.817   3.419   2.790
  485SOL    HW2 2355   5.716   3.443   2.916
  486SOL     OW 2356   6.143   6.736   5.944
  486SOL    HW1 2357   6.133   6.712   6.041
  486SOL    HW2 2358   6.239   6.738   5.919
  487SOL     OW 2359   0.131   6.594   4.013
  487SOL    HW1 2360   0.041   6.612   3.974
  487SOL    HW2 2361   0.158   6.671   4.071
  488SOL     OW 2362   1.970   6.454   3.743
  488SOL    HW1 2363   1.883   6.404   3.738
  488SOL    HW2 2364   2.026   6.430   3.664
  489SOL     OW 2365   6.632   6.077   4.957
  489SOL    HW1 2366   6.655   5.993   5.006
  489SOL    HW2 2367   6.539   6.105   4.980
  490SOL     OW 2368   1.478   5.019   5.956
  490SOL    HW1 2369   1.495   5.026   6.054
  490SOL    HW2 2370   1.537   5.084   5.908
  491SOL     OW 2371   0.085   2.842   0.642
  491SOL    HW1 2372   7.010   2.862   0.623
  491SOL    HW2 2373   0.142   2.875   0.567
  492SOL     OW 2374   1.047   1.698   5.787
  492SOL    HW1 2375   1.090   1.723   5.874
  492SOL    HW2 2376   1.117   1.673   5.721
  493SOL     OW 2377   2.461   6.303   5.040
  493SOL    HW1 2378   2.441   6.205   5.039
  493SOL    HW2 2379   2.548   6.319   4.994
  494SOL     OW 2380   2.308   0.621   5.569
  494SOL    HW1 2381   2.311   0.638   5.471
  494SOL    HW2 2382   2.372   0.683   5.616
  495SOL     OW 2383   4.136   6.329   5.446
  495SOL    HW1 2384   4.167   6.252   5.391
  495SOL    HW2 2385   4.061   6.376   5.398
  496SOL     OW 2386   6.068   2.109   2.661
  496SOL    HW1 2387   6.083   2.188   2.719
  496SOL    HW2 2388   6.034   2.033   2.716
  497SOL     OW 2389   3.454   1.085   6.590
  497SOL    HW1 2390   3.420   1.013   6.651
  497SOL    HW2 2391   3.552   1.075   6.578
  498SOL     OW 2392   0.394   5.379   2.149
  498SOL    HW1 2393   0.335   5.303   2.176
  498SOL    HW2 2394   0.350   5.465   2.174
  499SOL     OW 2395   3.464   4.887   6.540
  499SOL    HW1 2396   3.553   4.866   6.501
  499SOL    HW2 2397   3.411   4.802   6.550
  500SOL     OW 2398   5.916   2.439   6.804
  500SOL    HW1 2399   5.936   2.484   6.891
  500SOL    HW2 2400   5.824   2.462   6.775
  501SOL     OW 2401   1.597   0.060   2.772
  501SOL    HW1 2402   1.668   0.022   2.713
  501SOL    HW2 2403   1.544   0.127   2.721
  502SOL     OW 2404   2.087   4.347   6.653
  502SOL    HW1 2405   2.039   4.264   6.623
  502SOL    HW2 2406   2.184   4.340   6.631
  503SOL     OW 2407   3.678   4.864   6.383
  503SOL    HW1 2408   3.679   4.937   6.315
  503SOL    HW2 2409   3.771   4.830   6.397
  504SOL     OW 2410   6.551   6.081   2.116
  504SOL    HW1 2411   6.502   6.163   2.145
  504SOL    HW2 2412   6.632   6.107   2.064
  505SOL     OW 2413   4.934   6.749   4.869
  505SOL    HW1 2414   4.850   6.748   4.924
  505SOL    HW2 2415   4.989   6.828   4.895
  506SOL     OW 2416   2.981   5.794   3.234
  506SOL    HW1 2417   3.080   5.794   3.224
  506SOL    HW2 2418   2.948   5.888   3.244
  507SOL     OW 2419   3.933   0.890   1.824
  507SOL    HW1 2420   3.990   0.828   1.877
  507SOL    HW2 2421   3.869   0.937   1.884
  508SOL     OW 2422   0.069   4.602   4.679
  508SOL    HW1 2423   0.031   4.658   4.604
  508SOL    HW2 2424   7.018   4.543   4.716
  509SOL     OW 2425   4.654   0.825   6.557
  509SOL    HW1 2426   4.721   0.898   6.549
  509SOL    HW2 2427   4.563   0.860   6.532
  510SOL     OW 2428   6.237   4.443   5.928
  510SOL    HW1 2429   6.278   4.435   5.838
  510SOL    HW2 2430   6.203   4.354   5.958
  511SOL     OW 2431   1.602   1.394   0.136
  511SOL    HW1 2432   1.660   1.466   0.174
  511SOL    HW2 2433   1.560   1.342   0.210
  512SOL     OW 2434   5.604   2.592   0.277
  512SOL    HW1 2435   5.573   2.650   0.352
  512SOL    HW2 2436   5.531   2.529   0.251
  513SOL     OW 2437   5.719   0.672   2.673
  513SOL    HW1 2438   5.767   0.733   2.610
  513SOL    HW2 2439   5.649   0.723   2.722
  514SOL     OW 2440   0.036   0.175   4.340
  514SOL    HW1 2441   0.078   0.134   4.259
  514SOL    HW2 2442   0.100   0.168   4.417
  515SOL     OW 2443   3.262   0.678   6.571
  515SOL    HW1 2444   3.195   0.612   6.604
  515SOL    HW2 2445   3.215   0.756   6.531
  516SOL     OW 2446   2.784   4.664   1.284
  516SOL    HW1 2447   2.749   4.573   1.264
  516SOL    HW2 2448   2.748   4.729   1.217
  517SOL     OW 2449   2.777   5.049   2.561
  517SOL    HW1 2450   2.863   5.022   2.519
  517SOL    HW2 2451   2.774   5.019   2.656
  518SOL     OW 2452   2.050   3.415   3.595
  518SOL    HW1 2453   2.081   3.504   3.564
  518SOL    HW2 2454   1.994   3.373   3.524
  519SOL     OW 2455   6.709   6.408   3.616
  519SOL    HW1 2456   6.637   6.465   3.655
  519SOL    HW2 2457   6.667   6.331   3.567
  520SOL     OW 2458   1.180   3.271   0.029
  520SOL    HW1 2459   1.206   3.209   0.102
  520SOL    HW2 2460   1.175   3.221   6.963
  521SOL     OW 2461   5.040   4.951   4.558
  521SOL    HW1 2462   5.023   4.896   4.476
  521SOL    HW2 2463   4.984   4.916   4.634
  522SOL     OW 2464   4.385   3.434   0.983
  522SOL    HW1 2465   4.382   3.358   0.918
  522SOL    HW2 2466   4.372   3.520   0.934
  523SOL     OW 2467   0.237   6.278   1.759
  523SOL    HW1 2468   0.291   6.229   1.691
  523SOL    HW2 2469   0.295   6.344   1.806
  524SOL     OW 2470   0.444   2.740   2.076
  524SOL    HW1 2471   0.435   2.824   2.022
  524SOL    HW2 2472   0.406   2.755   2.168
  525SOL     OW 2473   0.924   3.615   0.025
  525SOL    HW1 2474   0.886   3.707   0.035
  525SOL    HW2 2475   1.014   3.610   0.067
  526SOL     OW 2476   3.667   6.756   4.571
  526SOL    HW1 2477   3.605   6.833   4.588
  526SOL    HW2 2478   3.753   6.791   4.534
  527SOL     OW 2479   1.229   1.904   0.107
  527SOL    HW1 2480   1.251   1.938   0.198
  527SOL    HW2 2481   1.251   1.975   0.039
  528SOL     OW 2482   0.390   3.912   3.941
  528SOL    HW1 2483   0.403   4.008   3.919
  528SOL    HW2 2484   0.478   3.870   3.965
  529SOL     OW 2485   2.620   6.825   5.378
  529SOL    HW1 2486   2.650   6.729   5.381
  529SOL    HW2 2487   2.575   6.843   5.291
  530SOL     OW 2488   3.714   3.348   1.691
  530SOL    HW1 2489   3.692   3.431   1.742
  530SOL    HW2 2490   3.631   3.293   1.680
  531SOL     OW 2491   2.606   0.808   2.376
  531SOL    HW1 2492   2.533   0.742   2.363
  531SOL    HW2 2493   2.679   0.791   2.310
  532SOL     OW 2494   2.284   3.244   0.068
  532SOL    HW1 2495   2.226   3.229   0.148
  532SOL    HW2 2496   2.356   3.309   0.091
  533SOL     OW 2497   4.568   0.195   3.433
  533SOL    HW1 2498   4.662   0.223   3.449
  533SOL    HW2 2499   4.511   0.224   3.509
  534SOL     OW 2500   0.953   5.563   1.053
  534SOL    HW1 2501   0.876   5.606   1.101
  534SOL    HW2 2502   1.021   5.533   1.120
  535SOL     OW 2503   5.959   3.862   2.923
  535SOL    HW1 2504   5.998   3.770   2.921
  535SOL    HW2 2505   5.860   3.857   2.928
  536SOL     OW 2506   6.758   6.060   2.980
  536SOL    HW1 2507   6.811   5.983   3.015
  536SOL    HW2 2508   6.693   6.090   3.050
  537SOL     OW 2509   3.462   6.812   4.236
  537SOL    HW1 2510   3.429   6.771   4.321
  537SOL    HW2 2511   3.535   6.754   4.197
  538SOL     OW 2512   2.386   4.761   5.703
  538SOL    HW1 2513   2.335   4.814   5.635
  538SOL    HW2 2514   2.399   4.668   5.670
  539SOL     OW 2515   1.314   5.641   0.969
  539SOL    HW1 2516   1.236   5.673   0.915
  539SOL    HW2 2517   1.283   5.613   1.060
  540SOL     OW 2518   1.965   0.988   4.138
  540SOL    HW1 2519   1.880   1.032   4.109
  540SOL    HW2 2520   1.944   0.913   4.200
  541SOL     OW 2521   4.550   6.078   4.077
  541SOL    HW1 2522   4.645   6.098   4.054
  541SOL    HW2 2523   4.503   6.162   4.104
  542SOL     OW 2524   3.537   5.697   6.486
  542SOL    HW1 2525   3.458   5.757   6.470
  542SOL    HW2 2526   3.574   5.667   6.398
  543SOL     OW 2527   5.903   3.518   4.065
  543SOL    HW1 2528   5.881   3.539   3.970
  543SOL    HW2 2529   5.820   3.489   4.113
  544SOL     OW 2530   0.261   4.730   0.022
  544SOL    HW1 2531   0.287   4.636   7.019
  544SOL    HW2 2532   0.333   4.793   7.014
  545SOL     OW 2533   5.454   1.478   1.234
  545SOL    HW1 2534   5.503   1.530   1.164
  545SOL    HW2 2535   5.501   1.392   1.250
  546SOL     OW 2536   0.402   4.616   2.152
  546SOL    HW1 2537   0.348   4.642   2.232
  546SOL    HW2 2538   0.385   4.521   2.129
  547SOL     OW 2539   3.326   1.910   0.715
  547SOL    HW1 2540   3.403   1.905   0.652
  547SOL    HW2 2541   3.328   1.831   0.777
  548SOL     OW 2542   3.478   3.112   0.582
  548SOL    HW1 2543   3.468   3.173   0.504
  548SOL    HW2 2544   3.481   3.166   0.666
  549SOL     OW 2545   5.519   2.677   0.665
  549SOL    HW1 2546   5.428   2.719   0.662
  549SOL    HW2 2547   5.518   2.591   0.615
  550SOL     OW 2548   6.815   4.364   3.146
  550SOL    HW1 2549   6.801   4.424   3.066
  550SOL    HW2 2550   6.886   4.404   3.204
  551SOL     OW 2551   0.091   0.899   0.563
  551SOL    HW1 2552   0.155   0.966   0.600
  551SOL    HW2 2553   0.140   0.816   0.539
  552SOL     OW 2554   5.299   5.485   5.188
  552SOL    HW1 2555   5.369   5.515   5.124
  552SOL    HW2 2556   5.297   5.385   5.190
  553SOL     OW 2557   3.169   0.598   4.687
  553SOL    HW1 2558   3.237   0.644   4.746
  553SOL    HW2 2559   3.217   0.541   4.620
  554SOL     OW 2560   5.823   5.643   0.280
  554SOL    HW1 2561   5.758   5.703   0.233
  554SOL    HW2 2562   5.773   5.576   0.335
  555SOL     OW 2563   3.439   5.616   5.517
  555SOL    HW1 2564   3.526   5.665   5.514
  555SOL    HW2 2565   3.397   5.618   5.426
  556SOL     OW 2566   5.352   2.218   4.212
  556SOL    HW1 2567   5.374   2.155   4.287
  556SOL    HW2 2568   5.258   2.201   4.182
  557SOL     OW 2569   0.061   4.473   5.961
  557SOL    HW1 2570   0.116   4.468   5.878
  557SOL    HW2 2571   7.011   4.402   5.959
  558SOL     OW 2572   4.120   3.545   3.205
  558SOL    HW1 2573   4.061   3.542   3.286
  558SOL    HW2 2574   4.215   3.532   3.233
  559SOL     OW 2575   6.210   6.143   4.947
  559SOL    HW1 2576   6.200   6.048   4.918
  559SOL    HW2 2577   6.186   6.150   5.044
  560SOL     OW 2578   6.633   3.316   4.115
  560SOL    HW1 2579   6.679   3.253   4.177
  560SOL    HW2 2580   6.672   3.407   4.126
  561SOL     OW 2581   6.828   3.446   6.798
  561SOL    HW1 2582   6.785   3.371   6.749
  561SOL    HW2 2583   6.777   3.465   6.882
  562SOL     OW 2584   4.896   6.618   5.481
  562SOL    HW1 2585   4.813   6.608   5.426
  562SOL    HW2 2586   4.920   6.714   5.488
  563SOL     OW 2587   1.527   1.568   4.270
  563SOL    HW1 2588   1.474   1.585   4.186
  563SOL    HW2 2589   1.484   1.614   4.347
  564SOL     OW 2590   0.213   1.320   6.351
  564SOL    HW1 2591   0.292   1.371   6.318
  564SOL    HW2 2592   0.234   1.223   6.352
  565SOL     OW 2593   3.291   3.047   3.722
  565SOL    HW1 2594   3.236   3.127   3.696
  565SOL    HW2 2595   3.361   3.031   3.653
  566SOL     OW 2596   2.684   5.296   2.647
  566SOL    HW1 2597   2.698   5.211   2.596
  566SOL    HW2 2598   2.620   5.354   2.597
  567SOL     OW 2599   2.712   2.574   0.674
  567SOL    HW1 2600   2.774   2.582   0.753
  567SOL    HW2 2601   2.618   2.587   0.705
  568SOL     OW 2602   5.573   6.870   0.505
  568SOL    HW1 2603   5.592   6.965   0.481
  568SOL    HW2 2604   5.600   6.854   0.601
  569SOL     OW 2605   0.793   2.594   0.357
  569SOL    HW1 2606   0.775   2.659   0.431
  569SOL    HW2 2607   0.864   2.630   0.298
  570SOL     OW 2608   2.785   0.439   6.121
  570SOL    HW1 2609   2.809   0.364   6.183
  570SOL    HW2 2610   2.714   0.407   6.058
  571SOL     OW 2611   2.275   4.868   3.767
  571SOL    HW1 2612   2.226   4.845   3.683
  571SOL    HW2 2613   2.288   4.785   3.822
  572SOL     OW 2614   1.784   5.781   4.980
  572SOL    HW1 2615   1.832   5.762   4.895
  572SOL    HW2 2616   1.686   5.789   4.963
  573SOL     OW 2617   6.292   1.811   5.529
  573SOL    HW1 2618   6.271   1.717   5.504
  573SOL    HW2 2619   6.374   1.813   5.587
  574SOL     OW 2620   3.418   1.009   5.211
  574SOL    HW1 2621   3.329   1.007   5.166
  574SOL    HW2 2622   3.478   0.941   5.168
  575SOL     OW 2623   3.908   2.771   0.920
  575SOL    HW1 2624   3.860   2.747   1.004
  575SOL    HW2 2625   3.880   2.863   0.891
  576SOL     OW 2626   1.927   2.882   2.761
  576SOL    HW1 2627   2.012   2.924   2.793
  576SOL    HW2 2628   1.945   2.829   2.679
  577SOL     OW 2629   0.614   0.604   2.355
  577SOL    HW1 2630   0.705   0.592   2.315
  577SOL    HW2 2631   0.554   0.647   2.287
  578SOL     OW 2632   1.243   5.788   0.516
  578SOL    HW1 2633   1.322   5.790   0.454
  578SOL    HW2 2634   1.220   5.693   0.537
  579SOL     OW 2635   2.195   4.658   2.453
  579SOL    HW1 2636   2.265   4.593   2.423
  579SOL    HW2 2637   2.239   4.733   2.502
  580SOL     OW 2638   4.473   4.985   4.889
  580SOL    HW1 2639   4.394   5.038   4.920
  580SOL    HW2 2640   4.442   4.896   4.854
  581SOL     OW 2641   0.756   3.369   3.779
  581SOL    HW1 2642   0.824   3.299   3.757
  581SOL    HW2 2643   0.725   3.412   3.694
  582SOL     OW 2644   4.846   5.908   3.548
  582SOL    HW1 2645   4.821   5.835   3.612
  582SOL    HW2 2646   4.792   5.899   3.464
  583SOL     OW 2647   2.984   5.478   5.493
  583SOL    HW1 2648   3.077   5.502   5.522
  583SOL    HW2 2649   2.925   5.558   5.503
  584SOL     OW 2650   3.311   0.102   6.491
  584SOL    HW1 2651   3.231   0.161   6.480
  584SOL    HW2 2652   3.284   0.006   6.486
  585SOL     OW 2653   3.898   6.875   1.417
  585SOL    HW1 2654   3.951   6.930   1.481
  585SOL    HW2 2655   3.960   6.829   1.354
  586SOL     OW 2656   3.872   0.326   1.147
  586SOL    HW1 2657   3.942   0.391   1.176
  586SOL    HW2 2658   3.894   0.235   1.184
  587SOL     OW 2659   5.536   2.211   1.791
  587SOL    HW1 2660   5.533   2.111   1.786
  587SOL    HW2 2661   5.613   2.244   1.737
  588SOL     OW 2662   1.698   5.140   0.941
  588SOL    HW1 2663   1.723   5.137   1.038
  588SOL    HW2 2664   1.638   5.063   0.920
  589SOL     OW 2665   3.263   5.506   1.350
  589SOL    HW1 2666   3.288   5.530   1.444
  589SOL    HW2 2667   3.339   5.458   1.306
  590SOL     OW 2668   5.709   1.333   0.637
  590SOL    HW1 2669   5.745   1.262   0.577
  590SOL    HW2 2670   5.706   1.420   0.587
  591SOL     OW 2671   4.542   5.957   3.814
  591SOL    HW1 2672   4.458   5.968   3.760
  591SOL    HW2 2673   4.518   5.947   3.910
  592SOL     OW 2674   4.919   1.129   3.697
  592SOL    HW1 2675   5.015   1.157   3.685
  592SOL    HW2 2676   4.876   1.117   3.607
  593SOL     OW 2677   4.088   2.149   4.780
  593SOL    HW1 2678   4.068   2.152   4.878
  593SOL    HW2 2679   4.082   2.241   4.742
  594SOL     OW 2680   6.051   1.751   0.849
  594SOL    HW1 2681   6.057   1.763   0.948
  594SOL    HW2 2682   5.956   1.731   0.823
  595SOL     OW 2683   5.360   6.688   3.238
  595SOL    HW1 2684   5.420   6.640   3.302
  595SOL    HW2 2685   5.410   6.763   3.194
  596SOL     OW 2686   0.075   4.737   3.419
  596SOL    HW1 2687   0.047   4.706   3.510
  596SOL    HW2 2688   0.067   4.837   3.414
  597SOL     OW 2689   3.444   6.998   5.945
  597SOL    HW1 2690   3.536   0.009   5.966
  597SOL    HW2 2691   3.421   0.000   5.850
  598SOL     OW 2692   3.050   4.065   4.914
  598SOL    HW1 2693   3.140   4.028   4.936
  598SOL    HW2 2694   2.987   4.048   4.990
  599SOL     OW 2695   1.857   6.526   1.801
  599SOL    HW1 2696   1.784   6.555   1.739
  599SOL    HW2 2697   1.869   6.427   1.793
  600SOL     OW 2698   0.171   3.451   5.772
  600SOL    HW1 2699   0.240   3.519   5.747
  600SOL    HW2 2700   0.127   3.478   5.858
  601SOL     OW 2701   2.036   1.082   5.514
  601SOL    HW1 2702   1.982   1.163   5.537
  601SOL    HW2 2703   1.978   1.017   5.464
  602SOL     OW 2704   3.063   0.062   5.628
  602SOL    HW1 2705   2.979   0.073   5.576
  602SOL    HW2 2706   3.063   6.994   5.675
  603SOL     OW 2707   1.841   1.328   6.055
  603SOL    HW1 2708   1.898   1.409   6.069
  603SOL    HW2 2709   1.872   1.255   6.117
  604SOL     OW 2710   0.306   2.292   1.696
  604SOL    HW1 2711   0.271   2.215   1.643
  604SOL    HW2 2712   0.305   2.375   1.640
  605SOL     OW 2713   0.085   4.952   2.294
  605SOL    HW1 2714   0.141   4.870   2.310
  605SOL    HW2 2715   0.011   4.956   2.361
  606SOL     OW 2716   4.709   6.697   5.046
  606SOL    HW1 2717   4.666   6.607   5.043
  606SOL    HW2 2718   4.667   6.752   5.118
  607SOL     OW 2719   0.892   4.964   5.667
  607SOL    HW1 2720   0.807   5.014   5.655
  607SOL    HW2 2721   0.951   4.980   5.588
  608SOL     OW 2722   3.999   0.129   6.669
  608SOL    HW1 2723   4.023   0.075   6.588
  608SOL    HW2 2724   3.943   0.074   6.730
  609SOL     OW 2725   3.783   2.513   1.730
  609SOL    HW1 2726   3.753   2.608   1.741
  609SOL    HW2 2727   3.712   2.452   1.767
  610SOL     OW 2728   4.395   2.025   0.336
  610SOL    HW1 2729   4.376   2.092   0.265
  610SOL    HW2 2730   4.323   2.027   0.405
  611SOL     OW 2731   4.099   6.925   2.792
  611SOL    HW1 2732   4.086   0.002   2.774
  611SOL    HW2 2733   4.020   6.875   2.757
  612SOL     OW 2734   2.700   4.773   5.578
  612SOL    HW1 2735   2.731   4.761   5.483
  612SOL    HW2 2736   2.636   4.700   5.601
  613SOL     OW 2737   5.467   4.959   4.962
  613SOL    HW1 2738   5.427   4.943   4.871
  613SOL    HW2 2739   5.535   5.032   4.955
  614SOL     OW 2740   5.017   5.199   5.279
  614SOL    HW1 2741   4.949   5.128   5.293
  614SOL    HW2 2742   5.028   5.252   5.364
  615SOL     OW 2743   6.921   4.284   0.421
  615SOL    HW1 2744   6.932   4.298   0.519
  615SOL    HW2 2745   6.989   4.338   0.372
  616SOL     OW 2746   6.325   3.191   3.231
  616SOL    HW1 2747   6.271   3.110   3.208
  616SOL    HW2 2748   6.410   3.162   3.275
  617SOL     OW 2749   1.363   4.884   6.619
  617SOL    HW1 2750   1.366   4.786   6.598
  617SOL    HW2 2751   1.409   4.935   6.546
  618SOL     OW 2752   1.778   2.262   1.731
  618SOL    HW1 2753   1.689   2.217   1.719
  618SOL    HW2 2754   1.792   2.329   1.658
  619SOL     OW 2755   1.686   1.765   0.874
  619SOL    HW1 2756   1.638   1.773   0.787
  619SOL    HW2 2757   1.674   1.849   0.927
  620SOL     OW 2758   4.402   1.741   0.631
  620SOL    HW1 2759   4.369   1.737   0.725
  620SOL    HW2 2760   4.337   1.694   0.571
  621SOL     OW 2761   5.972   5.123   6.380
  621SOL    HW1 2762   5.957   5.144   6.283
  621SOL    HW2 2763   6.063   5.155   6.407
  622SOL     OW 2764   1.688   0.980   0.298
  622SOL    HW1 2765   1.666   0.968   0.201
  622SOL    HW2 2766   1.778   0.942   0.317
  623SOL     OW 2767   0.715   5.802   5.406
  623SOL    HW1 2768   0.754   5.716   5.373
  623SOL    HW2 2769   0.767   5.833   5.486
  624SOL     OW 2770   0.426   2.793   2.323
  624SOL    HW1 2771   0.391   2.886   2.338
  624SOL    HW2 2772   0.397   2.734   2.399
  625SOL     OW 2773   3.116   1.572   1.300
  625SOL    HW1 2774   3.103   1.566   1.398
  625SOL    HW2 2775   3.213   1.588   1.280
  626SOL     OW 2776   1.975   6.035   3.465
  626SOL    HW1 2777   2.044   6.022   3.536
  626SOL    HW2 2778   1.996   5.978   3.386
  627SOL     OW 2779   5.389   0.336   0.536
  627SOL    HW1 2780   5.432   0.286   0.611
  627SOL    HW2 2781   5.379   0.432   0.561
  628SOL     OW 2782   4.862   4.815   4.735
  628SOL    HW1 2783   4.795   4.886   4.715
  628SOL    HW2 2784   4.893   4.822   4.830
  629SOL     OW 2785   0.595   0.063   1.457
  629SOL    HW1 2786   0.529   0.134   1.433
  629SOL    HW2 2787   0.557   0.004   1.528
  630SOL     OW 2788   5.122   2.415   2.208
  630SOL    HW1 2789   5.167   2.401   2.296
  630SOL    HW2 2790   5.125   2.329   2.156
  631SOL     OW 2791   3.166   0.602   5.166
  631SOL    HW1 2792   3.110   0.534   5.118
  631SOL    HW2 2793   3.150   0.596   5.264
  632SOL     OW 2794   2.270   0.985   0.472
  632SOL    HW1 2795   2.367   0.985   0.497
  632SOL    HW2 2796   2.257   1.040   0.389
  633SOL     OW 2797   3.312   5.147   0.500
  633SOL    HW1 2798   3.237   5.174   0.561
  633SOL    HW2 2799   3.397   5.142   0.552
  634SOL     OW 2800   4.273   4.847   1.679
  634SOL    HW1 2801   4.285   4.817   1.585
  634SOL    HW2 2802   4.256   4.768   1.738
  635SOL     OW 2803   4.455   6.770   3.440
  635SOL    HW1 2804   4.457   6.854   3.386
  635SOL    HW2 2805   4.548   6.733   3.449
  636SOL     OW 2806   5.070   5.438   6.547
  636SOL    HW1 2807   5.128   5.518   6.533
  636SOL    HW2 2808   5.108   5.383   6.622
  637SOL     OW 2809   5.328   5.015   1.992
  637SOL    HW1 2810   5.235   4.977   1.987
  637SOL    HW2 2811   5.388   4.966   1.928
  638SOL     OW 2812   5.086   1.220   2.151
  638SOL    HW1 2813   5.051   1.268   2.232
  638SOL    HW2 2814   5.015   1.160   2.116
  639SOL     OW 2815   4.725   5.070   2.245
  639SOL    HW1 2816   4.810   5.122   2.230
  639SOL    HW2 2817   4.748   4.979   2.280
  640SOL     OW 2818   2.851   4.424   5.755
  640SOL    HW1 2819   2.775   4.366   5.724
  640SOL    HW2 2820   2.815   4.496   5.815
  641SOL     OW 2821   0.793   5.317   4.293
  641SOL    HW1 2822   0.772   5.281   4.201
  641SOL    HW2 2823   0.725   5.282   4.358
  642SOL     OW 2824   0.448   4.686   4.396
  642SOL    HW1 2825   0.543   4.671   4.370
  642SOL    HW2 2826   0.404   4.598   4.414
  643SOL     OW 2827   6.026   5.919   4.616
  643SOL    HW1 2828   5.947   5.861   4.636
  643SOL    HW2 2829   6.059   5.899   4.524
  644SOL     OW 2830   0.829   6.160   2.994
  644SOL    HW1 2831   0.817   6.127   2.900
  644SOL    HW2 2832   0.927   6.163   3.016
  645SOL     OW 2833   4.631   2.691   4.505
  645SOL    HW1 2834   4.650   2.786   4.529
  645SOL    HW2 2835   4.609   2.640   4.588
  646SOL     OW 2836   2.140   1.939   3.486
  646SOL    HW1 2837   2.204   1.867   3.514
  646SOL    HW2 2838   2.148   1.955   3.388
  647SOL     OW 2839   6.138   2.814   6.680
  647SOL    HW1 2840   6.150   2.777   6.588
  647SOL    HW2 2841   6.160   2.911   6.680
  648SOL     OW 2842   6.052   3.567   2.949
  648SOL    HW1 2843   6.108   3.534   2.873
  648SOL    HW2 2844   5.958   3.534   2.938
  649SOL     OW 2845   4.237   4.260   0.335
  649SOL    HW1 2846   4.321   4.313   0.327
  649SOL    HW2 2847   4.182   4.296   0.410
  650SOL     OW 2848   4.817   4.670   0.758
  650SOL    HW1 2849   4.897   4.622   0.720
  650SOL    HW2 2850   4.823   4.767   0.736
  651SOL     OW 2851   0.443   6.210   0.993
  651SOL    HW1 2852   0.368   6.208   0.927
  651SOL    HW2 2853   0.423   6.147   1.067
  652SOL     OW 2854   4.998   6.794   3.556
  652SOL    HW1 2855   4.906   6.770   3.586
  652SOL    HW2 2856   5.029   6.729   3.487
  653SOL     OW 2857   3.291   5.362   5.122
  653SOL    HW1 2858   3.265   5.451   5.158
  653SOL    HW2 2859   3.387   5.344   5.142
  654SOL     OW 2860   6.810   5.010   5.999
  654SOL    HW1 2861   6.844   4.962   6.079
  654SOL    HW2 2862   6.863   5.093   5.984
  655SOL     OW 2863   0.803   6.965   2.003
  655SOL    HW1 2864   0.842   0.026   2.046
  655SOL    HW2 2865   0.871   6.891   2.004
  656SOL     OW 2866   1.950   5.919   2.147
  656SOL    HW1 2867   2.019   5.876   2.205
  656SOL    HW2 2868   1.957   6.018   2.153
  657SOL     OW 2869   2.122   1.963   1.679
  657SOL    HW1 2870   2.202   1.980   1.622
  657SOL    HW2 2871   2.041   2.003   1.635
  658SOL     OW 2872   3.262   3.477   6.900
  658SOL    HW1 2873   3.309   3.542   6.960
  658SOL    HW2 2874   3.187   3.434   6.949
  659SOL     OW 2875   3.108   6.597   6.326
  659SOL    HW1 2876   3.037   6.653   6.284
  659SOL    HW2 2877   3.066   6.519   6.373
  660SOL     OW 2878   3.995   5.807   1.876
  660SOL    HW1 2879   3.970   5.841   1.786
  660SOL    HW2 2880   4.020   5.710   1.869
  661SOL     OW 2881   4.339   6.354   3.613
  661SOL    HW1 2882   4.289   6.303   3.682
  661SOL    HW2 2883   4.277   6.376   3.537
  662SOL     OW 2884   3.410   0.787   5.432
  662SOL    HW1 2885   3.493   0.777   5.378
  662SOL    HW2 2886   3.362   0.870   5.405
  663SOL     OW 2887   1.917   3.708   5.119
  663SOL    HW1 2888   1.990   3.727   5.053
  663SOL    HW2 2889   1.829   3.725   5.075
  664SOL     OW 2890   7.020   6.477   6.219
  664SOL    HW1 2891   0.025   6.517   6.131
  664SOL    HW2 2892   0.064   6.505   6.290
  665SOL     OW 2893   3.530   5.184   3.375
  665SOL    HW1 2894   3.593   5.107   3.385
  665SOL    HW2 2895   3.542   5.247   3.453
  666SOL     OW 2896   4.294   0.373   1.793
  666SOL    HW1 2897   4.328   0.399   1.883
  666SOL    HW2 2898   4.339   0.290   1.762
  667SOL     OW 2899   0.709   5.200   1.735
  667SOL    HW1 2900   0.681   5.178   1.828
  667SOL    HW2 2901   0.643   5.161   1.671
  668SOL     OW 2902   5.366   5.797   6.150
  668SOL    HW1 2903   5.313   5.715   6.174
  668SOL    HW2 2904   5.441   5.808   6.215
  669SOL     OW 2905   5.790   1.108   2.699
  669SOL    HW1 2906   5.813   1.083   2.793
  669SOL    HW2 2907   5.690   1.112   2.689
  670SOL     OW 2908   2.423   1.726   2.381
  670SOL    HW1 2909   2.516   1.764   2.376
  670SOL    HW2 2910   2.366   1.769   2.311
  671SOL     OW 2911   3.708   5.682   1.579
  671SOL    HW1 2912   3.633   5.742   1.553
  671SOL    HW2 2913   3.743   5.636   1.497
  672SOL     OW 2914   6.734   5.318   2.149
  672SOL    HW1 2915   6.715   5.416   2.140
  672SOL    HW2 2916   6.770   5.298   2.240
  673SOL     OW 2917   5.408   6.940   1.151
  673SOL    HW1 2918   5.410   6.866   1.084
  673SOL    HW2 2919   5.482   6.928   1.217
  674SOL     OW 2920   0.800   2.056   4.845
  674SOL    HW1 2921   0.869   2.063   4.916
  674SOL    HW2 2922   0.845   2.039   4.757
  675SOL     OW 2923   6.166   2.573   2.332
  675SOL    HW1 2924   6.222   2.624   2.397
  675SOL    HW2 2925   6.110   2.507   2.382
  676SOL     OW 2926   2.379   4.517   4.547
  676SOL    HW1 2927   2.465   4.531   4.596
  676SOL    HW2 2928   2.343   4.606   4.517
  677SOL     OW 2929   5.059   1.227   1.425
  677SOL    HW1 2930   5.116   1.309   1.415
  677SOL    HW2 2931   5.025   1.199   1.335
  678SOL     OW 2932   2.440   4.496   4.911
  678SOL    HW1 2933   2.408   4.530   4.823
  678SOL    HW2 2934   2.504   4.561   4.951
  679SOL     OW 2935   5.386   1.891   5.002
  679SOL    HW1 2936   5.343   1.800   5.000
  679SOL    HW2 2937   5.337   1.950   5.066
  680SOL     OW 2938   4.940   6.234   4.542
  680SOL    HW1 2939   4.850   6.225   4.499
  680SOL    HW2 2940   4.932   6.288   4.626
  681SOL     OW 2941   4.372   5.724   2.085
  681SOL    HW1 2942   4.467   5.699   2.071
  681SOL    HW2 2943   4.322   5.646   2.122
  682SOL     OW 2944   6.712   1.595   1.629
  682SOL    HW1 2945   6.781   1.576   1.699
  682SOL    HW2 2946   6.721   1.529   1.555
  683SOL     OW 2947   4.912   3.023   0.825
  683SOL    HW1 2948   4.869   3.106   0.862
  683SOL    HW2 2949   5.010   3.024   0.847
  684SOL     OW 2950   6.068   0.777   6.888
  684SOL    HW1 2951   6.138   0.753   6.821
  684SOL    HW2 2952   5.989   0.816   6.842
  685SOL     OW 2953   3.004   1.877   3.857
  685SOL    HW1 2954   3.087   1.825   3.875
  685SOL    HW2 2955   3.021   1.974   3.876
  686SOL     OW 2956   4.236   1.182   4.097
  686SOL    HW1 2957   4.162   1.215   4.037
  686SOL    HW2 2958   4.317   1.238   4.083
  687SOL     OW 2959   0.896   1.784   4.473
  687SOL    HW1 2960   0.856   1.810   4.385
  687SOL    HW2 2961   0.826   1.738   4.528
  688SOL     OW 2962   6.992   1.044   5.911
  688SOL    HW1 2963   6.988   0.949   5.880
  688SOL    HW2 2964   6.900   1.084   5.908
  689SOL     OW 2965   2.231   4.335   6.233
  689SOL    HW1 2966   2.246   4.433   6.247
  689SOL    HW2 2967   2.310   4.283   6.265
  690SOL     OW 2968   0.092   4.049   3.329
  690SOL    HW1 2969   0.101   4.006   3.239
  690SOL    HW2 2970   0.002   4.091   3.337
  691SOL     OW 2971   3.568   1.669   0.716
  691SOL    HW1 2972   3.513   1.586   0.721
  691SOL    HW2 2973   3.661   1.646   0.687
  692SOL     OW 2974   3.505   1.606   5.513
  692SOL    HW1 2975   3.517   1.596   5.612
  692SOL    HW2 2976   3.409   1.622   5.492
  693SOL     OW 2977   4.974   6.312   3.841
  693SOL    HW1 2978   4.892   6.281   3.889
  693SOL    HW2 2979   4.950   6.389   3.782
  694SOL     OW 2980   4.333   5.865   4.024
  694SOL    HW1 2981   4.357   5.958   4.052
  694SOL    HW2 2982   4.312   5.811   4.105
  695SOL     OW 2983   3.254   5.721   4.825
  695SOL    HW1 2984   3.231   5.760   4.736
  695SOL    HW2 2985   3.222   5.627   4.830
  696SOL     OW 2986   4.955   3.968   3.426
  696SOL    HW1 2987   4.909   3.995   3.341
  696SOL    HW2 2988   4.911   4.014   3.503
  697SOL     OW 2989   1.341   2.987   2.483
  697SOL    HW1 2990   1.244   2.999   2.462
  697SOL    HW2 2991   1.385   3.076   2.492
  698SOL     OW 2992   5.119   6.240   1.281
  698SOL    HW1 2993   5.092   6.195   1.366
  698SOL    HW2 2994   5.207   6.204   1.251
  699SOL     OW 2995   2.204   3.138   6.524
  699SOL    HW1 2996   2.252   3.157   6.610
  699SOL    HW2 2997   2.118   3.187   6.522
  700SOL     OW 2998   3.091   0.179   2.056
  700SOL    HW1 2999   3.003   0.138   2.036
  700SOL    HW2 3000   3.105   0.259   1.997
  701SOL     OW 3001   6.791   4.687   0.852
  701SOL    HW1 3002   6.759   4.656   0.941
  701SOL    HW2 3003   6.746   4.635   0.780
  702SOL     OW 3004   2.137   0.094   4.417
  702SOL    HW1 3005   2.075   0.169   4.440
  702SOL    HW2 3006   2.231   0.125   4.423
  703SOL     OW 3007   2.939   3.429   5.460
  703SOL    HW1 3008   3.014   3.364   5.472
  703SOL    HW2 3009   2.907   3.427   5.366
  704SOL     OW 3010   2.290   2.599   6.111
  704SOL    HW1 3011   2.349   2.653   6.170
  704SOL    HW2 3012   2.231   2.540   6.167
  705SOL     OW 3013   6.781   6.008   3.310
  705SOL    HW1 3014   6.757   5.961   3.394
  705SOL    HW2 3015   6.820   5.943   3.245
  706SOL     OW 3016   4.152   1.825   5.190
  706SOL    HW1 3017   4.196   1.741   5.159
  706SOL    HW2 3018   4.081   1.852   5.125
  707SOL     OW 3019   3.969   5.563   3.261
  707SOL    HW1 3020   3.885   5.511   3.248
  707SOL    HW2 3021   3.992   5.565   3.358
  708SOL     OW 3022   2.549   1.947   3.816
  708SOL    HW1 3023   2.638   1.908   3.792
  708SOL    HW2 3024   2.485   1.874   3.839
  709SOL     OW 3025   1.199   6.627   1.525
  709SOL    HW1 3026   1.283   6.587   1.563
  709SOL    HW2 3027   1.217   6.660   1.432
  710SOL     OW 3028   5.016   2.577   1.845
  710SOL    HW1 3029   4.963   2.498   1.876
  710SOL    HW2 3030   4.972   2.661   1.875
  711SOL     OW 3031   6.886   2.933   6.496
  711SOL    HW1 3032   6.952   2.932   6.571
  711SOL    HW2 3033   6.822   2.856   6.507
  712SOL     OW 3034   5.044   2.360   1.079
  712SOL    HW1 3035   5.136   2.350   1.039
  712SOL    HW2 3036   5.011   2.270   1.107
  713SOL     OW 3037   4.282   2.744   5.365
  713SOL    HW1 3038   4.215   2.818   5.371
  713SOL    HW2 3039   4.251   2.677   5.298
  714SOL     OW 3040   5.748   5.254   4.103
  714SOL    HW1 3041   5.809   5.290   4.174
  714SOL    HW2 3042   5.694   5.328   4.064
  715SOL     OW 3043   6.624   5.393   5.409
  715SOL    HW1 3044   6.630   5.298   5.439
  715SOL    HW2 3045   6.637   5.454   5.488
  716SOL     OW 3046   1.978   1.183   3.502
  716SOL    HW1 3047   1.998   1.141   3.414
  716SOL    HW2 3048   2.033   1.266   3.513
  717SOL     OW 3049   6.191   4.697   4.096
  717SOL    HW1 3050   6.286   4.685   4.125
  717SOL    HW2 3051   6.187   4.758   4.017
  718SOL     OW 3052   4.841   3.031   4.922
  718SOL    HW1 3053   4.797   3.075   5.000
  718SOL    HW2 3054   4.858   2.935   4.944
  719SOL     OW 3055   5.941   0.540   2.338
  719SOL    HW1 3056   5.963   0.459   2.284
  719SOL    HW2 3057   5.880   0.599   2.285
  720SOL     OW 3058   2.616   0.387   5.893
  720SOL    HW1 3059   2.687   0.442   5.849
  720SOL    HW2 3060   2.526   0.425   5.873
  721SOL     OW 3061   0.893   1.685   1.971
  721SOL    HW1 3062   0.847   1.696   1.883
  721SOL    HW2 3063   0.989   1.714   1.962
  722SOL     OW 3064   3.409   0.840   6.750
  722SOL    HW1 3065   3.476   0.779   6.791
  722SOL    HW2 3066   3.351   0.788   6.687
  723SOL     OW 3067   1.712   6.303   3.783
  723SOL    HW1 3068   1.717   6.209   3.749
  723SOL    HW2 3069   1.662   6.304   3.869
  724SOL     OW 3070   0.047   1.189   3.703
  724SOL    HW1 3071   0.033   1.096   3.737
  724SOL    HW2 3072   0.141   1.200   3.673
  725SOL     OW 3073   1.954   4.462   2.474
  725SOL    HW1 3074   1.918   4.404   2.547
  725SOL    HW2 3075   2.029   4.517   2.508
  726SOL     OW 3076   2.433   5.043   0.997
  726SOL    HW1 3077   2.439   5.128   1.049
  726SOL    HW2 3078   2.387   4.973   1.052
  727SOL     OW 3079   4.845   5.417   5.868
  727SOL    HW1 3080   4.924   5.403   5.809
  727SOL    HW2 3081   4.802   5.505   5.847
  728SOL     OW 3082   6.849   3.135   4.526
  728SOL    HW1 3083   6.758   3.113   4.560
  728SOL    HW2 3084   6.918   3.096   4.588
  729SOL     OW 3085   0.645   2.775   1.226
  729SOL    HW1 3086   0.716   2.705   1.228
  729SOL    HW2 3087   0.625   2.806   1.319
  730SOL     OW 3088   5.444   0.829   3.140
  730SOL    HW1 3089   5.493   0.893   3.200
  730SOL    HW2 3090   5.448   0.737   3.179
  731SOL     OW 3091   4.738   4.556   6.615
  731SOL    HW1 3092   4.640   4.573   6.620
  731SOL    HW2 3093   4.787   4.643   6.604
  732SOL     OW 3094   5.569   2.257   2.173
  732SOL    HW1 3095   5.653   2.212   2.142
  732SOL    HW2 3096   5.556   2.342   2.122
  733SOL     OW 3097   5.935   0.668   4.352
  733SOL    HW1 3098   5.916   0.764   4.330
  733SOL    HW2 3099   6.016   0.638   4.302
  734SOL     OW 3100   6.453   4.556   2.713
  734SOL    HW1 3101   6.405   4.492   2.653
  734SOL    HW2 3102   6.407   4.558   2.802
  735SOL     OW 3103   4.776   0.699   1.344
  735SOL    HW1 3104   4.681   0.710   1.373
  735SOL    HW2 3105   4.818   0.625   1.397
  736SOL     OW 3106   1.200   2.000   3.754
  736SOL    HW1 3107   1.137   2.037   3.822
  736SOL    HW2 3108   1.196   2.057   3.672
  737SOL     OW 3109   5.959   1.611   6.171
  737SOL    HW1 3110   6.053   1.598   6.139
  737SOL    HW2 3111   5.960   1.624   6.270
  738SOL     OW 3112   2.555   4.146   1.456
  738SOL    HW1 3113   2.534   4.057   1.497
  738SOL    HW2 3114   2.654   4.159   1.453
  739SOL     OW 3115   3.832   0.292   5.476
  739SOL    HW1 3116   3.869   0.346   5.400
  739SOL    HW2 3117   3.806   0.354   5.551
  740SOL     OW 3118   6.010   1.899   2.854
  740SOL    HW1 3119   5.991   1.955   2.935
  740SOL    HW2 3120   5.935   1.834   2.841
  741SOL     OW 3121   1.898   1.082   4.962
  741SOL    HW1 3122   1.991   1.090   4.998
  741SOL    HW2 3123   1.886   1.144   4.884
  742SOL     OW 3124   2.261   5.749   1.387
  742SOL    HW1 3125   2.186   5.786   1.333
  742SOL    HW2 3126   2.345   5.750   1.333
  743SOL     OW 3127   0.389   6.265   3.175
  743SOL    HW1 3128   0.323   6.237   3.246
  743SOL    HW2 3129   0.466   6.312   3.218
  744SOL     OW 3130   6.379   0.810   0.265
  744SOL    HW1 3131   6.353   0.795   0.170
  744SOL    HW2 3132   6.369   0.725   0.317
  745SOL     OW 3133   2.315   6.034   5.595
  745SOL    HW1 3134   2.217   6.016   5.591
  745SOL    HW2 3135   2.331   6.120   5.642
  746SOL     OW 3136   6.004   4.242   5.344
  746SOL    HW1 3137   5.970   4.182   5.271
  746SOL    HW2 3138   6.081   4.295   5.309
  747SOL     OW 3139   5.424   6.007   4.105
  747SOL    HW1 3140   5.375   6.081   4.151
  747SOL    HW2 3141   5.359   5.940   4.070
  748SOL     OW 3142   4.969   4.985   2.442
  748SOL    HW1 3143   5.021   5.061   2.405
  748SOL    HW2 3144   5.000   4.899   2.400
  749SOL     OW 3145   5.286   3.710   3.447
  749SOL    HW1 3146   5.350   3.639   3.475
  749SOL    HW2 3147   5.304   3.794   3.497
  750SOL     OW 3148   3.306   0.726   1.138
  750SOL    HW1 3149   3.355   0.672   1.070
  750SOL    HW2 3150   3.323   0.690   1.230
  751SOL     OW 3151   5.051   1.846   1.233
  751SOL    HW1 3152   5.104   1.830   1.315
  751SOL    HW2 3153   4.997   1.929   1.244
  752SOL     OW 3154   3.146   2.754   6.340
  752SOL    HW1 3155   3.087   2.678   6.369
  752SOL    HW2 3156   3.235   2.746   6.384
  753SOL     OW 3157   2.928   3.265   5.213
  753SOL    HW1 3158   2.915   3.353   5.169
  753SOL    HW2 3159   2.841   3.234   5.253
  754SOL     OW 3160   4.798   1.135   0.113
  754SOL    HW1 3161   4.729   1.108   0.180
  754SOL    HW2 3162   4.800   1.068   0.038
  755SOL     OW 3163   2.992   4.255   5.268
  755SOL    HW1 3164   2.907   4.207   5.286
  755SOL    HW2 3165   2.972   4.349   5.240
  756SOL     OW 3166   3.087   4.801   6.809
  756SOL    HW1 3167   3.154   4.869   6.777
  756SOL    HW2 3168   3.134   4.715   6.827
  757SOL     OW 3169   2.418   6.845   2.442
  757SOL    HW1 3170   2.433   6.815   2.348
  757SOL    HW2 3171   2.332   6.807   2.475
  758SOL     OW 3172   3.416   1.017   3.512
  758SOL    HW1 3173   3.414   1.108   3.556
  758SOL    HW2 3174   3.490   0.963   3.552
  759SOL     OW 3175   0.354   2.343   3.060
  759SOL    HW1 3176   0.426   2.406   3.087
  759SOL    HW2 3177   0.386   2.249   3.071
  760SOL     OW 3178   6.348   6.724   3.829
  760SOL    HW1 3179   6.288   6.728   3.909
  760SOL    HW2 3180   6.438   6.761   3.853
  761SOL     OW 3181   5.840   4.477   5.519
  761SOL    HW1 3182   5.910   4.412   5.549
  761SOL    HW2 3183   5.874   4.529   5.441
  762SOL     OW 3184   2.840   6.643   5.939
  762SOL    HW1 3185   2.792   6.730   5.927
  762SOL    HW2 3186   2.867   6.608   5.849
  763SOL     OW 3187   5.059   0.137   6.287
  763SOL    HW1 3188   5.098   0.214   6.236
  763SOL    HW2 3189   5.123   0.060   6.287
  764SOL     OW 3190   6.143   1.469   5.319
  764SOL    HW1 3191   6.124   1.552   5.267
  764SOL    HW2 3192   6.067   1.405   5.308
  765SOL     OW 3193   1.255   6.478   0.625
  765SOL    HW1 3194   1.234   6.506   0.531
  765SOL    HW2 3195   1.187   6.518   0.687
  766SOL     OW 3196   2.608   1.842   5.273
  766SOL    HW1 3197   2.685   1.832   5.211
  766SOL    HW2 3198   2.638   1.823   5.367
  767SOL     OW 3199   6.635   6.593   3.932
  767SOL    HW1 3200   6.574   6.558   3.861
  767SOL    HW2 3201   6.588   6.591   4.020
  768SOL     OW 3202   2.192   6.881   3.219
  768SOL    HW1 3203   2.121   6.939   3.178
  768SOL    HW2 3204   2.261   6.938   3.263
  769SOL     OW 3205   3.832   1.660   5.197
  769SOL    HW1 3206   3.837   1.582   5.134
  769SOL    HW2 3207   3.892   1.733   5.165
  770SOL     OW 3208   1.892   4.497   4.567
  770SOL    HW1 3209   1.949   4.541   4.499
  770SOL    HW2 3210   1.935   4.503   4.657
  771SOL     OW 3211   1.076   5.512   3.363
  771SOL    HW1 3212   1.083   5.572   3.283
  771SOL    HW2 3213   1.167   5.489   3.396
  772SOL     OW 3214   5.420   4.932   6.277
  772SOL    HW1 3215   5.355   4.875   6.327
  772SOL    HW2 3216   5.502   4.879   6.256
  773SOL     OW 3217   1.528   3.719   2.480
  773SOL    HW1 3218   1.549   3.704   2.576
  773SOL    HW2 3219   1.557   3.811   2.453
  774SOL     OW 3220   2.457   1.484   3.281
  774SOL    HW1 3221   2.371   1.532   3.295
  774SOL    HW2 3222   2.533   1.548   3.290
  775SOL     OW 3223   2.017   2.884   4.143
  775SOL    HW1 3224   2.080   2.915   4.072
  775SOL    HW2 3225   2.004   2.785   4.134
  776SOL     OW 3226   6.662   0.151   6.686
  776SOL    HW1 3227   6.619   0.193   6.606
  776SOL    HW2 3228   6.690   0.058   6.664
  777SOL     OW 3229   1.382   3.304   0.654
  777SOL    HW1 3230   1.416   3.270   0.741
  777SOL    HW2 3231   1.424   3.393   0.634
  778SOL     OW 3232   2.701   6.734   1.562
  778SOL    HW1 3233   2.618   6.775   1.599
  778SOL    HW2 3234   2.781   6.787   1.591
  779SOL     OW 3235   0.477   2.635   1.824
  779SOL    HW1 3236   0.396   2.675   1.780
  779SOL    HW2 3237   0.475   2.655   1.922
  780SOL     OW 3238   1.348   2.767   4.310
  780SOL    HW1 3239   1.304   2.682   4.338
  780SOL    HW2 3240   1.439   2.774   4.352
  781SOL     OW 3241   6.572   5.184   6.503
  781SOL    HW1 3242   6.548   5.184   6.600
  781SOL    HW2 3243   6.521   5.255   6.455
  782SOL     OW 3244   2.287   4.085   5.671
  782SOL    HW1 3245   2.312   4.077   5.575
  782SOL    HW2 3246   2.288   4.182   5.698
  783SOL     OW 3247   5.279   5.402   0.050
  783SOL    HW1 3248   5.378   5.405   0.058
  783SOL    HW2 3249   5.240   5.350   0.126
  784SOL     OW 3250   2.649   5.556   2.257
  784SOL    HW1 3251   2.575   5.543   2.191
  784SOL    HW2 3252   2.659   5.654   2.276
  785SOL     OW 3253   0.125   0.869   3.923
  785SOL    HW1 3254   0.050   0.866   3.989
  785SOL    HW2 3255   0.188   0.942   3.947
  786SOL     OW 3256   6.599   0.847   3.181
  786SOL    HW1 3257   6.562   0.763   3.221
  786SOL    HW2 3258   6.556   0.863   3.092
  787SOL     OW 3259   2.284   0.157   7.007
  787SOL    HW1 3260   2.198   0.107   7.019
  787SOL    HW2 3261   2.357   0.108   0.034
  788SOL     OW 3262   3.918   2.849   1.538
  788SOL    HW1 3263   3.955   2.918   1.600
  788SOL    HW2 3264   3.863   2.784   1.590
  789SOL     OW 3265   4.205   5.568   2.221
  789SOL    HW1 3266   4.267   5.543   2.295
  789SOL    HW2 3267   4.112   5.540   2.244
  790SOL     OW 3268   1.368   1.789   1.990
  790SOL    HW1 3269   1.373   1.869   1.931
  790SOL    HW2 3270   1.435   1.797   2.063
  791SOL     OW 3271   2.833   6.375   5.798
  791SOL    HW1 3272   2.900   6.341   5.863
  791SOL    HW2 3273   2.772   6.300   5.771
  792SOL     OW 3274   0.747   1.074   1.179
  792SOL    HW1 3275   0.783   0.984   1.156
  792SOL    HW2 3276   0.755   1.089   1.278
  793SOL     OW 3277   4.787   5.666   4.829
  793SOL    HW1 3278   4.730   5.643   4.750
  793SOL    HW2 3279   4.852   5.593   4.846
  794SOL     OW 3280   3.580   3.423   5.109
  794SOL    HW1 3281   3.623   3.446   5.196
  794SOL    HW2 3282   3.615   3.335   5.076
  795SOL     OW 3283   4.240   0.482   5.843
  795SOL    HW1 3284   4.210   0.569   5.805
  795SOL    HW2 3285   4.314   0.445   5.787
  796SOL     OW 3286   1.750   3.021   6.756
  796SOL    HW1 3287   1.672   3.075   6.723
  796SOL    HW2 3288   1.806   3.077   6.817
  797SOL     OW 3289   3.796   0.011   0.780
  797SOL    HW1 3290   3.799   0.104   0.817
  797SOL    HW2 3291   3.753   0.012   0.689
  798SOL     OW 3292   3.130   5.928   1.365
  798SOL    HW1 3293   3.220   5.925   1.410
  798SOL    HW2 3294   3.117   6.017   1.323
  799SOL     OW 3295   0.015   1.818   6.166
  799SOL    HW1 3296   6.939   1.829   6.190
  799SOL    HW2 3297   0.042   1.723   6.177
  800SOL     OW 3298   6.784   1.611   2.455
  800SOL    HW1 3299   6.778   1.697   2.405
  800SOL    HW2 3300   6.787   1.535   2.391
  801SOL     OW 3301   2.266   4.933   5.390
  801SOL    HW1 3302   2.334   4.882   5.338
  801SOL    HW2 3303   2.181   4.882   5.395
  802SOL     OW 3304   4.595   2.098   6.464
  802SOL    HW1 3305   4.538   2.162   6.412
  802SOL    HW2 3306   4.537   2.043   6.524
  803SOL     OW 3307   2.564   0.098   5.748
  803SOL    HW1 3308   2.614   0.082   5.663
  803SOL    HW2 3309   2.609   0.169   5.801
  804SOL     OW 3310   6.386   6.619   1.596
  804SOL    HW1 3311   6.390   6.617   1.696
  804SOL    HW2 3312   6.439   6.697   1.562
  805SOL     OW 3313   2.089   0.073   3.881
  805SOL    HW1 3314   2.130   0.090   3.791
  805SOL    HW2 3315   2.119   7.004   3.914
  806SOL     OW 3316   0.325   0.321   5.705
  806SOL    HW1 3317   0.298   0.408   5.747
  806SOL    HW2 3318   0.410   0.290   5.745
  807SOL     OW 3319   0.607   0.206   4.478
  807SOL    HW1 3320   0.613   0.189   4.380
  807SOL    HW2 3321   0.699   0.200   4.518
  808SOL     OW 3322   5.987   3.124   0.225
  808SOL    HW1 3323   5.971   3.068   0.306
  808SOL    HW2 3324   5.901   3.161   0.191
  809SOL     OW 3325   0.359   5.452   6.931
  809SOL    HW1 3326   0.276   5.501   6.905
  809SOL    HW2 3327   0.409   5.423   6.850
  810SOL     OW 3328   2.925   3.450   0.853
  810SOL    HW1 3329   2.916   3.548   0.832
  810SOL    HW2 3330   2.974   3.405   0.779
  811SOL     OW 3331   5.504   5.233   4.309
  811SOL    HW1 3332   5.593   5.278   4.299
  811SOL    HW2 3333   5.461   5.265   4.394
  812SOL     OW 3334   0.347   2.411   2.779
  812SOL    HW1 3335   0.343   2.374   2.871
  812SOL    HW2 3336   0.264   2.387   2.729
  813SOL     OW 3337   2.575   0.425   3.879
  813SOL    HW1 3338   2.575   0.495   3.950
  813SOL    HW2 3339   2.599   0.336   3.919
  814SOL     OW 3340   6.472   5.846   2.214
  814SOL    HW1 3341   6.384   5.851   2.261
  814SOL    HW2 3342   6.495   5.936   2.177
  815SOL     OW 3343   4.963   2.756   3.752
  815SOL    HW1 3344   4.941   2.680   3.813
  815SOL    HW2 3345   5.060   2.780   3.762
  816SOL     OW 3346   4.878   4.075   0.637
  816SOL    HW1 3347   4.802   4.054   0.576
  816SOL    HW2 3348   4.916   4.164   0.611
  817SOL     OW 3349   1.328   5.237   1.203
  817SOL    HW1 3350   1.294   5.179   1.129
  817SOL    HW2 3351   1.417   5.275   1.177
  818SOL     OW 3352   5.416   2.620   3.740
  818SOL    HW1 3353   5.452   2.652   3.652
  818SOL    HW2 3354   5.407   2.520   3.737
  819SOL     OW 3355   5.474   2.869   1.605
  819SOL    HW1 3356   5.452   2.845   1.699
  819SOL    HW2 3357   5.419   2.814   1.542
  820SOL     OW 3358   3.062   2.006   4.628
  820SOL    HW1 3359   3.120   2.059   4.691
  820SOL    HW2 3360   2.967   2.035   4.639
  821SOL     OW 3361   5.788   5.093   4.796
  821SOL    HW1 3362   5.767   5.069   4.891
  821SOL    HW2 3363   5.774   5.014   4.737
  822SOL     OW 3364   0.276   4.415   3.268
  822SOL    HW1 3365   0.313   4.507   3.277
  822SOL    HW2 3366   0.221   4.408   3.185
  823SOL     OW 3367   7.013   3.838   5.913
  823SOL    HW1 3368   0.088   3.811   5.904
  823SOL    HW2 3369   7.008   3.935   5.937
  824SOL     OW 3370   5.599   1.398   5.472
  824SOL    HW1 3371   5.649   1.313   5.489
  824SOL    HW2 3372   5.538   1.386   5.394
  825SOL     OW 3373   6.185   5.886   1.009
  825SOL    HW1 3374   6.222   5.978   1.023
  825SOL    HW2 3375   6.116   5.866   1.078
  826SOL     OW 3376   3.776   2.326   6.406
  826SOL    HW1 3377   3.775   2.250   6.342
  826SOL    HW2 3378   3.813   2.295   6.494
  827SOL     OW 3379   3.314   4.190   5.191
  827SOL    HW1 3380   3.265   4.160   5.273
  827SOL    HW2 3381   3.250   4.233   5.127
  828SOL     OW 3382   6.207   5.589   5.021
  828SOL    HW1 3383   6.126   5.551   5.065
  828SOL    HW2 3384   6.272   5.515   5.001
  829SOL     OW 3385   3.419   2.861   2.262
  829SOL    HW1 3386   3.407   2.854   2.361
  829SOL    HW2 3387   3.510   2.896   2.241
  830SOL     OW 3388   6.053   4.858   6.463
  830SOL    HW1 3389   6.038   4.947   6.420
  830SOL    HW2 3390   6.084   4.792   6.394
  831SOL     OW 3391   5.929   6.786   1.335
  831SOL    HW1 3392   5.928   6.884   1.352
  831SOL    HW2 3393   5.989   6.765   1.258
  832SOL     OW 3394   4.313   1.192   4.496
  832SOL    HW1 3395   4.257   1.200   4.413
  832SOL    HW2 3396   4.256   1.158   4.571
  833SOL     OW 3397   1.201   3.927   6.546
  833SOL    HW1 3398   1.229   3.831   6.537
  833SOL    HW2 3399   1.141   3.937   6.625
  834SOL     OW 3400   4.853   3.337   6.711
  834SOL    HW1 3401   4.935   3.283   6.694
  834SOL    HW2 3402   4.879   3.429   6.741
  835SOL     OW 3403   2.125   0.783   5.155
  835SOL    HW1 3404   2.052   0.757   5.092
  835SOL    HW2 3405   2.165   0.870   5.126
  836SOL     OW 3406   3.168   1.602   5.974
  836SOL    HW1 3407   3.197   1.679   6.031
  836SOL    HW2 3408   3.211   1.609   5.884
  837SOL     OW 3409   1.174   0.242   1.695
  837SOL    HW1 3410   1.122   0.236   1.610
  837SOL    HW2 3411   1.134   0.180   1.763
  838SOL     OW 3412   2.006   6.117   4.352
  838SOL    HW1 3413   2.026   6.203   4.306
  838SOL    HW2 3414   1.996   6.044   4.284
  839SOL     OW 3415   2.707   1.638   1.654
  839SOL    HW1 3416   2.678   1.703   1.725
  839SOL    HW2 3417   2.786   1.674   1.606
  840SOL     OW 3418   6.074   5.621   0.145
  840SOL    HW1 3419   5.982   5.616   0.185
  840SOL    HW2 3420   6.128   5.543   0.177
  841SOL     OW 3421   4.188   5.938   5.728
  841SOL    HW1 3422   4.188   5.917   5.630
  841SOL    HW2 3423   4.094   5.949   5.760
  842SOL     OW 3424   3.265   6.436   0.091
  842SOL    HW1 3425   3.247   6.339   0.105
  842SOL    HW2 3426   3.329   6.448   0.016
  843SOL     OW 3427   2.696   1.980   2.135
  843SOL    HW1 3428   2.606   1.959   2.097
  843SOL    HW2 3429   2.712   2.078   2.130
  844SOL     OW 3430   0.065   6.367   1.483
  844SOL    HW1 3431   0.036   6.354   1.578
  844SOL    HW2 3432   0.115   6.286   1.453
  845SOL     OW 3433   4.564   2.192   3.051
  845SOL    HW1 3434   4.514   2.144   2.979
  845SOL    HW2 3435   4.500   2.250   3.102
  846SOL     OW 3436   2.888   1.275   6.287
  846SOL    HW1 3437   2.870   1.183   6.322
  846SOL    HW2 3438   2.865   1.280   6.190
  847SOL     OW 3439   2.178   3.252   1.830
  847SOL    HW1 3440   2.237   3.332   1.829
  847SOL    HW2 3441   2.135   3.243   1.921
  848SOL     OW 3442   6.693   6.973   5.846
  848SOL    HW1 3443   6.685   6.911   5.768
  848SOL    HW2 3444   6.636   6.941   5.921
  849SOL     OW 3445   6.140   3.371   0.326
  849SOL    HW1 3446   6.077   3.295   0.308
  849SOL    HW2 3447   6.182   3.401   0.241
  850SOL     OW 3448   0.615   0.567   4.997
  850SOL    HW1 3449   0.613   0.600   5.091
  850SOL    HW2 3450   0.705   0.584   4.957
  851SOL     OW 3451   6.732   3.474   0.030
  851SOL    HW1 3452   6.655   3.416   0.055
  851SOL    HW2 3453   6.818   3.426   0.048
  852SOL     OW 3454   0.202   5.064   0.798
  852SOL    HW1 3455   0.135   5.052   0.725
  852SOL    HW2 3456   0.266   5.137   0.773
  853SOL     OW 3457   2.405   4.127   6.374
  853SOL    HW1 3458   2.495   4.085   6.389
  853SOL    HW2 3459   2.354   4.072   6.308
  854SOL     OW 3460   5.533   6.529   0.112
  854SOL    HW1 3461   5.528   6.584   0.028
  854SOL    HW2 3462   5.522   6.588   0.191
  855SOL     OW 3463   6.437   0.435   6.920
  855SOL    HW1 3464   6.469   0.341   6.927
  855SOL    HW2 3465   6.337   0.436   6.913
  856SOL     OW 3466   1.117   6.491   5.924
  856SOL    HW1 3467   1.027   6.459   5.954
  856SOL    HW2 3468   1.188   6.433   5.964
  857SOL     OW 3469   0.087   4.653   2.585
  857SOL    HW1 3470   0.027   4.724   2.622
  857SOL    HW2 3471   0.033   4.573   2.559
  858SOL     OW 3472   3.080   3.551   1.200
  858SOL    HW1 3473   3.151   3.526   1.133
  858SOL    HW2 3474   3.006   3.485   1.196
  859SOL     OW 3475   4.829   5.992   5.318
  859SOL    HW1 3476   4.915   6.036   5.345
  859SOL    HW2 3477   4.809   5.917   5.381
  860SOL     OW 3478   5.709   2.722   6.162
  860SOL    HW1 3479   5.690   2.719   6.063
  860SOL    HW2 3480   5.649   2.658   6.209
  861SOL     OW 3481   2.036   5.535   3.052
  861SOL    HW1 3482   2.033   5.630   3.020
  861SOL    HW2 3483   2.025   5.533   3.151
  862SOL     OW 3484   1.995   4.905   3.988
  862SOL    HW1 3485   2.011   4.930   3.892
  862SOL    HW2 3486   1.928   4.832   3.993
  863SOL     OW 3487   5.759   1.050   6.010
  863SOL    HW1 3488   5.824   1.059   5.935
  863SOL    HW2 3489   5.677   1.002   5.978
  864SOL     OW 3490   5.000   6.974   5.198
  864SOL    HW1 3491   5.067   0.027   5.207
  864SOL    HW2 3492   4.986   6.953   5.101
  865SOL     OW 3493   1.888   0.079   5.713
  865SOL    HW1 3494   1.980   0.109   5.685
  865SOL    HW2 3495   1.821   0.146   5.682
  866SOL     OW 3496   3.733   6.487   0.826
  866SOL    HW1 3497   3.664   6.426   0.787
  866SOL    HW2 3498   3.701   6.582   0.820
  867SOL     OW 3499   5.663   2.920   0.290
  867SOL    HW1 3500   5.656   3.013   0.325
  867SOL    HW2 3501   5.619   2.915   0.200
  868SOL     OW 3502   0.101   2.348   2.654
  868SOL    HW1 3503   0.022   2.297   2.685
  868SOL    HW2 3504   0.096   2.361   2.555
  869SOL     OW 3505   7.005   3.729   3.755
  869SOL    HW1 3506   0.026   3.790   3.686
  869SOL    HW2 3507   6.947   3.662   3.709
  870SOL     OW 3508   4.207   4.547   1.050
  870SOL    HW1 3509   4.285   4.610   1.052
  870SOL    HW2 3510   4.240   4.454   1.063
  871SOL     OW 3511   4.996   2.058   4.218
  871SOL    HW1 3512   5.059   2.014   4.154
  871SOL    HW2 3513   5.034   2.145   4.247
  872SOL     OW 3514   0.138   2.437   4.879
  872SOL    HW1 3515   0.140   2.535   4.859
  872SOL    HW2 3516   0.220   2.394   4.842
  873SOL     OW 3517   4.173   6.587   5.604
  873SOL    HW1 3518   4.129   6.573   5.693
  873SOL    HW2 3519   4.171   6.502   5.552
  874SOL     OW 3520   6.051   4.361   6.760
  874SOL    HW1 3521   6.024   4.457   6.746
  874SOL    HW2 3522   5.992   4.320   6.829
  875SOL     OW 3523   5.082   5.988   0.597
  875SOL    HW1 3524   5.086   5.918   0.668
  875SOL    HW2 3525   5.162   6.047   0.605
  876SOL     OW 3526   0.662   5.377   2.096
  876SOL    HW1 3527   0.563   5.379   2.089
  876SOL    HW2 3528   0.688   5.378   2.193
  877SOL     OW 3529   3.432   4.119   6.037
  877SOL    HW1 3530   3.502   4.064   6.083
  877SOL    HW2 3531   3.342   4.094   6.072
  878SOL     OW 3532   5.065   6.819   4.120
  878SOL    HW1 3533   5.052   6.783   4.027
  878SOL    HW2 3534   5.159   6.804   4.149
  879SOL     OW 3535   3.512   0.369   1.172
  879SOL    HW1 3536   3.531   0.439   1.240
  879SOL    HW2 3537   3.427   0.321   1.195
  880SOL     OW 3538   4.098   3.758   4.059
  880SOL    HW1 3539   4.097   3.659   4.070
  880SOL    HW2 3540   4.131   3.781   3.967
  881SOL     OW 3541   4.857   3.130   4.665
  881SOL    HW1 3542   4.895   3.223   4.665
  881SOL    HW2 3543   4.860   3.093   4.758
  882SOL     OW 3544   1.001   3.194   3.938
  882SOL    HW1 3545   1.061   3.127   3.980
  882SOL    HW2 3546   0.989   3.172   3.841
  883SOL     OW 3547   3.653   0.929   1.161
  883SOL    HW1 3548   3.661   0.829   1.157
  883SOL    HW2 3549   3.561   0.955   1.131
  884SOL     OW 3550   5.363   3.564   6.055
  884SOL    HW1 3551   5.296   3.500   6.093
  884SOL    HW2 3552   5.323   3.656   6.052
  885SOL     OW 3553   3.571   1.348   5.094
  885SOL    HW1 3554   3.557   1.320   5.190
  885SOL    HW2 3555   3.660   1.317   5.063
  886SOL     OW 3556   3.957   0.020   0.048
  886SOL    HW1 3557   3.975   0.107   0.093
  886SOL    HW2 3558   4.038   6.982   0.053
  887SOL     OW 3559   4.021   6.734   3.662
  887SOL    HW1 3560   4.112   6.710   3.628
  887SOL    HW2 3561   3.954   6.673   3.621
  888SOL     OW 3562   7.008   6.423   3.335
  888SOL    HW1 3563   0.008   6.331   3.365
  888SOL    HW2 3564   0.000   6.429   3.236
  889SOL     OW 3565   6.965   3.658   0.912
  889SOL    HW1 3566   0.031   3.609   0.901
  889SOL    HW2 3567   6.979   3.736   0.973
  890SOL     OW 3568   1.169   5.731   2.784
  890SOL    HW1 3569   1.216   5.737   2.872
  890SOL    HW2 3570   1.125   5.819   2.764
  891SOL     OW 3571   5.904   5.090   0.397
  891SOL    HW1 3572   5.959   5.064   0.476
  891SOL    HW2 3573   5.827   5.027   0.387
  892SOL     OW 3574   2.438   3.661   5.376
  892SOL    HW1 3575   2.342   3.688   5.363
  892SOL    HW2 3576   2.493   3.743   5.394
  893SOL     OW 3577   2.246   6.210   2.875
  893SOL    HW1 3578   2.288   6.125   2.844
  893SOL    HW2 3579   2.317   6.281   2.881
  894SOL     OW 3580   0.746   3.232   2.180
  894SOL    HW1 3581   0.804   3.296   2.230
  894SOL    HW2 3582   0.685   3.186   2.244
  895SOL     OW 3583   0.439   4.719   3.734
  895SOL    HW1 3584   0.388   4.801   3.707
  895SOL    HW2 3585   0.449   4.718   3.834
  896SOL     OW 3586   5.413   4.982   0.798
  896SOL    HW1 3587   5.387   4.987   0.895
  896SOL    HW2 3588   5.474   5.057   0.775
  897SOL     OW 3589   3.906   1.502   6.744
  897SOL    HW1 3590   3.818   1.547   6.760
  897SOL    HW2 3591   3.899   1.406   6.770
  898SOL     OW 3592   2.945   6.306   2.888
  898SOL    HW1 3593   2.920   6.235   2.953
  898SOL    HW2 3594   3.044   6.313   2.882
  899SOL     OW 3595   0.062   6.314   0.053
  899SOL    HW1 3596   0.005   6.232   0.063
  899SOL    HW2 3597   0.007   6.395   0.075
  900SOL     OW 3598   5.706   6.813   0.745
  900SOL    HW1 3599   5.719   6.789   0.841
  900SOL    HW2 3600   5.795   6.824   0.701
  901SOL     OW 3601   2.529   6.879   2.999
  901SOL    HW1 3602   2.617   6.862   2.954
  901SOL    HW2 3603   2.503   6.799   3.053
  902SOL     OW 3604   0.652   2.526   0.680
  902SOL    HW1 3605   0.654   2.429   0.656
  902SOL    HW2 3606   0.685   2.538   0.774
  903SOL     OW 3607   0.029   2.230   0.252
  903SOL    HW1 3608   0.058   2.173   0.329
  903SOL    HW2 3609   0.065   2.192   0.167
  904SOL     OW 3610   2.526   2.014   3.019
  904SOL    HW1 3611   2.457   1.981   2.955
  904SOL    HW2 3612   2.556   2.106   2.991
  905SOL     OW 3613   5.117   1.809   0.103
  905SOL    HW1 3614   5.034   1.808   0.047
  905SOL    HW2 3615   5.093   1.821   0.199
  906SOL     OW 3616   6.735   1.869   6.243
  906SOL    HW1 3617   6.782   1.950   6.277
  906SOL    HW2 3618   6.770   1.788   6.290
  907SOL     OW 3619   5.408   3.336   0.522
  907SOL    HW1 3620   5.484   3.365   0.581
  907SOL    HW2 3621   5.354   3.268   0.570
  908SOL     OW 3622   2.445   4.493   2.342
  908SOL    HW1 3623   2.495   4.542   2.270
  908SOL    HW2 3624   2.409   4.408   2.304
  909SOL     OW 3625   4.548   5.591   0.932
  909SOL    HW1 3626   4.583   5.679   0.964
  909SOL    HW2 3627   4.461   5.605   0.884
  910SOL     OW 3628   2.918   2.044   0.905
  910SOL    HW1 3629   2.857   1.969   0.930
  910SOL    HW2 3630   2.953   2.029   0.813
  911SOL     OW 3631   0.849   6.375   6.533
  911SOL    HW1 3632   0.795   6.424   6.464
  911SOL    HW2 3633   0.797   6.367   6.617
  912SOL     OW 3634   6.276   2.075   2.986
  912SOL    HW1 3635   6.314   2.118   2.904
  912SOL    HW2 3636   6.281   1.976   2.977
  913SOL     OW 3637   4.667   6.674   3.108
  913SOL    HW1 3638   4.614   6.626   3.178
  913SOL    HW2 3639   4.624   6.762   3.088
  914SOL     OW 3640   2.333   6.756   6.628
  914SOL    HW1 3641   2.241   6.794   6.624
  914SOL    HW2 3642   2.400   6.829   6.615
  915SOL     OW 3643   5.996   4.637   6.718
  915SOL    HW1 3644   6.054   4.718   6.711
  915SOL    HW2 3645   5.909   4.662   6.760
  916SOL     OW 3646   1.932   2.726   1.978
  916SOL    HW1 3647   1.880   2.798   2.023
  916SOL    HW2 3648   1.870   2.669   1.924
  917SOL     OW 3649   0.239   6.598   0.725
  917SOL    HW1 3650   0.316   6.536   0.730
  917SOL    HW2 3651   0.267   6.690   0.754
  918SOL     OW 3652   3.256   0.413   0.470
  918SOL    HW1 3653   3.244   0.470   0.389
  918SOL    HW2 3654   3.263   0.317   0.443
  919SOL     OW 3655   5.437   1.674   2.858
  919SOL    HW1 3656   5.389   1.629   2.783
  919SOL    HW2 3657   5.533   1.644   2.860
  920SOL     OW 3658   2.539   3.926   1.730
  920SOL    HW1 3659   2.494   3.851   1.778
  920SOL    HW2 3660   2.484   4.008   1.736
  921SOL     OW 3661   4.871   5.953   4.014
  921SOL    HW1 3662   4.937   5.968   4.088
  921SOL    HW2 3663   4.847   6.040   3.971
  922SOL     OW 3664   4.089   3.666   4.432
  922SOL    HW1 3665   4.127   3.648   4.341
  922SOL    HW2 3666   3.998   3.627   4.439
  923SOL     OW 3667   2.535   3.080   6.748
  923SOL    HW1 3668   2.439   3.091   6.773
  923SOL    HW2 3669   2.592   3.098   6.828
  924SOL     OW 3670   5.936   4.261   1.445
  924SOL    HW1 3671   5.945   4.357   1.469
  924SOL    HW2 3672   5.998   4.207   1.502
  925SOL     OW 3673   0.098   2.710   0.067
  925SOL    HW1 3674   0.165   2.650   0.023
  925SOL    HW2 3675   0.100   2.800   0.022
  926SOL     OW 3676   6.860   0.615   1.076
  926SOL    HW1 3677   6.892   0.604   1.170
  926SOL    HW2 3678   6.768   0.655   1.076
  927SOL     OW 3679   5.309   3.859   3.933
  927SOL    HW1 3680   5.253   3.896   3.859
  927SOL    HW2 3681   5.377   3.796   3.895
  928SOL     OW 3682   2.499   5.581   0.753
  928SOL    HW1 3683   2.559   5.620   0.683
  928SOL    HW2 3684   2.409   5.564   0.713
  929SOL     OW 3685   6.974   0.627   0.057
  929SOL    HW1 3686   6.886   0.589   0.086
  929SOL    HW2 3687   6.991   0.712   0.106
  930SOL     OW 3688   4.805   5.642   6.267
  930SOL    HW1 3689   4.739   5.623   6.194
  930SOL    HW2 3690   4.758   5.682   6.345
  931SOL     OW 3691   6.571   1.609   4.844
  931SOL    HW1 3692   6.546   1.538   4.910
  931SOL    HW2 3693   6.577   1.569   4.753
  932SOL     OW 3694   2.707   1.589   3.257
  932SOL    HW1 3695   2.700   1.639   3.171
  932SOL    HW2 3696   2.749   1.500   3.241
  933SOL     OW 3697   1.421   5.703   2.912
  933SOL    HW1 3698   1.458   5.720   2.821
  933SOL    HW2 3699   1.466   5.623   2.952
  934SOL     OW 3700   2.645   5.653   6.002
  934SOL    HW1 3701   2.659   5.749   6.025
  934SOL    HW2 3702   2.553   5.640   5.966
  935SOL     OW 3703   4.895   4.284   3.882
  935SOL    HW1 3704   4.870   4.313   3.790
  935SOL    HW2 3705   4.860   4.192   3.898
  936SOL     OW 3706   1.244   6.760   6.239
  936SOL    HW1 3707   1.159   6.723   6.201
  936SOL    HW2 3708   1.320   6.698   6.218
  937SOL     OW 3709   5.401   1.915   5.732
  937SOL    HW1 3710   5.368   1.821   5.737
  937SOL    HW2 3711   5.324   1.977   5.714
  938SOL     OW 3712   6.358   5.639   4.401
  938SOL    HW1 3713   6.388   5.640   4.496
  938SOL    HW2 3714   6.430   5.602   4.343
  939SOL     OW 3715   0.627   0.134   4.202
  939SOL    HW1 3716   0.659   0.040   4.211
  939SOL    HW2 3717   0.658   0.172   4.115
  940SOL     OW 3718   0.509   4.207   0.703
  940SOL    HW1 3719   0.594   4.236   0.659
  940SOL    HW2 3720   0.516   4.112   0.733
  941SOL     OW 3721   5.111   0.526   6.558
  941SOL    HW1 3722   5.046   0.472   6.611
  941SOL    HW2 3723   5.092   0.514   6.460
  942SOL     OW 3724   6.074   6.443   1.737
  942SOL    HW1 3725   6.128   6.528   1.740
  942SOL    HW2 3726   6.026   6.438   1.650
  943SOL     OW 3727   1.992   4.927   2.584
  943SOL    HW1 3728   1.982   4.860   2.657
  943SOL    HW2 3729   1.975   4.883   2.496
  944SOL     OW 3730   0.738   5.232   4.655
  944SOL    HW1 3731   0.696   5.278   4.577
  944SOL    HW2 3732   0.810   5.291   4.694
  945SOL     OW 3733   0.385   4.796   5.289
  945SOL    HW1 3734   0.311   4.803   5.356
  945SOL    HW2 3735   0.391   4.701   5.256
  946SOL     OW 3736   4.669   4.856   4.207
  946SOL    HW1 3737   4.606   4.894   4.274
  946SOL    HW2 3738   4.666   4.910   4.123
  947SOL     OW 3739   3.476   3.279   3.726
  947SOL    HW1 3740   3.403   3.264   3.660
  947SOL    HW2 3741   3.468   3.371   3.764
  948SOL     OW 3742   4.777   1.436   2.733
  948SOL    HW1 3743   4.848   1.497   2.696
  948SOL    HW2 3744   4.781   1.436   2.832
  949SOL     OW 3745   3.197   6.118   0.117
  949SOL    HW1 3746   3.154   6.092   0.204
  949SOL    HW2 3747   3.139   6.089   0.041
  950SOL     OW 3748   5.634   5.754   2.572
  950SOL    HW1 3749   5.617   5.710   2.660
  950SOL    HW2 3750   5.659   5.850   2.588
  951SOL     OW 3751   1.011   0.439   3.809
  951SOL    HW1 3752   1.028   0.343   3.834
  951SOL    HW2 3753   1.021   0.496   3.890
  952SOL     OW 3754   4.061   2.190   2.783
  952SOL    HW1 3755   4.072   2.211   2.686
  952SOL    HW2 3756   4.143   2.218   2.833
  953SOL     OW 3757   5.845   6.192   4.966
  953SOL    HW1 3758   5.812   6.242   5.046
  953SOL    HW2 3759   5.844   6.094   4.986
  954SOL     OW 3760   4.196   6.290   2.451
  954SOL    HW1 3761   4.243   6.356   2.391
  954SOL    HW2 3762   4.101   6.280   2.422
  955SOL     OW 3763   1.920   4.463   0.169
  955SOL    HW1 3764   1.881   4.555   0.159
  955SOL    HW2 3765   1.866   4.398   0.116
  956SOL     OW 3766   6.925   0.500   1.601
  956SOL    HW1 3767   6.977   0.506   1.687
  956SOL    HW2 3768   6.829   0.480   1.622
  957SOL     OW 3769   6.221   1.395   1.693
  957SOL    HW1 3770   6.213   1.304   1.734
  957SOL    HW2 3771   6.316   1.427   1.699
  958SOL     OW 3772   4.560   6.076   2.102
  958SOL    HW1 3773   4.507   6.066   2.187
  958SOL    HW2 3774   4.620   6.156   2.110
  959SOL     OW 3775   3.529   6.534   4.595
  959SOL    HW1 3776   3.603   6.601   4.598
  959SOL    HW2 3777   3.480   6.534   4.682
  960SOL     OW 3778   1.627   0.519   1.000
  960SOL    HW1 3779   1.536   0.478   0.988
  960SOL    HW2 3780   1.672   0.527   0.912
  961SOL     OW 3781   4.067   6.695   3.286
  961SOL    HW1 3782   4.053   6.667   3.191
  961SOL    HW2 3783   3.979   6.719   3.327
  962SOL     OW 3784   6.414   1.199   4.142
  962SOL    HW1 3785   6.482   1.254   4.190
  962SOL    HW2 3786   6.456   1.159   4.060
  963SOL     OW 3787   4.341   0.995   0.716
  963SOL    HW1 3788   4.406   1.031   0.649
  963SOL    HW2 3789   4.362   1.032   0.806
  964SOL     OW 3790   4.655   5.219   5.470
  964SOL    HW1 3791   4.567   5.220   5.421
  964SOL    HW2 3792   4.653   5.287   5.543
  965SOL     OW 3793   6.286   1.853   2.125
  965SOL    HW1 3794   6.204   1.907   2.109
  965SOL    HW2 3795   6.268   1.757   2.103
  966SOL     OW 3796   4.982   2.454   3.588
  966SOL    HW1 3797   4.979   2.392   3.666
  966SOL    HW2 3798   5.074   2.455   3.549
  967SOL     OW 3799   2.840   5.228   0.057
  967SOL    HW1 3800   2.814   5.131   0.062
  967SOL    HW2 3801   2.758   5.284   0.053
  968SOL     OW 3802   3.997   6.649   1.762
  968SOL    HW1 3803   3.913   6.671   1.813
  968SOL    HW2 3804   4.048   6.734   1.745
  969SOL     OW 3805   2.420   5.512   5.846
  969SOL    HW1 3806   2.428   5.420   5.886
  969SOL    HW2 3807   2.499   5.529   5.787
  970SOL     OW 3808   5.516   0.959   5.928
  970SOL    HW1 3809   5.448   0.886   5.919
  970SOL    HW2 3810   5.473   1.040   5.968
  971SOL     OW 3811   0.093   3.100   2.787
  971SOL    HW1 3812   0.125   3.077   2.695
  971SOL    HW2 3813   0.138   3.184   2.818
  972SOL     OW 3814   7.000   2.719   1.897
  972SOL    HW1 3815   6.951   2.633   1.883
  972SOL    HW2 3816   6.938   2.796   1.883
  973SOL     OW 3817   0.299   4.771   6.319
  973SOL    HW1 3818   0.215   4.813   6.354
  973SOL    HW2 3819   0.281   4.726   6.232
  974SOL     OW 3820   0.797   5.192   2.356
  974SOL    HW1 3821   0.742   5.135   2.417
  974SOL    HW2 3822   0.752   5.280   2.342
  975SOL     OW 3823   2.695   0.008   0.253
  975SOL    HW1 3824   2.654   6.974   0.326
  975SOL    HW2 3825   2.794   0.001   0.258
  976SOL     OW 3826   6.721   3.692   1.344
  976SOL    HW1 3827   6.758   3.641   1.267
  976SOL    HW2 3828   6.627   3.663   1.362
  977SOL     OW 3829   0.344   0.902   2.283
  977SOL    HW1 3830   0.414   0.949   2.338
  977SOL    HW2 3831   0.283   0.969   2.242
  978SOL     OW 3832   5.782   1.629   1.161
  978SOL    HW1 3833   5.697   1.635   1.109
  978SOL    HW2 3834   5.834   1.549   1.131
  979SOL     OW 3835   0.728   2.945   6.223
  979SOL    HW1 3836   0.631   2.955   6.247
  979SOL    HW2 3837   0.768   3.034   6.205
  980SOL     OW 3838   4.047   0.971   4.549
  980SOL    HW1 3839   4.070   0.895   4.489
  980SOL    HW2 3840   3.979   1.029   4.504
  981SOL     OW 3841   0.833   0.127   5.223
  981SOL    HW1 3842   0.804   0.223   5.232
  981SOL    HW2 3843   0.883   0.116   5.137
  982SOL     OW 3844   0.691   1.560   5.531
  982SOL    HW1 3845   0.602   1.526   5.562
  982SOL    HW2 3846   0.681   1.597   5.438
  983SOL     OW 3847   0.004   3.390   3.087
  983SOL    HW1 3848   6.966   3.327   3.138
  983SOL    HW2 3849   0.066   3.337   3.029
  984SOL     OW 3850   1.390   2.032   2.828
  984SOL    HW1 3851   1.355   1.959   2.886
  984SOL    HW2 3852   1.438   2.100   2.884
  985SOL     OW 3853   6.564   4.227   4.295
  985SOL    HW1 3854   6.469   4.253   4.310
  985SOL    HW2 3855   6.567   4.146   4.237
  986SOL     OW 3856   4.704   5.060   1.187
  986SOL    HW1 3857   4.799   5.085   1.167
  986SOL    HW2 3858   4.648   5.143   1.193
  987SOL     OW 3859   5.447   6.380   3.337
  987SOL    HW1 3860   5.490   6.400   3.249
  987SOL    HW2 3861   5.468   6.453   3.402
  988SOL     OW 3862   3.222   3.867   2.383
  988SOL    HW1 3863   3.189   3.867   2.289
  988SOL    HW2 3864   3.251   3.959   2.408
  989SOL     OW 3865   6.704   1.947   0.454
  989SOL    HW1 3866   6.683   1.977   0.361
  989SOL    HW2 3867   6.647   1.997   0.520
  990SOL     OW 3868   3.580   6.956   2.914
  990SOL    HW1 3869   3.668   6.916   2.937
  990SOL    HW2 3870   3.514   6.936   2.987
  991SOL     OW 3871   6.635   4.612   3.283
  991SOL    HW1 3872   6.708   4.638   3.220
  991SOL    HW2 3873   6.604   4.519   3.263
  992SOL     OW 3874   1.143   3.381   1.333
  992SOL    HW1 3875   1.092   3.373   1.419
  992SOL    HW2 3876   1.171   3.290   1.303
  993SOL     OW 3877   0.729   4.068   0.979
  993SOL    HW1 3878   0.818   4.031   0.954
  993SOL    HW2 3879   0.657   4.007   0.947
  994SOL     OW 3880   3.278   5.162   0.858
  994SOL    HW1 3881   3.263   5.109   0.941
  994SOL    HW2 3882   3.198   5.221   0.841
  995SOL     OW 3883   4.324   3.170   5.623
  995SOL    HW1 3884   4.386   3.220   5.562
  995SOL    HW2 3885   4.234   3.163   5.579
  996SOL     OW 3886   3.752   5.236   4.926
  996SOL    HW1 3887   3.673   5.289   4.895
  996SOL    HW2 3888   3.752   5.231   5.026
  997SOL     OW 3889   1.240   6.886   3.653
  997SOL    HW1 3890   1.258   6.801   3.604
  997SOL    HW2 3891   1.172   6.941   3.604
  998SOL     OW 3892   6.624   0.438   6.247
  998SOL    HW1 3893   6.710   0.461   6.293
  998SOL    HW2 3894   6.559   0.513   6.260
  999SOL     OW 3895   4.979   3.739   1.456
  999SOL    HW1 3896   4.879   3.744   1.461
  999SOL    HW2 3897   5.014   3.692   1.537
 1000SOL     OW 3898   4.091   1.129   1.676
 1000SOL    HW1 3899   4.001   1.094   1.706
 1000SOL    HW2 3900   4.078   1.194   1.601
 1001SOL     OW 3901   3.248   5.908   2.345
 1001SOL    HW1 3902   3.199   5.862   2.419
 1001SOL    HW2 3903   3.207   5.998   2.329
 1002SOL     OW 3904   5.678   2.182   1.359
 1002SOL    HW1 3905   5.770   2.165   1.322
 1002SOL    HW2 3906   5.628   2.242   1.297
 1003SOL     OW 3907   1.766   5.877   2.589
 1003SOL    HW1 3908   1.847   5.828   2.621
 1003SOL    HW2 3909   1.790   5.931   2.508
 1004SOL     OW 3910   6.386   1.193   2.485
 1004SOL    HW1 3911   6.482   1.189   2.512
 1004SOL    HW2 3912   6.376   1.148   2.396
 1005SOL     OW 3913   1.774   4.732   4.048
 1005SOL    HW1 3914   1.765   4.671   3.970
 1005SOL    HW2 3915   1.713   4.810   4.037
 1006SOL     OW 3916   2.179   3.758   0.109
 1006SOL    HW1 3917   2.152   3.848   0.076
 1006SOL    HW2 3918   2.098   3.708   0.141
 1007SOL     OW 3919   4.405   1.531   6.460
 1007SOL    HW1 3920   4.432   1.627   6.463
 1007SOL    HW2 3921   4.344   1.511   6.538
 1008SOL     OW 3922   0.116   3.806   4.924
 1008SOL    HW1 3923   0.038   3.771   4.975
 1008SOL    HW2 3924   0.173   3.730   4.893
 1009SOL     OW 3925   6.245   4.569   5.442
 1009SOL    HW1 3926   6.159   4.571   5.493
 1009SOL    HW2 3927   6.271   4.662   5.418
 1010SOL     OW 3928   2.775   2.383   1.496
 1010SOL    HW1 3929   2.796   2.459   1.557
 1010SOL    HW2 3930   2.785   2.414   1.401
 1011SOL     OW 3931   0.241   5.735   3.425
 1011SOL    HW1 3932   0.295   5.819   3.418
 1011SOL    HW2 3933   0.251   5.696   3.517
 1012SOL     OW 3934   6.737   6.929   2.599
 1012SOL    HW1 3935   6.719   6.987   2.520
 1012SOL    HW2 3936   6.684   6.845   2.591
 1013SOL     OW 3937   6.756   1.048   6.355
 1013SOL    HW1 3938   6.708   1.130   6.323
 1013SOL    HW2 3939   6.763   1.051   6.455
 1014SOL     OW 3940   0.890   3.991   4.824
 1014SOL    HW1 3941   0.958   3.963   4.892
 1014SOL    HW2 3942   0.824   4.053   4.866
 1015SOL     OW 3943   2.659   0.748   6.483
 1015SOL    HW1 3944   2.752   0.734   6.516
 1015SOL    HW2 3945   2.645   0.846   6.465
 1016SOL     OW 3946   4.710   4.751   1.204
 1016SOL    HW1 3947   4.693   4.847   1.223
 1016SOL    HW2 3948   4.807   4.737   1.183
 1017SOL     OW 3949   2.931   1.760   1.559
 1017SOL    HW1 3950   2.989   1.679   1.550
 1017SOL    HW2 3951   2.958   1.828   1.491
 1018SOL     OW 3952   7.000   4.514   3.294
 1018SOL    HW1 3953   0.045   4.458   3.243
 1018SOL    HW2 3954   0.029   4.584   3.345
 1019SOL     OW 3955   6.792   5.125   0.005
 1019SOL    HW1 3956   6.787   5.084   6.935
 1019SOL    HW2 3957   6.795   5.053   0.074
 1020SOL     OW 3958   6.310   0.756   0.905
 1020SOL    HW1 3959   6.359   0.816   0.968
 1020SOL    HW2 3960   6.219   0.736   0.941
 1021SOL     OW 3961   6.311   6.084   2.381
 1021SOL    HW1 3962   6.276   6.007   2.328
 1021SOL    HW2 3963   6.310   6.061   2.478
 1022SOL     OW 3964   2.619   5.802   6.317
 1022SOL    HW1 3965   2.615   5.900   6.338
 1022SOL    HW2 3966   2.622   5.750   6.402
 1023SOL     OW 3967   0.038   0.408   2.489
 1023SOL    HW1 3968   0.010   0.315   2.514
 1023SOL    HW2 3969   0.115   0.437   2.546
 1024SOL     OW 3970   0.724   1.748   4.233
 1024SOL    HW1 3971   0.638   1.707   4.263
 1024SOL    HW2 3972   0.709   1.800   4.148
 1025SOL     OW 3973   4.813   3.056   0.375
 1025SOL    HW1 3974   4.803   3.151   0.403
 1025SOL    HW2 3975   4.881   3.011   0.433
 1026SOL     OW 3976   2.836   2.585   1.703
 1026SOL    HW1 3977   2.876   2.527   1.775
 1026SOL    HW2 3978   2.890   2.668   1.693
 1027SOL     OW 3979   1.699   6.926   1.549
 1027SOL    HW1 3980   1.698   7.017   1.590
 1027SOL    HW2 3981   1.793   6.898   1.533
 1028SOL     OW 3982   1.685   6.818   3.226
 1028SOL    HW1 3983   1.724   6.783   3.311
 1028SOL    HW2 3984   1.589   6.842   3.242
 1029SOL     OW 3985   1.467   2.168   6.350
 1029SOL    HW1 3986   1.453   2.159   6.251
 1029SOL    HW2 3987   1.479   2.264   6.374
 1030SOL     OW 3988   3.474   3.180   1.678
 1030SOL    HW1 3989   3.535   3.120   1.628
 1030SOL    HW2 3990   3.473   3.154   1.774
 1031SOL     OW 3991   4.422   3.205   1.350
 1031SOL    HW1 3992   4.504   3.147   1.351
 1031SOL    HW2 3993   4.383   3.208   1.442
 1032SOL     OW 3994   2.330   1.430   5.261
 1032SOL    HW1 3995   2.369   1.418   5.352
 1032SOL    HW2 3996   2.389   1.387   5.193
 1033SOL     OW 3997   1.899   6.069   2.427
 1033SOL    HW1 3998   1.977   6.010   2.409
 1033SOL    HW2 3999   1.929   6.165   2.428
 1034SOL     OW 4000   1.778   6.482   4.520
 1034SOL    HW1 4001   1.797   6.555   4.586
 1034SOL    HW2 4002   1.839   6.491   4.442
 1035SOL     OW 4003   0.388   2.205   6.027
 1035SOL    HW1 4004   0.383   2.278   5.959
 1035SOL    HW2 4005   0.303   2.153   6.026
 1036SOL     OW 4006   4.238   0.884   1.416
 1036SOL    HW1 4007   4.202   0.972   1.384
 1036SOL    HW2 4008   4.239   0.883   1.516
 1037SOL     OW 4009   1.224   1.647   2.933
 1037SOL    HW1 4010   1.212   1.563   2.879
 1037SOL    HW2 4011   1.321   1.661   2.951
 1038SOL     OW 4012   1.537   1.206   6.461
 1038SOL    HW1 4013   1.485   1.284   6.428
 1038SOL    HW2 4014   1.481   1.152   6.525
 1039SOL     OW 4015   3.032   3.085   3.860
 1039SOL    HW1 4016   3.014   3.070   3.958
 1039SOL    HW2 4017   3.120   3.043   3.836
 1040SOL     OW 4018   4.889   0.949   2.966
 1040SOL    HW1 4019   4.858   1.038   3.000
 1040SOL    HW2 4020   4.989   0.945   2.970
 1041SOL     OW 4021   6.911   6.925   3.867
 1041SOL    HW1 4022   6.868   6.950   3.954
 1041SOL    HW2 4023   6.841   6.913   3.797
 1042SOL     OW 4024   4.758   4.992   2.954
 1042SOL    HW1 4025   4.761   5.001   2.854
 1042SOL    HW2 4026   4.677   5.038   2.989
 1043SOL     OW 4027   4.072   2.206   3.456
 1043SOL    HW1 4028   4.079   2.208   3.356
 1043SOL    HW2 4029   4.121   2.284   3.494
 1044SOL     OW 4030   5.865   5.543   1.557
 1044SOL    HW1 4031   5.916   5.471   1.511
 1044SOL    HW2 4032   5.868   5.528   1.656
 1045SOL     OW 4033   3.158   0.156   3.194
 1045SOL    HW1 4034   3.175   0.251   3.165
 1045SOL    HW2 4035   3.090   0.114   3.135
 1046SOL     OW 4036   2.394   1.181   0.798
 1046SOL    HW1 4037   2.448   1.245   0.852
 1046SOL    HW2 4038   2.449   1.102   0.772
 1047SOL     OW 4039   3.331   0.486   4.236
 1047SOL    HW1 4040   3.315   0.397   4.193
 1047SOL    HW2 4041   3.286   0.557   4.183
 1048SOL     OW 4042   3.139   5.152   2.671
 1048SOL    HW1 4043   3.097   5.078   2.619
 1048SOL    HW2 4044   3.215   5.191   2.618
 1049SOL     OW 4045   5.158   0.008   3.528
 1049SOL    HW1 4046   5.101   6.947   3.529
 1049SOL    HW2 4047   5.118   0.077   3.467
 1050SOL     OW 4048   3.979   5.530   2.774
 1050SOL    HW1 4049   3.901   5.592   2.778
 1050SOL    HW2 4050   4.058   5.578   2.735
 1051SOL     OW 4051   0.080   6.051   0.287
 1051SOL    HW1 4052   0.112   6.143   0.312
 1051SOL    HW2 4053   0.056   6.000   0.370
 1052SOL     OW 4054   4.945   1.222   5.319
 1052SOL    HW1 4055   4.993   1.301   5.281
 1052SOL    HW2 4056   4.980   1.202   5.411
 1053SOL     OW 4057   5.818   4.138   2.534
 1053SOL    HW1 4058   5.807   4.064   2.468
 1053SOL    HW2 4059   5.892   4.116   2.598
 1054SOL     OW 4060   3.150   3.208   1.091
 1054SOL    HW1 4061   3.127   3.120   1.131
 1054SOL    HW2 4062   3.069   3.268   1.093
 1055SOL     OW 4063   4.962   6.528   6.549
 1055SOL    HW1 4064   4.979   6.489   6.639
 1055SOL    HW2 4065   4.953   6.454   6.482
 1056SOL     OW 4066   0.954   3.957   0.541
 1056SOL    HW1 4067   0.968   4.041   0.488
 1056SOL    HW2 4068   0.965   3.976   0.638
 1057SOL     OW 4069   3.719   2.101   1.719
 1057SOL    HW1 4070   3.700   2.144   1.630
 1057SOL    HW2 4071   3.713   2.170   1.791
 1058SOL     OW 4072   4.633   2.336   3.407
 1058SOL    HW1 4073   4.676   2.340   3.316
 1058SOL    HW2 4074   4.650   2.423   3.455
 1059SOL     OW 4075   2.131   6.474   2.165
 1059SOL    HW1 4076   2.123   6.554   2.224
 1059SOL    HW2 4077   2.226   6.464   2.135
 1060SOL     OW 4078   0.308   4.894   4.128
 1060SOL    HW1 4079   0.234   4.892   4.196
 1060SOL    HW2 4080   0.380   4.956   4.159
 1061SOL     OW 4081   6.418   3.532   6.900
 1061SOL    HW1 4082   6.441   3.625   6.872
 1061SOL    HW2 4083   6.420   3.526   7.000
 1062SOL     OW 4084   3.948   6.164   5.229
 1062SOL    HW1 4085   3.876   6.113   5.277
 1062SOL    HW2 4086   3.919   6.185   5.137
 1063SOL     OW 4087   6.959   6.769   6.809
 1063SOL    HW1 4088   6.922   6.862   6.811
 1063SOL    HW2 4089   0.008   6.759   6.880
 1064SOL     OW 4090   0.324   4.422   1.656
 1064SOL    HW1 4091   0.291   4.331   1.679
 1064SOL    HW2 4092   0.411   4.439   1.704
 1065SOL     OW 4093   3.210   0.653   4.040
 1065SOL    HW1 4094   3.194   0.751   4.051
 1065SOL    HW2 4095   3.261   0.636   3.956
 1066SOL     OW 4096   4.627   6.914   2.164
 1066SOL    HW1 4097   4.727   6.906   2.172
 1066SOL    HW2 4098   4.590   6.831   2.124
 1067SOL     OW 4099   2.193   0.736   0.002
 1067SOL    HW1 4100   2.147   0.768   0.085
 1067SOL    HW2 4101   2.187   0.636   7.017
 1068SOL     OW 4102   5.785   3.753   0.882
 1068SOL    HW1 4103   5.835   3.722   0.963
 1068SOL    HW2 4104   5.850   3.768   0.807
 1069SOL     OW 4105   5.397   5.283   0.951
 1069SOL    HW1 4106   5.485   5.237   0.961
 1069SOL    HW2 4107   5.380   5.340   1.031
 1070SOL     OW 4108   2.406   6.740   2.163
 1070SOL    HW1 4109   2.437   6.756   2.070
 1070SOL    HW2 4110   2.375   6.646   2.173
 1071SOL     OW 4111   0.971   2.015   4.639
 1071SOL    HW1 4112   1.032   2.077   4.590
 1071SOL    HW2 4113   0.965   1.927   4.592
 1072SOL     OW 4114   2.127   0.791   1.714
 1072SOL    HW1 4115   2.067   0.810   1.793
 1072SOL    HW2 4116   2.084   0.721   1.657
 1073SOL     OW 4117   5.458   2.111   3.143
 1073SOL    HW1 4118   5.556   2.099   3.125
 1073SOL    HW2 4119   5.411   2.025   3.125
 1074SOL     OW 4120   2.651   4.956   1.400
 1074SOL    HW1 4121   2.691   4.985   1.312
 1074SOL    HW2 4122   2.583   4.885   1.384
 1075SOL     OW 4123   5.905   1.533   4.283
 1075SOL    HW1 4124   5.976   1.463   4.295
 1075SOL    HW2 4125   5.876   1.566   4.372
 1076SOL     OW 4126   1.453   3.249   5.844
 1076SOL    HW1 4127   1.553   3.249   5.844
 1076SOL    HW2 4128   1.420   3.169   5.894
 1077SOL     OW 4129   6.987   6.565   0.138
 1077SOL    HW1 4130   0.048   6.616   0.164
 1077SOL    HW2 4131   6.939   6.614   0.065
 1078SOL     OW 4132   6.442   0.347   3.071
 1078SOL    HW1 4133   6.499   0.265   3.080
 1078SOL    HW2 4134   6.473   0.399   2.991
 1079SOL     OW 4135   1.368   5.475   1.859
 1079SOL    HW1 4136   1.360   5.574   1.858
 1079SOL    HW2 4137   1.307   5.435   1.791
 1080SOL     OW 4138   2.442   5.695   4.972
 1080SOL    HW1 4139   2.536   5.681   4.944
 1080SOL    HW2 4140   2.400   5.766   4.915
 1081SOL     OW 4141   6.856   5.645   4.310
 1081SOL    HW1 4142   6.860   5.572   4.377
 1081SOL    HW2 4143   6.944   5.694   4.309
 1082SOL     OW 4144   6.161   1.751   5.778
 1082SOL    HW1 4145   6.185   1.803   5.696
 1082SOL    HW2 4146   6.062   1.737   5.780
 1083SOL     OW 4147   5.032   3.307   0.417
 1083SOL    HW1 4148   4.934   3.320   0.400
 1083SOL    HW2 4149   5.073   3.394   0.444
 1084SOL     OW 4150   6.963   6.592   6.593
 1084SOL    HW1 4151   0.036   6.576   6.563
 1084SOL    HW2 4152   6.963   6.663   6.664
 1085SOL     OW 4153   2.115   3.662   3.409
 1085SOL    HW1 4154   2.071   3.725   3.345
 1085SOL    HW2 4155   2.104   3.696   3.502
 1086SOL     OW 4156   6.356   5.363   6.334
 1086SOL    HW1 4157   6.428   5.331   6.272
 1086SOL    HW2 4158   6.354   5.463   6.333
 1087SOL     OW 4159   0.952   1.489   5.520
 1087SOL    HW1 4160   0.954   1.389   5.511
 1087SOL    HW2 4161   0.863   1.517   5.555
 1088SOL     OW 4162   0.225   5.177   3.168
 1088SOL    HW1 4163   0.140   5.228   3.184
 1088SOL    HW2 4164   0.298   5.216   3.223
 1089SOL     OW 4165   0.861   5.502   5.077
 1089SOL    HW1 4166   0.948   5.454   5.063
 1089SOL    HW2 4167   0.813   5.461   5.154
 1090SOL     OW 4168   4.893   2.008   2.952
 1090SOL    HW1 4169   4.848   2.012   3.040
 1090SOL    HW2 4170   4.945   2.092   2.936
 1091SOL     OW 4171   1.905   3.762   3.236
 1091SOL    HW1 4172   1.903   3.838   3.301
 1091SOL    HW2 4173   1.811   3.730   3.219
 1092SOL     OW 4174   0.612   5.400   0.544
 1092SOL    HW1 4175   0.604   5.487   0.594
 1092SOL    HW2 4176   0.533   5.388   0.485
 1093SOL     OW 4177   2.745   6.485   1.731
 1093SOL    HW1 4178   2.707   6.531   1.651
 1093SOL    HW2 4179   2.794   6.402   1.702
 1094SOL     OW 4180   0.634   6.998   2.574
 1094SOL    HW1 4181   0.689   7.014   2.656
 1094SOL    HW2 4182   0.689   6.952   2.505
 1095SOL     OW 4183   0.545   2.413   6.492
 1095SOL    HW1 4184   0.448   2.431   6.478
 1095SOL    HW2 4185   0.599   2.473   6.432
 1096SOL     OW 4186   3.136   4.323   1.169
 1096SOL    HW1 4187   3.054   4.313   1.114
 1096SOL    HW2 4188   3.216   4.332   1.109
 1097SOL     OW 4189   1.742   5.672   2.821
 1097SOL    HW1 4190   1.730   5.666   2.920
 1097SOL    HW2 4191   1.678   5.739   2.784
 1098SOL     OW 4192   5.870   4.148   6.389
 1098SOL    HW1 4193   5.915   4.089   6.322
 1098SOL    HW2 4194   5.939   4.185   6.452
 1099SOL     OW 4195   4.720   1.411   6.767
 1099SOL    HW1 4196   4.625   1.425   6.796
 1099SOL    HW2 4197   4.781   1.442   6.840
 1100SOL     OW 4198   3.679   0.696   3.900
 1100SOL    HW1 4199   3.765   0.747   3.892
 1100SOL    HW2 4200   3.609   0.756   3.940
 1101SOL     OW 4201   5.490   3.775   5.156
 1101SOL    HW1 4202   5.398   3.752   5.123
 1101SOL    HW2 4203   5.551   3.698   5.140
 1102SOL     OW 4204   2.575   1.149   4.317
 1102SOL    HW1 4205   2.602   1.066   4.267
 1102SOL    HW2 4206   2.478   1.142   4.342
 1103SOL     OW 4207   2.600   1.116   0.219
 1103SOL    HW1 4208   2.669   1.106   0.291
 1103SOL    HW2 4209   2.510   1.132   0.260
 1104SOL     OW 4210   1.524   4.185   3.568
 1104SOL    HW1 4211   1.526   4.284   3.551
 1104SOL    HW2 4212   1.618   4.152   3.576
 1105SOL     OW 4213   4.907   2.870   4.542
 1105SOL    HW1 4214   4.868   2.938   4.603
 1105SOL    HW2 4215   4.993   2.905   4.503
 1106SOL     OW 4216   0.558   1.078   0.905
 1106SOL    HW1 4217   0.558   1.151   0.973
 1106SOL    HW2 4218   0.621   1.101   0.831
 1107SOL     OW 4219   0.989   0.578   0.264
 1107SOL    HW1 4220   1.033   0.668   0.263
 1107SOL    HW2 4221   1.053   0.510   0.229
 1108SOL     OW 4222   3.845   6.402   4.708
 1108SOL    HW1 4223   3.835   6.319   4.763
 1108SOL    HW2 4224   3.756   6.447   4.701
 1109SOL     OW 4225   5.618   1.698   4.389
 1109SOL    HW1 4226   5.708   1.714   4.428
 1109SOL    HW2 4227   5.562   1.647   4.454
 1110SOL     OW 4228   3.376   0.381   3.472
 1110SOL    HW1 4229   3.356   0.365   3.568
 1110SOL    HW2 4230   3.452   0.323   3.443
 1111SOL     OW 4231   5.671   3.957   6.367
 1111SOL    HW1 4232   5.739   4.026   6.393
 1111SOL    HW2 4233   5.701   3.910   6.285
 1112SOL     OW 4234   6.705   0.573   3.421
 1112SOL    HW1 4235   6.635   0.584   3.351
 1112SOL    HW2 4236   6.709   0.478   3.450
 1113SOL     OW 4237   6.265   4.457   1.376
 1113SOL    HW1 4238   6.243   4.381   1.314
 1113SOL    HW2 4239   6.297   4.421   1.463
 1114SOL     OW 4240   3.455   2.657   6.096
 1114SOL    HW1 4241   3.523   2.623   6.160
 1114SOL    HW2 4242   3.369   2.608   6.110
 1115SOL     OW 4243   4.228   4.121   5.380
 1115SOL    HW1 4244   4.303   4.180   5.351
 1115SOL    HW2 4245   4.246   4.086   5.472
 1116SOL     OW 4246   5.289   0.222   6.870
 1116SOL    HW1 4247   5.302   0.273   6.955
 1116SOL    HW2 4248   5.193   0.227   6.842
 1117SOL     OW 4249   0.963   2.130   1.568
 1117SOL    HW1 4250   0.880   2.166   1.610
 1117SOL    HW2 4251   0.943   2.103   1.474
 1118SOL     OW 4252   2.382   5.227   0.110
 1118SOL    HW1 4253   2.287   5.255   0.127
 1118SOL    HW2 4254   2.395   5.212   0.012
 1119SOL     OW 4255   4.284   4.373   1.737
 1119SOL    HW1 4256   4.260   4.326   1.652
 1119SOL    HW2 4257   4.355   4.321   1.785
 1120SOL     OW 4258   5.957   6.081   1.117
 1120SOL    HW1 4259   6.055   6.095   1.134
 1120SOL    HW2 4260   5.927   5.996   1.162
 1121SOL     OW 4261   0.531   4.549   5.201
 1121SOL    HW1 4262   0.620   4.591   5.183
 1121SOL    HW2 4263   0.543   4.452   5.220
 1122SOL     OW 4264   6.337   2.829   2.041
 1122SOL    HW1 4265   6.371   2.757   1.981
 1122SOL    HW2 4266   6.346   2.801   2.136
 1123SOL     OW 4267   4.494   2.453   3.738
 1123SOL    HW1 4268   4.555   2.508   3.681
 1123SOL    HW2 4269   4.462   2.508   3.815
 1124SOL     OW 4270   0.994   3.237   5.795
 1124SOL    HW1 4271   0.920   3.271   5.736
 1124SOL    HW2 4272   1.081   3.276   5.766
 1125SOL     OW 4273   1.681   2.925   4.634
 1125SOL    HW1 4274   1.653   2.847   4.690
 1125SOL    HW2 4275   1.749   2.979   4.684
 1126SOL     OW 4276   4.602   6.003   5.151
 1126SOL    HW1 4277   4.555   5.916   5.152
 1126SOL    HW2 4278   4.681   5.999   5.212
 1127SOL     OW 4279   5.396   6.724   4.872
 1127SOL    HW1 4280   5.392   6.797   4.940
 1127SOL    HW2 4281   5.466   6.746   4.804
 1128SOL     OW 4282   5.853   1.745   5.141
 1128SOL    HW1 4283   5.834   1.818   5.206
 1128SOL    HW2 4284   5.772   1.728   5.085
 1129SOL     OW 4285   1.977   6.942   0.532
 1129SOL    HW1 4286   2.022   6.986   0.454
 1129SOL    HW2 4287   1.898   6.890   0.499
 1130SOL     OW 4288   1.535   5.328   1.674
 1130SOL    HW1 4289   1.526   5.398   1.744
 1130SOL    HW2 4290   1.515   5.238   1.714
 1131SOL     OW 4291   1.925   0.795   4.889
 1131SOL    HW1 4292   1.932   0.875   4.948
 1131SOL    HW2 4293   1.850   0.808   4.824
 1132SOL     OW 4294   4.502   0.507   2.753
 1132SOL    HW1 4295   4.587   0.559   2.762
 1132SOL    HW2 4296   4.450   0.540   2.675
 1133SOL     OW 4297   0.807   0.357   0.338
 1133SOL    HW1 4298   0.728   0.381   0.281
 1133SOL    HW2 4299   0.882   0.420   0.319
 1134SOL     OW 4300   5.627   0.216   2.022
 1134SOL    HW1 4301   5.610   0.191   2.117
 1134SOL    HW2 4302   5.579   0.301   2.001
 1135SOL     OW 4303   2.422   6.761   3.799
 1135SOL    HW1 4304   2.464   6.670   3.794
 1135SOL    HW2 4305   2.494   6.830   3.813
 1136SOL     OW 4306   3.486   5.043   2.974
 1136SOL    HW1 4307   3.428   4.987   2.915
 1136SOL    HW2 4308   3.477   5.012   3.069
 1137SOL     OW 4309   0.561   6.583   6.561
 1137SOL    HW1 4310   0.609   6.547   6.481
 1137SOL    HW2 4311   0.493   6.516   6.592
 1138SOL     OW 4312   1.438   2.396   4.798
 1138SOL    HW1 4313   1.349   2.379   4.840
 1138SOL    HW2 4314   1.466   2.490   4.818
 1139SOL     OW 4315   2.673   4.635   3.903
 1139SOL    HW1 4316   2.750   4.699   3.902
 1139SOL    HW2 4317   2.685   4.571   3.979
 1140SOL     OW 4318   2.353   0.343   2.658
 1140SOL    HW1 4319   2.297   0.263   2.676
 1140SOL    HW2 4320   2.375   0.348   2.561
 1141SOL     OW 4321   6.345   5.647   6.293
 1141SOL    HW1 4322   6.342   5.664   6.194
 1141SOL    HW2 4323   6.297   5.720   6.341
 1142SOL     OW 4324   2.664   0.137   3.585
 1142SOL    HW1 4325   2.566   0.120   3.587
 1142SOL    HW2 4326   2.682   0.225   3.541
 1143SOL     OW 4327   1.632   2.674   2.323
 1143SOL    HW1 4328   1.652   2.764   2.362
 1143SOL    HW2 4329   1.652   2.603   2.390
 1144SOL     OW 4330   5.577   4.502   2.371
 1144SOL    HW1 4331   5.620   4.466   2.289
 1144SOL    HW2 4332   5.623   4.586   2.399
 1145SOL     OW 4333   1.196   2.634   0.466
 1145SOL    HW1 4334   1.124   2.701   0.449
 1145SOL    HW2 4335   1.257   2.668   0.538
 1146SOL     OW 4336   0.557   2.065   1.505
 1146SOL    HW1 4337   0.581   2.098   1.596
 1146SOL    HW2 4338   0.502   2.134   1.458
 1147SOL     OW 4339   3.191   5.505   0.614
 1147SOL    HW1 4340   3.288   5.528   0.619
 1147SOL    HW2 4341   3.167   5.482   0.519
 1148SOL     OW 4342   3.993   6.022   1.384
 1148SOL    HW1 4343   3.962   6.092   1.321
 1148SOL    HW2 4344   4.019   6.063   1.471
 1149SOL     OW 4345   5.870   3.009   1.259
 1149SOL    HW1 4346   5.965   2.979   1.255
 1149SOL    HW2 4347   5.834   2.994   1.351
 1150SOL     OW 4348   0.816   4.167   6.972
 1150SOL    HW1 4349   0.842   4.208   0.039
 1150SOL    HW2 4350   0.830   4.068   6.976
 1151SOL     OW 4351   6.130   4.934   4.754
 1151SOL    HW1 4352   6.205   4.927   4.819
 1151SOL    HW2 4353   6.055   4.875   4.783
 1152SOL     OW 4354   4.598   6.264   6.543
 1152SOL    HW1 4355   4.564   6.213   6.623
 1152SOL    HW2 4356   4.553   6.353   6.539
 1153SOL     OW 4357   6.913   0.166   1.408
 1153SOL    HW1 4358   6.833   0.217   1.440
 1153SOL    HW2 4359   6.977   0.229   1.364
 1154SOL     OW 4360   0.707   4.372   0.963
 1154SOL    HW1 4361   0.718   4.273   0.970
 1154SOL    HW2 4362   0.748   4.404   0.877
 1155SOL     OW 4363   2.283   6.297   5.667
 1155SOL    HW1 4364   2.380   6.319   5.657
 1155SOL    HW2 4365   2.235   6.320   5.582
 1156SOL     OW 4366   4.252   1.579   5.098
 1156SOL    HW1 4367   4.216   1.593   5.005
 1156SOL    HW2 4368   4.254   1.481   5.118
 1157SOL     OW 4369   5.270   1.017   5.789
 1157SOL    HW1 4370   5.264   1.117   5.781
 1157SOL    HW2 4371   5.190   0.983   5.838
 1158SOL     OW 4372   6.529   6.153   4.412
 1158SOL    HW1 4373   6.441   6.120   4.448
 1158SOL    HW2 4374   6.552   6.240   4.455
 1159SOL     OW 4375   5.992   6.802   3.165
 1159SOL    HW1 4376   6.078   6.840   3.130
 1159SOL    HW2 4377   5.958   6.860   3.239
 1160SOL     OW 4378   4.030   5.515   1.873
 1160SOL    HW1 4379   4.026   5.487   1.969
 1160SOL    HW2 4380   3.995   5.441   1.816
 1161SOL     OW 4381   6.833   5.374   6.249
 1161SOL    HW1 4382   6.892   5.455   6.258
 1161SOL    HW2 4383   6.834   5.322   6.334
 1162SOL     OW 4384   2.438   2.696   5.719
 1162SOL    HW1 4385   2.512   2.650   5.669
 1162SOL    HW2 4386   2.473   2.732   5.805
 1163SOL     OW 4387   6.030   4.682   1.858
 1163SOL    HW1 4388   6.054   4.768   1.813
 1163SOL    HW2 4389   5.953   4.698   1.920
 1164SOL     OW 4390   5.381   2.653   5.115
 1164SOL    HW1 4391   5.350   2.564   5.081
 1164SOL    HW2 4392   5.328   2.725   5.070
 1165SOL     OW 4393   4.078   6.086   3.260
 1165SOL    HW1 4394   4.092   6.176   3.218
 1165SOL    HW2 4395   4.160   6.060   3.311
 1166SOL     OW 4396   2.235   5.790   6.924
 1166SOL    HW1 4397   2.157   5.737   6.957
 1166SOL    HW2 4398   2.204   5.860   6.860
 1167SOL     OW 4399   5.246   4.565   1.558
 1167SOL    HW1 4400   5.300   4.497   1.507
 1167SOL    HW2 4401   5.213   4.635   1.496
 1168SOL     OW 4402   6.276   2.531   1.758
 1168SOL    HW1 4403   6.242   2.506   1.849
 1168SOL    HW2 4404   6.362   2.483   1.741
 1169SOL     OW 4405   5.350   1.795   5.411
 1169SOL    HW1 4406   5.321   1.706   5.445
 1169SOL    HW2 4407   5.434   1.784   5.357
 1170SOL     OW 4408   5.167   0.084   2.980
 1170SOL    HW1 4409   5.081   0.066   2.931
 1170SOL    HW2 4410   5.146   0.115   3.073
 1171SOL     OW 4411   2.483   0.004   0.093
 1171SOL    HW1 4412   2.565   0.021   0.148
 1171SOL    HW2 4413   2.411   6.986   0.151
 1172SOL     OW 4414   5.137   4.101   1.135
 1172SOL    HW1 4415   5.054   4.080   1.083
 1172SOL    HW2 4416   5.123   4.078   1.231
 1173SOL     OW 4417   2.693   1.381   1.582
 1173SOL    HW1 4418   2.671   1.479   1.578
 1173SOL    HW2 4419   2.791   1.368   1.569
 1174SOL     OW 4420   3.504   4.060   2.051
 1174SOL    HW1 4421   3.560   4.018   2.122
 1174SOL    HW2 4422   3.408   4.060   2.080
 1175SOL     OW 4423   4.699   3.549   5.820
 1175SOL    HW1 4424   4.766   3.498   5.873
 1175SOL    HW2 4425   4.607   3.517   5.843
 1176SOL     OW 4426   5.181   3.905   6.580
 1176SOL    HW1 4427   5.249   3.885   6.509
 1176SOL    HW2 4428   5.089   3.899   6.542
 1177SOL     OW 4429   7.000   3.827   4.627
 1177SOL    HW1 4430   0.065   3.792   4.589
 1177SOL    HW2 4431   7.019   3.876   4.712
 1178SOL     OW 4432   2.599   3.370   0.440
 1178SOL    HW1 4433   2.606   3.333   0.533
 1178SOL    HW2 4434   2.585   3.295   0.375
 1179SOL     OW 4435   2.795   5.533   0.462
 1179SOL    HW1 4436   2.742   5.613   0.487
 1179SOL    HW2 4437   2.839   5.495   0.544
 1180SOL     OW 4438   2.838   6.054   3.302
 1180SOL    HW1 4439   2.819   6.111   3.382
 1180SOL    HW2 4440   2.805   5.961   3.320
 1181SOL     OW 4441   0.322   5.361   5.959
 1181SOL    HW1 4442   0.352   5.438   5.903
 1181SOL    HW2 4443   0.266   5.394   6.035
 1182SOL     OW 4444   3.892   5.222   3.581
 1182SOL    HW1 4445   3.917   5.219   3.678
 1182SOL    HW2 4446   3.922   5.309   3.542
 1183SOL     OW 4447   2.439   3.812   6.958
 1183SOL    HW1 4448   2.352   3.805   7.006
 1183SOL    HW2 4449   2.467   3.908   6.953
 1184SOL     OW 4450   0.094   1.257   4.740
 1184SOL    HW1 4451   0.013   1.295   4.785
 1184SOL    HW2 4452   0.072   1.234   4.645
 1185SOL     OW 4453   0.247   1.150   0.375
 1185SOL    HW1 4454   0.292   1.061   0.368
 1185SOL    HW2 4455   0.148   1.138   0.368
 1186SOL     OW 4456   5.353   6.404   5.471
 1186SOL    HW1 4457   5.345   6.320   5.524
 1186SOL    HW2 4458   5.361   6.381   5.374
 1187SOL     OW 4459   5.844   6.612   6.921
 1187SOL    HW1 4460   5.901   6.538   6.958
 1187SOL    HW2 4461   5.900   6.695   6.912
 1188SOL     OW 4462   3.728   5.839   5.344
 1188SOL    HW1 4463   3.683   5.760   5.304
 1188SOL    HW2 4464   3.660   5.901   5.382
 1189SOL     OW 4465   6.357   2.690   2.527
 1189SOL    HW1 4466   6.428   2.729   2.468
 1189SOL    HW2 4467   6.393   2.678   2.619
 1190SOL     OW 4468   2.856   5.653   4.217
 1190SOL    HW1 4469   2.883   5.653   4.313
 1190SOL    HW2 4470   2.758   5.673   4.209
 1191SOL     OW 4471   4.466   5.142   3.751
 1191SOL    HW1 4472   4.517   5.074   3.698
 1191SOL    HW2 4473   4.466   5.229   3.701
 1192SOL     OW 4474   4.175   5.603   3.092
 1192SOL    HW1 4475   4.154   5.590   2.995
 1192SOL    HW2 4476   4.094   5.582   3.146
 1193SOL     OW 4477   6.452   3.374   5.012
 1193SOL    HW1 4478   6.498   3.346   5.096
 1193SOL    HW2 4479   6.383   3.306   4.987
 1194SOL     OW 4480   5.470   0.020   1.807
 1194SOL    HW1 4481   5.528   0.022   1.726
 1194SOL    HW2 4482   5.516   0.066   1.882
 1195SOL     OW 4483   6.694   4.544   0.662
 1195SOL    HW1 4484   6.755   4.557   0.584
 1195SOL    HW2 4485   6.606   4.508   0.629
 1196SOL     OW 4486   0.049   5.666   2.970
 1196SOL    HW1 4487   0.134   5.667   2.917
 1196SOL    HW2 4488   0.063   5.615   3.055
 1197SOL     OW 4489   4.566   0.762   5.478
 1197SOL    HW1 4490   4.529   0.772   5.570
 1197SOL    HW2 4491   4.629   0.838   5.458
 1198SOL     OW 4492   1.109   2.730   2.242
 1198SOL    HW1 4493   1.191   2.723   2.299
 1198SOL    HW2 4494   1.135   2.749   2.147
 1199SOL     OW 4495   4.007   4.559   1.460
 1199SOL    HW1 4496   3.927   4.499   1.452
 1199SOL    HW2 4497   4.005   4.605   1.549
 1200SOL     OW 4498   3.165   3.514   4.056
 1200SOL    HW1 4499   3.079   3.503   4.108
 1200SOL    HW2 4500   3.219   3.430   4.063
 1201SOL     OW 4501   1.181   0.877   4.321
 1201SOL    HW1 4502   1.194   0.845   4.227
 1201SOL    HW2 4503   1.166   0.799   4.381
 1202SOL     OW 4504   0.494   5.618   5.815
 1202SOL    HW1 4505   0.399   5.641   5.833
 1202SOL    HW2 4506   0.553   5.688   5.855
 1203SOL     OW 4507   5.942   6.528   0.570
 1203SOL    HW1 4508   5.907   6.586   0.496
 1203SOL    HW2 4509   5.869   6.505   0.633
 1204SOL     OW 4510   3.318   6.148   1.530
 1204SOL    HW1 4511   3.274   6.235   1.509
 1204SOL    HW2 4512   3.411   6.148   1.495
 1205SOL     OW 4513   5.008   3.568   1.193
 1205SOL    HW1 4514   5.054   3.482   1.212
 1205SOL    HW2 4515   5.015   3.628   1.273
 1206SOL     OW 4516   2.965   2.682   5.345
 1206SOL    HW1 4517   3.043   2.716   5.292
 1206SOL    HW2 4518   2.916   2.759   5.384
 1207SOL     OW 4519   1.977   6.272   1.579
 1207SOL    HW1 4520   1.954   6.218   1.498
 1207SOL    HW2 4521   2.068   6.245   1.611
 1208SOL     OW 4522   3.322   3.575   0.858
 1208SOL    HW1 4523   3.365   3.522   0.931
 1208SOL    HW2 4524   3.282   3.658   0.897
 1209SOL     OW 4525   4.751   1.061   4.709
 1209SOL    HW1 4526   4.850   1.064   4.722
 1209SOL    HW2 4527   4.707   1.027   4.792
 1210SOL     OW 4528   3.069   0.552   3.659
 1210SOL    HW1 4529   3.005   0.518   3.729
 1210SOL    HW2 4530   3.029   0.537   3.568
 1211SOL     OW 4531   0.638   3.530   2.141
 1211SOL    HW1 4532   0.722   3.477   2.130
 1211SOL    HW2 4533   0.559   3.472   2.122
 1212SOL     OW 4534   6.403   0.155   6.804
 1212SOL    HW1 4535   6.479   0.125   6.747
 1212SOL    HW2 4536   6.385   0.086   6.874
 1213SOL     OW 4537   6.960   2.010   0.520
 1213SOL    HW1 4538   6.988   1.956   0.441
 1213SOL    HW2 4539   6.861   2.019   0.521
 1214SOL     OW 4540   0.660   2.683   6.930
 1214SOL    HW1 4541   0.580   2.723   6.976
 1214SOL    HW2 4542   0.646   2.585   6.919
 1215SOL     OW 4543   1.301   4.339   3.749
 1215SOL    HW1 4544   1.391   4.380   3.757
 1215SOL    HW2 4545   1.299   4.252   3.799
 1216SOL     OW 4546   5.007   0.840   1.055
 1216SOL    HW1 4547   5.098   0.845   1.013
 1216SOL    HW2 4548   4.944   0.900   1.006
 1217SOL     OW 4549   1.640   4.573   0.538
 1217SOL    HW1 4550   1.650   4.631   0.619
 1217SOL    HW2 4551   1.636   4.630   0.456
 1218SOL     OW 4552   2.228   4.074   4.226
 1218SOL    HW1 4553   2.295   4.065   4.152
 1218SOL    HW2 4554   2.236   3.996   4.288
 1219SOL     OW 4555   5.741   6.308   1.650
 1219SOL    HW1 4556   5.838   6.330   1.644
 1219SOL    HW2 4557   5.726   6.247   1.728
 1220SOL     OW 4558   1.206   5.057   3.378
 1220SOL    HW1 4559   1.134   5.119   3.349
 1220SOL    HW2 4560   1.166   4.983   3.432
 1221SOL     OW 4561   5.677   3.258   6.108
 1221SOL    HW1 4562   5.691   3.162   6.084
 1221SOL    HW2 4563   5.621   3.302   6.037
 1222SOL     OW 4564   6.190   0.067   6.612
 1222SOL    HW1 4565   6.281   0.094   6.642
 1222SOL    HW2 4566   6.165   7.001   6.655
 1223SOL     OW 4567   3.844   0.509   0.773
 1223SOL    HW1 4568   3.857   0.586   0.836
 1223SOL    HW2 4569   3.773   0.533   0.706
 1224SOL     OW 4570   2.775   6.126   0.070
 1224SOL    HW1 4571   2.726   6.099   0.153
 1224SOL    HW2 4572   2.804   6.221   0.078
 1225SOL     OW 4573   3.610   3.897   6.450
 1225SOL    HW1 4574   3.574   3.896   6.543
 1225SOL    HW2 4575   3.673   3.820   6.438
 1226SOL     OW 4576   2.390   5.307   0.835
 1226SOL    HW1 4577   2.438   5.392   0.815
 1226SOL    HW2 4578   2.324   5.323   0.909
 1227SOL     OW 4579   6.231   3.788   0.195
 1227SOL    HW1 4580   6.172   3.831   0.263
 1227SOL    HW2 4581   6.305   3.851   0.171
 1228SOL     OW 4582   4.616   2.928   6.960
 1228SOL    HW1 4583   4.638   3.024   6.944
 1228SOL    HW2 4584   4.519   2.919   6.982
 1229SOL     OW 4585   3.673   5.226   5.939
 1229SOL    HW1 4586   3.752   5.192   5.890
 1229SOL    HW2 4587   3.648   5.161   6.011
 1230SOL     OW 4588   4.908   0.230   3.551
 1230SOL    HW1 4589   4.955   0.318   3.551
 1230SOL    HW2 4590   4.936   0.178   3.632
 1231SOL     OW 4591   1.257   3.556   4.413
 1231SOL    HW1 4592   1.313   3.564   4.330
 1231SOL    HW2 4593   1.170   3.602   4.399
 1232SOL     OW 4594   0.735   2.322   6.191
 1232SOL    HW1 4595   0.683   2.352   6.111
 1232SOL    HW2 4596   0.735   2.394   6.260
 1233SOL     OW 4597   0.857   3.347   4.138
 1233SOL    HW1 4598   0.921   3.284   4.093
 1233SOL    HW2 4599   0.893   3.372   4.228
 1234SOL     OW 4600   6.246   4.482   4.823
 1234SOL    HW1 4601   6.268   4.390   4.856
 1234SOL    HW2 4602   6.325   4.542   4.834
 1235SOL     OW 4603   0.255   5.651   2.685
 1235SOL    HW1 4604   0.321   5.672   2.757
 1235SOL    HW2 4605   0.249   5.552   2.673
 1236SOL     OW 4606   5.216   1.251   0.231
 1236SOL    HW1 4607   5.315   1.266   0.226
 1236SOL    HW2 4608   5.169   1.339   0.233
 1237SOL     OW 4609   2.667   4.983   5.818
 1237SOL    HW1 4610   2.628   4.981   5.726
 1237SOL    HW2 4611   2.613   4.925   5.879
 1238SOL     OW 4612   2.101   0.908   0.670
 1238SOL    HW1 4613   2.101   0.808   0.667
 1238SOL    HW2 4614   2.167   0.943   0.604
 1239SOL     OW 4615   6.881   6.997   6.581
 1239SOL    HW1 4616   6.927   6.927   6.526
 1239SOL    HW2 4617   6.929   7.008   6.668
 1240SOL     OW 4618   5.479   5.621   1.970
 1240SOL    HW1 4619   5.503   5.572   1.886
 1240SOL    HW2 4620   5.380   5.623   1.979
 1241SOL     OW 4621   6.487   4.098   3.998
 1241SOL    HW1 4622   6.458   4.187   4.035
 1241SOL    HW2 4623   6.417   4.030   4.020
 1242SOL     OW 4624   0.769   3.694   1.828
 1242SOL    HW1 4625   0.684   3.747   1.833
 1242SOL    HW2 4626   0.834   3.741   1.770
 1243SOL     OW 4627   0.961   6.495   5.315
 1243SOL    HW1 4628   0.876   6.509   5.367
 1243SOL    HW2 4629   0.960   6.404   5.273
 1244SOL     OW 4630   6.999   6.675   3.725
 1244SOL    HW1 4631   6.951   6.723   3.798
 1244SOL    HW2 4632   0.014   6.588   3.759
 1245SOL     OW 4633   4.902   4.157   6.611
 1245SOL    HW1 4634   4.929   4.192   6.701
 1245SOL    HW2 4635   4.815   4.199   6.584
 1246SOL     OW 4636   2.011   6.185   2.145
 1246SOL    HW1 4637   2.082   6.143   2.088
 1246SOL    HW2 4638   2.021   6.284   2.144
 1247SOL     OW 4639   2.853   0.264   6.612
 1247SOL    HW1 4640   2.931   0.257   6.674
 1247SOL    HW2 4641   2.771   0.290   6.663
 1248SOL     OW 4642   2.491   6.864   4.712
 1248SOL    HW1 4643   2.419   6.796   4.721
 1248SOL    HW2 4644   2.548   6.841   4.633
 1249SOL     OW 4645   5.896   2.240   1.933
 1249SOL    HW1 4646   5.983   2.224   1.887
 1249SOL    HW2 4647   5.881   2.338   1.944
 1250SOL     OW 4648   6.794   4.493   4.446
 1250SOL    HW1 4649   6.846   4.578   4.436
 1250SOL    HW2 4650   6.842   4.432   4.509
 1251SOL     OW 4651   3.466   6.945   4.613
 1251SOL    HW1 4652   3.423   6.968   4.526
 1251SOL    HW2 4653   3.417   6.989   4.688
 1252SOL     OW 4654   3.724   3.977   5.905
 1252SOL    HW1 4655   3.694   3.956   5.998
 1252SOL    HW2 4656   3.690   3.907   5.842
 1253SOL     OW 4657   3.362   5.030   1.368
 1253SOL    HW1 4658   3.312   5.063   1.449
 1253SOL    HW2 4659   3.454   5.070   1.369
 1254SOL     OW 4660   6.467   3.183   2.625
 1254SOL    HW1 4661   6.464   3.116   2.700
 1254SOL    HW2 4662   6.440   3.139   2.540
 1255SOL     OW 4663   6.628   1.523   4.592
 1255SOL    HW1 4664   6.718   1.486   4.568
 1255SOL    HW2 4665   6.594   1.579   4.516
 1256SOL     OW 4666   0.089   6.958   2.898
 1256SOL    HW1 4667   0.056   6.863   2.900
 1256SOL    HW2 4668   0.118   6.985   2.990
 1257SOL     OW 4669   6.522   6.899   3.638
 1257SOL    HW1 4670   6.545   6.901   3.735
 1257SOL    HW2 4671   6.601   6.870   3.585
 1258SOL     OW 4672   0.961   5.137   3.888
 1258SOL    HW1 4673   0.952   5.038   3.872
 1258SOL    HW2 4674   0.896   5.186   3.830
 1259SOL     OW 4675   3.487   2.021   4.320
 1259SOL    HW1 4676   3.577   2.045   4.284
 1259SOL    HW2 4677   3.499   1.965   4.402
 1260SOL     OW 4678   1.176   1.447   6.867
 1260SOL    HW1 4679   1.262   1.427   6.821
 1260SOL    HW2 4680   1.185   1.531   6.921
 1261SOL     OW 4681   7.014   5.767   6.672
 1261SOL    HW1 4682   6.938   5.740   6.613
 1261SOL    HW2 4683   0.054   5.829   6.623
 1262SOL     OW 4684   5.299   5.128   1.307
 1262SOL    HW1 4685   5.230   5.191   1.273
 1262SOL    HW2 4686   5.330   5.158   1.398
 1263SOL     OW 4687   0.326   0.824   2.778
 1263SOL    HW1 4688   0.385   0.743   2.771
 1263SOL    HW2 4689   0.267   0.829   2.697
 1264SOL     OW 4690   0.246   3.944   6.307
 1264SOL    HW1 4691   0.311   3.945   6.231
 1264SOL    HW2 4692   0.253   4.031   6.357
 1265SOL     OW 4693   6.338   5.268   4.460
 1265SOL    HW1 4694   6.340   5.190   4.522
 1265SOL    HW2 4695   6.292   5.345   4.504
 1266SOL     OW 4696   0.875   0.906   4.369
 1266SOL    HW1 4697   0.854   0.827   4.312
 1266SOL    HW2 4698   0.964   0.893   4.413
 1267SOL     OW 4699   4.935   0.618   1.585
 1267SOL    HW1 4700   4.882   0.603   1.669
 1267SOL    HW2 4701   4.927   0.714   1.557
 1268SOL     OW 4702   2.989   2.742   6.053
 1268SOL    HW1 4703   2.968   2.651   6.017
 1268SOL    HW2 4704   2.911   2.803   6.036
 1269SOL     OW 4705   5.693   3.134   3.997
 1269SOL    HW1 4706   5.661   3.073   3.925
 1269SOL    HW2 4707   5.674   3.092   4.086
 1270SOL     OW 4708   2.072   4.555   2.193
 1270SOL    HW1 4709   1.984   4.595   2.219
 1270SOL    HW2 4710   2.136   4.562   2.269
 1271SOL     OW 4711   3.104   1.075   2.026
 1271SOL    HW1 4712   3.101   1.154   1.964
 1271SOL    HW2 4713   3.014   1.060   2.065
 1272SOL     OW 4714   6.100   4.564   6.462
 1272SOL    HW1 4715   6.058   4.581   6.551
 1272SOL    HW2 4716   6.106   4.466   6.446
 1273SOL     OW 4717   1.787   3.505   5.263
 1273SOL    HW1 4718   1.758   3.427   5.208
 1273SOL    HW2 4719   1.821   3.578   5.203
 1274SOL     OW 4720   0.139   4.657   1.439
 1274SOL    HW1 4721   0.194   4.727   1.484
 1274SOL    HW2 4722   0.186   4.627   1.356
 1275SOL     OW 4723   2.812   0.306   3.360
 1275SOL    HW1 4724   2.842   0.400   3.380
 1275SOL    HW2 4725   2.794   0.296   3.263
 1276SOL     OW 4726   5.346   4.731   4.289
 1276SOL    HW1 4727   5.395   4.675   4.355
 1276SOL    HW2 4728   5.330   4.679   4.205
 1277SOL     OW 4729   1.250   5.091   7.012
 1277SOL    HW1 4730   1.313   5.156   6.969
 1277SOL    HW2 4731   1.251   5.105   0.090
 1278SOL     OW 4732   1.483   0.114   4.100
 1278SOL    HW1 4733   1.526   0.034   4.141
 1278SOL    HW2 4734   1.425   0.084   4.024
 1279SOL     OW 4735   2.426   3.842   6.265
 1279SOL    HW1 4736   2.417   3.755   6.313
 1279SOL    HW2 4737   2.346   3.857   6.207
 1280SOL     OW 4738   3.985   0.293   3.649
 1280SOL    HW1 4739   4.000   0.389   3.672
 1280SOL    HW2 4740   3.897   0.263   3.686
 1281SOL     OW 4741   2.696   5.385   3.887
 1281SOL    HW1 4742   2.749   5.464   3.917
 1281SOL    HW2 4743   2.724   5.305   3.940
 1282SOL     OW 4744   0.003   2.803   0.299
 1282SOL    HW1 4745   7.017   2.730   0.366
 1282SOL    HW2 4746   0.030   2.765   0.210
 1283SOL     OW 4747   6.669   4.230   5.516
 1283SOL    HW1 4748   6.643   4.199   5.424
 1283SOL    HW2 4749   6.657   4.155   5.581
 1284SOL     OW 4750   4.087   0.519   1.224
 1284SOL    HW1 4751   4.005   0.571   1.248
 1284SOL    HW2 4752   4.159   0.536   1.292
 1285SOL     OW 4753   3.919   1.432   6.042
 1285SOL    HW1 4754   3.999   1.450   5.986
 1285SOL    HW2 4755   3.836   1.452   5.990
 1286SOL     OW 4756   4.810   2.499   0.839
 1286SOL    HW1 4757   4.871   2.502   0.918
 1286SOL    HW2 4758   4.816   2.586   0.789
 1287SOL     OW 4759   5.398   4.445   5.562
 1287SOL    HW1 4760   5.420   4.497   5.479
 1287SOL    HW2 4761   5.470   4.459   5.630
 1288SOL     OW 4762   4.543   4.626   5.662
 1288SOL    HW1 4763   4.546   4.724   5.645
 1288SOL    HW2 4764   4.595   4.578   5.592
 1289SOL     OW 4765   6.976   0.906   2.254
 1289SOL    HW1 4766   0.000   0.818   2.237
 1289SOL    HW2 4767   6.877   0.892   2.260
 1290SOL     OW 4768   1.169   0.065   1.439
 1290SOL    HW1 4769   1.216   0.016   1.513
 1290SOL    HW2 4770   1.233   0.080   1.363
 1291SOL     OW 4771   6.387   4.766   4.388
 1291SOL    HW1 4772   6.431   4.722   4.310
 1291SOL    HW2 4773   6.303   4.810   4.358
 1292SOL     OW 4774   0.738   5.742   2.187
 1292SOL    HW1 4775   0.732   5.653   2.232
 1292SOL    HW2 4776   0.764   5.729   2.091
 1293SOL     OW 4777   2.394   2.071   0.512
 1293SOL    HW1 4778   2.337   2.078   0.594
 1293SOL    HW2 4779   2.351   2.120   0.437
 1294SOL     OW 4780   1.519   3.934   6.250
 1294SOL    HW1 4781   1.488   4.006   6.189
 1294SOL    HW2 4782   1.537   3.851   6.198
 1295SOL     OW 4783   0.082   3.502   1.465
 1295SOL    HW1 4784   0.008   3.484   1.528
 1295SOL    HW2 4785   0.134   3.418   1.448
 1296SOL     OW 4786   4.814   0.196   5.346
 1296SOL    HW1 4787   4.763   0.172   5.428
 1296SOL    HW2 4788   4.857   0.114   5.307
 1297SOL     OW 4789   0.968   6.050   1.477
 1297SOL    HW1 4790   1.036   6.081   1.543
 1297SOL    HW2 4791   0.900   6.121   1.462
 1298SOL     OW 4792   5.114   6.555   3.442
 1298SOL    HW1 4793   5.185   6.604   3.391
 1298SOL    HW2 4794   5.140   6.552   3.539
 1299SOL     OW 4795   2.001   3.182   4.012
 1299SOL    HW1 4796   2.082   3.131   3.983
 1299SOL    HW2 4797   1.946   3.205   3.932
 1300SOL     OW 4798   2.075   3.573   1.381
 1300SOL    HW1 4799   2.023   3.610   1.304
 1300SOL    HW2 4800   2.083   3.473   1.371
 1301SOL     OW 4801   0.743   6.627   1.975
 1301SOL    HW1 4802   0.831   6.646   1.931
 1301SOL    HW2 4803   0.760   6.588   2.066
 1302SOL     OW 4804   5.305   0.650   5.111
 1302SOL    HW1 4805   5.261   0.637   5.200
 1302SOL    HW2 4806   5.237   0.682   5.045
 1303SOL     OW 4807   4.389   0.130   1.483
 1303SOL    HW1 4808   4.437   0.042   1.477
 1303SOL    HW2 4809   4.409   0.184   1.402
 1304SOL     OW 4810   1.853   1.121   1.481
 1304SOL    HW1 4811   1.884   1.200   1.428
 1304SOL    HW2 4812   1.871   1.037   1.429
 1305SOL     OW 4813   6.013   4.555   5.855
 1305SOL    HW1 4814   5.924   4.542   5.897
 1305SOL    HW2 4815   6.084   4.521   5.916
 1306SOL     OW 4816   1.150   5.490   4.610
 1306SOL    HW1 4817   1.103   5.492   4.521
 1306SOL    HW2 4818   1.172   5.583   4.639
 1307SOL     OW 4819   1.977   3.749   3.900
 1307SOL    HW1 4820   1.919   3.799   3.964
 1307SOL    HW2 4821   1.983   3.654   3.928
 1308SOL     OW 4822   6.555   0.010   6.222
 1308SOL    HW1 4823   6.608   0.080   6.174
 1308SOL    HW2 4824   6.526   6.960   6.158
 1309SOL     OW 4825   5.350   4.537   5.982
 1309SOL    HW1 4826   5.354   4.595   5.901
 1309SOL    HW2 4827   5.269   4.479   5.977
 1310SOL     OW 4828   0.419   4.390   3.685
 1310SOL    HW1 4829   0.342   4.332   3.659
 1310SOL    HW2 4830   0.423   4.468   3.623
 1311SOL     OW 4831   6.634   5.710   6.156
 1311SOL    HW1 4832   6.615   5.676   6.248
 1311SOL    HW2 4833   6.555   5.692   6.097
 1312SOL     OW 4834   1.846   0.224   0.115
 1312SOL    HW1 4835   1.914   0.178   0.173
 1312SOL    HW2 4836   1.876   0.318   0.098
 1313SOL     OW 4837   6.741   5.256   3.045
 1313SOL    HW1 4838   6.790   5.341   3.062
 1313SOL    HW2 4839   6.692   5.229   3.127
 1314SOL     OW 4840   3.639   1.648   4.572
 1314SOL    HW1 4841   3.589   1.578   4.522
 1314SOL    HW2 4842   3.652   1.619   4.667
 1315SOL     OW 4843   6.968   0.906   4.121
 1315SOL    HW1 4844   6.887   0.965   4.120
 1315SOL    HW2 4845   6.945   0.819   4.165
 1316SOL     OW 4846   3.719   0.089   5.258
 1316SOL    HW1 4847   3.750   0.159   5.322
 1316SOL    HW2 4848   3.733   0.121   5.164
 1317SOL     OW 4849   1.767   4.465   5.128
 1317SOL    HW1 4850   1.852   4.412   5.127
 1317SOL    HW2 4851   1.757   4.508   5.218
 1318SOL     OW 4852   1.480   2.798   6.750
 1318SOL    HW1 4853   1.434   2.710   6.742
 1318SOL    HW2 4854   1.579   2.784   6.753
 1319SOL     OW 4855   0.298   6.030   6.759
 1319SOL    HW1 4856   0.308   5.977   6.843
 1319SOL    HW2 4857   0.259   5.973   6.687
 1320SOL     OW 4858   2.879   2.921   6.767
 1320SOL    HW1 4859   2.926   2.959   6.688
 1320SOL    HW2 4860   2.793   2.878   6.738
 1321SOL     OW 4861   4.656   2.504   6.537
 1321SOL    HW1 4862   4.742   2.554   6.529
 1321SOL    HW2 4863   4.674   2.406   6.535
 1322SOL     OW 4864   3.786   1.046   4.157
 1322SOL    HW1 4865   3.687   1.058   4.169
 1322SOL    HW2 4866   3.809   0.949   4.164
 1323SOL     OW 4867   3.671   6.119   0.612
 1323SOL    HW1 4868   3.741   6.184   0.583
 1323SOL    HW2 4869   3.597   6.167   0.658
 1324SOL     OW 4870   1.039   3.691   0.512
 1324SOL    HW1 4871   1.092   3.699   0.428
 1324SOL    HW2 4872   0.983   3.772   0.524
 1325SOL     OW 4873   4.173   6.486   5.101
 1325SOL    HW1 4874   4.127   6.516   5.018
 1325SOL    HW2 4875   4.124   6.521   5.181
 1326SOL     OW 4876   4.938   4.146   5.370
 1326SOL    HW1 4877   4.984   4.213   5.428
 1326SOL    HW2 4878   5.006   4.086   5.327
 1327SOL     OW 4879   0.182   6.430   1.198
 1327SOL    HW1 4880   0.238   6.435   1.115
 1327SOL    HW2 4881   0.205   6.507   1.257
 1328SOL     OW 4882   1.560   3.132   6.526
 1328SOL    HW1 4883   1.636   3.180   6.481
 1328SOL    HW2 4884   1.499   3.095   6.456
 1329SOL     OW 4885   7.007   2.195   3.043
 1329SOL    HW1 4886   0.032   2.279   3.014
 1329SOL    HW2 4887   0.015   2.119   2.984
 1330SOL     OW 4888   0.419   1.960   0.943
 1330SOL    HW1 4889   0.485   1.901   0.896
 1330SOL    HW2 4890   0.405   1.927   1.036
 1331SOL     OW 4891   4.592   2.638   2.468
 1331SOL    HW1 4892   4.591   2.586   2.554
 1331SOL    HW2 4893   4.652   2.717   2.478
 1332SOL     OW 4894   2.365   6.498   0.484
 1332SOL    HW1 4895   2.424   6.525   0.560
 1332SOL    HW2 4896   2.333   6.579   0.436
 1333SOL     OW 4897   3.117   3.923   3.204
 1333SOL    HW1 4898   3.074   3.924   3.114
 1333SOL    HW2 4899   3.049   3.902   3.274
 1334SOL     OW 4900   6.050   2.096   3.628
 1334SOL    HW1 4901   6.145   2.110   3.655
 1334SOL    HW2 4902   5.991   2.109   3.707
 1335SOL     OW 4903   2.032   1.875   1.939
 1335SOL    HW1 4904   2.051   1.777   1.931
 1335SOL    HW2 4905   2.064   1.923   1.858
 1336SOL     OW 4906   3.721   1.841   5.606
 1336SOL    HW1 4907   3.625   1.855   5.629
 1336SOL    HW2 4908   3.728   1.793   5.518
 1337SOL     OW 4909   6.887   1.937   2.886
 1337SOL    HW1 4910   6.801   1.925   2.937
 1337SOL    HW2 4911   6.871   1.996   2.807
 1338SOL     OW 4912   0.173   4.604   4.197
 1338SOL    HW1 4913   0.185   4.687   4.250
 1338SOL    HW2 4914   0.168   4.525   4.259
 1339SOL     OW 4915   0.041   0.843   0.164
 1339SOL    HW1 4916   7.015   0.875   0.246
 1339SOL    HW2 4917   0.049   0.918   0.099
 1340SOL     OW 4918   5.332   1.541   2.639
 1340SOL    HW1 4919   5.271   1.473   2.597
 1340SOL    HW2 4920   5.426   1.519   2.616
 1341SOL     OW 4921   4.128   6.457   7.019
 1341SOL    HW1 4922   4.053   6.409   6.973
 1341SOL    HW2 4923   4.131   6.552   6.987
 1342SOL     OW 4924   3.352   5.086   6.389
 1342SOL    HW1 4925   3.369   5.004   6.444
 1342SOL    HW2 4926   3.383   5.166   6.439
 1343SOL     OW 4927   5.577   5.383   2.651
 1343SOL    HW1 4928   5.632   5.305   2.680
 1343SOL    HW2 4929   5.483   5.352   2.634
 1344SOL     OW 4930   0.370   6.289   4.263
 1344SOL    HW1 4931   0.432   6.367   4.261
 1344SOL    HW2 4932   0.276   6.321   4.253
 1345SOL     OW 4933   0.821   4.618   2.393
 1345SOL    HW1 4934   0.741   4.585   2.442
 1345SOL    HW2 4935   0.867   4.689   2.446
 1346SOL     OW 4936   1.723   5.195   6.340
 1346SOL    HW1 4937   1.795   5.254   6.304
 1346SOL    HW2 4938   1.691   5.133   6.268
 1347SOL     OW 4939   1.354   6.494   6.659
 1347SOL    HW1 4940   1.362   6.589   6.690
 1347SOL    HW2 4941   1.269   6.484   6.606
 1348SOL     OW 4942   0.167   6.448   5.378
 1348SOL    HW1 4943   0.164   6.528   5.318
 1348SOL    HW2 4944   0.105   6.462   5.455
 1349SOL     OW 4945   5.397   2.515   4.259
 1349SOL    HW1 4946   5.317   2.574   4.271
 1349SOL    HW2 4947   5.368   2.419   4.265
 1350SOL     OW 4948   4.248   4.947   6.235
 1350SOL    HW1 4949   4.279   4.864   6.188
 1350SOL    HW2 4950   4.268   5.027   6.179
 1351SOL     OW 4951   5.994   2.668   4.448
 1351SOL    HW1 4952   5.936   2.697   4.372
 1351SOL    HW2 4953   5.946   2.600   4.503
 1352SOL     OW 4954   6.794   6.573   3.417
 1352SOL    HW1 4955   6.880   6.524   3.401
 1352SOL    HW2 4956   6.735   6.519   3.477
 1353SOL     OW 4957   1.601   1.897   0.624
 1353SOL    HW1 4958   1.523   1.910   0.563
 1353SOL    HW2 4959   1.587   1.949   0.708
 1354SOL     OW 4960   0.078   3.639   1.993
 1354SOL    HW1 4961   0.016   3.708   2.031
 1354SOL    HW2 4962   0.138   3.604   2.065
 1355SOL     OW 4963   6.301   3.708   4.169
 1355SOL    HW1 4964   6.328   3.614   4.153
 1355SOL    HW2 4965   6.212   3.710   4.215
 1356SOL     OW 4966   3.458   3.192   1.974
 1356SOL    HW1 4967   3.427   3.193   2.069
 1356SOL    HW2 4968   3.536   3.129   1.965
 1357SOL     OW 4969   6.640   3.894   6.178
 1357SOL    HW1 4970   6.559   3.934   6.221
 1357SOL    HW2 4971   6.704   3.863   6.248
 1358SOL     OW 4972   5.968   6.675   0.239
 1358SOL    HW1 4973   5.875   6.711   0.241
 1358SOL    HW2 4974   5.965   6.576   0.249
 1359SOL     OW 4975   6.746   4.761   2.043
 1359SOL    HW1 4976   6.795   4.848   2.042
 1359SOL    HW2 4977   6.649   4.778   2.027
 1360SOL     OW 4978   3.091   3.381   0.097
 1360SOL    HW1 4979   2.996   3.356   0.080
 1360SOL    HW2 4980   3.095   3.442   0.176
 1361SOL     OW 4981   6.789   4.839   4.702
 1361SOL    HW1 4982   6.717   4.894   4.744
 1361SOL    HW2 4983   6.801   4.754   4.754
 1362SOL     OW 4984   3.870   4.029   3.103
 1362SOL    HW1 4985   3.945   3.997   3.046
 1362SOL    HW2 4986   3.822   3.951   3.142
 1363SOL     OW 4987   0.322   5.327   4.297
 1363SOL    HW1 4988   0.300   5.308   4.201
 1363SOL    HW2 4989   0.238   5.330   4.350
 1364SOL     OW 4990   4.363   4.028   0.263
 1364SOL    HW1 4991   4.440   4.087   0.241
 1364SOL    HW2 4992   4.286   4.084   0.295
 1365SOL     OW 4993   0.523   4.231   0.035
 1365SOL    HW1 4994   0.606   4.281   0.008
 1365SOL    HW2 4995   0.535   4.134   0.015
 1366SOL     OW 4996   1.598   6.441   5.641
 1366SOL    HW1 4997   1.537   6.362   5.647
 1366SOL    HW2 4998   1.690   6.411   5.616
 1367SOL     OW 4999   1.979   0.425   2.388
 1367SOL    HW1 5000   2.036   0.504   2.413
 1367SOL    HW2 5001   1.934   0.389   2.470
 1368SOL     OW 5002   5.209   6.759   5.179
 1368SOL    HW1 5003   5.156   6.843   5.183
 1368SOL    HW2 5004   5.304   6.779   5.154
 1369SOL     OW 5005   1.653   6.103   3.042
 1369SOL    HW1 5006   1.678   6.190   3.086
 1369SOL    HW2 5007   1.686   6.103   2.948
 1370SOL     OW 5008   3.313   0.746   1.784
 1370SOL    HW1 5009   3.224   0.705   1.764
 1370SOL    HW2 5010   3.338   0.808   1.709
 1371SOL     OW 5011   4.396   1.081   4.899
 1371SOL    HW1 5012   4.378   1.006   4.836
 1371SOL    HW2 5013   4.326   1.152   4.888
 1372SOL     OW 5014   1.733   2.871   1.378
 1372SOL    HW1 5015   1.724   2.772   1.387
 1372SOL    HW2 5016   1.643   2.914   1.385
 1373SOL     OW 5017   6.501   4.875   0.316
 1373SOL    HW1 5018   6.440   4.943   0.277
 1373SOL    HW2 5019   6.523   4.806   0.247
 1374SOL     OW 5020   4.563   2.440   0.837
 1374SOL    HW1 5021   4.661   2.458   0.833
 1374SOL    HW2 5022   4.540   2.397   0.924
 1375SOL     OW 5023   6.910   5.001   5.331
 1375SOL    HW1 5024   6.895   5.071   5.401
 1375SOL    HW2 5025   6.853   5.021   5.251
 1376SOL     OW 5026   4.685   2.606   4.053
 1376SOL    HW1 5027   4.589   2.589   4.076
 1376SOL    HW2 5028   4.688   2.666   3.973
 1377SOL     OW 5029   0.464   4.333   5.644
 1377SOL    HW1 5030   0.536   4.347   5.711
 1377SOL    HW2 5031   0.503   4.298   5.559
 1378SOL     OW 5032   1.032   2.391   6.030
 1378SOL    HW1 5033   0.973   2.311   6.024
 1378SOL    HW2 5034   0.991   2.458   6.092
 1379SOL     OW 5035   3.429   6.085   2.950
 1379SOL    HW1 5036   3.465   6.064   2.860
 1379SOL    HW2 5037   3.503   6.118   3.009
 1380SOL     OW 5038   6.771   6.881   2.284
 1380SOL    HW1 5039   6.685   6.884   2.334
 1380SOL    HW2 5040   6.843   6.845   2.344
 1381SOL     OW 5041   6.049   2.835   0.138
 1381SOL    HW1 5042   6.100   2.839   0.224
 1381SOL    HW2 5043   6.033   2.928   0.104
 1382SOL     OW 5044   6.274   5.417   5.892
 1382SOL    HW1 5045   6.349   5.481   5.909
 1382SOL    HW2 5046   6.258   5.362   5.974
 1383SOL     OW 5047   0.889   0.896   0.397
 1383SOL    HW1 5048   0.969   0.880   0.339
 1383SOL    HW2 5049   0.897   0.987   0.439
 1384SOL     OW 5050   3.182   1.432   3.724
 1384SOL    HW1 5051   3.089   1.417   3.755
 1384SOL    HW2 5052   3.208   1.527   3.741
 1385SOL     OW 5053   6.411   2.800   3.402
 1385SOL    HW1 5054   6.359   2.764   3.480
 1385SOL    HW2 5055   6.502   2.758   3.401
 1386SOL     OW 5056   2.105   3.217   4.493
 1386SOL    HW1 5057   2.031   3.156   4.464
 1386SOL    HW2 5058   2.192   3.185   4.457
 1387SOL     OW 5059   3.689   0.464   4.427
 1387SOL    HW1 5060   3.776   0.447   4.474
 1387SOL    HW2 5061   3.622   0.394   4.454
 1388SOL     OW 5062   6.837   0.322   4.299
 1388SOL    HW1 5063   6.762   0.263   4.327
 1388SOL    HW2 5064   6.924   0.278   4.322
 1389SOL     OW 5065   6.610   0.155   4.297
 1389SOL    HW1 5066   6.554   0.225   4.252
 1389SOL    HW2 5067   6.557   0.112   4.370
 1390SOL     OW 5068   4.362   1.674   1.228
 1390SOL    HW1 5069   4.304   1.753   1.249
 1390SOL    HW2 5070   4.458   1.700   1.236
 1391SOL     OW 5071   6.276   0.908   4.999
 1391SOL    HW1 5072   6.177   0.915   4.985
 1391SOL    HW2 5073   6.304   0.969   5.073
 1392SOL     OW 5074   4.419   6.126   6.132
 1392SOL    HW1 5075   4.350   6.129   6.060
 1392SOL    HW2 5076   4.374   6.118   6.221
 1393SOL     OW 5077   6.498   1.628   6.380
 1393SOL    HW1 5078   6.532   1.592   6.293
 1393SOL    HW2 5079   6.402   1.603   6.392
 1394SOL     OW 5080   4.310   6.662   3.644
 1394SOL    HW1 5081   4.317   6.563   3.635
 1394SOL    HW2 5082   4.341   6.705   3.559
 1395SOL     OW 5083   1.212   4.918   3.103
 1395SOL    HW1 5084   1.241   4.925   3.199
 1395SOL    HW2 5085   1.149   4.993   3.082
 1396SOL     OW 5086   1.979   1.355   4.494
 1396SOL    HW1 5087   1.950   1.289   4.424
 1396SOL    HW2 5088   2.066   1.396   4.466
 1397SOL     OW 5089   0.789   4.923   4.639
 1397SOL    HW1 5090   0.792   5.022   4.625
 1397SOL    HW2 5091   0.696   4.896   4.662
 1398SOL     OW 5092   1.481   1.199   0.791
 1398SOL    HW1 5093   1.446   1.152   0.871
 1398SOL    HW2 5094   1.575   1.171   0.774
 1399SOL     OW 5095   4.049   6.950   0.410
 1399SOL    HW1 5096   4.020   0.025   0.409
 1399SOL    HW2 5097   3.971   6.892   0.432
 1400SOL     OW 5098   6.821   0.489   4.676
 1400SOL    HW1 5099   6.857   0.532   4.593
 1400SOL    HW2 5100   6.737   0.536   4.704
 1401SOL     OW 5101   5.627   0.925   3.974
 1401SOL    HW1 5102   5.629   1.025   3.975
 1401SOL    HW2 5103   5.712   0.891   3.934
 1402SOL     OW 5104   5.498   3.904   1.238
 1402SOL    HW1 5105   5.535   3.829   1.182
 1402SOL    HW2 5106   5.432   3.957   1.184
 1403SOL     OW 5107   4.050   3.097   6.903
 1403SOL    HW1 5108   4.021   3.014   6.951
 1403SOL    HW2 5109   3.980   3.167   6.913
 1404SOL     OW 5110   4.285   6.934   0.863
 1404SOL    HW1 5111   4.222   7.011   0.877
 1404SOL    HW2 5112   4.243   6.851   0.900
 1405SOL     OW 5113   2.205   3.419   1.042
 1405SOL    HW1 5114   2.222   3.516   1.059
 1405SOL    HW2 5115   2.225   3.398   0.947
 1406SOL     OW 5116   2.143   3.285   1.292
 1406SOL    HW1 5117   2.142   3.309   1.195
 1406SOL    HW2 5118   2.235   3.256   1.318
 1407SOL     OW 5119   0.794   3.068   1.624
 1407SOL    HW1 5120   0.767   2.988   1.678
 1407SOL    HW2 5121   0.811   3.145   1.686
 1408SOL     OW 5122   5.597   6.046   5.985
 1408SOL    HW1 5123   5.648   5.991   5.918
 1408SOL    HW2 5124   5.620   6.015   6.077
 1409SOL     OW 5125   6.857   0.805   5.908
 1409SOL    HW1 5126   6.824   0.711   5.910
 1409SOL    HW2 5127   6.823   0.854   5.988
 1410SOL     OW 5128   3.233   2.806   5.851
 1410SOL    HW1 5129   3.230   2.745   5.772
 1410SOL    HW2 5130   3.156   2.786   5.912
 1411SOL     OW 5131   3.922   5.933   0.170
 1411SOL    HW1 5132   3.899   5.836   0.179
 1411SOL    HW2 5133   3.850   5.988   0.212
 1412SOL     OW 5134   1.346   2.704   0.728
 1412SOL    HW1 5135   1.309   2.622   0.771
 1412SOL    HW2 5136   1.446   2.705   0.737
 1413SOL     OW 5137   1.823   1.531   5.230
 1413SOL    HW1 5138   1.895   1.469   5.261
 1413SOL    HW2 5139   1.820   1.611   5.291
 1414SOL     OW 5140   0.595   3.173   2.425
 1414SOL    HW1 5141   0.604   3.268   2.455
 1414SOL    HW2 5142   0.665   3.117   2.471
 1415SOL     OW 5143   2.702   2.025   4.290
 1415SOL    HW1 5144   2.644   1.953   4.252
 1415SOL    HW2 5145   2.683   2.111   4.243
 1416SOL     OW 5146   4.066   0.098   5.639
 1416SOL    HW1 5147   4.034   0.077   5.547
 1416SOL    HW2 5148   4.103   0.015   5.682
 1417SOL     OW 5149   2.953   2.985   6.273
 1417SOL    HW1 5150   3.027   2.922   6.299
 1417SOL    HW2 5151   2.865   2.939   6.283
 1418SOL     OW 5152   3.882   3.240   0.135
 1418SOL    HW1 5153   3.971   3.198   0.153
 1418SOL    HW2 5154   3.878   3.268   0.039
 1419SOL     OW 5155   1.821   5.306   3.644
 1419SOL    HW1 5156   1.814   5.327   3.547
 1419SOL    HW2 5157   1.753   5.358   3.695
 1420SOL     OW 5158   3.713   5.092   2.823
 1420SOL    HW1 5159   3.622   5.073   2.862
 1420SOL    HW2 5160   3.728   5.190   2.819
 1421SOL     OW 5161   0.754   5.391   5.627
 1421SOL    HW1 5162   0.668   5.341   5.628
 1421SOL    HW2 5163   0.830   5.328   5.611
 1422SOL     OW 5164   2.891   3.788   5.924
 1422SOL    HW1 5165   2.811   3.728   5.917
 1422SOL    HW2 5166   2.928   3.805   5.833
 1423SOL     OW 5167   4.286   0.661   4.792
 1423SOL    HW1 5168   4.267   0.591   4.723
 1423SOL    HW2 5169   4.202   0.686   4.839
 1424SOL     OW 5170   5.861   3.146   6.478
 1424SOL    HW1 5171   5.844   3.215   6.407
 1424SOL    HW2 5172   5.836   3.184   6.567
 1425SOL     OW 5173   3.761   6.413   4.263
 1425SOL    HW1 5174   3.792   6.500   4.302
 1425SOL    HW2 5175   3.725   6.355   4.336
 1426SOL     OW 5176   2.323   1.848   0.006
 1426SOL    HW1 5177   2.278   1.759   0.002
 1426SOL    HW2 5178   2.416   1.838   0.041
 1427SOL     OW 5179   1.128   1.108   2.985
 1427SOL    HW1 5180   1.149   1.184   3.046
 1427SOL    HW2 5181   1.108   1.026   3.039
 1428SOL     OW 5182   6.619   3.223   2.976
 1428SOL    HW1 5183   6.631   3.314   3.015
 1428SOL    HW2 5184   6.661   3.155   3.036
 1429SOL     OW 5185   6.264   1.386   0.768
 1429SOL    HW1 5186   6.178   1.372   0.718
 1429SOL    HW2 5187   6.247   1.445   0.847
 1430SOL     OW 5188   2.103   3.209   3.068
 1430SOL    HW1 5189   2.106   3.298   3.112
 1430SOL    HW2 5190   2.176   3.151   3.104
 1431SOL     OW 5191   2.533   1.435   6.473
 1431SOL    HW1 5192   2.620   1.387   6.481
 1431SOL    HW2 5193   2.461   1.370   6.446
 1432SOL     OW 5194   2.771   1.008   1.089
 1432SOL    HW1 5195   2.810   0.918   1.067
 1432SOL    HW2 5196   2.672   0.999   1.101
 1433SOL     OW 5197   3.025   0.350   4.429
 1433SOL    HW1 5198   3.065   0.265   4.394
 1433SOL    HW2 5199   2.940   0.369   4.380
 1434SOL     OW 5200   0.132   2.948   6.959
 1434SOL    HW1 5201   0.220   2.984   6.991
 1434SOL    HW2 5202   0.090   3.014   6.897
 1435SOL     OW 5203   0.909   0.433   4.256
 1435SOL    HW1 5204   0.998   0.392   4.276
 1435SOL    HW2 5205   0.843   0.361   4.234
 1436SOL     OW 5206   5.782   2.036   0.694
 1436SOL    HW1 5207   5.692   2.064   0.660
 1436SOL    HW2 5208   5.772   1.950   0.745
 1437SOL     OW 5209   4.313   1.693   6.112
 1437SOL    HW1 5210   4.328   1.595   6.101
 1437SOL    HW2 5211   4.221   1.709   6.148
 1438SOL     OW 5212   2.336   1.033   2.037
 1438SOL    HW1 5213   2.371   0.994   1.952
 1438SOL    HW2 5214   2.413   1.070   2.090
 1439SOL     OW 5215   6.528   5.487   6.658
 1439SOL    HW1 5216   6.624   5.475   6.682
 1439SOL    HW2 5217   6.474   5.413   6.698
 1440SOL     OW 5218   3.658   2.841   3.337
 1440SOL    HW1 5219   3.606   2.833   3.252
 1440SOL    HW2 5220   3.745   2.887   3.320
 1441SOL     OW 5221   0.347   2.895   4.480
 1441SOL    HW1 5222   0.301   2.911   4.567
 1441SOL    HW2 5223   0.300   2.944   4.407
 1442SOL     OW 5224   4.966   4.335   0.520
 1442SOL    HW1 5225   5.059   4.338   0.485
 1442SOL    HW2 5226   4.901   4.346   0.445
 1443SOL     OW 5227   0.673   1.461   3.284
 1443SOL    HW1 5228   0.608   1.445   3.358
 1443SOL    HW2 5229   0.651   1.401   3.207
 1444SOL     OW 5230   4.528   0.538   3.362
 1444SOL    HW1 5231   4.551   0.558   3.457
 1444SOL    HW2 5232   4.444   0.483   3.359
 1445SOL     OW 5233   0.014   2.427   1.609
 1445SOL    HW1 5234   7.004   2.353   1.670
 1445SOL    HW2 5235   6.962   2.448   1.544
 1446SOL     OW 5236   4.476   2.127   1.350
 1446SOL    HW1 5237   4.471   2.056   1.421
 1446SOL    HW2 5238   4.424   2.207   1.380
 1447SOL     OW 5239   6.435   1.375   5.264
 1447SOL    HW1 5240   6.366   1.365   5.336
 1447SOL    HW2 5241   6.454   1.472   5.250
 1448SOL     OW 5242   5.315   1.204   6.450
 1448SOL    HW1 5243   5.296   1.135   6.381
 1448SOL    HW2 5244   5.240   1.270   6.454
 1449SOL     OW 5245   4.876   6.173   0.804
 1449SOL    HW1 5246   4.853   6.267   0.779
 1449SOL    HW2 5247   4.857   6.112   0.727
 1450SOL     OW 5248   5.649   2.938   2.838
 1450SOL    HW1 5249   5.692   2.919   2.749
 1450SOL    HW2 5250   5.671   3.031   2.866
 1451SOL     OW 5251   1.983   6.895   2.868
 1451SOL    HW1 5252   1.953   6.949   2.946
 1451SOL    HW2 5253   2.078   6.867   2.882
 1452SOL     OW 5254   5.228   0.733   4.823
 1452SOL    HW1 5255   5.315   0.690   4.800
 1452SOL    HW2 5256   5.208   0.805   4.757
 1453SOL     OW 5257   5.045   4.093   4.979
 1453SOL    HW1 5258   5.145   4.085   4.976
 1453SOL    HW2 5259   5.015   4.160   4.912
 1454SOL     OW 5260   5.175   2.917   1.690
 1454SOL    HW1 5261   5.256   2.971   1.713
 1454SOL    HW2 5262   5.186   2.876   1.600
 1455SOL     OW 5263   0.987   0.794   1.900
 1455SOL    HW1 5264   1.012   0.762   1.809
 1455SOL    HW2 5265   1.003   0.892   1.907
 1456SOL     OW 5266   6.880   6.973   4.434
 1456SOL    HW1 5267   6.914   6.997   4.524
 1456SOL    HW2 5268   6.918   0.015   4.365
 1457SOL     OW 5269   2.147   0.774   4.024
 1457SOL    HW1 5270   2.070   0.712   4.041
 1457SOL    HW2 5271   2.233   0.728   4.046
 1458SOL     OW 5272   5.370   6.707   5.959
 1458SOL    HW1 5273   5.284   6.759   5.962
 1458SOL    HW2 5274   5.349   6.610   5.944
 1459SOL     OW 5275   2.793   5.939   6.876
 1459SOL    HW1 5276   2.783   5.998   6.956
 1459SOL    HW2 5277   2.790   5.843   6.904
 1460SOL     OW 5278   1.234   6.398   6.891
 1460SOL    HW1 5279   1.324   6.355   6.898
 1460SOL    HW2 5280   1.215   6.423   6.796
 1461SOL     OW 5281   5.792   4.459   2.786
 1461SOL    HW1 5282   5.737   4.407   2.722
 1461SOL    HW2 5283   5.888   4.430   2.780
 1462SOL     OW 5284   6.381   0.854   0.630
 1462SOL    HW1 5285   6.357   0.816   0.719
 1462SOL    HW2 5286   6.317   0.927   0.607
 1463SOL     OW 5287   1.268   0.481   4.659
 1463SOL    HW1 5288   1.299   0.562   4.610
 1463SOL    HW2 5289   1.209   0.508   4.735
 1464SOL     OW 5290   7.012   6.413   0.502
 1464SOL    HW1 5291   0.008   6.511   0.514
 1464SOL    HW2 5292   0.061   6.374   0.442
 1465SOL     OW 5293   0.238   0.661   4.417
 1465SOL    HW1 5294   0.257   0.709   4.502
 1465SOL    HW2 5295   0.318   0.667   4.357
 1466SOL     OW 5296   6.075   5.518   2.734
 1466SOL    HW1 5297   6.152   5.558   2.685
 1466SOL    HW2 5298   6.039   5.585   2.799
 1467SOL     OW 5299   0.730   1.193   3.435
 1467SOL    HW1 5300   0.637   1.220   3.414
 1467SOL    HW2 5301   0.751   1.215   3.531
 1468SOL     OW 5302   5.477   5.735   3.711
 1468SOL    HW1 5303   5.389   5.706   3.672
 1468SOL    HW2 5304   5.475   5.834   3.727
 1469SOL     OW 5305   0.884   0.548   2.259
 1469SOL    HW1 5306   0.931   0.464   2.230
 1469SOL    HW2 5307   0.935   0.590   2.335
 1470SOL     OW 5308   1.230   0.796   2.952
 1470SOL    HW1 5309   1.257   0.740   3.030
 1470SOL    HW2 5310   1.283   0.880   2.952
 1471SOL     OW 5311   6.992   0.273   0.162
 1471SOL    HW1 5312   0.024   0.289   0.078
 1471SOL    HW2 5313   6.916   0.338   0.165
 1472SOL     OW 5314   5.092   0.252   5.942
 1472SOL    HW1 5315   5.186   0.221   5.932
 1472SOL    HW2 5316   5.075   0.328   5.878
 1473SOL     OW 5317   6.357   5.176   2.777
 1473SOL    HW1 5318   6.294   5.206   2.705
 1473SOL    HW2 5319   6.417   5.252   2.801
 1474SOL     OW 5320   6.106   5.533   4.279
 1474SOL    HW1 5321   6.034   5.602   4.272
 1474SOL    HW2 5322   6.180   5.568   4.336
 1475SOL     OW 5323   6.675   0.825   2.749
 1475SOL    HW1 5324   6.750   0.771   2.788
 1475SOL    HW2 5325   6.659   0.797   2.655
 1476SOL     OW 5326   1.467   1.749   2.299
 1476SOL    HW1 5327   1.368   1.761   2.290
 1476SOL    HW2 5328   1.505   1.825   2.352
 1477SOL     OW 5329   3.013   6.841   5.365
 1477SOL    HW1 5330   3.039   6.760   5.417
 1477SOL    HW2 5331   2.977   6.814   5.276
 1478SOL     OW 5332   6.208   5.108   1.128
 1478SOL    HW1 5333   6.157   5.123   1.043
 1478SOL    HW2 5334   6.168   5.031   1.178
 1479SOL     OW 5335   1.922   4.507   0.576
 1479SOL    HW1 5336   1.964   4.532   0.663
 1479SOL    HW2 5337   1.835   4.556   0.567
 1480SOL     OW 5338   2.021   1.530   0.284
 1480SOL    HW1 5339   2.050   1.483   0.201
 1480SOL    HW2 5340   1.921   1.534   0.287
 1481SOL     OW 5341   6.058   2.101   6.019
 1481SOL    HW1 5342   6.115   2.087   5.938
 1481SOL    HW2 5343   6.100   2.170   6.078
 1482SOL     OW 5344   5.471   0.700   6.918
 1482SOL    HW1 5345   5.375   0.696   6.944
 1482SOL    HW2 5346   5.528   0.708   7.000
 1483SOL     OW 5347   6.489   2.837   0.422
 1483SOL    HW1 5348   6.443   2.920   0.390
 1483SOL    HW2 5349   6.588   2.848   0.412
 1484SOL     OW 5350   6.889   4.947   2.457
 1484SOL    HW1 5351   6.860   4.862   2.411
 1484SOL    HW2 5352   6.808   4.996   2.489
 1485SOL     OW 5353   5.229   2.796   3.815
 1485SOL    HW1 5354   5.292   2.723   3.791
 1485SOL    HW2 5355   5.279   2.869   3.863
 1486SOL     OW 5356   4.784   2.537   2.935
 1486SOL    HW1 5357   4.762   2.498   3.025
 1486SOL    HW2 5358   4.872   2.585   2.940
 1487SOL     OW 5359   5.622   1.778   5.759
 1487SOL    HW1 5360   5.640   1.750   5.664
 1487SOL    HW2 5361   5.539   1.833   5.762
 1488SOL     OW 5362   4.850   1.096   3.419
 1488SOL    HW1 5363   4.819   1.007   3.384
 1488SOL    HW2 5364   4.771   1.156   3.431
 1489SOL     OW 5365   3.990   5.198   4.584
 1489SOL    HW1 5366   3.950   5.237   4.501
 1489SOL    HW2 5367   3.993   5.098   4.576
 1490SOL     OW 5368   1.165   1.847   0.493
 1490SOL    HW1 5369   1.128   1.782   0.427
 1490SOL    HW2 5370   1.108   1.930   0.495
 1491SOL     OW 5371   0.228   3.515   3.804
 1491SOL    HW1 5372   0.195   3.610   3.802
 1491SOL    HW2 5373   0.150   3.453   3.799
 1492SOL     OW 5374   5.150   2.221   1.644
 1492SOL    HW1 5375   5.192   2.307   1.672
 1492SOL    HW2 5376   5.086   2.191   1.714
 1493SOL     OW 5377   4.881   0.607   5.271
 1493SOL    HW1 5378   4.871   0.689   5.213
 1493SOL    HW2 5379   4.793   0.559   5.275
 1494SOL     OW 5380   3.959   2.368   5.845
 1494SOL    HW1 5381   3.963   2.293   5.911
 1494SOL    HW2 5382   3.902   2.441   5.882
 1495SOL     OW 5383   0.858   2.911   3.012
 1495SOL    HW1 5384   0.817   2.967   2.939
 1495SOL    HW2 5385   0.941   2.955   3.045
 1496SOL     OW 5386   6.591   0.393   2.101
 1496SOL    HW1 5387   6.615   0.490   2.088
 1496SOL    HW2 5388   6.496   0.378   2.074
 1497SOL     OW 5389   6.824   5.317   4.024
 1497SOL    HW1 5390   6.725   5.330   4.034
 1497SOL    HW2 5391   6.842   5.221   4.000
 1498SOL     OW 5392   2.364   4.545   6.322
 1498SOL    HW1 5393   2.418   4.550   6.406
 1498SOL    HW2 5394   2.424   4.554   6.243
 1499SOL     OW 5395   1.194   3.461   5.030
 1499SOL    HW1 5396   1.150   3.528   5.091
 1499SOL    HW2 5397   1.226   3.508   4.948
 1500SOL     OW 5398   5.343   0.053   0.127
 1500SOL    HW1 5399   5.359   0.138   0.076
 1500SOL    HW2 5400   5.405   7.002   0.094
 1501SOL     OW 5401   4.431   0.589   6.713
 1501SOL    HW1 5402   4.343   0.589   6.760
 1501SOL    HW2 5403   4.471   0.497   6.716
 1502SOL     OW 5404   6.031   6.390   0.265
 1502SOL    HW1 5405   6.051   6.308   0.318
 1502SOL    HW2 5406   6.116   6.431   0.232
 1503SOL     OW 5407   2.443   2.682   6.943
 1503SOL    HW1 5408   2.505   2.608   6.969
 1503SOL    HW2 5409   2.444   2.753   7.013
 1504SOL     OW 5410   3.515   6.991   5.400
 1504SOL    HW1 5411   3.441   6.938   5.358
 1504SOL    HW2 5412   3.579   0.000   5.330
 1505SOL     OW 5413   5.820   6.816   5.374
 1505SOL    HW1 5414   5.761   6.864   5.438
 1505SOL    HW2 5415   5.883   6.757   5.424
 1506SOL     OW 5416   0.887   5.629   3.913
 1506SOL    HW1 5417   0.866   5.662   4.005
 1506SOL    HW2 5418   0.808   5.580   3.876
 1507SOL     OW 5419   1.667   1.418   5.729
 1507SOL    HW1 5420   1.575   1.425   5.692
 1507SOL    HW2 5421   1.699   1.510   5.755
 1508SOL     OW 5422   4.446   6.832   0.672
 1508SOL    HW1 5423   4.397   6.865   0.753
 1508SOL    HW2 5424   4.384   6.833   0.593
 1509SOL     OW 5425   4.402   3.005   6.736
 1509SOL    HW1 5426   4.491   2.966   6.714
 1509SOL    HW2 5427   4.379   2.984   6.831
 1510SOL     OW 5428   7.003   2.501   4.567
 1510SOL    HW1 5429   0.043   2.544   4.634
 1510SOL    HW2 5430   0.008   2.531   4.475
 1511SOL     OW 5431   2.789   1.714   0.065
 1511SOL    HW1 5432   2.723   1.730   7.012
 1511SOL    HW2 5433   2.776   1.622   0.102
 1512SOL     OW 5434   6.999   0.512   1.869
 1512SOL    HW1 5435   7.012   0.610   1.882
 1512SOL    HW2 5436   0.048   0.462   1.921
 1513SOL     OW 5437   3.500   0.078   4.222
 1513SOL    HW1 5438   3.470   7.004   4.211
 1513SOL    HW2 5439   3.436   0.139   4.174
 1514SOL     OW 5440   5.523   2.187   5.124
 1514SOL    HW1 5441   5.543   2.100   5.169
 1514SOL    HW2 5442   5.565   2.189   5.034
 1515SOL     OW 5443   0.230   4.309   5.427
 1515SOL    HW1 5444   0.160   4.275   5.489
 1515SOL    HW2 5445   0.241   4.408   5.440
 1516SOL     OW 5446   0.694   1.749   0.615
 1516SOL    HW1 5447   0.617   1.708   0.567
 1516SOL    HW2 5448   0.662   1.789   0.701
 1517SOL     OW 5449   4.542   6.219   3.496
 1517SOL    HW1 5450   4.623   6.206   3.553
 1517SOL    HW2 5451   4.478   6.280   3.543
 1518SOL     OW 5452   6.650   4.339   0.363
 1518SOL    HW1 5453   6.744   4.308   0.378
 1518SOL    HW2 5454   6.592   4.260   0.345
 1519SOL     OW 5455   6.299   4.539   1.071
 1519SOL    HW1 5456   6.359   4.461   1.057
 1519SOL    HW2 5457   6.245   4.524   1.154
 1520SOL     OW 5458   2.126   3.441   2.519
 1520SOL    HW1 5459   2.059   3.387   2.570
 1520SOL    HW2 5460   2.214   3.393   2.519
 1521SOL     OW 5461   1.560   3.353   0.127
 1521SOL    HW1 5462   1.634   3.342   0.060
 1521SOL    HW2 5463   1.598   3.351   0.219
 1522SOL     OW 5464   6.220   1.853   6.241
 1522SOL    HW1 5465   6.121   1.862   6.239
 1522SOL    HW2 5466   6.255   1.848   6.147
 1523SOL     OW 5467   6.250   2.482   1.372
 1523SOL    HW1 5468   6.335   2.458   1.419
 1523SOL    HW2 5469   6.269   2.502   1.276
 1524SOL     OW 5470   0.138   1.504   1.302
 1524SOL    HW1 5471   0.163   1.429   1.241
 1524SOL    HW2 5472   0.168   1.591   1.263
 1525SOL     OW 5473   3.717   1.974   5.989
 1525SOL    HW1 5474   3.770   1.897   5.953
 1525SOL    HW2 5475   3.662   2.014   5.916
 1526SOL     OW 5476   0.606   1.779   1.568
 1526SOL    HW1 5477   0.580   1.875   1.575
 1526SOL    HW2 5478   0.666   1.755   1.645
 1527SOL     OW 5479   3.350   1.720   5.055
 1527SOL    HW1 5480   3.266   1.769   5.033
 1527SOL    HW2 5481   3.425   1.784   5.063
 1528SOL     OW 5482   4.444   6.469   3.228
 1528SOL    HW1 5483   4.396   6.468   3.140
 1528SOL    HW2 5484   4.537   6.433   3.215
 1529SOL     OW 5485   3.886   0.605   6.424
 1529SOL    HW1 5486   3.868   0.519   6.375
 1529SOL    HW2 5487   3.959   0.590   6.490
 1530SOL     OW 5488   2.643   6.410   1.963
 1530SOL    HW1 5489   2.676   6.447   1.876
 1530SOL    HW2 5490   2.629   6.311   1.955
 1531SOL     OW 5491   6.930   0.233   4.029
 1531SOL    HW1 5492   7.008   0.179   4.059
 1531SOL    HW2 5493   6.930   0.321   4.075
 1532SOL     OW 5494   3.315   2.306   5.404
 1532SOL    HW1 5495   3.285   2.378   5.341
 1532SOL    HW2 5496   3.325   2.345   5.496
 1533SOL     OW 5497   6.001   3.785   0.012
 1533SOL    HW1 5498   6.039   3.766   6.942
 1533SOL    HW2 5499   6.075   3.813   0.074
 1534SOL     OW 5500   0.736   5.865   0.595
 1534SOL    HW1 5501   0.677   5.943   0.576
 1534SOL    HW2 5502   0.828   5.883   0.561
 1535SOL     OW 5503   5.269   4.536   4.080
 1535SOL    HW1 5504   5.289   4.459   4.140
 1535SOL    HW2 5505   5.170   4.550   4.074
 1536SOL     OW 5506   2.224   5.703   4.433
 1536SOL    HW1 5507   2.240   5.643   4.355
 1536SOL    HW2 5508   2.127   5.699   4.458
 1537SOL     OW 5509   2.588   5.711   4.226
 1537SOL    HW1 5510   2.488   5.715   4.224
 1537SOL    HW2 5511   2.617   5.651   4.301
 1538SOL     OW 5512   2.483   4.818   6.934
 1538SOL    HW1 5513   2.399   4.821   6.988
 1538SOL    HW2 5514   2.561   4.839   6.993
 1539SOL     OW 5515   3.338   4.580   1.700
 1539SOL    HW1 5516   3.329   4.480   1.706
 1539SOL    HW2 5517   3.422   4.609   1.745
 1540SOL     OW 5518   0.824   0.251   4.703
 1540SOL    HW1 5519   0.769   0.197   4.768
 1540SOL    HW2 5520   0.863   0.189   4.635
 1541SOL     OW 5521   4.256   2.869   1.176
 1541SOL    HW1 5522   4.169   2.823   1.188
 1541SOL    HW2 5523   4.310   2.863   1.260
 1542SOL     OW 5524   0.318   6.037   1.563
 1542SOL    HW1 5525   0.286   6.073   1.475
 1542SOL    HW2 5526   0.418   6.043   1.567
 1543SOL     OW 5527   3.295   3.753   3.690
 1543SOL    HW1 5528   3.248   3.830   3.647
 1543SOL    HW2 5529   3.390   3.750   3.659
 1544SOL     OW 5530   3.318   4.105   2.656
 1544SOL    HW1 5531   3.255   4.048   2.708
 1544SOL    HW2 5532   3.404   4.114   2.706
 1545SOL     OW 5533   5.924   0.912   4.944
 1545SOL    HW1 5534   5.941   0.855   4.863
 1545SOL    HW2 5535   5.864   0.864   5.007
 1546SOL     OW 5536   6.287   6.590   6.182
 1546SOL    HW1 5537   6.322   6.505   6.143
 1546SOL    HW2 5538   6.363   6.652   6.201
 1547SOL     OW 5539   2.870   4.858   3.057
 1547SOL    HW1 5540   2.969   4.845   3.062
 1547SOL    HW2 5541   2.843   4.932   3.119
 1548SOL     OW 5542   4.378   4.591   5.421
 1548SOL    HW1 5543   4.402   4.604   5.517
 1548SOL    HW2 5544   4.289   4.545   5.415
 1549SOL     OW 5545   6.594   2.615   1.624
 1549SOL    HW1 5546   6.546   2.557   1.690
 1549SOL    HW2 5547   6.691   2.590   1.622
 1550SOL     OW 5548   2.120   6.143   5.188
 1550SOL    HW1 5549   2.136   6.242   5.188
 1550SOL    HW2 5550   2.186   6.098   5.248
 1551SOL     OW 5551   1.684   3.259   1.321
 1551SOL    HW1 5552   1.629   3.177   1.338
 1551SOL    HW2 5553   1.683   3.317   1.402
 1552SOL     OW 5554   1.424   0.383   1.326
 1552SOL    HW1 5555   1.341   0.381   1.269
 1552SOL    HW2 5556   1.458   0.476   1.333
 1553SOL     OW 5557   6.137   2.095   6.952
 1553SOL    HW1 5558   6.165   2.053   0.018
 1553SOL    HW2 5559   6.089   2.027   6.896
 1554SOL     OW 5560   4.375   2.263   2.754
 1554SOL    HW1 5561   4.406   2.168   2.759
 1554SOL    HW2 5562   4.351   2.285   2.659
 1555SOL     OW 5563   4.522   1.387   4.790
 1555SOL    HW1 5564   4.462   1.311   4.815
 1555SOL    HW2 5565   4.545   1.439   4.873
 1556SOL     OW 5566   3.568   0.264   0.691
 1556SOL    HW1 5567   3.472   0.253   0.716
 1556SOL    HW2 5568   3.616   0.310   0.766
 1557SOL     OW 5569   1.852   1.899   1.163
 1557SOL    HW1 5570   1.891   1.990   1.170
 1557SOL    HW2 5571   1.754   1.903   1.184
 1558SOL     OW 5572   6.374   3.360   5.280
 1558SOL    HW1 5573   6.289   3.328   5.321
 1558SOL    HW2 5574   6.356   3.399   5.189
 1559SOL     OW 5575   1.155   4.053   2.247
 1559SOL    HW1 5576   1.127   4.087   2.337
 1559SOL    HW2 5577   1.101   3.971   2.224
 1560SOL     OW 5578   4.088   0.909   0.786
 1560SOL    HW1 5579   4.180   0.923   0.752
 1560SOL    HW2 5580   4.076   0.812   0.811
 1561SOL     OW 5581   5.167   6.294   2.235
 1561SOL    HW1 5582   5.248   6.340   2.272
 1561SOL    HW2 5583   5.140   6.221   2.297
 1562SOL     OW 5584   2.832   0.116   1.986
 1562SOL    HW1 5585   2.741   0.146   2.015
 1562SOL    HW2 5586   2.823   0.043   1.919
 1563SOL     OW 5587   3.205   2.117   4.860
 1563SOL    HW1 5588   3.297   2.126   4.823
 1563SOL    HW2 5589   3.181   2.201   4.909
 1564SOL     OW 5590   0.860   1.580   2.203
 1564SOL    HW1 5591   0.843   1.660   2.261
 1564SOL    HW2 5592   0.853   1.607   2.107
 1565SOL     OW 5593   3.487   6.431   4.124
 1565SOL    HW1 5594   3.584   6.452   4.141
 1565SOL    HW2 5595   3.437   6.517   4.111
 1566SOL     OW 5596   4.907   4.342   3.522
 1566SOL    HW1 5597   4.856   4.377   3.444
 1566SOL    HW2 5598   4.876   4.249   3.542
 1567SOL     OW 5599   5.864   5.913   5.520
 1567SOL    HW1 5600   5.931   5.840   5.531
 1567SOL    HW2 5601   5.831   5.942   5.610
 1568SOL     OW 5602   2.226   6.459   3.209
 1568SOL    HW1 5603   2.289   6.381   3.207
 1568SOL    HW2 5604   2.192   6.472   3.302
 1569SOL     OW 5605   2.965   0.181   2.844
 1569SOL    HW1 5606   3.053   0.173   2.797
 1569SOL    HW2 5607   2.963   0.116   2.920
 1570SOL     OW 5608   3.382   0.031   6.909
 1570SOL    HW1 5609   3.427   7.001   6.982
 1570SOL    HW2 5610   3.299   7.003   6.881
 1571SOL     OW 5611   1.250   2.663   3.737
 1571SOL    HW1 5612   1.212   2.662   3.830
 1571SOL    HW2 5613   1.301   2.578   3.721
 1572SOL     OW 5614   1.778   4.930   1.545
 1572SOL    HW1 5615   1.820   4.854   1.496
 1572SOL    HW2 5616   1.704   4.896   1.603
 1573SOL     OW 5617   4.365   4.909   1.228
 1573SOL    HW1 5618   4.389   4.916   1.131
 1573SOL    HW2 5619   4.325   4.995   1.259
 1574SOL     OW 5620   5.931   3.725   1.702
 1574SOL    HW1 5621   5.839   3.720   1.742
 1574SOL    HW2 5622   5.940   3.809   1.649
 1575SOL     OW 5623   1.315   1.274   1.259
 1575SOL    HW1 5624   1.356   1.304   1.345
 1575SOL    HW2 5625   1.296   1.354   1.202
 1576SOL     OW 5626   0.534   5.982   2.088
 1576SOL    HW1 5627   0.524   5.989   1.988
 1576SOL    HW2 5628   0.569   5.892   2.112
 1577SOL     OW 5629   3.495   0.067   6.664
 1577SOL    HW1 5630   3.426   0.093   6.596
 1577SOL    HW2 5631   3.453   0.061   6.754
 1578SOL     OW 5632   4.257   0.960   0.192
 1578SOL    HW1 5633   4.251   0.935   0.288
 1578SOL    HW2 5634   4.285   0.881   0.138
 1579SOL     OW 5635   1.556   2.501   1.700
 1579SOL    HW1 5636   1.554   2.437   1.777
 1579SOL    HW2 5637   1.538   2.594   1.734
 1580SOL     OW 5638   3.195   3.954   2.847
 1580SOL    HW1 5639   3.251   4.023   2.892
 1580SOL    HW2 5640   3.135   3.910   2.914
 1581SOL     OW 5641   0.244   4.189   5.864
 1581SOL    HW1 5642   0.330   4.138   5.868
 1581SOL    HW2 5643   0.263   4.283   5.836
 1582SOL     OW 5644   4.839   6.592   5.733
 1582SOL    HW1 5645   4.751   6.545   5.745
 1582SOL    HW2 5646   4.856   6.605   5.635
 1583SOL     OW 5647   1.170   5.668   4.994
 1583SOL    HW1 5648   1.139   5.754   5.035
 1583SOL    HW2 5649   1.243   5.687   4.928
 1584SOL     OW 5650   0.648   5.792   6.655
 1584SOL    HW1 5651   0.578   5.745   6.601
 1584SOL    HW2 5652   0.727   5.810   6.597
 1585SOL     OW 5653   4.042   0.604   3.257
 1585SOL    HW1 5654   4.127   0.559   3.285
 1585SOL    HW2 5655   4.013   0.569   3.169
 1586SOL     OW 5656   2.942   5.647   4.507
 1586SOL    HW1 5657   3.023   5.589   4.494
 1586SOL    HW2 5658   2.860   5.590   4.504
 1587SOL     OW 5659   1.343   6.241   6.081
 1587SOL    HW1 5660   1.304   6.204   5.997
 1587SOL    HW2 5661   1.428   6.290   6.059
 1588SOL     OW 5662   5.427   0.577   2.155
 1588SOL    HW1 5663   5.370   0.657   2.134
 1588SOL    HW2 5664   5.476   0.593   2.241
 1589SOL     OW 5665   6.708   4.304   2.781
 1589SOL    HW1 5666   6.706   4.398   2.746
 1589SOL    HW2 5667   6.793   4.288   2.831
 1590SOL     OW 5668   5.689   2.284   3.567
 1590SOL    HW1 5669   5.671   2.250   3.659
 1590SOL    HW2 5670   5.740   2.370   3.573
 1591SOL     OW 5671   0.126   5.854   1.742
 1591SOL    HW1 5672   0.207   5.900   1.706
 1591SOL    HW2 5673   0.045   5.882   1.689
 1592SOL     OW 5674   1.558   4.061   6.922
 1592SOL    HW1 5675   1.492   4.024   6.987
 1592SOL    HW2 5676   1.646   4.073   6.968
 1593SOL     OW 5677   1.148   0.031   6.553
 1593SOL    HW1 5678   1.164   0.109   6.614
 1593SOL    HW2 5679   1.058   7.012   6.573
 1594SOL     OW 5680   6.942   0.665   2.507
 1594SOL    HW1 5681   7.002   0.586   2.497
 1594SOL    HW2 5682   6.930   0.685   2.605
 1595SOL     OW 5683   1.383   4.241   6.747
 1595SOL    HW1 5684   1.466   4.286   6.713
 1595SOL    HW2 5685   1.409   4.166   6.807
 1596SOL     OW 5686   5.931   4.324   2.367
 1596SOL    HW1 5687   5.887   4.264   2.434
 1596SOL    HW2 5688   5.986   4.268   2.305
 1597SOL     OW 5689   3.111   5.323   1.117
 1597SOL    HW1 5690   3.183   5.373   1.165
 1597SOL    HW2 5691   3.107   5.229   1.153
 1598SOL     OW 5692   2.002   5.669   0.012
 1598SOL    HW1 5693   1.959   5.730   0.078
 1598SOL    HW2 5694   1.936   5.647   6.960
 1599SOL     OW 5695   3.611   5.265   4.090
 1599SOL    HW1 5696   3.611   5.169   4.117
 1599SOL    HW2 5697   3.567   5.320   4.160
 1600SOL     OW 5698   3.411   0.233   2.873
 1600SOL    HW1 5699   3.483   0.164   2.865
 1600SOL    HW2 5700   3.449   0.324   2.858
 1601SOL     OW 5701   6.313   6.721   4.136
 1601SOL    HW1 5702   6.402   6.685   4.164
 1601SOL    HW2 5703   6.299   6.811   4.177
 1602SOL     OW 5704   4.533   5.548   4.138
 1602SOL    HW1 5705   4.436   5.572   4.135
 1602SOL    HW2 5706   4.588   5.631   4.135
 1603SOL     OW 5707   2.969   5.921   4.531
 1603SOL    HW1 5708   3.049   5.926   4.472
 1603SOL    HW2 5709   2.943   5.826   4.544
 1604SOL     OW 5710   4.085   4.722   2.070
 1604SOL    HW1 5711   4.071   4.640   2.126
 1604SOL    HW2 5712   4.138   4.697   1.989
 1605SOL     OW 5713   5.217   5.240   1.726
 1605SOL    HW1 5714   5.253   5.317   1.779
 1605SOL    HW2 5715   5.292   5.189   1.685
 1606SOL     OW 5716   4.233   6.209   3.822
 1606SOL    HW1 5717   4.146   6.240   3.784
 1606SOL    HW2 5718   4.247   6.249   3.912
 1607SOL     OW 5719   4.304   6.758   2.493
 1607SOL    HW1 5720   4.245   6.711   2.558
 1607SOL    HW2 5721   4.394   6.773   2.533
 1608SOL     OW 5722   6.950   1.360   2.946
 1608SOL    HW1 5723   0.017   1.335   2.904
 1608SOL    HW2 5724   6.933   1.457   2.931
 1609SOL     OW 5725   3.430   5.922   0.575
 1609SOL    HW1 5726   3.518   5.889   0.610
 1609SOL    HW2 5727   3.387   5.851   0.520
 1610SOL     OW 5728   3.874   6.343   6.951
 1610SOL    HW1 5729   3.871   6.376   6.857
 1610SOL    HW2 5730   3.781   6.318   6.980
 1611SOL     OW 5731   1.282   4.085   1.378
 1611SOL    HW1 5732   1.366   4.139   1.372
 1611SOL    HW2 5733   1.302   3.989   1.360
 1612SOL     OW 5734   2.925   5.428   0.956
 1612SOL    HW1 5735   2.958   5.522   0.954
 1612SOL    HW2 5736   2.975   5.377   1.025
 1613SOL     OW 5737   0.556   5.976   2.777
 1613SOL    HW1 5738   0.530   6.033   2.855
 1613SOL    HW2 5739   0.487   5.984   2.705
 1614SOL     OW 5740   5.713   2.585   6.625
 1614SOL    HW1 5741   5.672   2.524   6.557
 1614SOL    HW2 5742   5.713   2.678   6.590
 1615SOL     OW 5743   0.231   5.094   6.641
 1615SOL    HW1 5744   0.235   5.028   6.715
 1615SOL    HW2 5745   0.317   5.146   6.638
 1616SOL     OW 5746   3.709   0.815   5.384
 1616SOL    HW1 5747   3.682   0.854   5.471
 1616SOL    HW2 5748   3.787   0.867   5.347
 1617SOL     OW 5749   5.099   6.852   3.815
 1617SOL    HW1 5750   5.071   6.829   3.722
 1617SOL    HW2 5751   5.195   6.830   3.828
 1618SOL     OW 5752   1.773   6.105   2.783
 1618SOL    HW1 5753   1.793   6.033   2.716
 1618SOL    HW2 5754   1.858   6.146   2.814
 1619SOL     OW 5755   0.783   5.097   6.784
 1619SOL    HW1 5756   0.712   5.050   6.732
 1619SOL    HW2 5757   0.750   5.117   6.876
 1620SOL     OW 5758   3.089   5.308   0.777
 1620SOL    HW1 5759   3.018   5.344   0.837
 1620SOL    HW2 5760   3.125   5.383   0.721
 1621SOL     OW 5761   5.703   6.213   1.160
 1621SOL    HW1 5762   5.663   6.253   1.078
 1621SOL    HW2 5763   5.799   6.191   1.143
 1622SOL     OW 5764   0.774   3.999   5.495
 1622SOL    HW1 5765   0.694   4.047   5.530
 1622SOL    HW2 5766   0.749   3.947   5.413
 1623SOL     OW 5767   1.110   2.391   4.857
 1623SOL    HW1 5768   1.015   2.367   4.876
 1623SOL    HW2 5769   1.118   2.429   4.765
 1624SOL     OW 5770   3.440   0.807   0.343
 1624SOL    HW1 5771   3.409   0.881   0.284
 1624SOL    HW2 5772   3.451   0.841   0.436
 1625SOL     OW 5773   1.990   5.244   0.350
 1625SOL    HW1 5774   2.032   5.154   0.365
 1625SOL    HW2 5775   1.987   5.294   0.436
 1626SOL     OW 5776   3.219   1.837   2.160
 1626SOL    HW1 5777   3.226   1.935   2.142
 1626SOL    HW2 5778   3.172   1.823   2.247
 1627SOL     OW 5779   5.164   2.428   4.545
 1627SOL    HW1 5780   5.220   2.505   4.574
 1627SOL    HW2 5781   5.080   2.461   4.504
 1628SOL     OW 5782   5.036   5.667   6.765
 1628SOL    HW1 5783   5.122   5.665   6.715
 1628SOL    HW2 5784   5.055   5.681   6.862
 1629SOL     OW 5785   3.107   2.122   3.491
 1629SOL    HW1 5786   3.008   2.128   3.484
 1629SOL    HW2 5787   3.137   2.031   3.461
 1630SOL     OW 5788   0.263   4.178   6.925
 1630SOL    HW1 5789   0.354   4.196   6.964
 1630SOL    HW2 5790   0.196   4.237   6.968
 1631SOL     OW 5791   0.026   3.490   1.201
 1631SOL    HW1 5792   6.947   3.499   1.189
 1631SOL    HW2 5793   0.049   3.502   1.297
 1632SOL     OW 5794   5.338   4.848   2.501
 1632SOL    HW1 5795   5.384   4.923   2.452
 1632SOL    HW2 5796   5.407   4.788   2.541
 1633SOL     OW 5797   4.783   4.039   4.021
 1633SOL    HW1 5798   4.858   4.056   4.084
 1633SOL    HW2 5799   4.696   4.062   4.065
 1634SOL     OW 5800   4.128   0.372   4.884
 1634SOL    HW1 5801   4.095   0.292   4.834
 1634SOL    HW2 5802   4.071   0.451   4.862
 1635SOL     OW 5803   3.655   4.693   5.798
 1635SOL    HW1 5804   3.708   4.683   5.882
 1635SOL    HW2 5805   3.717   4.714   5.722
 1636SOL     OW 5806   4.120   5.921   1.158
 1636SOL    HW1 5807   4.090   5.954   1.248
 1636SOL    HW2 5808   4.046   5.868   1.116
 1637SOL     OW 5809   6.903   6.905   3.257
 1637SOL    HW1 5810   6.852   6.837   3.204
 1637SOL    HW2 5811   6.949   6.859   3.334
 1638SOL     OW 5812   6.708   3.280   1.651
 1638SOL    HW1 5813   6.694   3.248   1.744
 1638SOL    HW2 5814   6.677   3.211   1.586
 1639SOL     OW 5815   6.439   4.073   1.692
 1639SOL    HW1 5816   6.437   4.162   1.737
 1639SOL    HW2 5817   6.528   4.059   1.648
 1640SOL     OW 5818   5.871   0.042   1.336
 1640SOL    HW1 5819   5.818   0.108   1.390
 1640SOL    HW2 5820   5.833   0.038   1.243
 1641SOL     OW 5821   6.816   2.507   3.867
 1641SOL    HW1 5822   6.741   2.451   3.832
 1641SOL    HW2 5823   6.858   2.461   3.946
 1642SOL     OW 5824   6.464   2.484   6.465
 1642SOL    HW1 5825   6.434   2.523   6.552
 1642SOL    HW2 5826   6.429   2.539   6.389
 1643SOL     OW 5827   3.239   4.922   4.093
 1643SOL    HW1 5828   3.177   4.985   4.045
 1643SOL    HW2 5829   3.212   4.916   4.189
 1644SOL     OW 5830   5.960   2.703   0.787
 1644SOL    HW1 5831   6.045   2.737   0.826
 1644SOL    HW2 5832   5.919   2.773   0.728
 1645SOL     OW 5833   2.946   0.519   5.920
 1645SOL    HW1 5834   2.871   0.497   5.981
 1645SOL    HW2 5835   3.016   0.448   5.926
 1646SOL     OW 5836   1.903   5.554   6.760
 1646SOL    HW1 5837   1.825   5.557   6.697
 1646SOL    HW2 5838   1.978   5.504   6.716
 1647SOL     OW 5839   6.149   2.972   3.950
 1647SOL    HW1 5840   6.165   2.977   3.851
 1647SOL    HW2 5841   6.096   2.890   3.970
 1648SOL     OW 5842   4.845   6.027   0.474
 1648SOL    HW1 5843   4.920   6.001   0.535
 1648SOL    HW2 5844   4.883   6.063   0.389
 1649SOL     OW 5845   3.229   0.197   3.691
 1649SOL    HW1 5846   3.260   0.108   3.726
 1649SOL    HW2 5847   3.175   0.183   3.609
 1650SOL     OW 5848   1.613   4.990   6.204
 1650SOL    HW1 5849   1.694   4.937   6.181
 1650SOL    HW2 5850   1.546   4.930   6.248
 1651SOL     OW 5851   0.585   2.897   3.552
 1651SOL    HW1 5852   0.662   2.834   3.537
 1651SOL    HW2 5853   0.603   2.951   3.634
 1652SOL     OW 5854   1.136   2.637   1.765
 1652SOL    HW1 5855   1.065   2.576   1.732
 1652SOL    HW2 5856   1.184   2.677   1.687
 1653SOL     OW 5857   0.239   5.421   2.496
 1653SOL    HW1 5858   0.199   5.374   2.575
 1653SOL    HW2 5859   0.166   5.453   2.436
 1654SOL     OW 5860   0.992   2.845   1.254
 1654SOL    HW1 5861   1.016   2.866   1.160
 1654SOL    HW2 5862   0.949   2.925   1.296
 1655SOL     OW 5863   6.865   1.449   4.474
 1655SOL    HW1 5864   6.940   1.511   4.452
 1655SOL    HW2 5865   6.903   1.361   4.503
 1656SOL     OW 5866   2.344   5.345   4.463
 1656SOL    HW1 5867   2.377   5.307   4.376
 1656SOL    HW2 5868   2.252   5.310   4.481
 1657SOL     OW 5869   0.001   0.924   4.825
 1657SOL    HW1 5870   0.031   0.970   4.742
 1657SOL    HW2 5871   6.934   0.963   4.854
 1658SOL     OW 5872   6.811   6.683   0.324
 1658SOL    HW1 5873   6.757   6.603   0.352
 1658SOL    HW2 5874   6.897   6.653   0.285
 1659SOL     OW 5875   4.117   6.924   6.474
 1659SOL    HW1 5876   4.198   6.940   6.418
 1659SOL    HW2 5877   4.039   6.905   6.415
 1660SOL     OW 5878   1.524   6.661   1.930
 1660SOL    HW1 5879   1.600   6.600   1.949
 1660SOL    HW2 5880   1.446   6.638   1.988
 1661SOL     OW 5881   2.548   4.615   2.123
 1661SOL    HW1 5882   2.539   4.713   2.111
 1661SOL    HW2 5883   2.628   4.582   2.072
 1662SOL     OW 5884   6.861   1.605   5.183
 1662SOL    HW1 5885   6.806   1.563   5.255
 1662SOL    HW2 5886   6.815   1.688   5.150
 1663SOL     OW 5887   4.983   5.171   2.152
 1663SOL    HW1 5888   4.963   5.201   2.059
 1663SOL    HW2 5889   5.033   5.243   2.200
 1664SOL     OW 5890   1.335   0.514   5.033
 1664SOL    HW1 5891   1.308   0.515   5.130
 1664SOL    HW2 5892   1.412   0.451   5.021
 1665SOL     OW 5893   1.494   3.385   1.128
 1665SOL    HW1 5894   1.436   3.397   1.209
 1665SOL    HW2 5895   1.583   3.348   1.155
 1666SOL     OW 5896   5.414   6.897   6.148
 1666SOL    HW1 5897   5.412   6.814   6.091
 1666SOL    HW2 5898   5.484   6.887   6.218
 1667SOL     OW 5899   6.899   6.658   1.117
 1667SOL    HW1 5900   6.948   6.614   1.042
 1667SOL    HW2 5901   6.932   6.621   1.204
 1668SOL     OW 5902   5.117   4.975   3.668
 1668SOL    HW1 5903   5.034   4.984   3.724
 1668SOL    HW2 5904   5.116   5.045   3.596
 1669SOL     OW 5905   0.009   4.305   5.595
 1669SOL    HW1 5906   6.940   4.284   5.634
 1669SOL    HW2 5907   0.076   4.312   5.669
 1670SOL     OW 5908   1.378   4.836   5.772
 1670SOL    HW1 5909   1.463   4.843   5.721
 1670SOL    HW2 5910   1.383   4.894   5.854
 1671SOL     OW 5911   4.805   1.980   2.591
 1671SOL    HW1 5912   4.717   1.974   2.637
 1671SOL    HW2 5913   4.808   2.063   2.534
 1672SOL     OW 5914   1.228   3.549   7.017
 1672SOL    HW1 5915   1.328   3.547   7.013
 1672SOL    HW2 5916   1.194   3.456   0.008
 1673SOL     OW 5917   2.312   1.804   4.426
 1673SOL    HW1 5918   2.245   1.793   4.500
 1673SOL    HW2 5919   2.343   1.899   4.423
 1674SOL     OW 5920   5.947   2.903   2.362
 1674SOL    HW1 5921   6.015   2.941   2.425
 1674SOL    HW2 5922   5.967   2.806   2.347
 1675SOL     OW 5923   5.064   0.787   1.314
 1675SOL    HW1 5924   4.995   0.824   1.376
 1675SOL    HW2 5925   5.035   0.801   1.219
 1676SOL     OW 5926   2.297   2.358   2.577
 1676SOL    HW1 5927   2.220   2.390   2.632
 1676SOL    HW2 5928   2.310   2.260   2.593
 1677SOL     OW 5929   3.874   4.037   3.424
 1677SOL    HW1 5930   3.798   4.070   3.480
 1677SOL    HW2 5931   3.862   4.068   3.329
 1678SOL     OW 5932   0.678   6.329   0.937
 1678SOL    HW1 5933   0.764   6.294   0.974
 1678SOL    HW2 5934   0.603   6.270   0.965
 1679SOL     OW 5935   1.833   1.210   5.332
 1679SOL    HW1 5936   1.915   1.247   5.288
 1679SOL    HW2 5937   1.787   1.146   5.270
 1680SOL     OW 5938   5.513   3.255   4.267
 1680SOL    HW1 5939   5.456   3.260   4.349
 1680SOL    HW2 5940   5.553   3.164   4.260
 1681SOL     OW 5941   1.720   5.738   4.532
 1681SOL    HW1 5942   1.785   5.786   4.591
 1681SOL    HW2 5943   1.767   5.661   4.488
 1682SOL     OW 5944   3.263   0.588   6.172
 1682SOL    HW1 5945   3.344   0.529   6.174
 1682SOL    HW2 5946   3.232   0.597   6.077
 1683SOL     OW 5947   5.759   5.185   2.643
 1683SOL    HW1 5948   5.839   5.126   2.637
 1683SOL    HW2 5949   5.713   5.187   2.554
 1684SOL     OW 5950   1.340   4.490   1.983
 1684SOL    HW1 5951   1.278   4.414   2.004
 1684SOL    HW2 5952   1.339   4.507   1.885
 1685SOL     OW 5953   1.520   1.689   5.951
 1685SOL    HW1 5954   1.459   1.611   5.967
 1685SOL    HW2 5955   1.610   1.655   5.924
 1686SOL     OW 5956   4.752   6.188   3.692
 1686SOL    HW1 5957   4.729   6.154   3.783
 1686SOL    HW2 5958   4.813   6.124   3.646
 1687SOL     OW 5959   0.371   4.022   2.009
 1687SOL    HW1 5960   0.459   4.069   1.998
 1687SOL    HW2 5961   0.387   3.927   2.036
 1688SOL     OW 5962   1.980   2.148   3.525
 1688SOL    HW1 5963   2.040   2.070   3.508
 1688SOL    HW2 5964   1.908   2.122   3.589
 1689SOL     OW 5965   6.570   1.149   2.135
 1689SOL    HW1 5966   6.603   1.149   2.041
 1689SOL    HW2 5967   6.598   1.234   2.180
 1690SOL     OW 5968   0.870   3.648   4.074
 1690SOL    HW1 5969   0.886   3.554   4.104
 1690SOL    HW2 5970   0.948   3.705   4.102
 1691SOL     OW 5971   4.946   3.629   4.346
 1691SOL    HW1 5972   4.931   3.535   4.316
 1691SOL    HW2 5973   4.916   3.692   4.275
 1692SOL     OW 5974   5.466   5.530   1.479
 1692SOL    HW1 5975   5.406   5.607   1.501
 1692SOL    HW2 5976   5.534   5.559   1.413
 1693SOL     OW 5977   0.088   1.870   4.525
 1693SOL    HW1 5978   0.120   1.961   4.498
 1693SOL    HW2 5979   0.042   1.876   4.614
 1694SOL     OW 5980   5.966   1.164   4.621
 1694SOL    HW1 5981   6.026   1.148   4.699
 1694SOL    HW2 5982   5.963   1.081   4.565
 1695SOL     OW 5983   3.828   0.578   6.772
 1695SOL    HW1 5984   3.838   0.638   6.851
 1695SOL    HW2 5985   3.758   0.615   6.711
 1696SOL     OW 5986   4.011   5.510   0.624
 1696SOL    HW1 5987   4.027   5.426   0.675
 1696SOL    HW2 5988   4.030   5.589   0.682
 1697SOL     OW 5989   6.193   2.284   0.662
 1697SOL    HW1 5990   6.281   2.253   0.695
 1697SOL    HW2 5991   6.128   2.208   0.661
 1698SOL     OW 5992   3.660   1.080   1.409
 1698SOL    HW1 5993   3.752   1.047   1.432
 1698SOL    HW2 5994   3.633   1.043   1.320
 1699SOL     OW 5995   2.584   1.611   6.196
 1699SOL    HW1 5996   2.604   1.616   6.294
 1699SOL    HW2 5997   2.660   1.652   6.145
 1700SOL     OW 5998   5.906   3.312   3.820
 1700SOL    HW1 5999   5.827   3.261   3.854
 1700SOL    HW2 6000   5.958   3.348   3.897
 1701SOL     OW 6001   6.402   5.205   4.805
 1701SOL    HW1 6002   6.336   5.193   4.731
 1701SOL    HW2 6003   6.385   5.137   4.876
 1702SOL     OW 6004   1.603   0.931   6.447
 1702SOL    HW1 6005   1.685   0.918   6.392
 1702SOL    HW2 6006   1.562   1.020   6.425
 1703SOL     OW 6007   3.387   1.877   6.060
 1703SOL    HW1 6008   3.454   1.861   5.988
 1703SOL    HW2 6009   3.296   1.885   6.019
 1704SOL     OW 6010   1.906   0.955   0.456
 1704SOL    HW1 6011   1.945   0.940   0.547
 1704SOL    HW2 6012   1.885   1.052   0.444
 1705SOL     OW 6013   4.131   1.678   1.747
 1705SOL    HW1 6014   4.082   1.671   1.661
 1705SOL    HW2 6015   4.068   1.660   1.823
 1706SOL     OW 6016   4.157   1.539   0.914
 1706SOL    HW1 6017   4.205   1.514   0.830
 1706SOL    HW2 6018   4.102   1.462   0.946
 1707SOL     OW 6019   4.677   1.806   2.946
 1707SOL    HW1 6020   4.697   1.776   2.852
 1707SOL    HW2 6021   4.736   1.883   2.970
 1708SOL     OW 6022   3.403   5.779   2.062
 1708SOL    HW1 6023   3.304   5.772   2.072
 1708SOL    HW2 6024   3.448   5.717   2.126
 1709SOL     OW 6025   4.769   5.876   0.692
 1709SOL    HW1 6026   4.762   5.944   0.619
 1709SOL    HW2 6027   4.863   5.844   0.700
 1710SOL     OW 6028   4.432   5.386   3.456
 1710SOL    HW1 6029   4.382   5.305   3.426
 1710SOL    HW2 6030   4.520   5.392   3.408
 1711SOL     OW 6031   3.120   5.694   5.737
 1711SOL    HW1 6032   3.145   5.609   5.782
 1711SOL    HW2 6033   3.030   5.724   5.769
 1712SOL     OW 6034   0.424   2.502   5.172
 1712SOL    HW1 6035   0.489   2.425   5.172
 1712SOL    HW2 6036   0.452   2.568   5.101
 1713SOL     OW 6037   3.948   0.706   2.996
 1713SOL    HW1 6038   3.997   0.687   2.911
 1713SOL    HW2 6039   3.998   0.775   3.049
 1714SOL     OW 6040   3.386   2.223   6.645
 1714SOL    HW1 6041   3.406   2.162   6.569
 1714SOL    HW2 6042   3.442   2.305   6.639
 1715SOL     OW 6043   1.488   6.152   2.079
 1715SOL    HW1 6044   1.545   6.081   2.117
 1715SOL    HW2 6045   1.543   6.233   2.059
 1716SOL     OW 6046   4.577   0.360   3.855
 1716SOL    HW1 6047   4.544   0.438   3.908
 1716SOL    HW2 6048   4.576   0.278   3.911
 1717SOL     OW 6049   3.831   6.200   4.958
 1717SOL    HW1 6050   3.779   6.134   4.903
 1717SOL    HW2 6051   3.929   6.178   4.951
 1718SOL     OW 6052   2.383   2.095   2.609
 1718SOL    HW1 6053   2.353   2.057   2.697
 1718SOL    HW2 6054   2.455   2.037   2.571
 1719SOL     OW 6055   1.374   4.720   1.082
 1719SOL    HW1 6056   1.441   4.650   1.103
 1719SOL    HW2 6057   1.315   4.690   1.007
 1720SOL     OW 6058   0.230   2.934   6.106
 1720SOL    HW1 6059   0.170   2.877   6.163
 1720SOL    HW2 6060   0.290   2.988   6.164
 1721SOL     OW 6061   1.111   0.411   2.218
 1721SOL    HW1 6062   1.111   0.492   2.159
 1721SOL    HW2 6063   1.177   0.344   2.183
 1722SOL     OW 6064   3.383   2.109   2.821
 1722SOL    HW1 6065   3.414   2.017   2.797
 1722SOL    HW2 6066   3.325   2.144   2.747
 1723SOL     OW 6067   4.567   2.225   0.094
 1723SOL    HW1 6068   4.486   2.255   0.143
 1723SOL    HW2 6069   4.631   2.302   0.084
 1724SOL     OW 6070   6.485   2.363   1.725
 1724SOL    HW1 6071   6.509   2.348   1.629
 1724SOL    HW2 6072   6.452   2.278   1.766
 1725SOL     OW 6073   1.801   4.846   6.828
 1725SOL    HW1 6074   1.834   4.764   6.780
 1725SOL    HW2 6075   1.792   4.921   6.763
 1726SOL     OW 6076   6.124   4.448   3.716
 1726SOL    HW1 6077   6.202   4.441   3.779
 1726SOL    HW2 6078   6.150   4.410   3.627
 1727SOL     OW 6079   3.557   3.543   3.371
 1727SOL    HW1 6080   3.479   3.526   3.432
 1727SOL    HW2 6081   3.630   3.588   3.423
 1728SOL     OW 6082   5.110   4.359   5.481
 1728SOL    HW1 6083   5.192   4.310   5.452
 1728SOL    HW2 6084   5.129   4.408   5.566
 1729SOL     OW 6085   1.627   3.785   1.659
 1729SOL    HW1 6086   1.719   3.757   1.689
 1729SOL    HW2 6087   1.619   3.884   1.666
 1730SOL     OW 6088   2.160   5.737   5.260
 1730SOL    HW1 6089   2.068   5.741   5.298
 1730SOL    HW2 6090   2.159   5.688   5.173
 1731SOL     OW 6091   5.050   4.814   3.984
 1731SOL    HW1 6092   5.092   4.839   3.897
 1731SOL    HW2 6093   5.025   4.717   3.983
 1732SOL     OW 6094   2.033   4.116   6.259
 1732SOL    HW1 6095   2.083   4.195   6.223
 1732SOL    HW2 6096   1.942   4.146   6.289
 1733SOL     OW 6097   2.929   3.875   0.301
 1733SOL    HW1 6098   2.855   3.809   0.292
 1733SOL    HW2 6099   3.013   3.837   0.262
 1734SOL     OW 6100   6.587   3.114   1.497
 1734SOL    HW1 6101   6.676   3.096   1.455
 1734SOL    HW2 6102   6.540   3.028   1.512
 1735SOL     OW 6103   4.581   5.433   7.011
 1735SOL    HW1 6104   4.482   5.420   7.009
 1735SOL    HW2 6105   4.625   5.363   6.956
 1736SOL     OW 6106   4.288   3.802   1.171
 1736SOL    HW1 6107   4.215   3.870   1.171
 1736SOL    HW2 6108   4.270   3.733   1.241
 1737SOL     OW 6109   4.982   0.743   4.286
 1737SOL    HW1 6110   5.047   0.768   4.358
 1737SOL    HW2 6111   5.030   0.742   4.198
 1738SOL     OW 6112   1.920   4.055   4.129
 1738SOL    HW1 6113   1.872   3.972   4.104
 1738SOL    HW2 6114   1.973   4.039   4.213
 1739SOL     OW 6115   5.609   0.540   3.396
 1739SOL    HW1 6116   5.624   0.453   3.441
 1739SOL    HW2 6117   5.694   0.593   3.396
 1740SOL     OW 6118   6.801   2.259   4.987
 1740SOL    HW1 6119   6.845   2.346   5.012
 1740SOL    HW2 6120   6.866   2.184   5.000
 1741SOL     OW 6121   1.417   2.009   4.570
 1741SOL    HW1 6122   1.414   1.941   4.497
 1741SOL    HW2 6123   1.511   2.019   4.602
 1742SOL     OW 6124   6.293   6.940   6.099
 1742SOL    HW1 6125   6.264   7.009   6.165
 1742SOL    HW2 6126   6.222   6.929   6.029
 1743SOL     OW 6127   0.925   1.401   3.328
 1743SOL    HW1 6128   0.951   1.358   3.414
 1743SOL    HW2 6129   0.827   1.422   3.329
 1744SOL     OW 6130   5.387   2.181   3.541
 1744SOL    HW1 6131   5.335   2.120   3.482
 1744SOL    HW2 6132   5.427   2.255   3.486
 1745SOL     OW 6133   5.999   6.364   1.178
 1745SOL    HW1 6134   6.062   6.437   1.153
 1745SOL    HW2 6135   6.048   6.276   1.180
 1746SOL     OW 6136   1.699   3.824   3.689
 1746SOL    HW1 6137   1.757   3.745   3.670
 1746SOL    HW2 6138   1.644   3.844   3.608
 1747SOL     OW 6139   3.715   1.627   1.682
 1747SOL    HW1 6140   3.620   1.638   1.651
 1747SOL    HW2 6141   3.716   1.605   1.780
 1748SOL     OW 6142   6.234   1.407   4.523
 1748SOL    HW1 6143   6.184   1.383   4.440
 1748SOL    HW2 6144   6.304   1.338   4.541
 1749SOL     OW 6145   2.654   5.675   1.077
 1749SOL    HW1 6146   2.668   5.621   1.159
 1749SOL    HW2 6147   2.739   5.723   1.053
 1750SOL     OW 6148   4.240   0.947   5.213
 1750SOL    HW1 6149   4.261   0.957   5.311
 1750SOL    HW2 6150   4.319   0.910   5.166
 1751SOL     OW 6151   6.486   2.512   5.269
 1751SOL    HW1 6152   6.533   2.600   5.275
 1751SOL    HW2 6153   6.513   2.465   5.184
 1752SOL     OW 6154   6.671   1.519   1.095
 1752SOL    HW1 6155   6.632   1.497   1.006
 1752SOL    HW2 6156   6.600   1.509   1.165
 1753SOL     OW 6157   0.021   1.675   1.532
 1753SOL    HW1 6158   6.968   1.741   1.519
 1753SOL    HW2 6159   7.013   1.585   1.499
 1754SOL     OW 6160   3.144   6.119   6.066
 1754SOL    HW1 6161   3.073   6.097   5.999
 1754SOL    HW2 6162   3.153   6.043   6.130
 1755SOL     OW 6163   6.569   0.002   5.058
 1755SOL    HW1 6164   6.479   6.994   5.024
 1755SOL    HW2 6165   6.590   6.973   5.142
 1756SOL     OW 6166   5.661   0.526   5.951
 1756SOL    HW1 6167   5.712   0.469   5.887
 1756SOL    HW2 6168   5.639   0.474   6.033
 1757SOL     OW 6169   2.448   5.290   3.955
 1757SOL    HW1 6170   2.426   5.224   3.883
 1757SOL    HW2 6171   2.537   5.331   3.936
 1758SOL     OW 6172   2.275   6.962   5.303
 1758SOL    HW1 6173   2.273   6.863   5.291
 1758SOL    HW2 6174   2.232   7.006   5.224
 1759SOL     OW 6175   1.209   6.073   6.427
 1759SOL    HW1 6176   1.282   6.139   6.411
 1759SOL    HW2 6177   1.139   6.115   6.485
 1760SOL     OW 6178   6.038   0.768   4.687
 1760SOL    HW1 6179   5.976   0.695   4.658
 1760SOL    HW2 6180   6.133   0.737   4.676
 1761SOL     OW 6181   0.230   1.834   1.395
 1761SOL    HW1 6182   0.138   1.822   1.359
 1761SOL    HW2 6183   0.251   1.760   1.460
 1762SOL     OW 6184   0.841   1.536   5.213
 1762SOL    HW1 6185   0.905   1.522   5.288
 1762SOL    HW2 6186   0.860   1.469   5.141
 1763SOL     OW 6187   1.260   3.563   4.801
 1763SOL    HW1 6188   1.325   3.616   4.747
 1763SOL    HW2 6189   1.180   3.541   4.745
 1764SOL     OW 6190   1.636   4.413   1.848
 1764SOL    HW1 6191   1.571   4.382   1.917
 1764SOL    HW2 6192   1.598   4.397   1.757
 1765SOL     OW 6193   4.996   3.071   1.876
 1765SOL    HW1 6194   4.903   3.052   1.906
 1765SOL    HW2 6195   5.024   3.003   1.808
 1766SOL     OW 6196   4.396   4.819   3.859
 1766SOL    HW1 6197   4.450   4.899   3.834
 1766SOL    HW2 6198   4.300   4.833   3.833
 1767SOL     OW 6199   6.830   5.590   2.441
 1767SOL    HW1 6200   6.926   5.619   2.439
 1767SOL    HW2 6201   6.785   5.631   2.520
 1768SOL     OW 6202   4.677   6.109   1.869
 1768SOL    HW1 6203   4.623   6.087   1.951
 1768SOL    HW2 6204   4.742   6.035   1.852
 1769SOL     OW 6205   6.223   0.760   6.658
 1769SOL    HW1 6206   6.173   0.722   6.581
 1769SOL    HW2 6207   6.312   0.715   6.666
 1770SOL     OW 6208   1.580   4.838   5.584
 1770SOL    HW1 6209   1.577   4.738   5.590
 1770SOL    HW2 6210   1.510   4.870   5.520
 1771SOL     OW 6211   1.026   3.972   6.754
 1771SOL    HW1 6212   1.084   3.902   6.795
 1771SOL    HW2 6213   0.937   3.932   6.731
 1772SOL     OW 6214   2.863   4.802   3.896
 1772SOL    HW1 6215   2.936   4.844   3.950
 1772SOL    HW2 6216   2.877   4.825   3.799
 1773SOL     OW 6217   1.378   0.202   4.649
 1773SOL    HW1 6218   1.439   0.167   4.720
 1773SOL    HW2 6219   1.359   0.299   4.666
 1774SOL     OW 6220   5.973   6.302   1.981
 1774SOL    HW1 6221   5.990   6.204   1.974
 1774SOL    HW2 6222   6.014   6.349   1.902
 1775SOL     OW 6223   1.567   5.257   6.689
 1775SOL    HW1 6224   1.536   5.187   6.624
 1775SOL    HW2 6225   1.592   5.340   6.639
 1776SOL     OW 6226   4.319   0.923   5.479
 1776SOL    HW1 6227   4.250   0.856   5.452
 1776SOL    HW2 6228   4.382   0.881   5.544
 1777SOL     OW 6229   4.317   6.367   6.340
 1777SOL    HW1 6230   4.335   6.271   6.366
 1777SOL    HW2 6231   4.380   6.426   6.391
 1778SOL     OW 6232   5.866   0.945   3.855
 1778SOL    HW1 6233   5.870   1.039   3.821
 1778SOL    HW2 6234   5.911   0.884   3.790
 1779SOL     OW 6235   5.608   0.081   4.267
 1779SOL    HW1 6236   5.563   0.130   4.342
 1779SOL    HW2 6237   5.579   0.119   4.180
 1780SOL     OW 6238   1.572   5.036   4.974
 1780SOL    HW1 6239   1.625   5.047   4.890
 1780SOL    HW2 6240   1.480   5.074   4.961
 1781SOL     OW 6241   4.247   0.166   3.999
 1781SOL    HW1 6242   4.346   0.172   4.005
 1781SOL    HW2 6243   4.205   0.221   4.071
 1782SOL     OW 6244   2.084   1.869   2.673
 1782SOL    HW1 6245   2.012   1.827   2.617
 1782SOL    HW2 6246   2.170   1.822   2.658
 1783SOL     OW 6247   2.106   3.836   5.659
 1783SOL    HW1 6248   2.148   3.792   5.580
 1783SOL    HW2 6249   2.174   3.895   5.704
 1784SOL     OW 6250   2.476   0.571   0.921
 1784SOL    HW1 6251   2.439   0.488   0.880
 1784SOL    HW2 6252   2.404   0.620   0.970
 1785SOL     OW 6253   0.560   6.885   4.717
 1785SOL    HW1 6254   0.522   6.831   4.793
 1785SOL    HW2 6255   0.616   6.959   4.754
 1786SOL     OW 6256   1.896   5.378   0.875
 1786SOL    HW1 6257   1.946   5.397   0.959
 1786SOL    HW2 6258   1.820   5.316   0.894
 1787SOL     OW 6259   1.927   3.011   5.650
 1787SOL    HW1 6260   1.829   3.028   5.662
 1787SOL    HW2 6261   1.941   2.918   5.615
 1788SOL     OW 6262   4.950   4.063   0.912
 1788SOL    HW1 6263   4.970   3.967   0.936
 1788SOL    HW2 6264   4.934   4.069   0.813
 1789SOL     OW 6265   6.793   3.693   1.824
 1789SOL    HW1 6266   6.818   3.747   1.904
 1789SOL    HW2 6267   6.693   3.688   1.817
 1790SOL     OW 6268   2.949   1.872   4.241
 1790SOL    HW1 6269   2.853   1.898   4.240
 1790SOL    HW2 6270   3.002   1.938   4.188
 1791SOL     OW 6271   6.294   0.263   3.719
 1791SOL    HW1 6272   6.371   0.251   3.655
 1791SOL    HW2 6273   6.290   0.359   3.748
 1792SOL     OW 6274   6.518   2.192   5.376
 1792SOL    HW1 6275   6.575   2.265   5.338
 1792SOL    HW2 6276   6.529   2.109   5.321
 1793SOL     OW 6277   0.451   1.285   5.072
 1793SOL    HW1 6278   0.422   1.219   5.141
 1793SOL    HW2 6279   0.547   1.309   5.086
 1794SOL     OW 6280   0.004   0.479   6.234
 1794SOL    HW1 6281   6.929   0.486   6.205
 1794SOL    HW2 6282   0.027   0.383   6.251
 1795SOL     OW 6283   5.980   4.569   0.230
 1795SOL    HW1 6284   6.049   4.543   0.163
 1795SOL    HW2 6285   6.021   4.629   0.298
 1796SOL     OW 6286   1.045   0.108   5.036
 1796SOL    HW1 6287   1.086   0.125   5.126
 1796SOL    HW2 6288   1.114   0.124   4.965
 1797SOL     OW 6289   2.088   6.237   4.794
 1797SOL    HW1 6290   2.144   6.319   4.803
 1797SOL    HW2 6291   2.026   6.230   4.872
 1798SOL     OW 6292   3.251   3.566   4.750
 1798SOL    HW1 6293   3.240   3.492   4.816
 1798SOL    HW2 6294   3.301   3.533   4.670
 1799SOL     OW 6295   3.141   0.704   7.016
 1799SOL    HW1 6296   3.100   0.737   0.081
 1799SOL    HW2 6297   3.237   0.684   0.010
 1800SOL     OW 6298   5.051   3.928   4.122
 1800SOL    HW1 6299   5.034   3.837   4.084
 1800SOL    HW2 6300   5.140   3.961   4.093
 1801SOL     OW 6301   1.071   1.429   2.018
 1801SOL    HW1 6302   1.156   1.454   1.972
 1801SOL    HW2 6303   1.007   1.505   2.013
 1802SOL     OW 6304   6.305   4.814   3.806
 1802SOL    HW1 6305   6.216   4.791   3.765
 1802SOL    HW2 6306   6.304   4.910   3.836
 1803SOL     OW 6307   0.532   6.141   2.992
 1803SOL    HW1 6308   0.622   6.184   2.986
 1803SOL    HW2 6309   0.490   6.162   3.081
 1804SOL     OW 6310   3.027   3.784   6.173
 1804SOL    HW1 6311   3.080   3.699   6.170
 1804SOL    HW2 6312   2.981   3.797   6.086
 1805SOL     OW 6313   0.484   6.422   6.148
 1805SOL    HW1 6314   0.569   6.470   6.174
 1805SOL    HW2 6315   0.480   6.334   6.195
 1806SOL     OW 6316   0.150   2.572   2.352
 1806SOL    HW1 6317   0.156   2.484   2.304
 1806SOL    HW2 6318   0.229   2.582   2.412
 1807SOL     OW 6319   6.236   4.088   1.469
 1807SOL    HW1 6320   6.282   4.140   1.541
 1807SOL    HW2 6321   6.250   4.133   1.381
 1808SOL     OW 6322   5.490   2.397   5.503
 1808SOL    HW1 6323   5.562   2.367   5.566
 1808SOL    HW2 6324   5.406   2.346   5.522
 1809SOL     OW 6325   3.764   2.122   4.982
 1809SOL    HW1 6326   3.767   2.194   5.052
 1809SOL    HW2 6327   3.771   2.163   4.892
 1810SOL     OW 6328   0.577   6.895   4.114
 1810SOL    HW1 6329   0.665   6.887   4.067
 1810SOL    HW2 6330   0.503   6.879   4.049
 1811SOL     OW 6331   3.593   5.161   2.544
 1811SOL    HW1 6332   3.657   5.088   2.522
 1811SOL    HW2 6333   3.642   5.236   2.588
 1812SOL     OW 6334   4.427   0.581   6.427
 1812SOL    HW1 6335   4.502   0.521   6.398
 1812SOL    HW2 6336   4.448   0.617   6.518
 1813SOL     OW 6337   4.361   4.957   2.893
 1813SOL    HW1 6338   4.351   4.858   2.898
 1813SOL    HW2 6339   4.271   5.000   2.895
 1814SOL     OW 6340   0.781   6.552   0.337
 1814SOL    HW1 6341   0.850   6.590   0.276
 1814SOL    HW2 6342   0.778   6.606   0.421
 1815SOL     OW 6343   5.723   5.925   2.245
 1815SOL    HW1 6344   5.819   5.942   2.223
 1815SOL    HW2 6345   5.704   5.957   2.337
 1816SOL     OW 6346   4.148   5.690   5.458
 1816SOL    HW1 6347   4.243   5.717   5.439
 1816SOL    HW2 6348   4.146   5.623   5.532
 1817SOL     OW 6349   2.037   1.484   3.334
 1817SOL    HW1 6350   2.105   1.556   3.347
 1817SOL    HW2 6351   1.948   1.525   3.314
 1818SOL     OW 6352   2.346   6.572   0.212
 1818SOL    HW1 6353   2.427   6.556   0.268
 1818SOL    HW2 6354   2.367   6.550   0.116
 1819SOL     OW 6355   1.580   5.023   3.147
 1819SOL    HW1 6356   1.534   5.100   3.102
 1819SOL    HW2 6357   1.656   5.057   3.202
 1820SOL     OW 6358   4.199   0.050   3.620
 1820SOL    HW1 6359   4.113   0.100   3.608
 1820SOL    HW2 6360   4.203   6.996   3.554
 1821SOL     OW 6361   4.121   1.335   1.905
 1821SOL    HW1 6362   4.187   1.283   1.959
 1821SOL    HW2 6363   4.103   1.286   1.820
 1822SOL     OW 6364   0.594   3.169   1.937
 1822SOL    HW1 6365   0.580   3.241   1.869
 1822SOL    HW2 6366   0.662   3.199   2.004
 1823SOL     OW 6367   3.564   6.445   2.230
 1823SOL    HW1 6368   3.596   6.428   2.323
 1823SOL    HW2 6369   3.486   6.385   2.210
 1824SOL     OW 6370   4.359   3.710   0.881
 1824SOL    HW1 6371   4.318   3.753   0.961
 1824SOL    HW2 6372   4.416   3.776   0.832
 1825SOL     OW 6373   1.554   2.237   5.339
 1825SOL    HW1 6374   1.491   2.298   5.388
 1825SOL    HW2 6375   1.618   2.196   5.405
 1826SOL     OW 6376   3.245   2.097   1.975
 1826SOL    HW1 6377   3.335   2.056   1.963
 1826SOL    HW2 6378   3.203   2.113   1.886
 1827SOL     OW 6379   5.774   4.673   0.027
 1827SOL    HW1 6380   5.788   4.771   0.040
 1827SOL    HW2 6381   5.828   4.623   0.094
 1828SOL     OW 6382   1.242   3.373   5.754
 1828SOL    HW1 6383   1.327   3.325   5.776
 1828SOL    HW2 6384   1.263   3.467   5.728
 1829SOL     OW 6385   3.538   0.848   4.091
 1829SOL    HW1 6386   3.534   0.946   4.111
 1829SOL    HW2 6387   3.571   0.799   4.171
 1830SOL     OW 6388   6.043   6.951   4.510
 1830SOL    HW1 6389   5.971   6.995   4.457
 1830SOL    HW2 6390   6.070   7.009   4.586
 1831SOL     OW 6391   5.087   5.435   2.839
 1831SOL    HW1 6392   5.142   5.407   2.761
 1831SOL    HW2 6393   5.052   5.528   2.824
 1832SOL     OW 6394   2.521   3.497   0.796
 1832SOL    HW1 6395   2.564   3.412   0.766
 1832SOL    HW2 6396   2.440   3.514   0.740
 1833SOL     OW 6397   4.710   0.164   1.454
 1833SOL    HW1 6398   4.807   0.143   1.449
 1833SOL    HW2 6399   4.658   0.080   1.474
 1834SOL     OW 6400   2.105   2.557   0.251
 1834SOL    HW1 6401   2.042   2.493   0.294
 1834SOL    HW2 6402   2.166   2.508   0.188
 1835SOL     OW 6403   6.837   5.240   1.565
 1835SOL    HW1 6404   6.881   5.223   1.654
 1835SOL    HW2 6405   6.811   5.153   1.524
 1836SOL     OW 6406   5.540   1.939   1.397
 1836SOL    HW1 6407   5.455   1.950   1.448
 1836SOL    HW2 6408   5.590   2.026   1.398
 1837SOL     OW 6409   2.791   1.367   6.043
 1837SOL    HW1 6410   2.692   1.368   6.054
 1837SOL    HW2 6411   2.817   1.428   5.968
 1838SOL     OW 6412   6.028   1.281   0.654
 1838SOL    HW1 6413   5.957   1.260   0.721
 1838SOL    HW2 6414   5.997   1.354   0.593
 1839SOL     OW 6415   5.531   1.755   0.163
 1839SOL    HW1 6416   5.590   1.690   0.210
 1839SOL    HW2 6417   5.557   1.759   0.066
 1840SOL     OW 6418   4.356   6.976   2.874
 1840SOL    HW1 6419   4.329   0.050   2.894
 1840SOL    HW2 6420   4.284   6.931   2.822
 1841SOL     OW 6421   2.124   0.686   2.282
 1841SOL    HW1 6422   2.190   0.697   2.208
 1841SOL    HW2 6423   2.031   0.699   2.246
 1842SOL     OW 6424   1.547   5.089   0.460
 1842SOL    HW1 6425   1.529   5.040   0.375
 1842SOL    HW2 6426   1.488   5.053   0.532
 1843SOL     OW 6427   3.377   1.159   4.861
 1843SOL    HW1 6428   3.446   1.183   4.792
 1843SOL    HW2 6429   3.353   1.241   4.914
 1844SOL     OW 6430   4.655   1.846   6.998
 1844SOL    HW1 6431   4.590   1.773   6.978
 1844SOL    HW2 6432   4.666   1.855   0.076
 1845SOL     OW 6433   2.374   1.210   3.307
 1845SOL    HW1 6434   2.280   1.209   3.271
 1845SOL    HW2 6435   2.424   1.286   3.266
 1846SOL     OW 6436   4.476   1.209   2.832
 1846SOL    HW1 6437   4.561   1.192   2.881
 1846SOL    HW2 6438   4.493   1.270   2.755
 1847SOL     OW 6439   2.050   0.146   4.780
 1847SOL    HW1 6440   2.110   0.068   4.795
 1847SOL    HW2 6441   2.104   0.230   4.780
 1848SOL     OW 6442   2.328   5.568   4.210
 1848SOL    HW1 6443   2.261   5.531   4.146
 1848SOL    HW2 6444   2.395   5.497   4.234
 1849SOL     OW 6445   4.483   2.479   2.273
 1849SOL    HW1 6446   4.513   2.540   2.347
 1849SOL    HW2 6447   4.550   2.482   2.199
 1850SOL     OW 6448   5.168   2.184   2.039
 1850SOL    HW1 6449   5.100   2.198   1.967
 1850SOL    HW2 6450   5.165   2.089   2.070
 1851SOL     OW 6451   6.941   3.131   5.755
 1851SOL    HW1 6452   6.953   3.040   5.714
 1851SOL    HW2 6453   6.965   3.127   5.852
 1852SOL     OW 6454   1.573   4.844   1.682
 1852SOL    HW1 6455   1.605   4.840   1.777
 1852SOL    HW2 6456   1.510   4.921   1.671
 1853SOL     OW 6457   0.834   3.081   4.915
 1853SOL    HW1 6458   0.778   3.081   4.998
 1853SOL    HW2 6459   0.778   3.053   4.837
 1854SOL     OW 6460   0.348   5.980   3.410
 1854SOL    HW1 6461   0.432   5.986   3.464
 1854SOL    HW2 6462   0.320   6.072   3.382
 1855SOL     OW 6463   4.899   3.389   4.896
 1855SOL    HW1 6464   4.892   3.464   4.961
 1855SOL    HW2 6465   4.811   3.342   4.890
 1856SOL     OW 6466   3.956   3.614   6.963
 1856SOL    HW1 6467   3.874   3.559   6.979
 1856SOL    HW2 6468   4.003   3.628   0.030
 1857SOL     OW 6469   5.121   0.766   0.263
 1857SOL    HW1 6470   5.128   0.666   0.268
 1857SOL    HW2 6471   5.211   0.806   0.248
 1858SOL     OW 6472   4.493   2.443   4.376
 1858SOL    HW1 6473   4.499   2.366   4.440
 1858SOL    HW2 6474   4.545   2.520   4.412
 1859SOL     OW 6475   6.051   2.394   4.760
 1859SOL    HW1 6476   5.981   2.332   4.796
 1859SOL    HW2 6477   6.012   2.485   4.748
 1860SOL     OW 6478   1.278   1.617   4.961
 1860SOL    HW1 6479   1.296   1.520   4.951
 1860SOL    HW2 6480   1.310   1.666   4.880
 1861SOL     OW 6481   6.874   0.743   3.249
 1861SOL    HW1 6482   6.861   0.697   3.337
 1861SOL    HW2 6483   6.802   0.812   3.236
 1862SOL     OW 6484   2.077   6.572   6.772
 1862SOL    HW1 6485   2.040   6.554   6.863
 1862SOL    HW2 6486   2.159   6.517   6.758
 1863SOL     OW 6487   0.307   3.317   1.344
 1863SOL    HW1 6488   0.373   3.350   1.277
 1863SOL    HW2 6489   0.355   3.269   1.417
 1864SOL     OW 6490   3.217   6.269   2.880
 1864SOL    HW1 6491   3.287   6.205   2.911
 1864SOL    HW2 6492   3.244   6.362   2.904
 1865SOL     OW 6493   5.142   1.230   6.811
 1865SOL    HW1 6494   5.103   1.223   6.903
 1865SOL    HW2 6495   5.230   1.184   6.807
 1866SOL     OW 6496   0.772   4.602   3.836
 1866SOL    HW1 6497   0.754   4.598   3.737
 1866SOL    HW2 6498   0.865   4.570   3.854
 1867SOL     OW 6499   2.414   2.163   1.064
 1867SOL    HW1 6500   2.437   2.208   1.151
 1867SOL    HW2 6501   2.316   2.166   1.050
 1868SOL     OW 6502   5.678   4.347   5.692
 1868SOL    HW1 6503   5.723   4.413   5.631
 1868SOL    HW2 6504   5.691   4.376   5.787
 1869SOL     OW 6505   4.539   2.134   4.264
 1869SOL    HW1 6506   4.607   2.090   4.206
 1869SOL    HW2 6507   4.541   2.093   4.355
 1870SOL     OW 6508   1.508   4.433   4.018
 1870SOL    HW1 6509   1.549   4.400   4.103
 1870SOL    HW2 6510   1.570   4.417   3.942
 1871SOL     OW 6511   0.879   6.331   0.165
 1871SOL    HW1 6512   0.834   6.414   0.200
 1871SOL    HW2 6513   0.918   6.280   0.242
 1872SOL     OW 6514   2.888   2.080   0.599
 1872SOL    HW1 6515   2.793   2.110   0.610
 1872SOL    HW2 6516   2.938   2.150   0.547
 1873SOL     OW 6517   6.278   0.877   0.030
 1873SOL    HW1 6518   6.213   0.855   6.978
 1873SOL    HW2 6519   6.245   0.956   0.081
 1874SOL     OW 6520   1.237   5.985   6.770
 1874SOL    HW1 6521   1.193   6.053   6.712
 1874SOL    HW2 6522   1.171   5.916   6.797
 1875SOL     OW 6523   6.334   5.425   6.986
 1875SOL    HW1 6524   6.324   5.521   7.010
 1875SOL    HW2 6525   6.305   5.411   6.891
 1876SOL     OW 6526   5.824   6.470   6.374
 1876SOL    HW1 6527   5.906   6.522   6.347
 1876SOL    HW2 6528   5.789   6.421   6.295
 1877SOL     OW 6529   0.323   1.292   2.354
 1877SOL    HW1 6530   0.285   1.205   2.323
 1877SOL    HW2 6531   0.387   1.276   2.428
 1878SOL     OW 6532   0.337   4.699   3.344
 1878SOL    HW1 6533   0.240   4.711   3.367
 1878SOL    HW2 6534   0.363   4.765   3.273
 1879SOL     OW 6535   3.550   5.708   5.190
 1879SOL    HW1 6536   3.626   5.717   5.126
 1879SOL    HW2 6537   3.469   5.755   5.154
 1880SOL     OW 6538   0.103   2.182   3.303
 1880SOL    HW1 6539   0.144   2.091   3.298
 1880SOL    HW2 6540   0.034   2.191   3.230
 1881SOL     OW 6541   0.776   2.201   3.840
 1881SOL    HW1 6542   0.807   2.261   3.914
 1881SOL    HW2 6543   0.843   2.129   3.825
 1882SOL     OW 6544   1.245   5.703   0.141
 1882SOL    HW1 6545   1.255   5.620   0.085
 1882SOL    HW2 6546   1.326   5.760   0.132
 1883SOL     OW 6547   1.388   3.445   2.741
 1883SOL    HW1 6548   1.443   3.527   2.753
 1883SOL    HW2 6549   1.316   3.443   2.811
 1884SOL     OW 6550   2.914   0.558   0.513
 1884SOL    HW1 6551   2.874   0.511   0.592
 1884SOL    HW2 6552   2.942   0.490   0.445
 1885SOL     OW 6553   0.196   2.722   0.861
 1885SOL    HW1 6554   0.181   2.756   0.768
 1885SOL    HW2 6555   0.284   2.754   0.895
 1886SOL     OW 6556   2.128   2.328   0.029
 1886SOL    HW1 6557   2.172   2.366   6.969
 1886SOL    HW2 6558   2.127   2.229   0.024
 1887SOL     OW 6559   1.314   5.934   5.476
 1887SOL    HW1 6560   1.250   5.879   5.530
 1887SOL    HW2 6561   1.266   5.974   5.398
 1888SOL     OW 6562   2.004   1.858   6.286
 1888SOL    HW1 6563   2.093   1.849   6.329
 1888SOL    HW2 6564   1.934   1.816   6.344
 1889SOL     OW 6565   4.331   2.931   0.238
 1889SOL    HW1 6566   4.296   2.881   0.317
 1889SOL    HW2 6567   4.425   2.962   0.258
 1890SOL     OW 6568   0.334   5.877   6.244
 1890SOL    HW1 6569   0.347   5.778   6.240
 1890SOL    HW2 6570   0.352   5.917   6.154
 1891SOL     OW 6571   5.482   3.563   5.561
 1891SOL    HW1 6572   5.451   3.540   5.653
 1891SOL    HW2 6573   5.426   3.638   5.525
 1892SOL     OW 6574   3.683   5.095   1.632
 1892SOL    HW1 6575   3.649   5.160   1.700
 1892SOL    HW2 6576   3.623   5.015   1.629
 1893SOL     OW 6577   3.796   2.084   3.809
 1893SOL    HW1 6578   3.802   2.031   3.724
 1893SOL    HW2 6579   3.845   2.171   3.798
 1894SOL     OW 6580   4.542   3.902   1.212
 1894SOL    HW1 6581   4.618   3.844   1.184
 1894SOL    HW2 6582   4.456   3.852   1.201
 1895SOL     OW 6583   6.298   0.974   3.079
 1895SOL    HW1 6584   6.367   0.945   3.014
 1895SOL    HW2 6585   6.290   1.074   3.077
 1896SOL     OW 6586   6.139   1.432   4.836
 1896SOL    HW1 6587   6.180   1.445   4.746
 1896SOL    HW2 6588   6.179   1.351   4.879
 1897SOL     OW 6589   5.473   4.836   3.041
 1897SOL    HW1 6590   5.462   4.892   3.124
 1897SOL    HW2 6591   5.406   4.865   2.973
 1898SOL     OW 6592   5.232   5.428   1.390
 1898SOL    HW1 6593   5.328   5.446   1.413
 1898SOL    HW2 6594   5.173   5.472   1.459
 1899SOL     OW 6595   0.422   3.287   3.102
 1899SOL    HW1 6596   0.386   3.314   3.191
 1899SOL    HW2 6597   0.387   3.197   3.077
 1900SOL     OW 6598   1.481   5.690   6.251
 1900SOL    HW1 6599   1.525   5.758   6.192
 1900SOL    HW2 6600   1.395   5.661   6.210
 1901SOL     OW 6601   1.574   0.211   0.076
 1901SOL    HW1 6602   1.536   0.129   0.034
 1901SOL    HW2 6603   1.674   0.205   0.075
 1902SOL     OW 6604   0.905   3.125   4.495
 1902SOL    HW1 6605   0.947   3.050   4.545
 1902SOL    HW2 6606   0.963   3.151   4.417
 1903SOL     OW 6607   6.289   4.084   2.934
 1903SOL    HW1 6608   6.194   4.114   2.941
 1903SOL    HW2 6609   6.309   4.021   3.008
 1904SOL     OW 6610   6.696   0.451   4.077
 1904SOL    HW1 6611   6.742   0.391   4.143
 1904SOL    HW2 6612   6.682   0.401   3.991
 1905SOL     OW 6613   0.566   2.289   4.184
 1905SOL    HW1 6614   0.571   2.230   4.265
 1905SOL    HW2 6615   0.532   2.237   4.106
 1906SOL     OW 6616   2.109   6.570   6.265
 1906SOL    HW1 6617   2.201   6.594   6.235
 1906SOL    HW2 6618   2.076   6.641   6.329
 1907SOL     OW 6619   3.253   6.238   3.220
 1907SOL    HW1 6620   3.315   6.263   3.295
 1907SOL    HW2 6621   3.280   6.287   3.137
 1908SOL     OW 6622   4.154   1.790   5.882
 1908SOL    HW1 6623   4.121   1.696   5.892
 1908SOL    HW2 6624   4.217   1.811   5.957
 1909SOL     OW 6625   2.029   4.420   4.858
 1909SOL    HW1 6626   2.119   4.378   4.876
 1909SOL    HW2 6627   1.957   4.360   4.892
 1910SOL     OW 6628   5.212   2.290   6.214
 1910SOL    HW1 6629   5.165   2.282   6.126
 1910SOL    HW2 6630   5.276   2.366   6.210
 1911SOL     OW 6631   6.822   2.441   5.384
 1911SOL    HW1 6632   6.734   2.456   5.427
 1911SOL    HW2 6633   6.832   2.501   5.304
 1912SOL     OW 6634   2.962   6.830   2.442
 1912SOL    HW1 6635   3.010   6.756   2.396
 1912SOL    HW2 6636   2.913   6.885   2.374
 1913SOL     OW 6637   1.515   5.751   4.958
 1913SOL    HW1 6638   1.487   5.814   5.030
 1913SOL    HW2 6639   1.444   5.747   4.888
 1914SOL     OW 6640   2.942   2.464   6.063
 1914SOL    HW1 6641   2.926   2.397   6.135
 1914SOL    HW2 6642   2.964   2.417   5.978
 1915SOL     OW 6643   4.320   0.686   6.011
 1915SOL    HW1 6644   4.320   0.604   5.954
 1915SOL    HW2 6645   4.276   0.761   5.962
 1916SOL     OW 6646   3.133   5.715   2.111
 1916SOL    HW1 6647   3.102   5.775   2.185
 1916SOL    HW2 6648   3.068   5.640   2.100
 1917SOL     OW 6649   2.969   3.724   4.468
 1917SOL    HW1 6650   3.042   3.754   4.406
 1917SOL    HW2 6651   2.954   3.794   4.538
 1918SOL     OW 6652   5.790   6.193   5.739
 1918SOL    HW1 6653   5.728   6.133   5.790
 1918SOL    HW2 6654   5.750   6.215   5.650
 1919SOL     OW 6655   0.662   6.225   2.144
 1919SOL    HW1 6656   0.639   6.128   2.147
 1919SOL    HW2 6657   0.581   6.277   2.118
 1920SOL     OW 6658   0.307   5.835   3.933
 1920SOL    HW1 6659   0.216   5.798   3.954
 1920SOL    HW2 6660   0.335   5.805   3.842
 1921SOL     OW 6661   1.614   5.781   6.475
 1921SOL    HW1 6662   1.630   5.874   6.442
 1921SOL    HW2 6663   1.559   5.732   6.407
 1922SOL     OW 6664   3.777   3.460   1.452
 1922SOL    HW1 6665   3.773   3.389   1.381
 1922SOL    HW2 6666   3.762   3.418   1.541
 1923SOL     OW 6667   2.249   1.044   1.105
 1923SOL    HW1 6668   2.234   1.119   1.169
 1923SOL    HW2 6669   2.162   1.011   1.069
 1924SOL     OW 6670   6.772   4.263   2.081
 1924SOL    HW1 6671   6.831   4.189   2.050
 1924SOL    HW2 6672   6.827   4.343   2.103
 1925SOL     OW 6673   3.269   3.703   1.812
 1925SOL    HW1 6674   3.333   3.773   1.844
 1925SOL    HW2 6675   3.279   3.621   1.868
 1926SOL     OW 6676   1.345   0.093   4.379
 1926SOL    HW1 6677   1.439   0.123   4.367
 1926SOL    HW2 6678   1.308   0.129   4.464
 1927SOL     OW 6679   4.426   3.747   6.924
 1927SOL    HW1 6680   4.513   3.782   6.891
 1927SOL    HW2 6681   4.382   3.693   6.852
 1928SOL     OW 6682   6.270   3.886   5.742
 1928SOL    HW1 6683   6.328   3.827   5.686
 1928SOL    HW2 6684   6.186   3.908   5.692
 1929SOL     OW 6685   1.303   6.075   1.076
 1929SOL    HW1 6686   1.250   6.066   0.992
 1929SOL    HW2 6687   1.269   6.011   1.144
 1930SOL     OW 6688   6.188   4.601   6.199
 1930SOL    HW1 6689   6.140   4.589   6.286
 1930SOL    HW2 6690   6.205   4.511   6.157
 1931SOL     OW 6691   0.706   3.552   3.523
 1931SOL    HW1 6692   0.647   3.516   3.450
 1931SOL    HW2 6693   0.661   3.631   3.565
 1932SOL     OW 6694   4.779   4.066   1.932
 1932SOL    HW1 6695   4.737   4.052   1.842
 1932SOL    HW2 6696   4.721   4.128   1.985
 1933SOL     OW 6697   2.636   4.216   0.733
 1933SOL    HW1 6698   2.625   4.248   0.639
 1933SOL    HW2 6699   2.649   4.117   0.733
 1934SOL     OW 6700   0.934   6.970   5.930
 1934SOL    HW1 6701   1.013   6.910   5.943
 1934SOL    HW2 6702   0.938   0.024   5.996
 1935SOL     OW 6703   2.276   6.774   4.176
 1935SOL    HW1 6704   2.364   6.814   4.204
 1935SOL    HW2 6705   2.201   6.834   4.205
 1936SOL     OW 6706   5.364   6.100   4.833
 1936SOL    HW1 6707   5.278   6.151   4.824
 1936SOL    HW2 6708   5.406   6.089   4.743
 1937SOL     OW 6709   4.120   6.457   1.639
 1937SOL    HW1 6710   4.195   6.420   1.693
 1937SOL    HW2 6711   4.058   6.508   1.699
 1938SOL     OW 6712   3.976   1.292   3.260
 1938SOL    HW1 6713   3.983   1.262   3.356
 1938SOL    HW2 6714   4.042   1.365   3.243
 1939SOL     OW 6715   1.762   1.134   4.011
 1939SOL    HW1 6716   1.831   1.201   3.983
 1939SOL    HW2 6717   1.689   1.181   4.062
 1940SOL     OW 6718   6.282   5.360   6.737
 1940SOL    HW1 6719   6.193   5.315   6.747
 1940SOL    HW2 6720   6.270   5.447   6.688
 1941SOL     OW 6721   6.398   3.990   2.701
 1941SOL    HW1 6722   6.363   4.029   2.786
 1941SOL    HW2 6723   6.490   4.025   2.684
 1942SOL     OW 6724   6.195   5.820   2.285
 1942SOL    HW1 6725   6.133   5.778   2.351
 1942SOL    HW2 6726   6.143   5.873   2.219
 1943SOL     OW 6727   2.627   4.975   2.906
 1943SOL    HW1 6728   2.717   4.974   2.862
 1943SOL    HW2 6729   2.583   4.887   2.891
 1944SOL     OW 6730   5.660   1.612   6.654
 1944SOL    HW1 6731   5.599   1.619   6.575
 1944SOL    HW2 6732   5.647   1.692   6.712
 1945SOL     OW 6733   4.368   5.343   3.154
 1945SOL    HW1 6734   4.322   5.412   3.097
 1945SOL    HW2 6735   4.461   5.372   3.173
 1946SOL     OW 6736   1.486   6.691   0.557
 1946SOL    HW1 6737   1.428   6.619   0.596
 1946SOL    HW2 6738   1.431   6.774   0.544
 1947SOL     OW 6739   5.406   6.920   4.449
 1947SOL    HW1 6740   5.484   6.968   4.490
 1947SOL    HW2 6741   5.396   6.830   4.493
 1948SOL     OW 6742   0.071   5.318   4.424
 1948SOL    HW1 6743   7.021   5.388   4.428
 1948SOL    HW2 6744   0.030   5.227   4.426
 1949SOL     OW 6745   4.726   4.674   5.900
 1949SOL    HW1 6746   4.818   4.637   5.885
 1949SOL    HW2 6747   4.678   4.680   5.813
 1950SOL     OW 6748   3.793   3.675   6.417
 1950SOL    HW1 6749   3.870   3.714   6.467
 1950SOL    HW2 6750   3.821   3.654   6.323
 1951SOL     OW 6751   5.367   1.906   0.309
 1951SOL    HW1 6752   5.337   1.989   0.262
 1951SOL    HW2 6753   5.403   1.842   0.242
 1952SOL     OW 6754   3.989   1.651   1.167
 1952SOL    HW1 6755   3.930   1.575   1.141
 1952SOL    HW2 6756   4.084   1.621   1.165
 1953SOL     OW 6757   6.844   2.005   6.828
 1953SOL    HW1 6758   6.808   1.965   6.743
 1953SOL    HW2 6759   6.777   2.069   6.866
 1954SOL     OW 6760   4.897   1.806   3.377
 1954SOL    HW1 6761   4.881   1.904   3.368
 1954SOL    HW2 6762   4.822   1.765   3.430
 1955SOL     OW 6763   1.171   0.024   2.345
 1955SOL    HW1 6764   1.124   6.957   2.355
 1955SOL    HW2 6765   1.137   0.070   2.262
 1956SOL     OW 6766   5.128   5.946   3.103
 1956SOL    HW1 6767   5.180   5.946   3.017
 1956SOL    HW2 6768   5.031   5.953   3.083
 1957SOL     OW 6769   0.344   5.792   4.581
 1957SOL    HW1 6770   0.248   5.802   4.605
 1957SOL    HW2 6771   0.353   5.728   4.504
 1958SOL     OW 6772   5.339   3.369   4.899
 1958SOL    HW1 6773   5.363   3.392   4.993
 1958SOL    HW2 6774   5.380   3.435   4.836
 1959SOL     OW 6775   1.330   2.691   5.904
 1959SOL    HW1 6776   1.277   2.611   5.877
 1959SOL    HW2 6777   1.323   2.761   5.833
 1960SOL     OW 6778   6.342   5.106   0.706
 1960SOL    HW1 6779   6.254   5.144   0.735
 1960SOL    HW2 6780   6.357   5.127   0.609
 1961SOL     OW 6781   5.900   4.967   4.123
 1961SOL    HW1 6782   5.870   5.056   4.156
 1961SOL    HW2 6783   5.996   4.973   4.094
 1962SOL     OW 6784   1.151   6.260   3.305
 1962SOL    HW1 6785   1.151   6.272   3.404
 1962SOL    HW2 6786   1.241   6.284   3.268
 1963SOL     OW 6787   0.437   0.699   2.124
 1963SOL    HW1 6788   0.518   0.731   2.076
 1963SOL    HW2 6789   0.395   0.775   2.174
 1964SOL     OW 6790   4.624   2.725   1.778
 1964SOL    HW1 6791   4.555   2.655   1.755
 1964SOL    HW2 6792   4.587   2.815   1.757
 1965SOL     OW 6793   0.040   3.244   1.969
 1965SOL    HW1 6794   0.003   3.268   2.059
 1965SOL    HW2 6795   0.121   3.299   1.950
 1966SOL     OW 6796   0.428   5.319   4.713
 1966SOL    HW1 6797   0.463   5.236   4.757
 1966SOL    HW2 6798   0.330   5.327   4.728
 1967SOL     OW 6799   5.387   2.693   5.706
 1967SOL    HW1 6800   5.381   2.754   5.628
 1967SOL    HW2 6801   5.353   2.602   5.680
 1968SOL     OW 6802   2.622   5.401   0.035
 1968SOL    HW1 6803   2.658   5.457   0.110
 1968SOL    HW2 6804   2.530   5.369   0.058
 1969SOL     OW 6805   0.229   2.716   1.727
 1969SOL    HW1 6806   0.142   2.679   1.760
 1969SOL    HW2 6807   0.215   2.810   1.696
 1970SOL     OW 6808   1.498   0.667   6.031
 1970SOL    HW1 6809   1.444   0.746   6.062
 1970SOL    HW2 6810   1.581   0.699   5.986
 1971SOL     OW 6811   0.082   0.239   6.319
 1971SOL    HW1 6812   0.156   0.171   6.316
 1971SOL    HW2 6813   0.007   0.203   6.374
 1972SOL     OW 6814   0.526   3.716   3.658
 1972SOL    HW1 6815   0.566   3.675   3.740
 1972SOL    HW2 6816   0.448   3.661   3.628
 1973SOL     OW 6817   3.683   2.788   1.723
 1973SOL    HW1 6818   3.685   2.870   1.780
 1973SOL    HW2 6819   3.588   2.761   1.707
 1974SOL     OW 6820   5.841   6.292   4.317
 1974SOL    HW1 6821   5.917   6.288   4.382
 1974SOL    HW2 6822   5.865   6.354   4.242
 1975SOL     OW 6823   2.343   0.431   4.432
 1975SOL    HW1 6824   2.370   0.351   4.378
 1975SOL    HW2 6825   2.409   0.446   4.505
 1976SOL     OW 6826   0.394   6.207   0.692
 1976SOL    HW1 6827   0.426   6.302   0.694
 1976SOL    HW2 6828   0.300   6.203   0.726
 1977SOL     OW 6829   0.822   2.958   4.057
 1977SOL    HW1 6830   0.826   3.037   3.997
 1977SOL    HW2 6831   0.749   2.970   4.124
 1978SOL     OW 6832   0.971   1.600   4.164
 1978SOL    HW1 6833   0.894   1.660   4.179
 1978SOL    HW2 6834   0.944   1.524   4.104
 1979SOL     OW 6835   6.854   4.520   5.087
 1979SOL    HW1 6836   6.878   4.453   5.158
 1979SOL    HW2 6837   6.863   4.613   5.124
 1980SOL     OW 6838   3.307   0.369   0.879
 1980SOL    HW1 6839   3.313   0.275   0.843
 1980SOL    HW2 6840   3.317   0.434   0.803
 1981SOL     OW 6841   5.226   2.056   2.788
 1981SOL    HW1 6842   5.304   2.102   2.747
 1981SOL    HW2 6843   5.149   2.120   2.797
 1982SOL     OW 6844   6.006   5.230   4.968
 1982SOL    HW1 6845   6.022   5.275   4.880
 1982SOL    HW2 6846   5.957   5.144   4.953
 1983SOL     OW 6847   1.923   2.230   3.082
 1983SOL    HW1 6848   1.934   2.143   3.033
 1983SOL    HW2 6849   2.004   2.287   3.067
 1984SOL     OW 6850   4.518   1.828   6.245
 1984SOL    HW1 6851   4.451   1.765   6.208
 1984SOL    HW2 6852   4.518   1.822   6.345
 1985SOL     OW 6853   0.686   1.147   2.139
 1985SOL    HW1 6854   0.782   1.122   2.121
 1985SOL    HW2 6855   0.631   1.125   2.059
 1986SOL     OW 6856   1.163   1.991   6.588
 1986SOL    HW1 6857   1.075   1.945   6.583
 1986SOL    HW2 6858   1.236   1.928   6.558
 1987SOL     OW 6859   2.846   3.049   1.832
 1987SOL    HW1 6860   2.930   3.056   1.885
 1987SOL    HW2 6861   2.800   2.962   1.853
 1988SOL     OW 6862   4.917   4.320   6.975
 1988SOL    HW1 6863   5.014   4.343   6.963
 1988SOL    HW2 6864   4.904   4.222   6.961
 1989SOL     OW 6865   2.250   0.330   4.752
 1989SOL    HW1 6866   2.267   0.422   4.717
 1989SOL    HW2 6867   2.317   0.266   4.715
 1990SOL     OW 6868   2.626   0.808   1.477
 1990SOL    HW1 6869   2.619   0.722   1.528
 1990SOL    HW2 6870   2.535   0.841   1.454
 1991SOL     OW 6871   3.797   5.489   5.558
 1991SOL    HW1 6872   3.771   5.511   5.464
 1991SOL    HW2 6873   3.896   5.493   5.567
 1992SOL     OW 6874   2.732   0.073   5.186
 1992SOL    HW1 6875   2.804   0.069   5.255
 1992SOL    HW2 6876   2.773   0.071   5.095
 1993SOL     OW 6877   3.916   3.452   5.545
 1993SOL    HW1 6878   3.989   3.515   5.572
 1993SOL    HW2 6879   3.854   3.438   5.622
 1994SOL     OW 6880   0.441   2.164   2.056
 1994SOL    HW1 6881   0.527   2.126   2.090
 1994SOL    HW2 6882   0.460   2.248   2.005
 1995SOL     OW 6883   6.331   2.162   2.159
 1995SOL    HW1 6884   6.392   2.230   2.201
 1995SOL    HW2 6885   6.320   2.085   2.222
 1996SOL     OW 6886   3.628   2.878   1.104
 1996SOL    HW1 6887   3.657   2.910   1.014
 1996SOL    HW2 6888   3.689   2.805   1.135
 1997SOL     OW 6889   5.747   1.353   4.971
 1997SOL    HW1 6890   5.809   1.403   4.911
 1997SOL    HW2 6891   5.799   1.297   5.035
 1998SOL     OW 6892   3.054   3.900   6.420
 1998SOL    HW1 6893   3.055   3.882   6.322
 1998SOL    HW2 6894   3.138   3.866   6.461
 1999SOL     OW 6895   2.358   0.182   2.177
 1999SOL    HW1 6896   2.311   0.094   2.185
 1999SOL    HW2 6897   2.291   0.253   2.156
 2000SOL     OW 6898   4.150   1.262   4.821
 2000SOL    HW1 6899   4.105   1.178   4.851
 2000SOL    HW2 6900   4.089   1.313   4.761
 2001SOL     OW 6901   3.376   2.000   1.682
 2001SOL    HW1 6902   3.448   2.052   1.728
 2001SOL    HW2 6903   3.287   2.034   1.710
 2002SOL     OW 6904   1.715   6.301   6.238
 2002SOL    HW1 6905   1.806   6.334   6.214
 2002SOL    HW2 6906   1.716   6.201   6.244
 2003SOL     OW 6907   5.297   0.145   3.719
 2003SOL    HW1 6908   5.235   0.100   3.655
 2003SOL    HW2 6909   5.367   0.081   3.749
 2004SOL     OW 6910   4.287   0.917   4.684
 2004SOL    HW1 6911   4.213   0.931   4.618
 2004SOL    HW2 6912   4.281   0.825   4.722
 2005SOL     OW 6913   1.689   5.515   6.590
 2005SOL    HW1 6914   1.647   5.604   6.576
 2005SOL    HW2 6915   1.751   5.495   6.513
 2006SOL     OW 6916   4.820   4.103   3.633
 2006SOL    HW1 6917   4.851   4.023   3.684
 2006SOL    HW2 6918   4.728   4.129   3.663
 2007SOL     OW 6919   5.054   5.115   6.729
 2007SOL    HW1 6920   5.005   5.191   6.772
 2007SOL    HW2 6921   5.096   5.058   6.800
 2008SOL     OW 6922   6.690   6.133   3.980
 2008SOL    HW1 6923   6.700   6.207   3.913
 2008SOL    HW2 6924   6.690   6.172   4.072
 2009SOL     OW 6925   6.153   0.317   1.642
 2009SOL    HW1 6926   6.237   0.274   1.609
 2009SOL    HW2 6927   6.175   0.400   1.693
 2010SOL     OW 6928   1.644   1.106   1.137
 2010SOL    HW1 6929   1.582   1.074   1.209
 2010SOL    HW2 6930   1.683   1.194   1.163
 2011SOL     OW 6931   6.855   2.657   5.234
 2011SOL    HW1 6932   6.891   2.715   5.162
 2011SOL    HW2 6933   6.801   2.712   5.298
 2012SOL     OW 6934   0.837   3.893   2.046
 2012SOL    HW1 6935   0.766   3.926   1.985
 2012SOL    HW2 6936   0.801   3.820   2.104
 2013SOL     OW 6937   5.063   1.809   2.897
 2013SOL    HW1 6938   4.995   1.874   2.929
 2013SOL    HW2 6939   5.116   1.850   2.823
 2014SOL     OW 6940   1.117   5.809   3.251
 2014SOL    HW1 6941   1.043   5.842   3.193
 2014SOL    HW2 6942   1.205   5.825   3.205
 2015SOL     OW 6943   3.484   1.261   0.144
 2015SOL    HW1 6944   3.419   1.337   0.147
 2015SOL    HW2 6945   3.512   1.245   0.049
 2016SOL     OW 6946   1.113   5.035   4.409
 2016SOL    HW1 6947   1.199   4.997   4.375
 2016SOL    HW2 6948   1.126   5.070   4.501
 2017SOL     OW 6949   3.201   6.639   3.699
 2017SOL    HW1 6950   3.147   6.614   3.618
 2017SOL    HW2 6951   3.139   6.677   3.769
 2018SOL     OW 6952   0.147   5.666   5.511
 2018SOL    HW1 6953   0.227   5.606   5.503
 2018SOL    HW2 6954   0.130   5.711   5.423
 2019SOL     OW 6955   5.594   2.872   0.938
 2019SOL    HW1 6956   5.646   2.933   0.878
 2019SOL    HW2 6957   5.507   2.915   0.962
 2020SOL     OW 6958   1.645   4.899   5.231
 2020SOL    HW1 6959   1.664   4.894   5.133
 2020SOL    HW2 6960   1.550   4.872   5.247
 2021SOL     OW 6961   1.848   0.556   2.809
 2021SOL    HW1 6962   1.918   0.593   2.747
 2021SOL    HW2 6963   1.757   0.578   2.773
 2022SOL     OW 6964   1.895   3.400   1.852
 2022SOL    HW1 6965   1.964   3.422   1.782
 2022SOL    HW2 6966   1.909   3.460   1.932
 2023SOL     OW 6967   0.099   1.286   6.830
 2023SOL    HW1 6968   0.139   1.376   6.814
 2023SOL    HW2 6969   0.169   1.223   6.862
 2024SOL     OW 6970   6.788   1.008   2.937
 2024SOL    HW1 6971   6.712   1.064   2.971
 2024SOL    HW2 6972   6.759   0.957   2.856
 2025SOL     OW 6973   1.445   1.912   1.597
 2025SOL    HW1 6974   1.389   1.916   1.514
 2025SOL    HW2 6975   1.508   1.835   1.592
 2026SOL     OW 6976   2.072   2.150   6.162
 2026SOL    HW1 6977   2.169   2.133   6.147
 2026SOL    HW2 6978   2.034   2.078   6.220
 2027SOL     OW 6979   0.411   1.057   1.966
 2027SOL    HW1 6980   0.420   0.999   2.047
 2027SOL    HW2 6981   0.369   1.005   1.892
 2028SOL     OW 6982   3.999   1.319   0.847
 2028SOL    HW1 6983   3.972   1.260   0.770
 2028SOL    HW2 6984   3.949   1.405   0.842
 2029SOL     OW 6985   0.872   0.516   6.720
 2029SOL    HW1 6986   0.796   0.576   6.696
 2029SOL    HW2 6987   0.907   0.472   6.637
 2030SOL     OW 6988   2.230   2.162   3.824
 2030SOL    HW1 6989   2.178   2.090   3.778
 2030SOL    HW2 6990   2.191   2.251   3.800
 2031SOL     OW 6991   5.391   5.853   2.187
 2031SOL    HW1 6992   5.310   5.845   2.245
 2031SOL    HW2 6993   5.377   5.928   2.121
 2032SOL     OW 6994   5.204   6.551   0.892
 2032SOL    HW1 6995   5.170   6.498   0.814
 2032SOL    HW2 6996   5.128   6.574   0.952
 2033SOL     OW 6997   4.322   4.621   5.833
 2033SOL    HW1 6998   4.321   4.711   5.876
 2033SOL    HW2 6999   4.400   4.615   5.770
 2034SOL     OW 7000   2.157   6.337   3.529
 2034SOL    HW1 7001   2.162   6.239   3.545
 2034SOL    HW2 7002   2.232   6.383   3.578
 2035SOL     OW 7003   6.428   1.647   2.350
 2035SOL    HW1 7004   6.455   1.737   2.315
 2035SOL    HW2 7005   6.329   1.635   2.337
 2036SOL     OW 7006   0.287   5.841   1.376
 2036SOL    HW1 7007   0.339   5.757   1.385
 2036SOL    HW2 7008   0.323   5.910   1.439
 2037SOL     OW 7009   6.966   2.452   5.633
 2037SOL    HW1 7010   6.885   2.440   5.576
 2037SOL    HW2 7011   0.028   2.450   5.575
 2038SOL     OW 7012   1.117   1.702   6.449
 2038SOL    HW1 7013   1.036   1.671   6.499
 2038SOL    HW2 7014   1.091   1.728   6.356
 2039SOL     OW 7015   0.303   6.168   3.905
 2039SOL    HW1 7016   0.350   6.239   3.852
 2039SOL    HW2 7017   0.370   6.100   3.936
 2040SOL     OW 7018   3.714   2.903   4.154
 2040SOL    HW1 7019   3.617   2.928   4.157
 2040SOL    HW2 7020   3.747   2.883   4.246
 2041SOL     OW 7021   5.989   5.813   6.021
 2041SOL    HW1 7022   6.081   5.840   5.996
 2041SOL    HW2 7023   5.989   5.718   6.053
 2042SOL     OW 7024   5.556   5.166   0.536
 2042SOL    HW1 7025   5.492   5.134   0.465
 2042SOL    HW2 7026   5.647   5.175   0.496
 2043SOL     OW 7027   6.152   5.509   2.059
 2043SOL    HW1 7028   6.248   5.519   2.086
 2043SOL    HW2 7029   6.120   5.594   2.017
 2044SOL     OW 7030   5.568   0.408   1.677
 2044SOL    HW1 7031   5.528   0.321   1.645
 2044SOL    HW2 7032   5.559   0.414   1.776
 2045SOL     OW 7033   1.762   4.562   5.385
 2045SOL    HW1 7034   1.844   4.582   5.439
 2045SOL    HW2 7035   1.686   4.541   5.446
 2046SOL     OW 7036   6.580   0.582   4.656
 2046SOL    HW1 7037   6.518   0.506   4.635
 2046SOL    HW2 7038   6.527   0.663   4.679
 2047SOL     OW 7039   4.695   2.124   0.939
 2047SOL    HW1 7040   4.621   2.182   0.974
 2047SOL    HW2 7041   4.656   2.047   0.890
 2048SOL     OW 7042   3.586   6.361   0.050
 2048SOL    HW1 7043   3.544   6.271   0.042
 2048SOL    HW2 7044   3.546   6.422   7.002
 2049SOL     OW 7045   4.912   2.303   6.584
 2049SOL    HW1 7046   4.951   2.319   6.674
 2049SOL    HW2 7047   4.909   2.205   6.566
 2050SOL     OW 7048   6.301   3.076   3.717
 2050SOL    HW1 7049   6.377   3.013   3.735
 2050SOL    HW2 7050   6.334   3.170   3.717
 2051SOL     OW 7051   0.047   4.856   6.432
 2051SOL    HW1 7052   6.992   4.853   6.366
 2051SOL    HW2 7053   0.047   4.945   6.478
 2052SOL     OW 7054   0.236   3.552   6.952
 2052SOL    HW1 7055   0.186   3.570   6.868
 2052SOL    HW2 7056   0.335   3.554   6.934
 2053SOL     OW 7057   6.050   0.143   0.473
 2053SOL    HW1 7058   6.051   0.241   0.455
 2053SOL    HW2 7059   5.968   0.120   0.526
 2054SOL     OW 7060   5.564   2.779   1.253
 2054SOL    HW1 7061   5.644   2.738   1.296
 2054SOL    HW2 7062   5.523   2.713   1.189
 2055SOL     OW 7063   5.407   3.137   2.985
 2055SOL    HW1 7064   5.419   3.062   3.050
 2055SOL    HW2 7065   5.494   3.156   2.940
 2056SOL     OW 7066   1.961   1.583   2.768
 2056SOL    HW1 7067   1.957   1.683   2.768
 2056SOL    HW2 7068   2.037   1.553   2.711
 2057SOL     OW 7069   5.353   2.079   3.819
 2057SOL    HW1 7070   5.436   2.023   3.818
 2057SOL    HW2 7071   5.336   2.114   3.727
 2058SOL     OW 7072   1.082   1.890   2.848
 2058SOL    HW1 7073   1.007   1.847   2.797
 2058SOL    HW2 7074   1.138   1.820   2.891
 2059SOL     OW 7075   2.472   6.772   6.970
 2059SOL    HW1 7076   2.543   6.745   6.905
 2059SOL    HW2 7077   2.496   6.860   7.011
 2060SOL     OW 7078   6.866   4.364   1.067
 2060SOL    HW1 7079   6.942   4.428   1.063
 2060SOL    HW2 7080   6.845   4.331   0.975
 2061SOL     OW 7081   0.264   1.508   2.660
 2061SOL    HW1 7082   0.312   1.444   2.600
 2061SOL    HW2 7083   0.192   1.554   2.608
 2062SOL     OW 7084   5.462   0.073   3.291
 2062SOL    HW1 7085   5.383   0.117   3.248
 2062SOL    HW2 7086   5.475   7.003   3.252
 2063SOL     OW 7087   0.758   0.948   6.690
 2063SOL    HW1 7088   0.672   0.958   6.640
 2063SOL    HW2 7089   0.834   0.970   6.629
 2064SOL     OW 7090   0.599   2.109   5.649
 2064SOL    HW1 7091   0.507   2.105   5.610
 2064SOL    HW2 7092   0.595   2.087   5.746
 2065SOL     OW 7093   5.923   3.614   2.173
 2065SOL    HW1 7094   5.985   3.620   2.095
 2065SOL    HW2 7095   5.829   3.623   2.141
 2066SOL     OW 7096   0.958   5.531   4.379
 2066SOL    HW1 7097   0.899   5.587   4.437
 2066SOL    HW2 7098   0.909   5.447   4.354
 2067SOL     OW 7099   6.772   6.499   0.718
 2067SOL    HW1 7100   6.690   6.552   0.697
 2067SOL    HW2 7101   6.810   6.462   0.633
 2068SOL     OW 7102   1.710   1.202   5.574
 2068SOL    HW1 7103   1.698   1.293   5.614
 2068SOL    HW2 7104   1.757   1.210   5.486
 2069SOL     OW 7105   0.542   2.648   2.871
 2069SOL    HW1 7106   0.540   2.641   2.971
 2069SOL    HW2 7107   0.636   2.666   2.841
 2070SOL     OW 7108   1.917   0.188   2.171
 2070SOL    HW1 7109   1.832   0.233   2.142
 2070SOL    HW2 7110   1.938   0.215   2.265
 2071SOL     OW 7111   0.740   6.724   4.586
 2071SOL    HW1 7112   0.687   6.796   4.629
 2071SOL    HW2 7113   0.819   6.701   4.644
 2072SOL     OW 7114   4.548   5.641   1.660
 2072SOL    HW1 7115   4.483   5.596   1.721
 2072SOL    HW2 7116   4.549   5.739   1.679
 2073SOL     OW 7117   3.878   6.605   4.381
 2073SOL    HW1 7118   3.946   6.533   4.396
 2073SOL    HW2 7119   3.925   6.691   4.363
 2074SOL     OW 7120   0.655   2.008   6.594
 2074SOL    HW1 7121   0.741   1.970   6.561
 2074SOL    HW2 7122   0.673   2.092   6.645
 2075SOL     OW 7123   4.858   2.935   1.455
 2075SOL    HW1 7124   4.850   2.850   1.507
 2075SOL    HW2 7125   4.955   2.956   1.442
 2076SOL     OW 7126   5.407   6.094   0.066
 2076SOL    HW1 7127   5.482   6.160   0.069
 2076SOL    HW2 7128   5.381   6.076   6.992
 2077SOL     OW 7129   5.201   2.636   2.058
 2077SOL    HW1 7130   5.188   2.541   2.084
 2077SOL    HW2 7131   5.185   2.647   1.960
 2078SOL     OW 7132   2.332   5.976   6.430
 2078SOL    HW1 7133   2.298   6.069   6.419
 2078SOL    HW2 7134   2.320   5.926   6.344
 2079SOL     OW 7135   5.603   1.265   3.490
 2079SOL    HW1 7136   5.557   1.267   3.401
 2079SOL    HW2 7137   5.535   1.262   3.563
 2080SOL     OW 7138   2.619   1.284   4.860
 2080SOL    HW1 7139   2.570   1.280   4.947
 2080SOL    HW2 7140   2.678   1.364   4.858
 2081SOL     OW 7141   1.463   5.944   5.117
 2081SOL    HW1 7142   1.484   5.939   5.215
 2081SOL    HW2 7143   1.382   6.001   5.104
 2082SOL     OW 7144   5.638   0.677   1.922
 2082SOL    HW1 7145   5.675   0.724   1.842
 2082SOL    HW2 7146   5.560   0.621   1.895
 2083SOL     OW 7147   3.946   4.352   6.594
 2083SOL    HW1 7148   3.977   4.434   6.643
 2083SOL    HW2 7149   4.015   4.327   6.525
 2084SOL     OW 7150   7.008   3.101   4.031
 2084SOL    HW1 7151   0.085   3.083   4.018
 2084SOL    HW2 7152   6.985   3.192   3.997
 2085SOL     OW 7153   5.199   0.915   6.876
 2085SOL    HW1 7154   5.149   0.977   6.936
 2085SOL    HW2 7155   5.264   0.968   6.820
 2086SOL     OW 7156   2.852   5.698   6.266
 2086SOL    HW1 7157   2.765   5.747   6.276
 2086SOL    HW2 7158   2.844   5.632   6.191
 2087SOL     OW 7159   4.755   6.515   1.191
 2087SOL    HW1 7160   4.765   6.418   1.169
 2087SOL    HW2 7161   4.841   6.549   1.231
 2088SOL     OW 7162   3.425   5.557   0.510
 2088SOL    HW1 7163   3.516   5.594   0.488
 2088SOL    HW2 7164   3.356   5.602   0.453
 2089SOL     OW 7165   4.136   1.546   0.251
 2089SOL    HW1 7166   4.062   1.572   0.190
 2089SOL    HW2 7167   4.098   1.505   0.334
 2090SOL     OW 7168   3.974   3.137   4.491
 2090SOL    HW1 7169   3.968   3.128   4.590
 2090SOL    HW2 7170   4.043   3.205   4.467
 2091SOL     OW 7171   0.373   6.518   6.842
 2091SOL    HW1 7172   0.309   6.443   6.853
 2091SOL    HW2 7173   0.452   6.504   6.902
 2092SOL     OW 7174   5.054   5.485   0.490
 2092SOL    HW1 7175   4.988   5.556   0.465
 2092SOL    HW2 7176   5.135   5.528   0.530
 2093SOL     OW 7177   1.618   1.701   1.528
 2093SOL    HW1 7178   1.637   1.637   1.602
 2093SOL    HW2 7179   1.643   1.659   1.441
 2094SOL     OW 7180   5.988   1.142   1.530
 2094SOL    HW1 7181   6.074   1.101   1.500
 2094SOL    HW2 7182   5.994   1.242   1.520
 2095SOL     OW 7183   6.266   0.037   3.897
 2095SOL    HW1 7184   6.190   6.998   3.869
 2095SOL    HW2 7185   6.268   0.119   3.839
 2096SOL     OW 7186   4.886   3.956   2.663
 2096SOL    HW1 7187   4.946   3.936   2.740
 2096SOL    HW2 7188   4.935   3.942   2.577
 2097SOL     OW 7189   1.256   2.872   6.424
 2097SOL    HW1 7190   1.196   2.810   6.374
 2097SOL    HW2 7191   1.239   2.862   6.522
 2098SOL     OW 7192   3.541   5.720   3.880
 2098SOL    HW1 7193   3.479   5.650   3.914
 2098SOL    HW2 7194   3.512   5.810   3.912
 2099SOL     OW 7195   2.323   1.928   4.925
 2099SOL    HW1 7196   2.256   1.953   4.995
 2099SOL    HW2 7197   2.281   1.865   4.860
 2100SOL     OW 7198   3.774   4.117   6.424
 2100SOL    HW1 7199   3.820   4.130   6.512
 2100SOL    HW2 7200   3.711   4.040   6.430
 2101SOL     OW 7201   1.343   6.612   2.113
 2101SOL    HW1 7202   1.252   6.625   2.154
 2101SOL    HW2 7203   1.375   6.520   2.133
 2102SOL     OW 7204   0.604   5.148   1.997
 2102SOL    HW1 7205   0.605   5.098   2.084
 2102SOL    HW2 7206   0.645   5.239   2.010
 2103SOL     OW 7207   2.969   3.688   6.974
 2103SOL    HW1 7208   3.035   3.684   0.028
 2103SOL    HW2 7209   3.007   3.742   6.899
 2104SOL     OW 7210   1.499   3.652   0.078
 2104SOL    HW1 7211   1.508   3.560   0.115
 2104SOL    HW2 7212   1.537   3.655   7.007
 2105SOL     OW 7213   5.493   5.349   3.731
 2105SOL    HW1 7214   5.473   5.258   3.693
 2105SOL    HW2 7215   5.583   5.347   3.775
 2106SOL     OW 7216   4.074   5.041   0.136
 2106SOL    HW1 7217   4.057   5.038   0.235
 2106SOL    HW2 7218   4.000   5.091   0.091
 2107SOL     OW 7219   4.568   2.964   5.742
 2107SOL    HW1 7220   4.654   2.926   5.777
 2107SOL    HW2 7221   4.538   3.038   5.802
 2108SOL     OW 7222   6.420   6.567   5.894
 2108SOL    HW1 7223   6.517   6.557   5.913
 2108SOL    HW2 7224   6.369   6.494   5.939
 2109SOL     OW 7225   5.482   6.596   3.499
 2109SOL    HW1 7226   5.458   6.693   3.503
 2109SOL    HW2 7227   5.518   6.567   3.587
 2110SOL     OW 7228   3.186   3.747   5.914
 2110SOL    HW1 7229   3.143   3.657   5.919
 2110SOL    HW2 7230   3.208   3.768   5.819
 2111SOL     OW 7231   0.398   1.751   6.351
 2111SOL    HW1 7232   0.433   1.741   6.445
 2111SOL    HW2 7233   0.406   1.663   6.304
 2112SOL     OW 7234   4.712   1.722   1.234
 2112SOL    HW1 7235   4.759   1.764   1.157
 2112SOL    HW2 7236   4.740   1.767   1.319
 2113SOL     OW 7237   1.133   0.182   4.202
 2113SOL    HW1 7238   1.226   0.214   4.183
 2113SOL    HW2 7239   1.125   0.163   4.300
 2114SOL     OW 7240   1.608   2.750   0.755
 2114SOL    HW1 7241   1.654   2.754   0.844
 2114SOL    HW2 7242   1.589   2.842   0.723
 2115SOL     OW 7243   1.882   4.494   2.861
 2115SOL    HW1 7244   1.910   4.423   2.926
 2115SOL    HW2 7245   1.961   4.524   2.808
 2116SOL     OW 7246   0.137   4.374   3.038
 2116SOL    HW1 7247   0.191   4.418   2.967
 2116SOL    HW2 7248   0.125   4.278   3.017
 2117SOL     OW 7249   6.758   4.976   1.522
 2117SOL    HW1 7250   6.841   4.929   1.491
 2117SOL    HW2 7251   6.691   4.908   1.552
 2118SOL     OW 7252   0.127   3.278   2.506
 2118SOL    HW1 7253   0.152   3.186   2.474
 2118SOL    HW2 7254   0.206   3.320   2.552
 2119SOL     OW 7255   1.969   5.620   0.746
 2119SOL    HW1 7256   1.922   5.550   0.801
 2119SOL    HW2 7257   1.901   5.676   0.700
 2120SOL     OW 7258   6.731   5.620   3.682
 2120SOL    HW1 7259   6.795   5.547   3.704
 2120SOL    HW2 7260   6.733   5.689   3.755
 2121SOL     OW 7261   1.244   4.413   5.811
 2121SOL    HW1 7262   1.147   4.422   5.830
 2121SOL    HW2 7263   1.267   4.463   5.728
 2122SOL     OW 7264   6.306   4.174   5.161
 2122SOL    HW1 7265   6.234   4.106   5.177
 2122SOL    HW2 7266   6.282   4.259   5.208
 2123SOL     OW 7267   0.567   4.521   2.791
 2123SOL    HW1 7268   0.597   4.426   2.797
 2123SOL    HW2 7269   0.469   4.526   2.809
 2124SOL     OW 7270   2.189   1.216   1.649
 2124SOL    HW1 7271   2.242   1.295   1.617
 2124SOL    HW2 7272   2.194   1.142   1.582
 2125SOL     OW 7273   1.408   0.180   0.574
 2125SOL    HW1 7274   1.367   0.268   0.594
 2125SOL    HW2 7275   1.462   0.186   0.490
 2126SOL     OW 7276   2.971   0.569   1.247
 2126SOL    HW1 7277   3.050   0.510   1.233
 2126SOL    HW2 7278   2.887   0.519   1.225
 2127SOL     OW 7279   6.056   3.433   4.773
 2127SOL    HW1 7280   6.122   3.362   4.747
 2127SOL    HW2 7281   6.038   3.491   4.693
 2128SOL     OW 7282   0.109   4.320   4.309
 2128SOL    HW1 7283   0.105   4.232   4.262
 2128SOL    HW2 7284   0.050   4.318   4.390
 2129SOL     OW 7285   4.538   2.894   5.473
 2129SOL    HW1 7286   4.453   2.887   5.423
 2129SOL    HW2 7287   4.519   2.906   5.571
 2130SOL     OW 7288   4.814   6.747   2.847
 2130SOL    HW1 7289   4.736   6.696   2.811
 2130SOL    HW2 7290   4.783   6.837   2.877
 2131SOL     OW 7291   0.004   1.008   1.078
 2131SOL    HW1 7292   0.096   1.043   1.064
 2131SOL    HW2 7293   6.997   0.953   0.999
 2132SOL     OW 7294   4.292   2.505   1.202
 2132SOL    HW1 7295   4.381   2.549   1.191
 2132SOL    HW2 7296   4.249   2.537   1.287
 2133SOL     OW 7297   3.144   2.638   5.626
 2133SOL    HW1 7298   3.168   2.718   5.571
 2133SOL    HW2 7299   3.070   2.588   5.583
 2134SOL     OW 7300   0.293   2.138   0.777
 2134SOL    HW1 7301   0.301   2.092   0.865
 2134SOL    HW2 7302   0.345   2.223   0.779
 2135SOL     OW 7303   0.578   4.417   4.186
 2135SOL    HW1 7304   0.609   4.496   4.135
 2135SOL    HW2 7305   0.639   4.401   4.264
 2136SOL     OW 7306   2.525   4.994   2.451
 2136SOL    HW1 7307   2.473   5.072   2.417
 2136SOL    HW2 7308   2.606   5.026   2.500
 2137SOL     OW 7309   2.831   5.094   5.174
 2137SOL    HW1 7310   2.930   5.102   5.169
 2137SOL    HW2 7311   2.803   5.077   5.268
 2138SOL     OW 7312   6.087   0.838   2.964
 2138SOL    HW1 7313   6.007   0.897   2.970
 2138SOL    HW2 7314   6.156   0.868   3.030
 2139SOL     OW 7315   3.879   0.511   4.876
 2139SOL    HW1 7316   3.814   0.441   4.906
 2139SOL    HW2 7317   3.850   0.547   4.788
 2140SOL     OW 7318   3.073   6.731   4.270
 2140SOL    HW1 7319   3.167   6.755   4.291
 2140SOL    HW2 7320   3.068   6.687   4.180
 2141SOL     OW 7321   6.267   3.609   2.019
 2141SOL    HW1 7322   6.318   3.654   2.091
 2141SOL    HW2 7323   6.268   3.510   2.034
 2142SOL     OW 7324   0.877   1.863   3.759
 2142SOL    HW1 7325   0.823   1.865   3.675
 2142SOL    HW2 7326   0.944   1.936   3.758
 2143SOL     OW 7327   2.156   5.219   1.005
 2143SOL    HW1 7328   2.140   5.154   1.079
 2143SOL    HW2 7329   2.197   5.172   0.928
 2144SOL     OW 7330   0.477   5.082   4.207
 2144SOL    HW1 7331   0.567   5.102   4.169
 2144SOL    HW2 7332   0.433   5.168   4.233
 2145SOL     OW 7333   3.907   6.343   4.051
 2145SOL    HW1 7334   3.921   6.247   4.026
 2145SOL    HW2 7335   3.832   6.349   4.117
 2146SOL     OW 7336   1.942   2.147   1.210
 2146SOL    HW1 7337   1.878   2.224   1.218
 2146SOL    HW2 7338   1.992   2.137   1.295
 2147SOL     OW 7339   6.231   1.532   6.423
 2147SOL    HW1 7340   6.162   1.465   6.450
 2147SOL    HW2 7341   6.224   1.613   6.481
 2148SOL     OW 7342   6.613   3.310   6.530
 2148SOL    HW1 7343   6.685   3.247   6.560
 2148SOL    HW2 7344   6.559   3.266   6.458
 2149SOL     OW 7345   1.777   1.329   1.180
 2149SOL    HW1 7346   1.868   1.297   1.152
 2149SOL    HW2 7347   1.730   1.368   1.101
 2150SOL     OW 7348   2.470   2.446   1.486
 2150SOL    HW1 7349   2.427   2.454   1.576
 2150SOL    HW2 7350   2.569   2.439   1.498
 2151SOL     OW 7351   1.091   6.177   6.660
 2151SOL    HW1 7352   1.029   6.138   6.728
 2151SOL    HW2 7353   1.069   6.274   6.646
 2152SOL     OW 7354   3.689   4.871   2.405
 2152SOL    HW1 7355   3.756   4.869   2.331
 2152SOL    HW2 7356   3.597   4.870   2.367
 2153SOL     OW 7357   4.844   1.603   2.237
 2153SOL    HW1 7358   4.800   1.686   2.270
 2153SOL    HW2 7359   4.792   1.523   2.268
 2154SOL     OW 7360   2.633   6.811   4.472
 2154SOL    HW1 7361   2.661   6.724   4.431
 2154SOL    HW2 7362   2.703   6.842   4.536
 2155SOL     OW 7363   4.178   6.729   0.995
 2155SOL    HW1 7364   4.146   6.752   1.087
 2155SOL    HW2 7365   4.107   6.679   0.947
 2156SOL     OW 7366   6.709   0.226   4.632
 2156SOL    HW1 7367   6.735   0.159   4.702
 2156SOL    HW2 7368   6.755   0.313   4.651
 2157SOL     OW 7369   4.761   5.793   3.797
 2157SOL    HW1 7370   4.801   5.821   3.884
 2157SOL    HW2 7371   4.691   5.858   3.769
 2158SOL     OW 7372   4.096   6.288   0.347
 2158SOL    HW1 7373   4.157   6.240   0.283
 2158SOL    HW2 7374   4.078   6.379   0.312
 2159SOL     OW 7375   1.713   1.066   5.146
 2159SOL    HW1 7376   1.623   1.030   5.123
 2159SOL    HW2 7377   1.765   1.081   5.062
 2160SOL     OW 7378   5.216   4.824   6.542
 2160SOL    HW1 7379   5.171   4.802   6.628
 2160SOL    HW2 7380   5.205   4.921   6.522
 2161SOL     OW 7381   6.417   3.981   1.958
 2161SOL    HW1 7382   6.448   3.934   1.875
 2161SOL    HW2 7383   6.426   4.080   1.946
 2162SOL     OW 7384   2.663   0.213   2.811
 2162SOL    HW1 7385   2.588   0.148   2.800
 2162SOL    HW2 7386   2.750   0.163   2.808
 2163SOL     OW 7387   1.388   3.857   0.455
 2163SOL    HW1 7388   1.459   3.789   0.473
 2163SOL    HW2 7389   1.306   3.812   0.421
 2164SOL     OW 7390   2.227   2.430   6.815
 2164SOL    HW1 7391   2.196   2.509   6.868
 2164SOL    HW2 7392   2.323   2.443   6.791
 2165SOL     OW 7393   0.667   1.910   4.007
 2165SOL    HW1 7394   0.735   1.923   3.936
 2165SOL    HW2 7395   0.599   1.983   4.003
 2166SOL     OW 7396   0.377   4.075   4.325
 2166SOL    HW1 7397   0.285   4.040   4.309
 2166SOL    HW2 7398   0.424   4.086   4.237
 2167SOL     OW 7399   0.584   3.016   3.796
 2167SOL    HW1 7400   0.579   3.093   3.860
 2167SOL    HW2 7401   0.580   2.930   3.847
 2168SOL     OW 7402   1.019   1.687   2.617
 2168SOL    HW1 7403   0.970   1.760   2.569
 2168SOL    HW2 7404   1.109   1.676   2.576
 2169SOL     OW 7405   0.158   0.155   1.033
 2169SOL    HW1 7406   0.164   0.162   0.934
 2169SOL    HW2 7407   0.133   0.062   1.059
 2170SOL     OW 7408   6.883   4.301   4.637
 2170SOL    HW1 7409   6.926   4.300   4.727
 2170SOL    HW2 7410   6.837   4.213   4.622
 2171SOL     OW 7411   0.445   5.643   1.439
 2171SOL    HW1 7412   0.501   5.570   1.400
 2171SOL    HW2 7413   0.393   5.608   1.517
 2172SOL     OW 7414   1.855   1.959   5.783
 2172SOL    HW1 7415   1.954   1.973   5.793
 2172SOL    HW2 7416   1.812   1.963   5.873
 2173SOL     OW 7417   4.823   0.205   5.924
 2173SOL    HW1 7418   4.921   0.215   5.939
 2173SOL    HW2 7419   4.794   0.265   5.850
 2174SOL     OW 7420   6.931   6.715   5.081
 2174SOL    HW1 7421   6.907   6.790   5.143
 2174SOL    HW2 7422   0.010   6.704   5.081
 2175SOL     OW 7423   1.811   2.593   4.860
 2175SOL    HW1 7424   1.814   2.495   4.841
 2175SOL    HW2 7425   1.890   2.639   4.818
 2176SOL     OW 7426   5.557   1.694   1.022
 2176SOL    HW1 7427   5.505   1.776   1.046
 2176SOL    HW2 7428   5.497   1.630   0.973
 2177SOL     OW 7429   6.473   0.790   2.058
 2177SOL    HW1 7430   6.539   0.734   2.008
 2177SOL    HW2 7431   6.404   0.825   1.994
 2178SOL     OW 7432   0.992   1.182   2.131
 2178SOL    HW1 7433   1.066   1.125   2.164
 2178SOL    HW2 7434   1.028   1.270   2.101
 2179SOL     OW 7435   1.780   3.260   6.370
 2179SOL    HW1 7436   1.768   3.359   6.366
 2179SOL    HW2 7437   1.854   3.232   6.309
 2180SOL     OW 7438   1.288   3.095   2.074
 2180SOL    HW1 7439   1.249   3.142   2.153
 2180SOL    HW2 7440   1.270   2.997   2.083
 2181SOL     OW 7441   4.475   5.111   4.023
 2181SOL    HW1 7442   4.453   5.132   3.928
 2181SOL    HW2 7443   4.519   5.191   4.065
 2182SOL     OW 7444   0.910   4.879   3.842
 2182SOL    HW1 7445   0.940   4.833   3.759
 2182SOL    HW2 7446   0.955   4.837   3.921
 2183SOL     OW 7447   2.363   3.784   0.327
 2183SOL    HW1 7448   2.284   3.783   0.266
 2183SOL    HW2 7449   2.446   3.794   0.272
 2184SOL     OW 7450   4.474   0.087   6.562
 2184SOL    HW1 7451   4.555   0.047   6.520
 2184SOL    HW2 7452   4.408   0.113   6.490
 2185SOL     OW 7453   1.324   1.042   6.658
 2185SOL    HW1 7454   1.368   0.961   6.619
 2185SOL    HW2 7455   1.243   1.065   6.604
 2186SOL     OW 7456   6.187   6.047   6.123
 2186SOL    HW1 7457   6.243   6.104   6.183
 2186SOL    HW2 7458   6.147   6.103   6.051
 2187SOL     OW 7459   0.117   6.326   2.512
 2187SOL    HW1 7460   0.129   6.421   2.483
 2187SOL    HW2 7461   0.099   6.268   2.433
 2188SOL     OW 7462   2.031   5.432   5.695
 2188SOL    HW1 7463   1.996   5.364   5.632
 2188SOL    HW2 7464   1.975   5.515   5.689
 2189SOL     OW 7465   1.724   0.375   2.131
 2189SOL    HW1 7466   1.632   0.346   2.105
 2189SOL    HW2 7467   1.755   0.448   2.071
 2190SOL     OW 7468   6.507   3.662   1.821
 2190SOL    HW1 7469   6.465   3.582   1.865
 2190SOL    HW2 7470   6.436   3.712   1.770
 2191SOL     OW 7471   2.801   1.179   5.697
 2191SOL    HW1 7472   2.854   1.260   5.672
 2191SOL    HW2 7473   2.842   1.098   5.654
 2192SOL     OW 7474   5.038   0.424   2.622
 2192SOL    HW1 7475   5.135   0.440   2.602
 2192SOL    HW2 7476   5.026   0.418   2.721
 2193SOL     OW 7477   6.708   0.225   6.127
 2193SOL    HW1 7478   6.668   0.303   6.175
 2193SOL    HW2 7479   6.761   0.257   6.049
 2194SOL     OW 7480   1.029   4.098   5.977
 2194SOL    HW1 7481   1.010   4.175   6.039
 2194SOL    HW2 7482   1.113   4.052   6.006
 2195SOL     OW 7483   0.082   6.236   5.236
 2195SOL    HW1 7484   0.111   6.312   5.295
 2195SOL    HW2 7485   0.151   6.221   5.165
 2196SOL     OW 7486   3.161   6.578   5.154
 2196SOL    HW1 7487   3.155   6.610   5.059
 2196SOL    HW2 7488   3.231   6.507   5.161
 2197SOL     OW 7489   2.929   3.475   6.385
 2197SOL    HW1 7490   2.851   3.537   6.390
 2197SOL    HW2 7491   3.002   3.517   6.330
 2198SOL     OW 7492   6.460   0.128   1.147
 2198SOL    HW1 7493   6.392   0.057   1.125
 2198SOL    HW2 7494   6.412   0.212   1.173
 2199SOL     OW 7495   5.456   0.267   4.638
 2199SOL    HW1 7496   5.459   0.365   4.618
 2199SOL    HW2 7497   5.363   0.240   4.662
 2200SOL     OW 7498   2.349   1.419   3.876
 2200SOL    HW1 7499   2.377   1.323   3.880
 2200SOL    HW2 7500   2.421   1.476   3.914
 2201SOL     OW 7501   6.218   2.949   3.253
 2201SOL    HW1 7502   6.288   2.900   3.305
 2201SOL    HW2 7503   6.139   2.890   3.237
 2202SOL     OW 7504   3.373   5.394   2.272
 2202SOL    HW1 7505   3.298   5.355   2.219
 2202SOL    HW2 7506   3.408   5.476   2.226
 2203SOL     OW 7507   2.849   3.351   1.371
 2203SOL    HW1 7508   2.857   3.339   1.272
 2203SOL    HW2 7509   2.758   3.384   1.394
 2204SOL     OW 7510   4.347   2.575   0.727
 2204SOL    HW1 7511   4.409   2.521   0.784
 2204SOL    HW2 7512   4.284   2.627   0.785
 2205SOL     OW 7513   1.295   6.977   0.215
 2205SOL    HW1 7514   1.314   6.925   0.298
 2205SOL    HW2 7515   1.324   6.924   0.135
 2206SOL     OW 7516   2.536   4.483   5.871
 2206SOL    HW1 7517   2.545   4.518   5.964
 2206SOL    HW2 7518   2.530   4.559   5.806
 2207SOL     OW 7519   3.162   4.558   0.012
 2207SOL    HW1 7520   3.243   4.515   0.052
 2207SOL    HW2 7521   3.169   4.657   0.024
 2208SOL     OW 7522   0.613   5.304   2.949
 2208SOL    HW1 7523   0.570   5.353   2.874
 2208SOL    HW2 7524   0.694   5.354   2.980
 2209SOL     OW 7525   2.587   6.207   4.691
 2209SOL    HW1 7526   2.548   6.299   4.686
 2209SOL    HW2 7527   2.543   6.148   4.624
 2210SOL     OW 7528   6.739   5.545   3.115
 2210SOL    HW1 7529   6.704   5.539   3.209
 2210SOL    HW2 7530   6.687   5.613   3.064
 2211SOL     OW 7531   6.394   0.618   0.455
 2211SOL    HW1 7532   6.478   0.574   0.485
 2211SOL    HW2 7533   6.373   0.695   0.515
 2212SOL     OW 7534   1.585   5.500   6.937
 2212SOL    HW1 7535   1.589   5.514   0.015
 2212SOL    HW2 7536   1.583   5.402   6.917
 2213SOL     OW 7537   4.337   2.652   5.606
 2213SOL    HW1 7538   4.321   2.672   5.509
 2213SOL    HW2 7539   4.285   2.716   5.662
 2214SOL     OW 7540   3.214   3.375   4.939
 2214SOL    HW1 7541   3.139   3.316   4.911
 2214SOL    HW2 7542   3.237   3.357   5.035
 2215SOL     OW 7543   6.038   1.346   6.440
 2215SOL    HW1 7544   6.089   1.320   6.358
 2215SOL    HW2 7545   5.940   1.340   6.422
 2216SOL     OW 7546   6.817   0.642   5.680
 2216SOL    HW1 7547   6.814   0.578   5.757
 2216SOL    HW2 7548   6.906   0.687   5.678
 2217SOL     OW 7549   4.716   6.965   2.966
 2217SOL    HW1 7550   4.729   7.016   3.052
 2217SOL    HW2 7551   4.620   6.937   2.959
 2218SOL     OW 7552   6.880   4.957   6.781
 2218SOL    HW1 7553   6.952   4.895   6.811
 2218SOL    HW2 7554   6.811   4.906   6.730
 2219SOL     OW 7555   6.496   2.228   1.199
 2219SOL    HW1 7556   6.479   2.284   1.118
 2219SOL    HW2 7557   6.419   2.166   1.214
 2220SOL     OW 7558   1.537   5.614   5.425
 2220SOL    HW1 7559   1.534   5.691   5.489
 2220SOL    HW2 7560   1.598   5.637   5.349
 2221SOL     OW 7561   6.441   1.647   5.244
 2221SOL    HW1 7562   6.509   1.701   5.293
 2221SOL    HW2 7563   6.395   1.704   5.175
 2222SOL     OW 7564   6.152   0.183   0.827
 2222SOL    HW1 7565   6.114   0.275   0.837
 2222SOL    HW2 7566   6.219   0.182   0.753
 2223SOL     OW 7567   5.929   1.151   6.638
 2223SOL    HW1 7568   5.982   1.214   6.581
 2223SOL    HW2 7569   5.832   1.174   6.633
 2224SOL     OW 7570   6.157   3.393   1.453
 2224SOL    HW1 7571   6.246   3.357   1.427
 2224SOL    HW2 7572   6.168   3.461   1.526
 2225SOL     OW 7573   6.747   6.846   3.495
 2225SOL    HW1 7574   6.742   6.751   3.464
 2225SOL    HW2 7575   6.778   6.904   3.420
 2226SOL     OW 7576   3.507   5.528   1.017
 2226SOL    HW1 7577   3.504   5.625   1.044
 2226SOL    HW2 7578   3.582   5.514   0.952
 2227SOL     OW 7579   4.761   2.709   1.298
 2227SOL    HW1 7580   4.788   2.804   1.287
 2227SOL    HW2 7581   4.842   2.654   1.323
 2228SOL     OW 7582   3.765   5.160   0.332
 2228SOL    HW1 7583   3.836   5.093   0.352
 2228SOL    HW2 7584   3.711   5.129   0.254
 2229SOL     OW 7585   4.001   3.285   5.045
 2229SOL    HW1 7586   3.953   3.370   5.064
 2229SOL    HW2 7587   3.961   3.239   4.966
 2230SOL     OW 7588   5.455   6.604   1.011
 2230SOL    HW1 7589   5.362   6.568   0.996
 2230SOL    HW2 7590   5.514   6.530   1.044
 2231SOL     OW 7591   0.353   0.455   0.272
 2231SOL    HW1 7592   0.311   0.535   0.315
 2231SOL    HW2 7593   0.305   0.434   0.187
 2232SOL     OW 7594   1.287   1.169   4.881
 2232SOL    HW1 7595   1.346   1.249   4.876
 2232SOL    HW2 7596   1.275   1.130   4.789
 2233SOL     OW 7597   2.419   3.059   0.779
 2233SOL    HW1 7598   2.402   2.967   0.813
 2233SOL    HW2 7599   2.438   3.120   0.856
 2234SOL     OW 7600   3.438   1.400   0.707
 2234SOL    HW1 7601   3.472   1.350   0.787
 2234SOL    HW2 7602   3.380   1.339   0.652
 2235SOL     OW 7603   2.741   0.008   1.667
 2235SOL    HW1 7604   2.653   0.008   1.715
 2235SOL    HW2 7605   2.735   0.068   1.587
 2236SOL     OW 7606   1.822   3.573   6.313
 2236SOL    HW1 7607   1.919   3.551   6.318
 2236SOL    HW2 7608   1.809   3.670   6.334
 2237SOL     OW 7609   5.959   4.406   4.387
 2237SOL    HW1 7610   6.015   4.413   4.305
 2237SOL    HW2 7611   5.992   4.471   4.456
 2238SOL     OW 7612   4.371   5.219   2.474
 2238SOL    HW1 7613   4.435   5.210   2.549
 2238SOL    HW2 7614   4.390   5.150   2.405
 2239SOL     OW 7615   4.776   6.238   4.020
 2239SOL    HW1 7616   4.697   6.294   3.996
 2239SOL    HW2 7617   4.827   6.282   4.094
 2240SOL     OW 7618   3.663   5.381   2.701
 2240SOL    HW1 7619   3.714   5.398   2.785
 2240SOL    HW2 7620   3.566   5.367   2.724
 2241SOL     OW 7621   6.842   6.610   2.157
 2241SOL    HW1 7622   6.864   6.700   2.194
 2241SOL    HW2 7623   6.801   6.554   2.228
 2242SOL     OW 7624   5.084   3.509   2.617
 2242SOL    HW1 7625   5.059   3.554   2.532
 2242SOL    HW2 7626   5.095   3.411   2.601
 2243SOL     OW 7627   1.863   6.887   6.958
 2243SOL    HW1 7628   1.887   6.970   6.907
 2243SOL    HW2 7629   1.946   6.836   6.979
 2244SOL     OW 7630   3.193   6.851   1.782
 2244SOL    HW1 7631   3.260   6.901   1.837
 2244SOL    HW2 7632   3.109   6.839   1.834
 2245SOL     OW 7633   0.462   1.469   1.153
 2245SOL    HW1 7634   0.480   1.484   1.250
 2245SOL    HW2 7635   0.479   1.373   1.131
 2246SOL     OW 7636   2.703   0.747   4.363
 2246SOL    HW1 7637   2.742   0.796   4.441
 2246SOL    HW2 7638   2.776   0.706   4.309
 2247SOL     OW 7639   3.062   3.223   3.265
 2247SOL    HW1 7640   3.017   3.277   3.336
 2247SOL    HW2 7641   3.156   3.204   3.293
 2248SOL     OW 7642   6.260   4.023   4.751
 2248SOL    HW1 7643   6.304   4.063   4.671
 2248SOL    HW2 7644   6.209   3.941   4.724
 2249SOL     OW 7645   5.335   6.444   3.940
 2249SOL    HW1 7646   5.253   6.408   3.984
 2249SOL    HW2 7647   5.396   6.368   3.915
 2250SOL     OW 7648   3.257   3.853   5.278
 2250SOL    HW1 7649   3.261   3.932   5.338
 2250SOL    HW2 7650   3.328   3.860   5.208
 2251SOL     OW 7651   5.370   0.181   6.224
 2251SOL    HW1 7652   5.379   0.082   6.233
 2251SOL    HW2 7653   5.367   0.222   6.315
 2252SOL     OW 7654   4.824   1.613   3.182
 2252SOL    HW1 7655   4.756   1.669   3.135
 2252SOL    HW2 7656   4.869   1.667   3.252
 2253SOL     OW 7657   6.936   3.291   0.070
 2253SOL    HW1 7658   7.008   3.294   0.001
 2253SOL    HW2 7659   6.885   3.206   0.061
 2254SOL     OW 7660   3.166   2.984   4.387
 2254SOL    HW1 7661   3.076   2.965   4.426
 2254SOL    HW2 7662   3.156   3.023   4.296
 2255SOL     OW 7663   3.627   3.580   5.920
 2255SOL    HW1 7664   3.599   3.581   6.016
 2255SOL    HW2 7665   3.727   3.586   5.915
 2256SOL     OW 7666   5.331   6.787   2.308
 2256SOL    HW1 7667   5.245   6.798   2.359
 2256SOL    HW2 7668   5.408   6.794   2.371
 2257SOL     OW 7669   0.541   1.586   4.387
 2257SOL    HW1 7670   0.530   1.495   4.345
 2257SOL    HW2 7671   0.608   1.580   4.461
 2258SOL     OW 7672   1.338   5.794   4.751
 2258SOL    HW1 7673   1.386   5.747   4.677
 2258SOL    HW2 7674   1.380   5.883   4.768
 2259SOL     OW 7675   5.605   2.758   5.277
 2259SOL    HW1 7676   5.650   2.690   5.335
 2259SOL    HW2 7677   5.589   2.719   5.187
 2260SOL     OW 7678   0.289   3.739   1.018
 2260SOL    HW1 7679   0.240   3.653   1.023
 2260SOL    HW2 7680   0.225   3.815   1.026
 2261SOL     OW 7681   6.611   5.180   0.721
 2261SOL    HW1 7682   6.650   5.099   0.677
 2261SOL    HW2 7683   6.514   5.164   0.740
 2262SOL     OW 7684   6.150   0.318   3.061
 2262SOL    HW1 7685   6.119   0.368   2.980
 2262SOL    HW2 7686   6.249   0.304   3.056
 2263SOL     OW 7687   2.352   5.988   0.071
 2263SOL    HW1 7688   2.382   6.027   7.004
 2263SOL    HW2 7689   2.297   5.907   0.053
 2264SOL     OW 7690   3.401   6.270   6.194
 2264SOL    HW1 7691   3.362   6.258   6.285
 2264SOL    HW2 7692   3.347   6.220   6.127
 2265SOL     OW 7693   2.164   0.993   4.672
 2265SOL    HW1 7694   2.099   0.922   4.698
 2265SOL    HW2 7695   2.247   0.983   4.725
 2266SOL     OW 7696   5.031   1.599   6.361
 2266SOL    HW1 7697   5.018   1.622   6.265
 2266SOL    HW2 7698   5.057   1.681   6.412
 2267SOL     OW 7699   5.061   3.219   5.153
 2267SOL    HW1 7700   5.068   3.319   5.157
 2267SOL    HW2 7701   4.967   3.191   5.170
 2268SOL     OW 7702   5.860   4.342   6.179
 2268SOL    HW1 7703   5.845   4.260   6.124
 2268SOL    HW2 7704   5.817   4.330   6.269
 2269SOL     OW 7705   0.835   3.793   5.162
 2269SOL    HW1 7706   0.752   3.796   5.105
 2269SOL    HW2 7707   0.883   3.881   5.155
 2270SOL     OW 7708   4.222   2.659   5.962
 2270SOL    HW1 7709   4.251   2.582   5.906
 2270SOL    HW2 7710   4.205   2.739   5.904
 2271SOL     OW 7711   5.686   4.760   6.739
 2271SOL    HW1 7712   5.669   4.733   6.834
 2271SOL    HW2 7713   5.616   4.720   6.680
 2272SOL     OW 7714   5.577   1.320   0.005
 2272SOL    HW1 7715   5.563   1.336   6.928
 2272SOL    HW2 7716   5.669   1.349   0.031
 2273SOL     OW 7717   1.589   1.493   2.331
 2273SOL    HW1 7718   1.556   1.588   2.325
 2273SOL    HW2 7719   1.657   1.487   2.404
 2274SOL     OW 7720   0.673   1.413   6.190
 2274SOL    HW1 7721   0.738   1.389   6.118
 2274SOL    HW2 7722   0.717   1.470   6.258
 2275SOL     OW 7723   6.334   0.054   3.228
 2275SOL    HW1 7724   6.252   0.083   3.177
 2275SOL    HW2 7725   6.329   6.976   3.245
 2276SOL     OW 7726   2.369   5.415   1.750
 2276SOL    HW1 7727   2.425   5.466   1.685
 2276SOL    HW2 7728   2.422   5.393   1.832
 2277SOL     OW 7729   3.543   4.146   4.268
 2277SOL    HW1 7730   3.495   4.195   4.340
 2277SOL    HW2 7731   3.573   4.056   4.302
 2278SOL     OW 7732   5.978   3.158   4.074
 2278SOL    HW1 7733   5.880   3.156   4.051
 2278SOL    HW2 7734   6.031   3.125   3.997
 2279SOL     OW 7735   5.870   0.205   5.098
 2279SOL    HW1 7736   5.966   0.195   5.122
 2279SOL    HW2 7737   5.827   0.272   5.158
 2280SOL     OW 7738   6.523   0.057   4.535
 2280SOL    HW1 7739   6.588   0.127   4.565
 2280SOL    HW2 7740   6.532   6.997   4.594
 2281SOL     OW 7741   3.557   0.642   1.823
 2281SOL    HW1 7742   3.529   0.551   1.793
 2281SOL    HW2 7743   3.479   0.703   1.822
 2282SOL     OW 7744   5.321   6.674   5.499
 2282SOL    HW1 7745   5.241   6.692   5.441
 2282SOL    HW2 7746   5.330   6.576   5.515
 2283SOL     OW 7747   1.824   0.013   1.908
 2283SOL    HW1 7748   1.907   0.067   1.896
 2283SOL    HW2 7749   1.814   7.008   2.005
 2284SOL     OW 7750   1.177   3.141   6.386
 2284SOL    HW1 7751   1.224   3.052   6.387
 2284SOL    HW2 7752   1.242   3.212   6.360
 2285SOL     OW 7753   1.040   2.878   0.505
 2285SOL    HW1 7754   1.073   2.953   0.563
 2285SOL    HW2 7755   0.944   2.860   0.525
 2286SOL     OW 7756   5.688   0.239   3.259
 2286SOL    HW1 7757   5.709   0.275   3.168
 2286SOL    HW2 7758   5.606   0.182   3.254
 2287SOL     OW 7759   2.177   0.362   3.901
 2287SOL    HW1 7760   2.165   0.339   3.997
 2287SOL    HW2 7761   2.238   0.441   3.892
 2288SOL     OW 7762   6.056   5.078   3.795
 2288SOL    HW1 7763   6.056   5.157   3.734
 2288SOL    HW2 7764   5.968   5.031   3.790
 2289SOL     OW 7765   6.906   5.310   0.831
 2289SOL    HW1 7766   6.835   5.274   0.770
 2289SOL    HW2 7767   6.974   5.359   0.777
 2290SOL     OW 7768   0.654   3.801   1.200
 2290SOL    HW1 7769   0.620   3.895   1.207
 2290SOL    HW2 7770   0.694   3.787   1.110
 2291SOL     OW 7771   2.243   2.473   5.864
 2291SOL    HW1 7772   2.238   2.534   5.943
 2291SOL    HW2 7773   2.198   2.516   5.785
 2292SOL     OW 7774   1.102   2.060   4.240
 2292SOL    HW1 7775   1.127   2.084   4.334
 2292SOL    HW2 7776   1.009   2.092   4.221
 2293SOL     OW 7777   5.163   6.793   1.253
 2293SOL    HW1 7778   5.107   6.783   1.335
 2293SOL    HW2 7779   5.260   6.792   1.278
 2294SOL     OW 7780   3.243   0.575   0.250
 2294SOL    HW1 7781   3.276   0.497   0.198
 2294SOL    HW2 7782   3.307   0.651   0.242
 2295SOL     OW 7783   0.511   1.996   2.787
 2295SOL    HW1 7784   0.501   1.896   2.781
 2295SOL    HW2 7785   0.502   2.024   2.883
 2296SOL     OW 7786   3.667   5.653   0.451
 2296SOL    HW1 7787   3.699   5.735   0.402
 2296SOL    HW2 7788   3.723   5.575   0.425
 2297SOL     OW 7789   3.621   4.226   5.000
 2297SOL    HW1 7790   3.596   4.176   5.083
 2297SOL    HW2 7791   3.676   4.306   5.025
 2298SOL     OW 7792   4.040   2.958   1.790
 2298SOL    HW1 7793   3.962   3.018   1.811
 2298SOL    HW2 7794   4.114   2.978   1.854
 2299SOL     OW 7795   5.216   6.642   6.462
 2299SOL    HW1 7796   5.254   6.729   6.494
 2299SOL    HW2 7797   5.147   6.610   6.526
 2300SOL     OW 7798   2.612   4.505   1.746
 2300SOL    HW1 7799   2.709   4.496   1.766
 2300SOL    HW2 7800   2.598   4.506   1.647
 2301SOL     OW 7801   3.321   3.226   3.389
 2301SOL    HW1 7802   3.383   3.276   3.328
 2301SOL    HW2 7803   3.371   3.151   3.432
 2302SOL     OW 7804   3.755   6.711   1.868
 2302SOL    HW1 7805   3.763   6.652   1.948
 2302SOL    HW2 7806   3.714   6.798   1.895
 2303SOL     OW 7807   1.793   3.444   6.607
 2303SOL    HW1 7808   1.838   3.526   6.642
 2303SOL    HW2 7809   1.848   3.363   6.630
 2304SOL     OW 7810   3.059   0.194   3.446
 2304SOL    HW1 7811   3.006   0.278   3.447
 2304SOL    HW2 7812   3.106   0.184   3.359
 2305SOL     OW 7813   2.999   6.560   2.784
 2305SOL    HW1 7814   2.939   6.604   2.717
 2305SOL    HW2 7815   2.970   6.465   2.797
 2306SOL     OW 7816   2.284   5.149   1.805
 2306SOL    HW1 7817   2.298   5.247   1.792
 2306SOL    HW2 7818   2.245   5.109   1.722
 2307SOL     OW 7819   1.698   3.577   2.312
 2307SOL    HW1 7820   1.608   3.620   2.300
 2307SOL    HW2 7821   1.770   3.639   2.281
 2308SOL     OW 7822   1.579   6.628   0.113
 2308SOL    HW1 7823   1.630   6.567   0.173
 2308SOL    HW2 7824   1.481   6.611   0.124
 2309SOL     OW 7825   3.417   6.529   6.910
 2309SOL    HW1 7826   3.441   6.499   6.818
 2309SOL    HW2 7827   3.342   6.595   6.906
 2310SOL     OW 7828   5.607   6.542   1.696
 2310SOL    HW1 7829   5.666   6.610   1.652
 2310SOL    HW2 7830   5.638   6.450   1.670
 2311SOL     OW 7831   2.438   6.221   2.647
 2311SOL    HW1 7832   2.427   6.315   2.680
 2311SOL    HW2 7833   2.535   6.199   2.640
 2312SOL     OW 7834   3.685   6.158   4.398
 2312SOL    HW1 7835   3.601   6.212   4.403
 2312SOL    HW2 7836   3.665   6.063   4.425
 2313SOL     OW 7837   5.199   5.593   2.052
 2313SOL    HW1 7838   5.144   5.654   1.995
 2313SOL    HW2 7839   5.200   5.502   2.013
 2314SOL     OW 7840   5.732   0.833   4.610
 2314SOL    HW1 7841   5.739   0.757   4.673
 2314SOL    HW2 7842   5.824   0.863   4.582
 2315SOL     OW 7843   5.075   3.514   5.173
 2315SOL    HW1 7844   4.994   3.540   5.120
 2315SOL    HW2 7845   5.100   3.589   5.235
 2316SOL     OW 7846   3.279   0.155   4.636
 2316SOL    HW1 7847   3.363   0.187   4.591
 2316SOL    HW2 7848   3.202   0.209   4.603
 2317SOL     OW 7849   6.422   6.114   3.152
 2317SOL    HW1 7850   6.327   6.147   3.148
 2317SOL    HW2 7851   6.464   6.147   3.237
 2318SOL     OW 7852   2.102   3.400   4.157
 2318SOL    HW1 7853   2.081   3.302   4.154
 2318SOL    HW2 7854   2.118   3.434   4.065
 2319SOL     OW 7855   2.956   5.537   4.836
 2319SOL    HW1 7856   2.932   5.506   4.744
 2319SOL    HW2 7857   3.048   5.506   4.859
 2320SOL     OW 7858   1.440   2.517   5.286
 2320SOL    HW1 7859   1.374   2.509   5.211
 2320SOL    HW2 7860   1.394   2.501   5.373
 2321SOL     OW 7861   1.381   5.326   0.502
 2321SOL    HW1 7862   1.410   5.347   0.408
 2321SOL    HW2 7863   1.461   5.318   0.561
 2322SOL     OW 7864   1.640   4.607   2.922
 2322SOL    HW1 7865   1.593   4.533   2.970
 2322SOL    HW2 7866   1.722   4.571   2.878
 2323SOL     OW 7867   3.167   4.792   1.763
 2323SOL    HW1 7868   3.227   4.719   1.731
 2323SOL    HW2 7869   3.075   4.777   1.729
 2324SOL     OW 7870   6.549   5.915   0.591
 2324SOL    HW1 7871   6.541   5.976   0.670
 2324SOL    HW2 7872   6.497   5.832   0.608
 2325SOL     OW 7873   0.838   4.337   1.425
 2325SOL    HW1 7874   0.858   4.306   1.518
 2325SOL    HW2 7875   0.819   4.258   1.367
 2326SOL     OW 7876   1.961   6.535   0.000
 2326SOL    HW1 7877   1.896   6.461   0.017
 2326SOL    HW2 7878   1.954   6.602   0.074
 2327SOL     OW 7879   7.005   1.831   3.916
 2327SOL    HW1 7880   6.968   1.748   3.875
 2327SOL    HW2 7881   6.948   1.909   3.892
 2328SOL     OW 7882   1.809   1.380   2.814
 2328SOL    HW1 7883   1.850   1.309   2.872
 2328SOL    HW2 7884   1.874   1.456   2.804
 2329SOL     OW 7885   1.448   4.122   4.760
 2329SOL    HW1 7886   1.411   4.212   4.779
 2329SOL    HW2 7887   1.541   4.131   4.723
 2330SOL     OW 7888   0.536   2.910   1.480
 2330SOL    HW1 7889   0.585   2.867   1.556
 2330SOL    HW2 7890   0.494   2.995   1.512
 2331SOL     OW 7891   4.072   5.377   6.959
 2331SOL    HW1 7892   4.021   5.295   6.983
 2331SOL    HW2 7893   4.012   5.457   6.967
 2332SOL     OW 7894   6.541   0.829   5.161
 2332SOL    HW1 7895   6.611   0.787   5.102
 2332SOL    HW2 7896   6.574   0.917   5.194
 2333SOL     OW 7897   0.111   3.967   3.020
 2333SOL    HW1 7898   0.166   3.965   2.936
 2333SOL    HW2 7899   0.069   3.877   3.035
 2334SOL     OW 7900   1.898   0.629   6.661
 2334SOL    HW1 7901   1.840   0.708   6.639
 2334SOL    HW2 7902   1.986   0.662   6.697
 2335SOL     OW 7903   6.404   1.017   4.381
 2335SOL    HW1 7904   6.481   0.953   4.388
 2335SOL    HW2 7905   6.405   1.061   4.291
 2336SOL     OW 7906   3.791   1.388   4.359
 2336SOL    HW1 7907   3.852   1.461   4.389
 2336SOL    HW2 7908   3.789   1.387   4.259
 2337SOL     OW 7909   4.146   0.272   1.456
 2337SOL    HW1 7910   4.238   0.258   1.493
 2337SOL    HW2 7911   4.145   0.251   1.358
 2338SOL     OW 7912   0.790   2.866   5.181
 2338SOL    HW1 7913   0.816   2.829   5.092
 2338SOL    HW2 7914   0.857   2.836   5.250
 2339SOL     OW 7915   2.948   3.598   3.550
 2339SOL    HW1 7916   2.957   3.573   3.646
 2339SOL    HW2 7917   2.935   3.516   3.495
 2340SOL     OW 7918   6.478   4.225   6.185
 2340SOL    HW1 7919   6.379   4.228   6.193
 2340SOL    HW2 7920   6.519   4.254   6.271
 2341SOL     OW 7921   3.023   4.798   2.009
 2341SOL    HW1 7922   3.052   4.786   1.914
 2341SOL    HW2 7923   2.947   4.736   2.029
 2342SOL     OW 7924   0.786   6.717   5.871
 2342SOL    HW1 7925   0.814   6.791   5.931
 2342SOL    HW2 7926   0.845   6.716   5.790
 2343SOL     OW 7927   1.808   5.379   3.003
 2343SOL    HW1 7928   1.844   5.292   2.969
 2343SOL    HW2 7929   1.883   5.441   3.025
 2344SOL     OW 7930   1.006   5.818   6.896
 2344SOL    HW1 7931   0.967   5.891   6.841
 2344SOL    HW2 7932   1.011   5.847   6.991
 2345SOL     OW 7933   3.221   5.620   5.282
 2345SOL    HW1 7934   3.186   5.669   5.362
 2345SOL    HW2 7935   3.236   5.684   5.207
 2346SOL     OW 7936   4.020   3.696   5.296
 2346SOL    HW1 7937   4.009   3.783   5.248
 2346SOL    HW2 7938   3.963   3.627   5.251
 2347SOL     OW 7939   3.460   2.036   1.393
 2347SOL    HW1 7940   3.432   1.967   1.460
 2347SOL    HW2 7941   3.532   2.094   1.432
 2348SOL     OW 7942   2.514   6.866   4.243
 2348SOL    HW1 7943   2.591   6.859   4.180
 2348SOL    HW2 7944   2.538   6.824   4.331
 2349SOL     OW 7945   0.682   4.764   5.779
 2349SOL    HW1 7946   0.727   4.788   5.693
 2349SOL    HW2 7947   0.664   4.847   5.831
 2350SOL     OW 7948   6.229   0.109   6.314
 2350SOL    HW1 7949   6.289   0.083   6.390
 2350SOL    HW2 7950   6.138   0.070   6.329
 2351SOL     OW 7951   2.716   5.277   4.442
 2351SOL    HW1 7952   2.627   5.242   4.469
 2351SOL    HW2 7953   2.778   5.201   4.422
 2352SOL     OW 7954   0.573   4.576   2.512
 2352SOL    HW1 7955   0.559   4.490   2.463
 2352SOL    HW2 7956   0.589   4.557   2.608
 2353SOL     OW 7957   3.145   5.200   5.488
 2353SOL    HW1 7958   3.142   5.280   5.548
 2353SOL    HW2 7959   3.205   5.131   5.528
 2354SOL     OW 7960   2.785   1.541   5.820
 2354SOL    HW1 7961   2.697   1.574   5.851
 2354SOL    HW2 7962   2.851   1.616   5.820
 2355SOL     OW 7963   2.141   6.139   0.127
 2355SOL    HW1 7964   2.168   6.225   0.082
 2355SOL    HW2 7965   2.218   6.075   0.125
 2356SOL     OW 7966   0.955   3.489   6.482
 2356SOL    HW1 7967   0.949   3.457   6.576
 2356SOL    HW2 7968   0.947   3.411   6.419
 2357SOL     OW 7969   4.947   0.055   2.829
 2357SOL    HW1 7970   4.968   0.036   2.734
 2357SOL    HW2 7971   4.887   7.004   2.865
 2358SOL     OW 7972   3.580   5.047   4.736
 2358SOL    HW1 7973   3.661   4.999   4.702
 2358SOL    HW2 7974   3.608   5.133   4.778
 2359SOL     OW 7975   6.311   0.709   5.234
 2359SOL    HW1 7976   6.401   0.754   5.237
 2359SOL    HW2 7977   6.261   0.742   5.154
 2360SOL     OW 7978   5.241   4.037   0.293
 2360SOL    HW1 7979   5.303   3.959   0.283
 2360SOL    HW2 7980   5.148   4.003   0.308
 2361SOL     OW 7981   2.638   0.957   5.311
 2361SOL    HW1 7982   2.603   0.936   5.402
 2361SOL    HW2 7983   2.562   0.964   5.247
 2362SOL     OW 7984   2.607   6.382   4.090
 2362SOL    HW1 7985   2.530   6.419   4.142
 2362SOL    HW2 7986   2.637   6.296   4.131
 2363SOL     OW 7987   4.618   2.311   4.905
 2363SOL    HW1 7988   4.657   2.365   4.830
 2363SOL    HW2 7989   4.587   2.373   4.977
 2364SOL     OW 7990   0.916   2.225   2.598
 2364SOL    HW1 7991   0.882   2.191   2.685
 2364SOL    HW2 7992   0.866   2.308   2.573
 2365SOL     OW 7993   6.094   2.525   6.588
 2365SOL    HW1 7994   6.171   2.540   6.650
 2365SOL    HW2 7995   6.020   2.480   6.637
 2366SOL     OW 7996   2.317   5.029   6.573
 2366SOL    HW1 7997   2.346   4.955   6.512
 2366SOL    HW2 7998   2.314   5.115   6.521
 2367SOL     OW 7999   2.436   3.836   0.600
 2367SOL    HW1 8000   2.530   3.863   0.622
 2367SOL    HW2 8001   2.427   3.826   0.500
 2368SOL     OW 8002   3.944   0.525   4.177
 2368SOL    HW1 8003   3.915   0.485   4.090
 2368SOL    HW2 8004   4.043   0.521   4.184
 2369SOL     OW 8005   1.161   1.232   5.652
 2369SOL    HW1 8006   1.160   1.155   5.589
 2369SOL    HW2 8007   1.167   1.317   5.600
 2370SOL     OW 8008   4.746   3.310   0.114
 2370SOL    HW1 8009   4.789   3.398   0.094
 2370SOL    HW2 8010   4.779   3.241   0.049
 2371SOL     OW 8011   0.051   6.904   2.098
 2371SOL    HW1 8012   0.013   6.880   2.187
 2371SOL    HW2 8013   0.014   6.841   2.028
 2372SOL     OW 8014   0.187   2.778   3.009
 2372SOL    HW1 8015   0.137   2.742   3.087
 2372SOL    HW2 8016   0.126   2.785   2.930
 2373SOL     OW 8017   0.165   1.838   6.474
 2373SOL    HW1 8018   0.070   1.816   6.457
 2373SOL    HW2 8019   0.221   1.810   6.396
 2374SOL     OW 8020   5.920   1.377   3.489
 2374SOL    HW1 8021   5.838   1.394   3.434
 2374SOL    HW2 8022   6.000   1.414   3.441
 2375SOL     OW 8023   3.101   6.605   4.890
 2375SOL    HW1 8024   3.189   6.567   4.862
 2375SOL    HW2 8025   3.031   6.533   4.886
 2376SOL     OW 8026   6.973   2.438   5.068
 2376SOL    HW1 8027   0.027   2.435   5.002
 2376SOL    HW2 8028   6.932   2.530   5.068
 2377SOL     OW 8029   3.549   4.123   3.362
 2377SOL    HW1 8030   3.554   4.155   3.457
 2377SOL    HW2 8031   3.454   4.123   3.332
 2378SOL     OW 8032   5.243   1.391   0.548
 2378SOL    HW1 8033   5.180   1.389   0.625
 2378SOL    HW2 8034   5.327   1.344   0.573
 2379SOL     OW 8035   5.663   2.053   0.078
 2379SOL    HW1 8036   5.594   2.107   0.031
 2379SOL    HW2 8037   5.650   1.956   0.056
 2380SOL     OW 8038   1.100   1.181   6.903
 2380SOL    HW1 8039   1.012   1.153   6.863
 2380SOL    HW2 8040   1.120   1.275   6.875
 2381SOL     OW 8041   1.983   4.156   4.583
 2381SOL    HW1 8042   2.027   4.100   4.652
 2381SOL    HW2 8043   2.035   4.241   4.570
 2382SOL     OW 8044   2.342   4.285   3.915
 2382SOL    HW1 8045   2.394   4.313   3.834
 2382SOL    HW2 8046   2.353   4.354   3.987
 2383SOL     OW 8047   5.039   6.733   1.524
 2383SOL    HW1 8048   5.063   6.649   1.475
 2383SOL    HW2 8049   5.110   6.754   1.592
 2384SOL     OW 8050   5.537   0.814   2.860
 2384SOL    HW1 8051   5.448   0.816   2.815
 2384SOL    HW2 8052   5.525   0.801   2.958
 2385SOL     OW 8053   1.064   6.965   0.688
 2385SOL    HW1 8054   1.028   0.033   0.661
 2385SOL    HW2 8055   1.027   6.939   0.777
 2386SOL     OW 8056   6.115   5.909   4.326
 2386SOL    HW1 8057   6.045   5.841   4.303
 2386SOL    HW2 8058   6.196   5.896   4.269
 2387SOL     OW 8059   1.675   2.145   3.608
 2387SOL    HW1 8060   1.674   2.170   3.511
 2387SOL    HW2 8061   1.639   2.052   3.619
 2388SOL     OW 8062   0.756   2.606   4.444
 2388SOL    HW1 8063   0.841   2.624   4.395
 2388SOL    HW2 8064   0.706   2.692   4.457
 2389SOL     OW 8065   5.050   3.842   2.897
 2389SOL    HW1 8066   4.980   3.831   2.968
 2389SOL    HW2 8067   5.139   3.816   2.934
 2390SOL     OW 8068   3.841   2.912   2.966
 2390SOL    HW1 8069   3.855   2.949   3.058
 2390SOL    HW2 8070   3.899   2.831   2.954
 2391SOL     OW 8071   5.070   4.173   6.030
 2391SOL    HW1 8072   5.043   4.108   6.101
 2391SOL    HW2 8073   5.156   4.144   5.988
 2392SOL     OW 8074   4.548   6.460   5.015
 2392SOL    HW1 8075   4.450   6.439   5.014
 2392SOL    HW2 8076   4.600   6.376   5.026
 2393SOL     OW 8077   5.592   3.676   6.162
 2393SOL    HW1 8078   5.574   3.716   6.252
 2393SOL    HW2 8079   5.514   3.620   6.134
 2394SOL     OW 8080   1.285   2.950   4.563
 2394SOL    HW1 8081   1.186   2.955   4.557
 2394SOL    HW2 8082   1.326   3.012   4.495
 2395SOL     OW 8083   5.538   2.550   6.273
 2395SOL    HW1 8084   5.477   2.580   6.346
 2395SOL    HW2 8085   5.485   2.502   6.203
 2396SOL     OW 8086   3.506   4.637   1.217
 2396SOL    HW1 8087   3.455   4.564   1.263
 2396SOL    HW2 8088   3.587   4.660   1.270
 2397SOL     OW 8089   0.036   4.074   5.992
 2397SOL    HW1 8090   6.990   4.144   6.017
 2397SOL    HW2 8091   0.105   4.113   5.931
 2398SOL     OW 8092   2.646   3.152   0.010
 2398SOL    HW1 8093   2.641   3.083   0.083
 2398SOL    HW2 8094   2.600   3.235   0.040
 2399SOL     OW 8095   4.709   1.823   1.882
 2399SOL    HW1 8096   4.639   1.831   1.811
 2399SOL    HW2 8097   4.706   1.731   1.921
 2400SOL     OW 8098   3.192   3.851   0.654
 2400SOL    HW1 8099   3.279   3.895   0.631
 2400SOL    HW2 8100   3.118   3.918   0.650
 2401SOL     OW 8101   4.380   6.448   6.040
 2401SOL    HW1 8102   4.432   6.512   6.096
 2401SOL    HW2 8103   4.357   6.367   6.094
 2402SOL     OW 8104   6.723   0.901   3.789
 2402SOL    HW1 8105   6.681   0.940   3.707
 2402SOL    HW2 8106   6.814   0.867   3.767
 2403SOL     OW 8107   2.173   2.651   7.019
 2403SOL    HW1 8108   2.272   2.668   7.010
 2403SOL    HW2 8109   2.142   2.682   0.088
 2404SOL     OW 8110   3.733   1.047   0.801
 2404SOL    HW1 8111   3.806   1.092   0.750
 2404SOL    HW2 8112   3.758   0.951   0.817
 2405SOL     OW 8113   3.776   3.425   2.749
 2405SOL    HW1 8114   3.788   3.514   2.794
 2405SOL    HW2 8115   3.784   3.436   2.650
 2406SOL     OW 8116   2.819   6.715   2.641
 2406SOL    HW1 8117   2.722   6.739   2.638
 2406SOL    HW2 8118   2.869   6.769   2.573
 2407SOL     OW 8119   5.507   1.514   2.260
 2407SOL    HW1 8120   5.470   1.423   2.242
 2407SOL    HW2 8121   5.433   1.581   2.254
 2408SOL     OW 8122   3.687   4.890   3.224
 2408SOL    HW1 8123   3.713   4.898   3.127
 2408SOL    HW2 8124   3.769   4.871   3.279
 2409SOL     OW 8125   1.767   4.635   2.003
 2409SOL    HW1 8126   1.810   4.604   1.918
 2409SOL    HW2 8127   1.690   4.576   2.024
 2410SOL     OW 8128   4.026   3.002   5.717
 2410SOL    HW1 8129   3.947   2.977   5.661
 2410SOL    HW2 8130   4.079   3.072   5.671
 2411SOL     OW 8131   4.007   5.403   4.774
 2411SOL    HW1 8132   4.023   5.338   4.699
 2411SOL    HW2 8133   3.918   5.447   4.760
 2412SOL     OW 8134   4.971   5.057   1.167
 2412SOL    HW1 8135   4.988   5.016   1.078
 2412SOL    HW2 8136   4.988   4.990   1.239
 2413SOL     OW 8137   6.151   2.095   0.941
 2413SOL    HW1 8138   6.211   2.084   1.020
 2413SOL    HW2 8139   6.116   2.189   0.939
 2414SOL     OW 8140   4.996   4.547   2.689
 2414SOL    HW1 8141   5.086   4.566   2.650
 2414SOL    HW2 8142   5.005   4.482   2.765
 2415SOL     OW 8143   6.892   0.681   2.799
 2415SOL    HW1 8144   6.847   0.596   2.827
 2415SOL    HW2 8145   6.972   0.697   2.857
 2416SOL     OW 8146   4.270   2.125   5.631
 2416SOL    HW1 8147   4.288   2.027   5.637
 2416SOL    HW2 8148   4.172   2.142   5.643
 2417SOL     OW 8149   3.603   3.063   5.717
 2417SOL    HW1 8150   3.646   3.149   5.691
 2417SOL    HW2 8151   3.517   3.081   5.764
 2418SOL     OW 8152   3.015   3.268   4.316
 2418SOL    HW1 8153   2.952   3.337   4.280
 2418SOL    HW2 8154   2.986   3.241   4.408
 2419SOL     OW 8155   0.096   0.398   4.954
 2419SOL    HW1 8156   0.055   0.473   4.903
 2419SOL    HW2 8157   0.154   0.343   4.894
 2420SOL     OW 8158   2.724   1.205   2.532
 2420SOL    HW1 8159   2.755   1.163   2.447
 2420SOL    HW2 8160   2.671   1.287   2.512
 2421SOL     OW 8161   2.668   1.918   4.635
 2421SOL    HW1 8162   2.715   2.001   4.606
 2421SOL    HW2 8163   2.635   1.929   4.728
 2422SOL     OW 8164   5.839   1.512   0.842
 2422SOL    HW1 8165   5.797   1.438   0.789
 2422SOL    HW2 8166   5.836   1.489   0.940
 2423SOL     OW 8167   1.387   5.997   2.689
 2423SOL    HW1 8168   1.301   6.027   2.731
 2423SOL    HW2 8169   1.445   6.076   2.670
 2424SOL     OW 8170   6.038   0.372   5.761
 2424SOL    HW1 8171   6.094   0.416   5.830
 2424SOL    HW2 8172   6.067   0.277   5.749
 2425SOL     OW 8173   5.602   0.774   3.745
 2425SOL    HW1 8174   5.513   0.746   3.711
 2425SOL    HW2 8175   5.591   0.820   3.833
 2426SOL     OW 8176   0.953   6.268   5.173
 2426SOL    HW1 8177   0.866   6.227   5.145
 2426SOL    HW2 8178   1.024   6.245   5.106
 2427SOL     OW 8179   5.657   6.307   5.512
 2427SOL    HW1 8180   5.635   6.397   5.550
 2427SOL    HW2 8181   5.589   6.284   5.442
 2428SOL     OW 8182   6.285   0.434   2.446
 2428SOL    HW1 8183   6.208   0.474   2.495
 2428SOL    HW2 8184   6.313   0.494   2.372
 2429SOL     OW 8185   5.239   5.663   3.573
 2429SOL    HW1 8186   5.218   5.732   3.505
 2429SOL    HW2 8187   5.154   5.627   3.612
 2430SOL     OW 8188   5.767   1.300   1.312
 2430SOL    HW1 8189   5.783   1.201   1.304
 2430SOL    HW2 8190   5.805   1.333   1.399
 2431SOL     OW 8191   4.015   0.817   2.340
 2431SOL    HW1 8192   3.916   0.816   2.324
 2431SOL    HW2 8193   4.061   0.770   2.264
 2432SOL     OW 8194   3.131   6.185   2.629
 2432SOL    HW1 8195   3.188   6.218   2.704
 2432SOL    HW2 8196   3.046   6.147   2.666
 2433SOL     OW 8197   3.497   1.188   0.897
 2433SOL    HW1 8198   3.421   1.135   0.934
 2433SOL    HW2 8199   3.568   1.126   0.864
 2434SOL     OW 8200   3.758   1.238   5.735
 2434SOL    HW1 8201   3.824   1.310   5.714
 2434SOL    HW2 8202   3.670   1.259   5.692
 2435SOL     OW 8203   4.696   4.800   6.226
 2435SOL    HW1 8204   4.789   4.813   6.261
 2435SOL    HW2 8205   4.630   4.826   6.296
 2436SOL     OW 8206   1.198   5.540   0.602
 2436SOL    HW1 8207   1.286   5.504   0.573
 2436SOL    HW2 8208   1.126   5.475   0.579
 2437SOL     OW 8209   5.333   6.320   6.660
 2437SOL    HW1 8210   5.297   6.265   6.735
 2437SOL    HW2 8211   5.301   6.283   6.573
 2438SOL     OW 8212   3.313   1.052   6.913
 2438SOL    HW1 8213   3.281   1.043   7.008
 2438SOL    HW2 8214   3.302   0.965   6.865
 2439SOL     OW 8215   1.599   4.290   6.300
 2439SOL    HW1 8216   1.545   4.215   6.339
 2439SOL    HW2 8217   1.546   4.335   6.228
 2440SOL     OW 8218   4.848   6.267   5.603
 2440SOL    HW1 8219   4.766   6.325   5.603
 2440SOL    HW2 8220   4.918   6.307   5.544
 2441SOL     OW 8221   0.911   1.195   0.525
 2441SOL    HW1 8222   0.817   1.230   0.533
 2441SOL    HW2 8223   0.964   1.225   0.605
 2442SOL     OW 8224   0.852   3.173   6.113
 2442SOL    HW1 8225   0.915   3.146   6.040
 2442SOL    HW2 8226   0.903   3.221   6.185
 2443SOL     OW 8227   3.765   5.507   5.972
 2443SOL    HW1 8228   3.717   5.560   5.902
 2443SOL    HW2 8229   3.723   5.417   5.980
 2444SOL     OW 8230   2.908   4.193   6.525
 2444SOL    HW1 8231   2.857   4.111   6.501
 2444SOL    HW2 8232   2.991   4.198   6.469
 2445SOL     OW 8233   6.986   1.314   1.463
 2445SOL    HW1 8234   6.960   1.221   1.437
 2445SOL    HW2 8235   0.034   1.349   1.400
 2446SOL     OW 8236   6.348   4.534   3.888
 2446SOL    HW1 8237   6.354   4.633   3.885
 2446SOL    HW2 8238   6.409   4.495   3.819
 2447SOL     OW 8239   2.111   2.732   0.670
 2447SOL    HW1 8240   2.164   2.673   0.610
 2447SOL    HW2 8241   2.040   2.779   0.617
 2448SOL     OW 8242   0.044   0.914   4.510
 2448SOL    HW1 8243   6.984   0.855   4.518
 2448SOL    HW2 8244   0.121   0.872   4.559
 2449SOL     OW 8245   0.038   4.787   6.891
 2449SOL    HW1 8246   6.998   4.708   6.901
 2449SOL    HW2 8247   0.110   4.782   6.960
 2450SOL     OW 8248   2.679   4.676   3.031
 2450SOL    HW1 8249   2.667   4.657   2.933
 2450SOL    HW2 8250   2.748   4.748   3.043
 2451SOL     OW 8251   1.809   0.724   3.919
 2451SOL    HW1 8252   1.878   0.785   3.956
 2451SOL    HW2 8253   1.799   0.644   3.978
 2452SOL     OW 8254   2.007   3.620   2.704
 2452SOL    HW1 8255   1.919   3.623   2.656
 2452SOL    HW2 8256   2.077   3.580   2.645
 2453SOL     OW 8257   6.593   4.876   1.291
 2453SOL    HW1 8258   6.600   4.949   1.358
 2453SOL    HW2 8259   6.575   4.915   1.201
 2454SOL     OW 8260   3.402   0.960   1.616
 2454SOL    HW1 8261   3.344   0.981   1.537
 2454SOL    HW2 8262   3.482   1.019   1.615
 2455SOL     OW 8263   5.216   6.360   0.441
 2455SOL    HW1 8264   5.164   6.330   0.362
 2455SOL    HW2 8265   5.274   6.438   0.416
 2456SOL     OW 8266   5.262   6.449   1.977
 2456SOL    HW1 8267   5.352   6.487   1.955
 2456SOL    HW2 8268   5.274   6.362   2.026
 2457SOL     OW 8269   5.359   6.815   0.331
 2457SOL    HW1 8270   5.431   6.827   0.400
 2457SOL    HW2 8271   5.297   6.893   0.333
 2458SOL     OW 8272   2.430   6.012   3.435
 2458SOL    HW1 8273   2.501   6.080   3.416
 2458SOL    HW2 8274   2.396   5.974   3.349
 2459SOL     OW 8275   2.009   6.847   0.784
 2459SOL    HW1 8276   1.935   6.831   0.849
 2459SOL    HW2 8277   1.970   6.872   0.695
 2460SOL     OW 8278   2.228   0.002   1.733
 2460SOL    HW1 8279   2.161   0.029   1.802
 2460SOL    HW2 8280   2.202   0.042   1.645
 2461SOL     OW 8281   5.325   0.939   1.996
 2461SOL    HW1 8282   5.278   0.919   2.082
 2461SOL    HW2 8283   5.334   0.855   1.943
 2462SOL     OW 8284   2.817   5.042   0.356
 2462SOL    HW1 8285   2.746   5.094   0.308
 2462SOL    HW2 8286   2.907   5.073   0.325
 2463SOL     OW 8287   6.751   2.009   4.112
 2463SOL    HW1 8288   6.743   1.993   4.211
 2463SOL    HW2 8289   6.679   2.072   4.083
 2464SOL     OW 8290   0.651   4.748   1.212
 2464SOL    HW1 8291   0.551   4.758   1.204
 2464SOL    HW2 8292   0.672   4.675   1.277
 2465SOL     OW 8293   0.093   5.903   2.012
 2465SOL    HW1 8294   0.094   5.814   2.057
 2465SOL    HW2 8295   0.102   5.890   1.913
 2466SOL     OW 8296   4.458   1.519   2.470
 2466SOL    HW1 8297   4.372   1.513   2.522
 2466SOL    HW2 8298   4.444   1.576   2.389
 2467SOL     OW 8299   6.172   1.208   5.606
 2467SOL    HW1 8300   6.168   1.158   5.693
 2467SOL    HW2 8301   6.256   1.262   5.602
 2468SOL     OW 8302   6.834   6.183   2.228
 2468SOL    HW1 8303   6.803   6.089   2.237
 2468SOL    HW2 8304   6.834   6.209   2.132
 2469SOL     OW 8305   3.193   3.714   5.634
 2469SOL    HW1 8306   3.108   3.738   5.586
 2469SOL    HW2 8307   3.253   3.664   5.571
 2470SOL     OW 8308   3.020   4.121   5.584
 2470SOL    HW1 8309   3.018   4.100   5.682
 2470SOL    HW2 8310   3.024   4.220   5.571
 2471SOL     OW 8311   0.638   5.996   1.534
 2471SOL    HW1 8312   0.692   6.081   1.527
 2471SOL    HW2 8313   0.617   5.964   1.441
 2472SOL     OW 8314   5.568   2.117   4.429
 2472SOL    HW1 8315   5.500   2.070   4.485
 2472SOL    HW2 8316   5.572   2.074   4.338
 2473SOL     OW 8317   1.423   4.977   4.321
 2473SOL    HW1 8318   1.418   5.065   4.275
 2473SOL    HW2 8319   1.509   4.971   4.372
 2474SOL     OW 8320   6.944   5.185   5.549
 2474SOL    HW1 8321   6.848   5.158   5.552
 2474SOL    HW2 8322   6.960   5.240   5.466
 2475SOL     OW 8323   4.220   2.337   0.608
 2475SOL    HW1 8324   4.287   2.263   0.617
 2475SOL    HW2 8325   4.266   2.425   0.624
 2476SOL     OW 8326   0.915   2.099   3.551
 2476SOL    HW1 8327   0.846   2.033   3.521
 2476SOL    HW2 8328   0.874   2.164   3.616
 2477SOL     OW 8329   5.586   6.299   1.391
 2477SOL    HW1 8330   5.634   6.268   1.310
 2477SOL    HW2 8331   5.648   6.295   1.470
 2478SOL     OW 8332   6.068   6.714   2.497
 2478SOL    HW1 8333   6.139   6.682   2.433
 2478SOL    HW2 8334   6.109   6.779   2.562
 2479SOL     OW 8335   0.299   2.521   1.529
 2479SOL    HW1 8336   0.275   2.596   1.590
 2479SOL    HW2 8337   0.220   2.497   1.473
 2480SOL     OW 8338   0.095   3.048   0.873
 2480SOL    HW1 8339   0.067   2.993   0.951
 2480SOL    HW2 8340   0.096   2.991   0.791
 2481SOL     OW 8341   3.945   5.647   1.106
 2481SOL    HW1 8342   3.929   5.604   1.195
 2481SOL    HW2 8343   3.888   5.729   1.098
 2482SOL     OW 8344   4.965   3.438   5.549
 2482SOL    HW1 8345   4.879   3.485   5.526
 2482SOL    HW2 8346   5.030   3.504   5.586
 2483SOL     OW 8347   1.429   1.035   0.980
 2483SOL    HW1 8348   1.509   1.031   1.039
 2483SOL    HW2 8349   1.360   0.970   1.012
 2484SOL     OW 8350   2.349   0.342   0.788
 2484SOL    HW1 8351   2.266   0.333   0.842
 2484SOL    HW2 8352   2.325   0.365   0.694
 2485SOL     OW 8353   6.849   5.278   2.404
 2485SOL    HW1 8354   6.895   5.356   2.445
 2485SOL    HW2 8355   6.824   5.212   2.475
 2486SOL     OW 8356   1.950   5.863   3.797
 2486SOL    HW1 8357   2.030   5.905   3.754
 2486SOL    HW2 8358   1.979   5.783   3.850
 2487SOL     OW 8359   3.959   6.685   0.159
 2487SOL    HW1 8360   3.864   6.655   0.151
 2487SOL    HW2 8361   3.969   6.777   0.120
 2488SOL     OW 8362   2.827   4.227   1.450
 2488SOL    HW1 8363   2.901   4.263   1.506
 2488SOL    HW2 8364   2.862   4.152   1.393
 2489SOL     OW 8365   1.714   5.637   5.223
 2489SOL    HW1 8366   1.791   5.598   5.274
 2489SOL    HW2 8367   1.749   5.690   5.145
 2490SOL     OW 8368   6.829   4.753   0.417
 2490SOL    HW1 8369   6.775   4.698   0.353
 2490SOL    HW2 8370   6.901   4.800   0.367
 2491SOL     OW 8371   3.138   5.595   2.867
 2491SOL    HW1 8372   3.158   5.516   2.925
 2491SOL    HW2 8373   3.222   5.644   2.847
 2492SOL     OW 8374   4.868   3.373   5.952
 2492SOL    HW1 8375   4.802   3.299   5.961
 2492SOL    HW2 8376   4.869   3.427   6.037
 2493SOL     OW 8377   5.550   0.914   2.543
 2493SOL    HW1 8378   5.487   0.841   2.516
 2493SOL    HW2 8379   5.500   0.985   2.593
 2494SOL     OW 8380   4.746   2.866   2.391
 2494SOL    HW1 8381   4.773   2.934   2.323
 2494SOL    HW2 8382   4.796   2.882   2.476
 2495SOL     OW 8383   4.734   1.247   5.122
 2495SOL    HW1 8384   4.758   1.336   5.084
 2495SOL    HW2 8385   4.793   1.226   5.200
 2496SOL     OW 8386   0.643   5.406   0.211
 2496SOL    HW1 8387   0.625   5.484   0.151
 2496SOL    HW2 8388   0.563   5.346   0.213
 2497SOL     OW 8389   6.718   1.476   0.644
 2497SOL    HW1 8390   6.806   1.478   0.691
 2497SOL    HW2 8391   6.720   1.541   0.568
 2498SOL     OW 8392   2.155   2.899   3.476
 2498SOL    HW1 8393   2.061   2.931   3.474
 2498SOL    HW2 8394   2.158   2.801   3.455
 2499SOL     OW 8395   5.333   0.967   4.302
 2499SOL    HW1 8396   5.275   0.908   4.358
 2499SOL    HW2 8397   5.329   1.061   4.337
 2500SOL     OW 8398   5.104   2.950   6.122
 2500SOL    HW1 8399   5.153   3.036   6.107
 2500SOL    HW2 8400   5.055   2.924   6.038
 2501SOL     OW 8401   5.858   4.277   6.940
 2501SOL    HW1 8402   5.815   4.261   0.008
 2501SOL    HW2 8403   5.788   4.299   6.872
 2502SOL     OW 8404   2.386   6.702   3.153
 2502SOL    HW1 8405   2.316   6.763   3.190
 2502SOL    HW2 8406   2.350   6.609   3.147
 2503SOL     OW 8407   4.061   5.326   5.825
 2503SOL    HW1 8408   4.021   5.238   5.796
 2503SOL    HW2 8409   3.992   5.379   5.873
 2504SOL     OW 8410   1.720   4.651   4.956
 2504SOL    HW1 8411   1.772   4.724   5.001
 2504SOL    HW2 8412   1.722   4.569   5.012
 2505SOL     OW 8413   4.048   5.759   4.259
 2505SOL    HW1 8414   4.089   5.848   4.238
 2505SOL    HW2 8415   4.036   5.751   4.358
 2506SOL     OW 8416   6.371   3.196   6.430
 2506SOL    HW1 8417   6.275   3.213   6.448
 2506SOL    HW2 8418   6.396   3.104   6.460
 2507SOL     OW 8419   6.147   5.699   0.810
 2507SOL    HW1 8420   6.165   5.777   0.870
 2507SOL    HW2 8421   6.225   5.685   0.749
 2508SOL     OW 8422   2.696   1.763   2.307
 2508SOL    HW1 8423   2.675   1.836   2.242
 2508SOL    HW2 8424   2.754   1.799   2.380
 2509SOL     OW 8425   5.794   2.617   3.020
 2509SOL    HW1 8426   5.710   2.637   3.071
 2509SOL    HW2 8427   5.780   2.535   2.963
 2510SOL     OW 8428   3.160   4.831   0.118
 2510SOL    HW1 8429   3.137   4.849   0.214
 2510SOL    HW2 8430   3.171   4.918   0.070
 2511SOL     OW 8431   1.337   0.774   4.906
 2511SOL    HW1 8432   1.349   0.706   4.978
 2511SOL    HW2 8433   1.239   0.786   4.888
 2512SOL     OW 8434   4.772   3.981   4.975
 2512SOL    HW1 8435   4.862   4.017   4.951
 2512SOL    HW2 8436   4.740   3.922   4.901
 2513SOL     OW 8437   1.126   2.504   6.410
 2513SOL    HW1 8438   1.121   2.406   6.429
 2513SOL    HW2 8439   1.046   2.532   6.356
 2514SOL     OW 8440   0.797   1.328   4.530
 2514SOL    HW1 8441   0.720   1.278   4.567
 2514SOL    HW2 8442   0.828   1.284   4.445
 2515SOL     OW 8443   1.443   6.038   0.141
 2515SOL    HW1 8444   1.490   5.955   0.109
 2515SOL    HW2 8445   1.413   6.092   0.063
 2516SOL     OW 8446   6.217   6.236   3.495
 2516SOL    HW1 8447   6.281   6.308   3.469
 2516SOL    HW2 8448   6.191   6.248   3.591
 2517SOL     OW 8449   2.291   4.805   0.129
 2517SOL    HW1 8450   2.250   4.715   0.143
 2517SOL    HW2 8451   2.320   4.842   0.216
 2518SOL     OW 8452   2.150   2.909   6.693
 2518SOL    HW1 8453   2.178   2.983   6.632
 2518SOL    HW2 8454   2.216   2.834   6.687
 2519SOL     OW 8455   5.082   4.544   4.645
 2519SOL    HW1 8456   5.116   4.614   4.583
 2519SOL    HW2 8457   4.998   4.577   4.689
 2520SOL     OW 8458   2.541   3.539   1.087
 2520SOL    HW1 8459   2.577   3.453   1.123
 2520SOL    HW2 8460   2.539   3.535   0.987
 2521SOL     OW 8461   6.819   0.440   5.875
 2521SOL    HW1 8462   6.773   0.424   5.788
 2521SOL    HW2 8463   6.869   0.357   5.901
 2522SOL     OW 8464   1.127   3.236   4.298
 2522SOL    HW1 8465   1.209   3.186   4.326
 2522SOL    HW2 8466   1.135   3.260   4.201
 2523SOL     OW 8467   6.849   3.732   0.503
 2523SOL    HW1 8468   6.939   3.773   0.490
 2523SOL    HW2 8469   6.785   3.769   0.436
 2524SOL     OW 8470   1.414   6.474   4.224
 2524SOL    HW1 8471   1.448   6.471   4.130
 2524SOL    HW2 8472   1.328   6.524   4.227
 2525SOL     OW 8473   1.381   4.191   4.352
 2525SOL    HW1 8474   1.367   4.177   4.254
 2525SOL    HW2 8475   1.459   4.138   4.383
 2526SOL     OW 8476   6.955   2.175   4.445
 2526SOL    HW1 8477   6.948   2.267   4.483
 2526SOL    HW2 8478   6.993   2.180   4.353
 2527SOL     OW 8479   5.589   6.744   4.581
 2527SOL    HW1 8480   5.599   6.747   4.482
 2527SOL    HW2 8481   5.613   6.653   4.615
 2528SOL     OW 8482   5.845   5.378   0.462
 2528SOL    HW1 8483   5.883   5.290   0.433
 2528SOL    HW2 8484   5.759   5.395   0.414
 2529SOL     OW 8485   4.929   5.854   4.643
 2529SOL    HW1 8486   4.899   5.775   4.696
 2529SOL    HW2 8487   4.879   5.935   4.673
 2530SOL     OW 8488   1.361   6.837   3.120
 2530SOL    HW1 8489   1.339   6.934   3.108
 2530SOL    HW2 8490   1.377   6.818   3.217
 2531SOL     OW 8491   4.847   0.645   5.804
 2531SOL    HW1 8492   4.824   0.729   5.756
 2531SOL    HW2 8493   4.821   0.652   5.900
 2532SOL     OW 8494   1.135   4.994   6.770
 2532SOL    HW1 8495   1.161   5.032   6.859
 2532SOL    HW2 8496   1.217   4.967   6.720
 2533SOL     OW 8497   5.336   0.178   5.340
 2533SOL    HW1 8498   5.429   0.143   5.330
 2533SOL    HW2 8499   5.325   0.218   5.432
 2534SOL     OW 8500   2.087   0.411   3.636
 2534SOL    HW1 8501   2.094   0.369   3.727
 2534SOL    HW2 8502   2.124   0.503   3.639
 2535SOL     OW 8503   1.334   1.263   3.345
 2535SOL    HW1 8504   1.373   1.193   3.285
 2535SOL    HW2 8505   1.303   1.221   3.430
 2536SOL     OW 8506   5.852   1.654   4.544
 2536SOL    HW1 8507   5.871   1.572   4.598
 2536SOL    HW2 8508   5.913   1.728   4.573
 2537SOL     OW 8509   4.972   5.668   1.081
 2537SOL    HW1 8510   5.051   5.728   1.063
 2537SOL    HW2 8511   4.908   5.715   1.141
 2538SOL     OW 8512   2.063   4.680   4.846
 2538SOL    HW1 8513   2.045   4.582   4.838
 2538SOL    HW2 8514   2.111   4.699   4.931
 2539SOL     OW 8515   4.407   0.242   4.877
 2539SOL    HW1 8516   4.336   0.211   4.940
 2539SOL    HW2 8517   4.404   0.342   4.871
 2540SOL     OW 8518   5.083   1.367   1.911
 2540SOL    HW1 8519   5.054   1.305   1.838
 2540SOL    HW2 8520   5.112   1.313   1.990
 2541SOL     OW 8521   1.286   6.871   5.610
 2541SOL    HW1 8522   1.316   6.918   5.693
 2541SOL    HW2 8523   1.198   6.909   5.580
 2542SOL     OW 8524   3.576   1.714   4.171
 2542SOL    HW1 8525   3.613   1.685   4.082
 2542SOL    HW2 8526   3.480   1.685   4.177
 2543SOL     OW 8527   1.172   1.032   2.717
 2543SOL    HW1 8528   1.081   0.999   2.691
 2543SOL    HW2 8529   1.174   1.050   2.815
 2544SOL     OW 8530   6.781   5.298   1.269
 2544SOL    HW1 8531   6.775   5.340   1.360
 2544SOL    HW2 8532   6.798   5.369   1.201
 2545SOL     OW 8533   1.309   1.500   1.689
 2545SOL    HW1 8534   1.365   1.462   1.763
 2545SOL    HW2 8535   1.275   1.590   1.716
 2546SOL     OW 8536   6.204   3.939   2.142
 2546SOL    HW1 8537   6.286   3.949   2.085
 2546SOL    HW2 8538   6.125   3.918   2.084
 2547SOL     OW 8539   5.579   4.665   0.295
 2547SOL    HW1 8540   5.539   4.633   0.209
 2547SOL    HW2 8541   5.542   4.609   0.370
 2548SOL     OW 8542   0.450   0.156   5.268
 2548SOL    HW1 8543   0.379   0.192   5.328
 2548SOL    HW2 8544   0.407   0.116   5.186
 2549SOL     OW 8545   1.835   2.080   1.952
 2549SOL    HW1 8546   1.864   2.149   1.885
 2549SOL    HW2 8547   1.908   2.013   1.964
 2550SOL     OW 8548   4.763   0.278   6.690
 2550SOL    HW1 8549   4.783   0.267   6.593
 2550SOL    HW2 8550   4.717   0.365   6.705
 2551SOL     OW 8551   3.153   5.775   6.747
 2551SOL    HW1 8552   3.117   5.767   6.655
 2551SOL    HW2 8553   3.103   5.715   6.809
 2552SOL     OW 8554   1.853   5.174   0.122
 2552SOL    HW1 8555   1.921   5.193   0.193
 2552SOL    HW2 8556   1.876   5.225   0.040
 2553SOL     OW 8557   3.536   2.440   6.616
 2553SOL    HW1 8558   3.541   2.509   6.687
 2553SOL    HW2 8559   3.625   2.395   6.607
 2554SOL     OW 8560   1.941   5.956   1.165
 2554SOL    HW1 8561   1.892   5.871   1.182
 2554SOL    HW2 8562   1.890   6.032   1.205
 2555SOL     OW 8563   6.140   6.538   5.735
 2555SOL    HW1 8564   6.155   6.596   5.815
 2555SOL    HW2 8565   6.091   6.455   5.762
 2556SOL     OW 8566   3.267   6.620   1.622
 2556SOL    HW1 8567   3.246   6.713   1.654
 2556SOL    HW2 8568   3.361   6.617   1.589
 2557SOL     OW 8569   3.585   0.555   0.277
 2557SOL    HW1 8570   3.518   0.508   0.219
 2557SOL    HW2 8571   3.553   0.648   0.295
 2558SOL     OW 8572   5.634   4.558   6.463
 2558SOL    HW1 8573   5.643   4.461   6.482
 2558SOL    HW2 8574   5.561   4.597   6.519
 2559SOL     OW 8575   0.705   3.960   3.105
 2559SOL    HW1 8576   0.694   3.937   3.202
 2559SOL    HW2 8577   0.793   4.006   3.092
 2560SOL     OW 8578   4.679   2.699   3.336
 2560SOL    HW1 8579   4.664   2.735   3.244
 2560SOL    HW2 8580   4.777   2.695   3.355
 2561SOL     OW 8581   3.134   0.907   4.242
 2561SOL    HW1 8582   3.063   0.976   4.254
 2561SOL    HW2 8583   3.221   0.952   4.223
 2562SOL     OW 8584   3.719   6.313   3.077
 2562SOL    HW1 8585   3.767   6.313   3.164
 2562SOL    HW2 8586   3.688   6.220   3.056
 2563SOL     OW 8587   2.892   1.326   6.855
 2563SOL    HW1 8588   2.950   1.388   6.906
 2563SOL    HW2 8589   2.812   1.302   6.910
 2564SOL     OW 8590   1.743   0.636   0.650
 2564SOL    HW1 8591   1.737   0.536   0.638
 2564SOL    HW2 8592   1.705   0.680   0.568
 2565SOL     OW 8593   0.902   1.921   6.463
 2565SOL    HW1 8594   0.933   1.929   6.368
 2565SOL    HW2 8595   0.892   1.824   6.486
 2566SOL     OW 8596   3.085   0.969   1.706
 2566SOL    HW1 8597   3.065   0.964   1.608
 2566SOL    HW2 8598   3.158   1.036   1.721
 2567SOL     OW 8599   1.258   0.214   0.124
 2567SOL    HW1 8600   1.352   0.234   0.096
 2567SOL    HW2 8601   1.253   0.120   0.158
 2568SOL     OW 8602   2.684   6.114   1.239
 2568SOL    HW1 8603   2.587   6.094   1.225
 2568SOL    HW2 8604   2.721   6.052   1.308
 2569SOL     OW 8605   1.968   1.202   1.039
 2569SOL    HW1 8606   2.023   1.206   0.956
 2569SOL    HW2 8607   1.942   1.107   1.058
 2570SOL     OW 8608   5.223   5.986   6.598
 2570SOL    HW1 8609   5.212   6.042   6.516
 2570SOL    HW2 8610   5.183   6.033   6.676
 2571SOL     OW 8611   3.696   2.880   3.851
 2571SOL    HW1 8612   3.701   2.972   3.892
 2571SOL    HW2 8613   3.710   2.811   3.923
 2572SOL     OW 8614   2.597   5.276   1.574
 2572SOL    HW1 8615   2.576   5.266   1.671
 2572SOL    HW2 8616   2.696   5.270   1.560
 2573SOL     OW 8617   6.925   2.407   4.107
 2573SOL    HW1 8618   6.960   2.313   4.110
 2573SOL    HW2 8619   6.961   2.458   4.185
 2574SOL     OW 8620   6.562   3.331   1.217
 2574SOL    HW1 8621   6.600   3.389   1.144
 2574SOL    HW2 8622   6.543   3.388   1.298
 2575SOL     OW 8623   5.320   3.926   0.629
 2575SOL    HW1 8624   5.366   4.005   0.671
 2575SOL    HW2 8625   5.368   3.842   0.654
 2576SOL     OW 8626   2.437   6.966   3.597
 2576SOL    HW1 8627   2.446   6.921   3.508
 2576SOL    HW2 8628   2.434   6.897   3.669
 2577SOL     OW 8629   3.348   6.995   3.117
 2577SOL    HW1 8630   3.266   0.002   3.168
 2577SOL    HW2 8631   3.406   0.054   3.101
 2578SOL     OW 8632   4.559   2.579   4.750
 2578SOL    HW1 8633   4.469   2.535   4.757
 2578SOL    HW2 8634   4.565   2.652   4.819
 2579SOL     OW 8635   0.270   1.879   6.764
 2579SOL    HW1 8636   0.267   1.887   6.665
 2579SOL    HW2 8637   0.363   1.898   6.797
 2580SOL     OW 8638   1.748   2.186   6.163
 2580SOL    HW1 8639   1.669   2.169   6.223
 2580SOL    HW2 8640   1.808   2.253   6.206
 2581SOL     OW 8641   5.321   5.575   2.301
 2581SOL    HW1 8642   5.409   5.622   2.303
 2581SOL    HW2 8643   5.268   5.606   2.222
 2582SOL     OW 8644   1.082   5.399   2.369
 2582SOL    HW1 8645   1.017   5.323   2.380
 2582SOL    HW2 8646   1.031   5.482   2.346
 2583SOL     OW 8647   0.630   0.250   0.869
 2583SOL    HW1 8648   0.634   0.303   0.784
 2583SOL    HW2 8649   0.660   0.156   0.851
 2584SOL     OW 8650   3.098   6.065   0.958
 2584SOL    HW1 8651   3.120   6.078   0.861
 2584SOL    HW2 8652   3.027   5.996   0.967
 2585SOL     OW 8653   3.123   6.527   0.955
 2585SOL    HW1 8654   3.089   6.618   0.976
 2585SOL    HW2 8655   3.047   6.462   0.955
 2586SOL     OW 8656   5.886   1.439   4.718
 2586SOL    HW1 8657   5.974   1.443   4.765
 2586SOL    HW2 8658   5.868   1.346   4.687
 2587SOL     OW 8659   6.288   6.970   4.372
 2587SOL    HW1 8660   6.195   6.978   4.408
 2587SOL    HW2 8661   6.354   6.975   4.447
 2588SOL     OW 8662   5.460   1.060   1.402
 2588SOL    HW1 8663   5.462   1.028   1.497
 2588SOL    HW2 8664   5.373   1.034   1.360
 2589SOL     OW 8665   6.487   0.464   5.440
 2589SOL    HW1 8666   6.518   0.479   5.346
 2589SOL    HW2 8667   6.430   0.382   5.443
 2590SOL     OW 8668   4.030   6.968   2.351
 2590SOL    HW1 8669   4.089   6.899   2.310
 2590SOL    HW2 8670   3.967   7.003   2.281
 2591SOL     OW 8671   4.986   6.532   1.324
 2591SOL    HW1 8672   5.023   6.447   1.286
 2591SOL    HW2 8673   4.957   6.516   1.419
 2592SOL     OW 8674   3.282   5.051   1.100
 2592SOL    HW1 8675   3.303   5.053   1.197
 2592SOL    HW2 8676   3.309   4.962   1.062
 2593SOL     OW 8677   3.735   6.686   2.753
 2593SOL    HW1 8678   3.700   6.614   2.814
 2593SOL    HW2 8679   3.699   6.673   2.661
 2594SOL     OW 8680   0.072   0.719   6.833
 2594SOL    HW1 8681   0.066   0.646   6.765
 2594SOL    HW2 8682   0.026   0.689   6.917
 2595SOL     OW 8683   6.706   3.574   4.935
 2595SOL    HW1 8684   6.613   3.588   4.899
 2595SOL    HW2 8685   6.771   3.578   4.860
 2596SOL     OW 8686   3.949   2.085   1.973
 2596SOL    HW1 8687   3.926   2.016   1.904
 2596SOL    HW2 8688   3.866   2.115   2.019
 2597SOL     OW 8689   2.644   3.249   1.124
 2597SOL    HW1 8690   2.548   3.242   1.098
 2597SOL    HW2 8691   2.674   3.161   1.163
 2598SOL     OW 8692   6.801   2.827   4.222
 2598SOL    HW1 8693   6.734   2.891   4.259
 2598SOL    HW2 8694   6.754   2.756   4.169
 2599SOL     OW 8695   4.069   6.182   6.027
 2599SOL    HW1 8696   4.083   6.101   6.084
 2599SOL    HW2 8697   4.073   6.264   6.084
 2600SOL     OW 8698   5.453   3.931   3.609
 2600SOL    HW1 8699   5.538   3.971   3.642
 2600SOL    HW2 8700   5.376   3.988   3.638
 2601SOL     OW 8701   3.497   2.738   5.536
 2601SOL    HW1 8702   3.419   2.693   5.493
 2601SOL    HW2 8703   3.488   2.837   5.527
 2602SOL     OW 8704   6.946   5.055   4.715
 2602SOL    HW1 8705   6.976   5.091   4.804
 2602SOL    HW2 8706   6.913   4.962   4.727
 2603SOL     OW 8707   2.309   2.531   1.720
 2603SOL    HW1 8708   2.371   2.471   1.771
 2603SOL    HW2 8709   2.300   2.618   1.768
 2604SOL     OW 8710   5.112   0.316   0.946
 2604SOL    HW1 8711   5.132   0.334   1.043
 2604SOL    HW2 8712   5.029   0.366   0.920
 2605SOL     OW 8713   4.256   4.689   3.516
 2605SOL    HW1 8714   4.212   4.664   3.429
 2605SOL    HW2 8715   4.210   4.768   3.556
 2606SOL     OW 8716   6.785   4.259   0.825
 2606SOL    HW1 8717   6.832   4.311   0.754
 2606SOL    HW2 8718   6.688   4.282   0.824
 2607SOL     OW 8719   1.663   1.406   3.706
 2607SOL    HW1 8720   1.743   1.357   3.741
 2607SOL    HW2 8721   1.617   1.350   3.637
 2608SOL     OW 8722   5.258   0.319   1.818
 2608SOL    HW1 8723   5.170   0.353   1.850
 2608SOL    HW2 8724   5.246   0.266   1.735
 2609SOL     OW 8725   0.703   2.682   2.196
 2609SOL    HW1 8726   0.613   2.725   2.193
 2609SOL    HW2 8727   0.700   2.594   2.149
 2610SOL     OW 8728   6.900   5.437   4.757
 2610SOL    HW1 8729   6.815   5.389   4.777
 2610SOL    HW2 8730   6.907   5.519   4.813
 2611SOL     OW 8731   5.167   6.761   0.726
 2611SOL    HW1 8732   5.068   6.767   0.737
 2611SOL    HW2 8733   5.206   6.713   0.805
 2612SOL     OW 8734   5.670   6.714   4.317
 2612SOL    HW1 8735   5.608   6.641   4.286
 2612SOL    HW2 8736   5.749   6.673   4.362
 2613SOL     OW 8737   3.424   6.624   1.969
 2613SOL    HW1 8738   3.414   6.573   2.055
 2613SOL    HW2 8739   3.338   6.621   1.918
 2614SOL     OW 8740   6.383   0.180   5.441
 2614SOL    HW1 8741   6.479   0.179   5.412
 2614SOL    HW2 8742   6.357   0.088   5.470
 2615SOL     OW 8743   5.508   5.612   4.100
 2615SOL    HW1 8744   5.450   5.533   4.080
 2615SOL    HW2 8745   5.498   5.681   4.028
 2616SOL     OW 8746   4.099   3.387   3.589
 2616SOL    HW1 8747   4.093   3.486   3.573
 2616SOL    HW2 8748   4.143   3.371   3.677
 2617SOL     OW 8749   3.332   4.811   1.015
 2617SOL    HW1 8750   3.405   4.747   1.039
 2617SOL    HW2 8751   3.244   4.764   1.016
 2618SOL     OW 8752   0.449   6.755   2.590
 2618SOL    HW1 8753   0.476   6.748   2.494
 2618SOL    HW2 8754   0.510   6.699   2.646
 2619SOL     OW 8755   4.538   2.037   2.331
 2619SOL    HW1 8756   4.511   2.005   2.240
 2619SOL    HW2 8757   4.620   2.095   2.323
 2620SOL     OW 8758   1.569   5.504   3.023
 2620SOL    HW1 8759   1.498   5.437   3.043
 2620SOL    HW2 8760   1.658   5.458   3.021
 2621SOL     OW 8761   0.521   5.545   3.465
 2621SOL    HW1 8762   0.497   5.527   3.369
 2621SOL    HW2 8763   0.619   5.533   3.478
 2622SOL     OW 8764   1.989   3.210   6.180
 2622SOL    HW1 8765   2.076   3.256   6.194
 2622SOL    HW2 8766   1.977   3.188   6.083
 2623SOL     OW 8767   3.502   1.121   4.195
 2623SOL    HW1 8768   3.496   1.122   4.295
 2623SOL    HW2 8769   3.411   1.134   4.156
 2624SOL     OW 8770   6.030   3.299   3.061
 2624SOL    HW1 8771   6.059   3.229   2.996
 2624SOL    HW2 8772   6.084   3.382   3.048
 2625SOL     OW 8773   1.632   3.047   5.500
 2625SOL    HW1 8774   1.614   3.140   5.532
 2625SOL    HW2 8775   1.578   2.982   5.554
 2626SOL     OW 8776   1.200   6.428   3.967
 2626SOL    HW1 8777   1.299   6.414   3.967
 2626SOL    HW2 8778   1.178   6.512   4.017
 2627SOL     OW 8779   0.367   1.233   4.810
 2627SOL    HW1 8780   0.381   1.236   4.909
 2627SOL    HW2 8781   0.269   1.229   4.790
 2628SOL     OW 8782   3.660   6.304   6.514
 2628SOL    HW1 8783   3.629   6.348   6.429
 2628SOL    HW2 8784   3.738   6.354   6.551
 2629SOL     OW 8785   3.838   3.991   1.681
 2629SOL    HW1 8786   3.762   4.023   1.738
 2629SOL    HW2 8787   3.856   3.894   1.699
 2630SOL     OW 8788   3.775   2.039   2.200
 2630SOL    HW1 8789   3.789   1.960   2.140
 2630SOL    HW2 8790   3.718   2.106   2.154
 2631SOL     OW 8791   5.355   6.831   4.133
 2631SOL    HW1 8792   5.363   6.807   4.230
 2631SOL    HW2 8793   5.435   6.885   4.106
 2632SOL     OW 8794   2.936   2.495   0.218
 2632SOL    HW1 8795   2.889   2.419   0.173
 2632SOL    HW2 8796   2.946   2.475   0.315
 2633SOL     OW 8797   5.686   2.724   6.841
 2633SOL    HW1 8798   5.748   2.798   6.813
 2633SOL    HW2 8799   5.677   2.658   6.767
 2634SOL     OW 8800   1.969   4.272   2.200
 2634SOL    HW1 8801   1.988   4.353   2.256
 2634SOL    HW2 8802   2.018   4.279   2.113
 2635SOL     OW 8803   5.503   6.520   4.273
 2635SOL    HW1 8804   5.426   6.486   4.326
 2635SOL    HW2 8805   5.541   6.446   4.218
 2636SOL     OW 8806   5.967   0.199   6.596
 2636SOL    HW1 8807   6.045   0.139   6.613
 2636SOL    HW2 8808   5.893   0.177   6.660
 2637SOL     OW 8809   6.037   0.869   3.389
 2637SOL    HW1 8810   6.002   0.954   3.350
 2637SOL    HW2 8811   6.003   0.859   3.483
 2638SOL     OW 8812   5.700   0.022   1.615
 2638SOL    HW1 8813   5.624   0.055   1.560
 2638SOL    HW2 8814   5.734   6.956   1.577
 2639SOL     OW 8815   5.927   6.858   2.262
 2639SOL    HW1 8816   5.865   6.797   2.214
 2639SOL    HW2 8817   6.010   6.809   2.288
 2640SOL     OW 8818   0.162   6.564   4.992
 2640SOL    HW1 8819   0.174   6.465   4.998
 2640SOL    HW2 8820   0.128   6.588   4.901
 2641SOL     OW 8821   5.661   3.553   0.311
 2641SOL    HW1 8822   5.649   3.627   0.378
 2641SOL    HW2 8823   5.694   3.472   0.358
 2642SOL     OW 8824   5.653   0.573   4.307
 2642SOL    HW1 8825   5.750   0.595   4.309
 2642SOL    HW2 8826   5.600   0.655   4.286
 2643SOL     OW 8827   6.598   5.728   2.998
 2643SOL    HW1 8828   6.629   5.808   2.946
 2643SOL    HW2 8829   6.523   5.754   3.059
 2644SOL     OW 8830   1.227   4.569   5.594
 2644SOL    HW1 8831   1.215   4.557   5.495
 2644SOL    HW2 8832   1.148   4.615   5.632
 2645SOL     OW 8833   4.976   6.878   5.464
 2645SOL    HW1 8834   4.981   6.878   5.364
 2645SOL    HW2 8835   5.063   6.909   5.502
 2646SOL     OW 8836   6.121   0.348   6.340
 2646SOL    HW1 8837   6.145   0.260   6.300
 2646SOL    HW2 8838   6.172   0.361   6.425
 2647SOL     OW 8839   4.860   0.967   0.873
 2647SOL    HW1 8840   4.782   1.022   0.903
 2647SOL    HW2 8841   4.864   0.966   0.773
 2648SOL     OW 8842   6.463   6.888   2.988
 2648SOL    HW1 8843   6.555   6.922   2.969
 2648SOL    HW2 8844   6.462   6.840   3.075
 2649SOL     OW 8845   3.645   1.613   6.160
 2649SOL    HW1 8846   3.549   1.586   6.166
 2649SOL    HW2 8847   3.674   1.650   6.249
 2650SOL     OW 8848   0.610   5.189   3.546
 2650SOL    HW1 8849   0.700   5.148   3.558
 2650SOL    HW2 8850   0.558   5.181   3.630
 2651SOL     OW 8851   0.721   1.504   0.984
 2651SOL    HW1 8852   0.626   1.490   1.014
 2651SOL    HW2 8853   0.774   1.422   1.004
 2652SOL     OW 8854   3.469   3.024   3.518
 2652SOL    HW1 8855   3.554   3.060   3.557
 2652SOL    HW2 8856   3.489   2.942   3.465
 2653SOL     OW 8857   5.739   0.014   5.985
 2653SOL    HW1 8858   5.787   6.947   5.984
 2653SOL    HW2 8859   5.780   0.075   5.916
 2654SOL     OW 8860   5.372   3.109   6.056
 2654SOL    HW1 8861   5.380   3.071   5.964
 2654SOL    HW2 8862   5.324   3.196   6.053
 2655SOL     OW 8863   4.277   5.621   4.206
 2655SOL    HW1 8864   4.196   5.678   4.216
 2655SOL    HW2 8865   4.255   5.526   4.227
 2656SOL     OW 8866   5.414   5.102   3.675
 2656SOL    HW1 8867   5.469   5.037   3.728
 2656SOL    HW2 8868   5.320   5.067   3.667
 2657SOL     OW 8869   2.572   3.759   6.582
 2657SOL    HW1 8870   2.482   3.772   6.625
 2657SOL    HW2 8871   2.642   3.803   6.639
 2658SOL     OW 8872   6.435   4.688   6.269
 2658SOL    HW1 8873   6.345   4.654   6.241
 2658SOL    HW2 8874   6.468   4.753   6.201
 2659SOL     OW 8875   6.694   2.578   4.528
 2659SOL    HW1 8876   6.684   2.584   4.429
 2659SOL    HW2 8877   6.722   2.485   4.553
 2660SOL     OW 8878   6.769   2.183   1.856
 2660SOL    HW1 8879   6.732   2.122   1.786
 2660SOL    HW2 8880   6.868   2.191   1.844
 2661SOL     OW 8881   2.869   5.942   1.022
 2661SOL    HW1 8882   2.832   5.971   0.934
 2661SOL    HW2 8883   2.844   6.008   1.092
 2662SOL     OW 8884   4.094   6.804   4.276
 2662SOL    HW1 8885   4.057   6.743   4.206
 2662SOL    HW2 8886   4.177   6.847   4.241
 2663SOL     OW 8887   2.180   4.617   1.334
 2663SOL    HW1 8888   2.270   4.644   1.366
 2663SOL    HW2 8889   2.111   4.679   1.371
 2664SOL     OW 8890   3.246   3.985   3.491
 2664SOL    HW1 8891   3.273   4.057   3.427
 2664SOL    HW2 8892   3.230   3.900   3.440
 2665SOL     OW 8893   3.463   1.477   4.415
 2665SOL    HW1 8894   3.499   1.387   4.439
 2665SOL    HW2 8895   3.381   1.496   4.469
 2666SOL     OW 8896   5.008   4.966   0.921
 2666SOL    HW1 8897   5.042   5.046   0.873
 2666SOL    HW2 8898   5.055   4.884   0.889
 2667SOL     OW 8899   1.186   6.155   5.313
 2667SOL    HW1 8900   1.263   6.220   5.313
 2667SOL    HW2 8901   1.146   6.151   5.221
 2668SOL     OW 8902   6.821   3.421   4.504
 2668SOL    HW1 8903   6.776   3.332   4.497
 2668SOL    HW2 8904   6.918   3.412   4.480
 2669SOL     OW 8905   3.464   5.057   5.021
 2669SOL    HW1 8906   3.382   5.015   5.060
 2669SOL    HW2 8907   3.475   5.027   4.927
 2670SOL     OW 8908   6.903   1.345   6.972
 2670SOL    HW1 8909   6.972   1.318   6.904
 2670SOL    HW2 8910   6.812   1.328   6.935
 2671SOL     OW 8911   2.383   3.459   6.768
 2671SOL    HW1 8912   2.460   3.521   6.786
 2671SOL    HW2 8913   2.365   3.455   6.670
 2672SOL     OW 8914   1.311   5.523   6.976
 2672SOL    HW1 8915   1.409   5.503   6.964
 2672SOL    HW2 8916   1.258   5.469   6.912
 2673SOL     OW 8917   4.861   3.009   3.749
 2673SOL    HW1 8918   4.770   3.018   3.789
 2673SOL    HW2 8919   4.902   2.923   3.780
 2674SOL     OW 8920   1.631   4.449   4.527
 2674SOL    HW1 8921   1.730   4.450   4.539
 2674SOL    HW2 8922   1.588   4.501   4.602
 2675SOL     OW 8923   0.982   4.429   5.895
 2675SOL    HW1 8924   0.921   4.509   5.890
 2675SOL    HW2 8925   0.972   4.385   5.984
 2676SOL     OW 8926   4.760   1.816   2.366
 2676SOL    HW1 8927   4.672   1.863   2.377
 2676SOL    HW2 8928   4.825   1.849   2.435
 2677SOL     OW 8929   2.199   4.988   1.538
 2677SOL    HW1 8930   2.121   4.990   1.476
 2677SOL    HW2 8931   2.221   4.892   1.559
 2678SOL     OW 8932   0.832   4.880   0.022
 2678SOL    HW1 8933   0.812   4.978   0.015
 2678SOL    HW2 8934   0.798   4.845   0.109
 2679SOL     OW 8935   4.108   4.812   0.893
 2679SOL    HW1 8936   4.104   4.822   0.793
 2679SOL    HW2 8937   4.077   4.721   0.919
 2680SOL     OW 8938   2.222   1.361   0.697
 2680SOL    HW1 8939   2.283   1.287   0.728
 2680SOL    HW2 8940   2.199   1.419   0.775
 2681SOL     OW 8941   1.366   3.851   4.318
 2681SOL    HW1 8942   1.401   3.928   4.266
 2681SOL    HW2 8943   1.352   3.879   4.413
 2682SOL     OW 8944   5.739   2.934   2.133
 2682SOL    HW1 8945   5.772   2.871   2.203
 2682SOL    HW2 8946   5.748   2.892   2.043
 2683SOL     OW 8947   1.037   4.693   1.402
 2683SOL    HW1 8948   0.992   4.632   1.336
 2683SOL    HW2 8949   0.970   4.727   1.467
 2684SOL     OW 8950   4.151   6.044   2.195
 2684SOL    HW1 8951   4.179   6.012   2.105
 2684SOL    HW2 8952   4.094   6.126   2.186
 2685SOL     OW 8953   6.405   0.010   4.137
 2685SOL    HW1 8954   6.380   7.007   4.231
 2685SOL    HW2 8955   6.323   0.015   4.081
 2686SOL     OW 8956   1.700   2.524   4.465
 2686SOL    HW1 8957   1.793   2.546   4.493
 2686SOL    HW2 8958   1.692   2.425   4.450
 2687SOL     OW 8959   3.991   4.832   2.556
 2687SOL    HW1 8960   3.898   4.796   2.548
 2687SOL    HW2 8961   4.005   4.902   2.485
 2688SOL     OW 8962   4.119   5.167   5.447
 2688SOL    HW1 8963   4.076   5.163   5.357
 2688SOL    HW2 8964   4.098   5.084   5.498
 2689SOL     OW 8965   1.249   1.719   3.812
 2689SOL    HW1 8966   1.288   1.649   3.752
 2689SOL    HW2 8967   1.235   1.803   3.760
 2690SOL     OW 8968   4.004   3.090   3.604
 2690SOL    HW1 8969   3.937   3.016   3.611
 2690SOL    HW2 8970   4.030   3.102   3.508
 2691SOL     OW 8971   1.809   5.949   1.897
 2691SOL    HW1 8972   1.859   5.937   1.983
 2691SOL    HW2 8973   1.734   5.882   1.893
 2692SOL     OW 8974   6.354   5.367   3.631
 2692SOL    HW1 8975   6.287   5.336   3.563
 2692SOL    HW2 8976   6.316   5.357   3.723
 2693SOL     OW 8977   2.441   4.689   3.176
 2693SOL    HW1 8978   2.350   4.663   3.144
 2693SOL    HW2 8979   2.509   4.660   3.109
 2694SOL     OW 8980   3.238   0.368   3.058
 2694SOL    HW1 8981   3.176   0.436   3.018
 2694SOL    HW2 8982   3.303   0.337   2.988
 2695SOL     OW 8983   5.123   2.160   2.442
 2695SOL    HW1 8984   5.219   2.178   2.421
 2695SOL    HW2 8985   5.087   2.093   2.376
 2696SOL     OW 8986   4.075   3.218   5.541
 2696SOL    HW1 8987   4.100   3.179   5.452
 2696SOL    HW2 8988   4.008   3.291   5.528
 2697SOL     OW 8989   4.294   1.660   4.148
 2697SOL    HW1 8990   4.341   1.697   4.067
 2697SOL    HW2 8991   4.199   1.640   4.125
 2698SOL     OW 8992   1.084   4.788   0.664
 2698SOL    HW1 8993   1.084   4.790   0.764
 2698SOL    HW2 8994   1.014   4.851   0.629
 2699SOL     OW 8995   3.512   5.375   0.292
 2699SOL    HW1 8996   3.451   5.318   0.236
 2699SOL    HW2 8997   3.463   5.404   0.374
 2700SOL     OW 8998   2.041   3.340   2.820
 2700SOL    HW1 8999   2.069   3.276   2.891
 2700SOL    HW2 9000   2.088   3.427   2.833
 2701SOL     OW 9001   4.142   0.514   6.733
 2701SOL    HW1 9002   4.188   0.477   6.814
 2701SOL    HW2 9003   4.089   0.595   6.759
 2702SOL     OW 9004   6.330   1.889   3.245
 2702SOL    HW1 9005   6.348   1.880   3.147
 2702SOL    HW2 9006   6.330   1.986   3.271
 2703SOL     OW 9007   3.015   1.007   2.935
 2703SOL    HW1 9008   2.988   0.973   3.025
 2703SOL    HW2 9009   3.000   1.105   2.931
 2704SOL     OW 9010   2.094   5.562   1.799
 2704SOL    HW1 9011   2.169   5.515   1.754
 2704SOL    HW2 9012   2.045   5.497   1.858
 2705SOL     OW 9013   6.922   5.065   3.974
 2705SOL    HW1 9014   6.948   5.039   3.881
 2705SOL    HW2 9015   6.945   4.991   4.037
 2706SOL     OW 9016   6.697   1.517   2.028
 2706SOL    HW1 9017   6.647   1.597   1.995
 2706SOL    HW2 9018   6.792   1.522   1.998
 2707SOL     OW 9019   2.271   0.436   7.016
 2707SOL    HW1 9020   2.290   0.471   0.087
 2707SOL    HW2 9021   2.282   0.336   7.015
 2708SOL     OW 9022   2.534   2.422   1.851
 2708SOL    HW1 9023   2.614   2.364   1.834
 2708SOL    HW2 9024   2.530   2.447   1.948
 2709SOL     OW 9025   4.893   6.230   1.093
 2709SOL    HW1 9026   4.901   6.204   0.997
 2709SOL    HW2 9027   4.978   6.209   1.141
 2710SOL     OW 9028   6.805   3.447   2.881
 2710SOL    HW1 9029   6.786   3.381   2.807
 2710SOL    HW2 9030   6.862   3.403   2.950
 2711SOL     OW 9031   1.650   0.109   2.396
 2711SOL    HW1 9032   1.643   0.207   2.416
 2711SOL    HW2 9033   1.559   0.069   2.395
 2712SOL     OW 9034   2.994   4.556   0.236
 2712SOL    HW1 9035   3.062   4.597   0.175
 2712SOL    HW2 9036   2.931   4.626   0.268
 2713SOL     OW 9037   2.074   2.688   4.840
 2713SOL    HW1 9038   2.098   2.755   4.910
 2713SOL    HW2 9039   2.084   2.595   4.877
 2714SOL     OW 9040   5.363   1.497   6.629
 2714SOL    HW1 9041   5.295   1.571   6.637
 2714SOL    HW2 9042   5.331   1.430   6.562
 2715SOL     OW 9043   5.765   0.513   0.033
 2715SOL    HW1 9044   5.665   0.507   0.025
 2715SOL    HW2 9045   5.807   0.479   6.970
 2716SOL     OW 9046   0.044   5.757   1.286
 2716SOL    HW1 9047   0.028   5.659   1.299
 2716SOL    HW2 9048   0.130   5.783   1.331
 2717SOL     OW 9049   0.802   5.748   1.918
 2717SOL    HW1 9050   0.778   5.699   1.834
 2717SOL    HW2 9051   0.895   5.785   1.910
 2718SOL     OW 9052   2.189   3.831   4.090
 2718SOL    HW1 9053   2.205   3.799   4.184
 2718SOL    HW2 9054   2.120   3.773   4.046
 2719SOL     OW 9055   4.425   4.710   2.017
 2719SOL    HW1 9056   4.518   4.687   2.044
 2719SOL    HW2 9057   4.384   4.771   2.086
 2720SOL     OW 9058   1.714   5.690   3.410
 2720SOL    HW1 9059   1.648   5.765   3.401
 2720SOL    HW2 9060   1.668   5.608   3.443
 2721SOL     OW 9061   2.650   0.368   4.849
 2721SOL    HW1 9062   2.664   0.388   4.946
 2721SOL    HW2 9063   2.735   0.385   4.799
 2722SOL     OW 9064   6.996   5.771   3.423
 2722SOL    HW1 9065   6.958   5.765   3.515
 2722SOL    HW2 9066   0.075   5.755   3.426
 2723SOL     OW 9067   2.405   0.796   5.763
 2723SOL    HW1 9068   2.348   0.722   5.797
 2723SOL    HW2 9069   2.359   0.884   5.781
 2724SOL     OW 9070   3.180   5.642   6.032
 2724SOL    HW1 9071   3.154   5.583   6.108
 2724SOL    HW2 9072   3.277   5.666   6.041
 2725SOL     OW 9073   5.147   4.692   3.294
 2725SOL    HW1 9074   5.107   4.710   3.204
 2725SOL    HW2 9075   5.227   4.634   3.284
 2726SOL     OW 9076   5.306   4.622   1.838
 2726SOL    HW1 9077   5.292   4.602   1.741
 2726SOL    HW2 9078   5.217   4.627   1.884
 2727SOL     OW 9079   0.764   5.085   2.982
 2727SOL    HW1 9080   0.728   5.174   2.956
 2727SOL    HW2 9081   0.732   5.015   2.918
 2728SOL     OW 9082   2.894   0.051   4.945
 2728SOL    HW1 9083   2.803   0.072   4.909
 2728SOL    HW2 9084   2.944   7.016   4.879
 2729SOL     OW 9085   6.249   5.873   2.613
 2729SOL    HW1 9086   6.287   5.903   2.701
 2729SOL    HW2 9087   6.302   5.795   2.579
 2730SOL     OW 9088   2.278   6.993   0.832
 2730SOL    HW1 9089   2.240   0.045   0.889
 2730SOL    HW2 9090   2.203   6.934   0.800
 2731SOL     OW 9091   2.871   3.650   1.497
 2731SOL    HW1 9092   2.810   3.690   1.428
 2731SOL    HW2 9093   2.909   3.565   1.463
 2732SOL     OW 9094   6.081   3.032   2.555
 2732SOL    HW1 9095   6.093   2.943   2.599
 2732SOL    HW2 9096   6.079   3.104   2.624
 2733SOL     OW 9097   1.136   6.785   5.931
 2733SOL    HW1 9098   1.156   6.706   5.872
 2733SOL    HW2 9099   1.207   6.854   5.919
 2734SOL     OW 9100   1.718   5.748   3.711
 2734SOL    HW1 9101   1.725   5.723   3.614
 2734SOL    HW2 9102   1.806   5.783   3.742
 2735SOL     OW 9103   0.924   4.110   3.020
 2735SOL    HW1 9104   0.847   4.152   2.972
 2735SOL    HW2 9105   0.983   4.181   3.056
 2736SOL     OW 9106   4.967   0.656   5.517
 2736SOL    HW1 9107   4.948   0.637   5.420
 2736SOL    HW2 9108   4.896   0.614   5.573
 2737SOL     OW 9109   3.377   3.274   6.219
 2737SOL    HW1 9110   3.425   3.264   6.132
 2737SOL    HW2 9111   3.279   3.263   6.205
 2738SOL     OW 9112   5.026   5.564   3.982
 2738SOL    HW1 9113   5.056   5.503   4.056
 2738SOL    HW2 9114   4.928   5.555   3.969
 2739SOL     OW 9115   5.752   4.435   0.667
 2739SOL    HW1 9116   5.822   4.480   0.723
 2739SOL    HW2 9117   5.675   4.408   0.724
 2740SOL     OW 9118   5.843   1.820   2.454
 2740SOL    HW1 9119   5.935   1.789   2.477
 2740SOL    HW2 9120   5.822   1.794   2.360
 2741SOL     OW 9121   7.019   1.748   5.861
 2741SOL    HW1 9122   0.064   1.673   5.870
 2741SOL    HW2 9123   6.937   1.715   5.814
 2742SOL     OW 9124   1.043   5.649   6.357
 2742SOL    HW1 9125   1.094   5.728   6.323
 2742SOL    HW2 9126   1.105   5.589   6.407
 2743SOL     OW 9127   5.778   5.975   1.517
 2743SOL    HW1 9128   5.763   5.955   1.421
 2743SOL    HW2 9129   5.690   5.991   1.562
 2744SOL     OW 9130   4.111   2.305   6.654
 2744SOL    HW1 9131   4.154   2.368   6.590
 2744SOL    HW2 9132   4.171   2.291   6.733
 2745SOL     OW 9133   1.571   6.104   0.728
 2745SOL    HW1 9134   1.515   6.187   0.726
 2745SOL    HW2 9135   1.657   6.123   0.776
 2746SOL     OW 9136   1.853   2.717   5.108
 2746SOL    HW1 9137   1.832   2.669   5.023
 2746SOL    HW2 9138   1.927   2.782   5.092
 2747SOL     OW 9139   5.676   5.301   5.172
 2747SOL    HW1 9140   5.626   5.364   5.113
 2747SOL    HW2 9141   5.732   5.354   5.236
 2748SOL     OW 9142   3.405   1.395   3.536
 2748SOL    HW1 9143   3.449   1.480   3.505
 2748SOL    HW2 9144   3.324   1.417   3.590
 2749SOL     OW 9145   5.573   4.320   4.049
 2749SOL    HW1 9146   5.646   4.356   3.990
 2749SOL    HW2 9147   5.489   4.373   4.033
 2750SOL     OW 9148   0.364   5.527   1.687
 2750SOL    HW1 9149   0.356   5.462   1.763
 2750SOL    HW2 9150   0.278   5.576   1.676
 2751SOL     OW 9151   1.781   6.745   0.935
 2751SOL    HW1 9152   1.718   6.823   0.927
 2751SOL    HW2 9153   1.729   6.660   0.939
 2752SOL     OW 9154   4.686   6.247   5.048
 2752SOL    HW1 9155   4.739   6.286   5.123
 2752SOL    HW2 9156   4.652   6.157   5.074
 2753SOL     OW 9157   3.287   5.605   6.314
 2753SOL    HW1 9158   3.310   5.701   6.298
 2753SOL    HW2 9159   3.337   5.547   6.250
 2754SOL     OW 9160   0.347   0.154   3.890
 2754SOL    HW1 9161   0.412   0.086   3.925
 2754SOL    HW2 9162   0.397   0.232   3.853
 2755SOL     OW 9163   2.788   6.508   3.294
 2755SOL    HW1 9164   2.858   6.438   3.305
 2755SOL    HW2 9165   2.747   6.499   3.203
 2756SOL     OW 9166   5.876   3.890   4.555
 2756SOL    HW1 9167   5.791   3.846   4.530
 2756SOL    HW2 9168   5.909   3.946   4.479
 2757SOL     OW 9169   3.658   2.315   6.907
 2757SOL    HW1 9170   3.581   2.361   6.950
 2757SOL    HW2 9171   3.683   2.235   6.961
 2758SOL     OW 9172   5.375   5.426   3.502
 2758SOL    HW1 9173   5.438   5.398   3.574
 2758SOL    HW2 9174   5.312   5.495   3.538
 2759SOL     OW 9175   3.514   4.440   5.642
 2759SOL    HW1 9176   3.480   4.491   5.563
 2759SOL    HW2 9177   3.536   4.504   5.716
 2760SOL     OW 9178   5.949   5.806   2.843
 2760SOL    HW1 9179   6.020   5.862   2.886
 2760SOL    HW2 9180   5.911   5.742   2.910
 2761SOL     OW 9181   1.700   3.680   2.936
 2761SOL    HW1 9182   1.625   3.665   3.000
 2761SOL    HW2 9183   1.748   3.594   2.920
 2762SOL     OW 9184   1.223   2.040   6.853
 2762SOL    HW1 9185   1.187   2.024   6.761
 2762SOL    HW2 9186   1.319   2.012   6.856
 2763SOL     OW 9187   4.738   1.684   6.232
 2763SOL    HW1 9188   4.819   1.716   6.182
 2763SOL    HW2 9189   4.667   1.754   6.227
 2764SOL     OW 9190   1.037   4.582   2.951
 2764SOL    HW1 9191   0.982   4.592   3.033
 2764SOL    HW2 9192   1.105   4.654   2.946
 2765SOL     OW 9193   6.302   6.817   6.967
 2765SOL    HW1 9194   6.211   6.785   6.993
 2765SOL    HW2 9195   6.315   6.910   7.000
 2766SOL     OW 9196   4.396   1.372   0.211
 2766SOL    HW1 9197   4.465   1.416   0.268
 2766SOL    HW2 9198   4.326   1.439   0.186
 2767SOL     OW 9199   5.783   5.877   5.858
 2767SOL    HW1 9200   5.774   5.786   5.818
 2767SOL    HW2 9201   5.869   5.883   5.909
 2768SOL     OW 9202   3.603   6.866   1.138
 2768SOL    HW1 9203   3.539   6.811   1.084
 2768SOL    HW2 9204   3.697   6.848   1.107
 2769SOL     OW 9205   1.922   4.027   5.688
 2769SOL    HW1 9206   2.003   3.968   5.678
 2769SOL    HW2 9207   1.843   3.983   5.645
 2770SOL     OW 9208   3.362   6.808   6.180
 2770SOL    HW1 9209   3.452   6.831   6.217
 2770SOL    HW2 9210   3.361   6.711   6.153
 2771SOL     OW 9211   5.674   6.858   4.076
 2771SOL    HW1 9212   5.658   6.761   4.061
 2771SOL    HW2 9213   5.700   6.873   4.172
 2772SOL     OW 9214   3.581   0.400   2.627
 2772SOL    HW1 9215   3.618   0.347   2.704
 2772SOL    HW2 9216   3.599   0.497   2.642
 2773SOL     OW 9217   0.663   3.020   4.714
 2773SOL    HW1 9218   0.593   3.053   4.777
 2773SOL    HW2 9219   0.648   3.059   4.624
 2774SOL     OW 9220   5.087   2.293   3.278
 2774SOL    HW1 9221   5.154   2.246   3.221
 2774SOL    HW2 9222   5.092   2.392   3.262
 2775SOL     OW 9223   0.092   3.885   3.969
 2775SOL    HW1 9224   0.046   3.834   3.896
 2775SOL    HW2 9225   0.190   3.862   3.967
 2776SOL     OW 9226   4.614   4.876   6.529
 2776SOL    HW1 9227   4.567   4.868   6.616
 2776SOL    HW2 9228   4.576   4.953   6.477
 2777SOL     OW 9229   2.643   2.176   5.866
 2777SOL    HW1 9230   2.635   2.118   5.947
 2777SOL    HW2 9231   2.556   2.221   5.848
 2778SOL     OW 9232   2.773   5.597   6.566
 2778SOL    HW1 9233   2.735   5.541   6.640
 2778SOL    HW2 9234   2.813   5.537   6.497
 2779SOL     OW 9235   5.613   6.437   2.120
 2779SOL    HW1 9236   5.598   6.488   2.036
 2779SOL    HW2 9237   5.599   6.339   2.103
 2780SOL     OW 9238   0.441   1.173   5.971
 2780SOL    HW1 9239   0.443   1.074   5.956
 2780SOL    HW2 9240   0.467   1.220   5.887
 2781SOL     OW 9241   6.692   0.889   2.214
 2781SOL    HW1 9242   6.667   0.979   2.251
 2781SOL    HW2 9243   6.610   0.843   2.181
 2782SOL     OW 9244   4.288   1.201   6.336
 2782SOL    HW1 9245   4.324   1.134   6.272
 2782SOL    HW2 9246   4.205   1.165   6.378
 2783SOL     OW 9247   6.358   3.424   1.814
 2783SOL    HW1 9248   6.276   3.480   1.804
 2783SOL    HW2 9249   6.339   3.349   1.877
 2784SOL     OW 9250   2.297   1.838   2.173
 2784SOL    HW1 9251   2.279   1.784   2.091
 2784SOL    HW2 9252   2.319   1.932   2.148
 2785SOL     OW 9253   4.842   2.715   1.599
 2785SOL    HW1 9254   4.886   2.627   1.618
 2785SOL    HW2 9255   4.761   2.725   1.657
 2786SOL     OW 9256   6.755   5.415   0.620
 2786SOL    HW1 9257   6.798   5.424   0.709
 2786SOL    HW2 9258   6.678   5.351   0.626
 2787SOL     OW 9259   6.144   5.961   5.663
 2787SOL    HW1 9260   6.057   5.925   5.627
 2787SOL    HW2 9261   6.209   5.886   5.674
 2788SOL     OW 9262   3.216   6.282   5.835
 2788SOL    HW1 9263   3.172   6.209   5.783
 2788SOL    HW2 9264   3.230   6.252   5.929
 2789SOL     OW 9265   1.407   2.847   3.977
 2789SOL    HW1 9266   1.461   2.841   4.061
 2789SOL    HW2 9267   1.392   2.755   3.941
 2790SOL     OW 9268   2.400   5.226   0.569
 2790SOL    HW1 9269   2.455   5.270   0.498
 2790SOL    HW2 9270   2.376   5.294   0.638
 2791SOL     OW 9271   6.901   3.655   2.254
 2791SOL    HW1 9272   6.850   3.622   2.333
 2791SOL    HW2 9273   6.991   3.612   2.252
 2792SOL     OW 9274   3.077   0.868   5.208
 2792SOL    HW1 9275   3.129   0.784   5.227
 2792SOL    HW2 9276   3.132   0.929   5.152
 2793SOL     OW 9277   4.098   4.009   1.242
 2793SOL    HW1 9278   4.040   4.006   1.324
 2793SOL    HW2 9279   4.057   4.069   1.174
 2794SOL     OW 9280   0.052   1.507   6.572
 2794SOL    HW1 9281   0.094   1.527   6.660
 2794SOL    HW2 9282   0.121   1.473   6.509
 2795SOL     OW 9283   0.136   4.863   0.962
 2795SOL    HW1 9284   0.155   4.943   0.904
 2795SOL    HW2 9285   0.206   4.793   0.946
 2796SOL     OW 9286   0.699   5.784   5.912
 2796SOL    HW1 9287   0.743   5.820   5.994
 2796SOL    HW2 9288   0.710   5.849   5.836
 2797SOL     OW 9289   5.629   6.475   4.646
 2797SOL    HW1 9290   5.592   6.406   4.709
 2797SOL    HW2 9291   5.648   6.432   4.557
 2798SOL     OW 9292   6.584   6.767   2.054
 2798SOL    HW1 9293   6.572   6.836   1.983
 2798SOL    HW2 9294   6.646   6.803   2.124
 2799SOL     OW 9295   4.333   5.638   4.919
 2799SOL    HW1 9296   4.283   5.578   4.983
 2799SOL    HW2 9297   4.294   5.730   4.923
 2800SOL     OW 9298   6.159   0.489   0.142
 2800SOL    HW1 9299   6.191   0.437   0.064
 2800SOL    HW2 9300   6.107   0.568   0.111
 2801SOL     OW 9301   0.211   4.892   5.923
 2801SOL    HW1 9302   0.164   4.952   5.988
 2801SOL    HW2 9303   0.234   4.944   5.841
 2802SOL     OW 9304   6.249   6.686   5.413
 2802SOL    HW1 9305   6.175   6.672   5.347
 2802SOL    HW2 9306   6.336   6.689   5.365
 2803SOL     OW 9307   3.583   3.013   6.080
 2803SOL    HW1 9308   3.604   2.946   6.009
 2803SOL    HW2 9309   3.592   3.106   6.042
 2804SOL     OW 9310   0.554   2.780   3.949
 2804SOL    HW1 9311   0.526   2.792   4.044
 2804SOL    HW2 9312   0.513   2.697   3.912
 2805SOL     OW 9313   4.706   3.768   1.624
 2805SOL    HW1 9314   4.705   3.867   1.638
 2805SOL    HW2 9315   4.620   3.739   1.582
 2806SOL     OW 9316   1.517   3.929   5.969
 2806SOL    HW1 9317   1.490   4.017   5.929
 2806SOL    HW2 9318   1.520   3.859   5.897
 2807SOL     OW 9319   2.912   0.458   2.794
 2807SOL    HW1 9320   2.827   0.496   2.756
 2807SOL    HW2 9321   2.901   0.360   2.810
 2808SOL     OW 9322   6.258   5.696   0.530
 2808SOL    HW1 9323   6.306   5.682   0.443
 2808SOL    HW2 9324   6.179   5.756   0.515
 2809SOL     OW 9325   6.214   4.921   2.419
 2809SOL    HW1 9326   6.165   4.952   2.500
 2809SOL    HW2 9327   6.294   4.868   2.447
 2810SOL     OW 9328   2.441   5.901   3.689
 2810SOL    HW1 9329   2.455   5.927   3.594
 2810SOL    HW2 9330   2.529   5.889   3.735
 2811SOL     OW 9331   0.469   0.051   2.209
 2811SOL    HW1 9332   0.509   0.143   2.208
 2811SOL    HW2 9333   0.433   0.032   2.300
 2812SOL     OW 9334   0.730   3.229   1.216
 2812SOL    HW1 9335   0.788   3.229   1.135
 2812SOL    HW2 9336   0.638   3.200   1.191
 2813SOL     OW 9337   0.360   1.609   0.942
 2813SOL    HW1 9338   0.393   1.575   1.030
 2813SOL    HW2 9339   0.413   1.689   0.914
 2814SOL     OW 9340   2.293   4.351   0.098
 2814SOL    HW1 9341   2.247   4.407   0.030
 2814SOL    HW2 9342   2.378   4.395   0.126
 2815SOL     OW 9343   0.379   5.686   5.010
 2815SOL    HW1 9344   0.395   5.702   5.108
 2815SOL    HW2 9345   0.453   5.727   4.957
 2816SOL     OW 9346   6.999   5.988   5.558
 2816SOL    HW1 9347   0.058   5.960   5.611
 2816SOL    HW2 9348   7.018   6.074   5.511
 2817SOL     OW 9349   3.706   0.292   1.969
 2817SOL    HW1 9350   3.757   0.375   1.992
 2817SOL    HW2 9351   3.610   0.304   1.991
 2818SOL     OW 9352   2.008   0.590   1.556
 2818SOL    HW1 9353   1.934   0.611   1.491
 2818SOL    HW2 9354   2.056   0.508   1.526
 2819SOL     OW 9355   0.645   0.011   0.565
 2819SOL    HW1 9356   0.652   0.044   0.659
 2819SOL    HW2 9357   0.602   6.941   0.565
 2820SOL     OW 9358   0.909   2.342   1.890
 2820SOL    HW1 9359   0.827   2.378   1.936
 2820SOL    HW2 9360   0.988   2.396   1.918
 2821SOL     OW 9361   3.556   4.272   6.378
 2821SOL    HW1 9362   3.602   4.351   6.420
 2821SOL    HW2 9363   3.620   4.196   6.370
 2822SOL     OW 9364   3.780   2.673   0.682
 2822SOL    HW1 9365   3.705   2.736   0.662
 2822SOL    HW2 9366   3.813   2.689   0.775
 2823SOL     OW 9367   5.129   1.132   0.763
 2823SOL    HW1 9368   5.031   1.142   0.745
 2823SOL    HW2 9369   5.149   1.165   0.856
 2824SOL     OW 9370   0.983   3.683   5.848
 2824SOL    HW1 9371   1.043   3.673   5.769
 2824SOL    HW2 9372   0.929   3.766   5.839
 2825SOL     OW 9373   5.327   1.615   6.300
 2825SOL    HW1 9374   5.236   1.631   6.339
 2825SOL    HW2 9375   5.327   1.643   6.204
 2826SOL     OW 9376   0.972   3.571   6.082
 2826SOL    HW1 9377   0.991   3.584   5.985
 2826SOL    HW2 9378   1.042   3.510   6.121
 2827SOL     OW 9379   0.016   0.994   6.388
 2827SOL    HW1 9380   6.941   1.022   6.397
 2827SOL    HW2 9381   0.052   1.028   6.301
 2828SOL     OW 9382   0.982   3.537   1.097
 2828SOL    HW1 9383   1.048   3.499   1.161
 2828SOL    HW2 9384   0.955   3.467   1.031
 2829SOL     OW 9385   3.636   4.118   3.613
 2829SOL    HW1 9386   3.548   4.083   3.644
 2829SOL    HW2 9387   3.693   4.141   3.692
 2830SOL     OW 9388   4.164   5.645   6.178
 2830SOL    HW1 9389   4.241   5.703   6.204
 2830SOL    HW2 9390   4.156   5.570   6.243
 2831SOL     OW 9391   0.180   2.368   2.178
 2831SOL    HW1 9392   0.251   2.299   2.163
 2831SOL    HW2 9393   0.164   2.418   2.093
 2832SOL     OW 9394   0.765   3.415   1.403
 2832SOL    HW1 9395   0.751   3.349   1.329
 2832SOL    HW2 9396   0.858   3.405   1.440
 2833SOL     OW 9397   2.220   1.270   1.916
 2833SOL    HW1 9398   2.216   1.256   1.817
 2833SOL    HW2 9399   2.277   1.200   1.958
 2834SOL     OW 9400   4.391   6.066   4.933
 2834SOL    HW1 9401   4.428   6.128   5.002
 2834SOL    HW2 9402   4.464   6.004   4.902
 2835SOL     OW 9403   0.856   6.190   0.616
 2835SOL    HW1 9404   0.910   6.166   0.535
 2835SOL    HW2 9405   0.775   6.132   0.620
 2836SOL     OW 9406   3.341   6.491   2.981
 2836SOL    HW1 9407   3.423   6.521   2.931
 2836SOL    HW2 9408   3.305   6.567   3.035
 2837SOL     OW 9409   5.796   3.899   2.373
 2837SOL    HW1 9410   5.888   3.870   2.400
 2837SOL    HW2 9411   5.778   3.869   2.279
 2838SOL     OW 9412   4.990   3.726   6.183
 2838SOL    HW1 9413   4.919   3.689   6.242
 2838SOL    HW2 9414   4.950   3.755   6.096
 2839SOL     OW 9415   6.211   3.585   4.515
 2839SOL    HW1 9416   6.295   3.542   4.483
 2839SOL    HW2 9417   6.144   3.589   4.441
 2840SOL     OW 9418   0.306   5.967   2.606
 2840SOL    HW1 9419   0.285   5.881   2.559
 2840SOL    HW2 9420   0.255   5.971   2.692
 2841SOL     OW 9421   6.082   2.502   1.585
 2841SOL    HW1 9422   6.151   2.494   1.657
 2841SOL    HW2 9423   6.127   2.510   1.496
 2842SOL     OW 9424   1.481   6.537   4.475
 2842SOL    HW1 9425   1.573   6.499   4.489
 2842SOL    HW2 9426   1.443   6.500   4.390
 2843SOL     OW 9427   2.201   2.940   3.167
 2843SOL    HW1 9428   2.258   2.858   3.157
 2843SOL    HW2 9429   2.229   2.991   3.248
 2844SOL     OW 9430   4.781   4.885   0.588
 2844SOL    HW1 9431   4.726   4.964   0.615
 2844SOL    HW2 9432   4.877   4.912   0.580
 2845SOL     OW 9433   4.400   2.405   3.204
 2845SOL    HW1 9434   4.437   2.498   3.199
 2845SOL    HW2 9435   4.431   2.361   3.288
 2846SOL     OW 9436   4.951   0.675   0.022
 2846SOL    HW1 9437   4.928   0.760   6.997
 2846SOL    HW2 9438   4.934   0.684   0.120
 2847SOL     OW 9439   4.720   4.403   2.200
 2847SOL    HW1 9440   4.654   4.399   2.275
 2847SOL    HW2 9441   4.675   4.380   2.114
 2848SOL     OW 9442   0.666   3.122   5.169
 2848SOL    HW1 9443   0.661   3.026   5.197
 2848SOL    HW2 9444   0.706   3.175   5.243
 2849SOL     OW 9445   3.356   0.285   2.483
 2849SOL    HW1 9446   3.440   0.291   2.536
 2849SOL    HW2 9447   3.365   0.212   2.414
 2850SOL     OW 9448   2.520   6.997   2.720
 2850SOL    HW1 9449   2.602   6.962   2.765
 2850SOL    HW2 9450   2.546   0.028   2.639
 2851SOL     OW 9451   4.302   3.207   0.832
 2851SOL    HW1 9452   4.356   3.207   0.748
 2851SOL    HW2 9453   4.246   3.124   0.836
 2852SOL     OW 9454   6.595   4.232   5.939
 2852SOL    HW1 9455   6.637   4.144   5.919
 2852SOL    HW2 9456   6.558   4.231   6.032
 2853SOL     OW 9457   0.101   3.887   0.288
 2853SOL    HW1 9458   0.005   3.908   0.309
 2853SOL    HW2 9459   0.108   3.859   0.193
 2854SOL     OW 9460   2.938   1.522   6.379
 2854SOL    HW1 9461   2.853   1.574   6.384
 2854SOL    HW2 9462   2.920   1.432   6.338
 2855SOL     OW 9463   1.657   1.717   4.580
 2855SOL    HW1 9464   1.650   1.798   4.638
 2855SOL    HW2 9465   1.618   1.737   4.490
 2856SOL     OW 9466   1.396   3.990   2.791
 2856SOL    HW1 9467   1.455   4.035   2.724
 2856SOL    HW2 9468   1.427   4.013   2.884
 2857SOL     OW 9469   0.544   3.159   1.017
 2857SOL    HW1 9470   0.542   3.176   0.918
 2857SOL    HW2 9471   0.450   3.158   1.052
 2858SOL     OW 9472   4.526   5.072   2.709
 2858SOL    HW1 9473   4.464   5.035   2.779
 2858SOL    HW2 9474   4.604   5.011   2.698
 2859SOL     OW 9475   5.196   5.909   1.292
 2859SOL    HW1 9476   5.288   5.933   1.323
 2859SOL    HW2 9477   5.131   5.925   1.366
 2860SOL     OW 9478   1.374   6.086   1.424
 2860SOL    HW1 9479   1.320   6.159   1.382
 2860SOL    HW2 9480   1.449   6.061   1.363
 2861SOL     OW 9481   3.913   4.728   6.393
 2861SOL    HW1 9482   3.948   4.660   6.329
 2861SOL    HW2 9483   3.911   4.689   6.485
 2862SOL     OW 9484   4.430   3.487   1.266
 2862SOL    HW1 9485   4.429   3.390   1.293
 2862SOL    HW2 9486   4.400   3.495   1.171
 2863SOL     OW 9487   6.121   0.049   5.774
 2863SOL    HW1 9488   6.084   0.049   5.867
 2863SOL    HW2 9489   6.075   6.999   5.720
 2864SOL     OW 9490   3.937   3.242   1.582
 2864SOL    HW1 9491   3.853   3.289   1.608
 2864SOL    HW2 9492   3.918   3.146   1.566
 2865SOL     OW 9493   5.126   6.042   4.558
 2865SOL    HW1 9494   5.079   6.130   4.570
 2865SOL    HW2 9495   5.075   5.970   4.604
 2866SOL     OW 9496   5.092   4.240   6.411
 2866SOL    HW1 9497   5.064   4.184   6.332
 2866SOL    HW2 9498   5.034   4.217   6.489
 2867SOL     OW 9499   6.109   6.715   1.869
 2867SOL    HW1 9500   6.070   6.644   1.928
 2867SOL    HW2 9501   6.208   6.707   1.868
 2868SOL     OW 9502   1.542   1.132   6.017
 2868SOL    HW1 9503   1.570   1.227   6.026
 2868SOL    HW2 9504   1.607   1.083   5.959
 2869SOL     OW 9505   5.454   6.227   3.857
 2869SOL    HW1 9506   5.485   6.222   3.762
 2869SOL    HW2 9507   5.383   6.158   3.872
 2870SOL     OW 9508   1.318   1.669   1.290
 2870SOL    HW1 9509   1.350   1.630   1.377
 2870SOL    HW2 9510   1.286   1.595   1.231
 2871SOL     OW 9511   6.677   2.101   1.597
 2871SOL    HW1 9512   6.634   2.165   1.533
 2871SOL    HW2 9513   6.634   2.011   1.589
 2872SOL     OW 9514   2.872   1.670   2.660
 2872SOL    HW1 9515   2.824   1.755   2.682
 2872SOL    HW2 9516   2.817   1.617   2.595
 2873SOL     OW 9517   0.662   5.931   1.241
 2873SOL    HW1 9518   0.601   5.880   1.180
 2873SOL    HW2 9519   0.701   6.009   1.192
 2874SOL     OW 9520   2.542   0.733   2.810
 2874SOL    HW1 9521   2.501   0.775   2.890
 2874SOL    HW2 9522   2.626   0.781   2.786
 2875SOL     OW 9523   2.766   7.001   2.276
 2875SOL    HW1 9524   2.835   0.050   2.257
 2875SOL    HW2 9525   2.701   0.016   2.343
 2876SOL     OW 9526   1.623   6.371   1.965
 2876SOL    HW1 9527   1.665   6.315   1.893
 2876SOL    HW2 9528   1.693   6.396   2.032
 2877SOL     OW 9529   1.600   0.985   5.690
 2877SOL    HW1 9530   1.656   1.060   5.654
 2877SOL    HW2 9531   1.531   1.023   5.752
 2878SOL     OW 9532   3.821   2.942   5.048
 2878SOL    HW1 9533   3.891   2.889   5.095
 2878SOL    HW2 9534   3.790   2.893   4.967
 2879SOL     OW 9535   4.051   4.332   5.622
 2879SOL    HW1 9536   3.960   4.313   5.659
 2879SOL    HW2 9537   4.104   4.247   5.621
 2880SOL     OW 9538   1.023   2.074   3.953
 2880SOL    HW1 9539   0.989   2.161   3.988
 2880SOL    HW2 9540   1.065   2.022   4.027
 2881SOL     OW 9541   3.277   6.190   6.420
 2881SOL    HW1 9542   3.208   6.118   6.407
 2881SOL    HW2 9543   3.286   6.209   6.518
 2882SOL     OW 9544   4.576   6.352   7.011
 2882SOL    HW1 9545   4.509   6.309   0.051
 2882SOL    HW2 9546   4.543   6.441   6.982
 2883SOL     OW 9547   6.028   6.527   3.178
 2883SOL    HW1 9548   5.979   6.611   3.201
 2883SOL    HW2 9549   6.045   6.525   3.080
 2884SOL     OW 9550   6.692   5.686   2.668
 2884SOL    HW1 9551   6.669   5.601   2.715
 2884SOL    HW2 9552   6.640   5.761   2.709
 2885SOL     OW 9553   1.231   3.166   2.730
 2885SOL    HW1 9554   1.305   3.102   2.751
 2885SOL    HW2 9555   1.264   3.233   2.663
 2886SOL     OW 9556   2.761   4.397   6.412
 2886SOL    HW1 9557   2.809   4.329   6.467
 2886SOL    HW2 9558   2.779   4.381   6.315
 2887SOL     OW 9559   0.741   6.743   4.315
 2887SOL    HW1 9560   0.693   6.735   4.402
 2887SOL    HW2 9561   0.675   6.761   4.242
 2888SOL     OW 9562   6.640   6.208   0.462
 2888SOL    HW1 9563   6.545   6.223   0.486
 2888SOL    HW2 9564   6.646   6.168   0.371
 2889SOL     OW 9565   2.951   6.998   3.074
 2889SOL    HW1 9566   2.912   7.000   3.166
 2889SOL    HW2 9567   3.018   6.924   3.068
 2890SOL     OW 9568   1.752   6.707   1.337
 2890SOL    HW1 9569   1.817   6.752   1.276
 2890SOL    HW2 9570   1.785   6.616   1.361
 2891SOL     OW 9571   6.716   3.244   2.624
 2891SOL    HW1 9572   6.751   3.182   2.693
 2891SOL    HW2 9573   6.616   3.236   2.620
 2892SOL     OW 9574   6.126   4.030   0.869
 2892SOL    HW1 9575   6.206   4.023   0.809
 2892SOL    HW2 9576   6.081   4.118   0.855
 2893SOL     OW 9577   0.601   5.553   4.714
 2893SOL    HW1 9578   0.606   5.553   4.614
 2893SOL    HW2 9579   0.549   5.473   4.745
 2894SOL     OW 9580   1.240   4.949   1.874
 2894SOL    HW1 9581   1.206   4.866   1.918
 2894SOL    HW2 9582   1.340   4.952   1.881
 2895SOL     OW 9583   3.696   0.060   6.027
 2895SOL    HW1 9584   3.754   7.016   5.978
 2895SOL    HW2 9585   3.686   0.144   5.974
 2896SOL     OW 9586   5.401   6.347   5.218
 2896SOL    HW1 9587   5.472   6.277   5.223
 2896SOL    HW2 9588   5.436   6.426   5.167
 2897SOL     OW 9589   3.110   5.139   3.168
 2897SOL    HW1 9590   3.114   5.052   3.119
 2897SOL    HW2 9591   3.020   5.148   3.211
 2898SOL     OW 9592   5.743   4.402   2.175
 2898SOL    HW1 9593   5.818   4.385   2.239
 2898SOL    HW2 9594   5.756   4.347   2.093
 2899SOL     OW 9595   6.754   2.381   0.885
 2899SOL    HW1 9596   6.767   2.397   0.983
 2899SOL    HW2 9597   6.842   2.358   0.843
 2900SOL     OW 9598   3.067   3.832   6.753
 2900SOL    HW1 9599   3.159   3.836   6.714
 2900SOL    HW2 9600   3.003   3.879   6.692
 2901SOL     OW 9601   1.761   4.413   3.297
 2901SOL    HW1 9602   1.846   4.435   3.344
 2901SOL    HW2 9603   1.773   4.330   3.242
 2902SOL     OW 9604   0.553   5.602   3.901
 2902SOL    HW1 9605   0.513   5.674   3.844
 2902SOL    HW2 9606   0.550   5.630   3.997
 2903SOL     OW 9607   4.234   5.948   0.496
 2903SOL    HW1 9608   4.313   5.904   0.539
 2903SOL    HW2 9609   4.261   5.983   0.406
 2904SOL     OW 9610   2.654   4.440   5.312
 2904SOL    HW1 9611   2.729   4.480   5.261
 2904SOL    HW2 9612   2.678   4.346   5.338
 2905SOL     OW 9613   1.016   4.427   2.309
 2905SOL    HW1 9614   0.931   4.478   2.295
 2905SOL    HW2 9615   0.994   4.334   2.341
 2906SOL     OW 9616   5.552   5.929   3.083
 2906SOL    HW1 9617   5.574   5.883   3.168
 2906SOL    HW2 9618   5.535   6.026   3.101
 2907SOL     OW 9619   0.920   0.524   3.566
 2907SOL    HW1 9620   1.001   0.543   3.511
 2907SOL    HW2 9621   0.948   0.476   3.650
 2908SOL     OW 9622   5.018   0.063   3.256
 2908SOL    HW1 9623   5.066   6.996   3.266
 2908SOL    HW2 9624   5.082   0.138   3.277
 2909SOL     OW 9625   1.150   5.766   2.061
 2909SOL    HW1 9626   1.108   5.676   2.049
 2909SOL    HW2 9627   1.123   5.826   1.986
 2910SOL     OW 9628   0.225   1.114   3.296
 2910SOL    HW1 9629   0.190   1.145   3.385
 2910SOL    HW2 9630   0.186   1.025   3.274
 2911SOL     OW 9631   6.522   4.469   3.673
 2911SOL    HW1 9632   6.586   4.418   3.731
 2911SOL    HW2 9633   6.574   4.526   3.609
 2912SOL     OW 9634   6.666   6.479   0.410
 2912SOL    HW1 9635   6.653   6.382   0.430
 2912SOL    HW2 9636   6.609   6.534   0.470
 2913SOL     OW 9637   1.934   5.146   1.573
 2913SOL    HW1 9638   1.961   5.182   1.483
 2913SOL    HW2 9639   1.866   5.074   1.561
 2914SOL     OW 9640   5.678   4.742   0.608
 2914SOL    HW1 9641   5.715   4.714   0.520
 2914SOL    HW2 9642   5.603   4.807   0.594
 2915SOL     OW 9643   3.718   1.830   2.797
 2915SOL    HW1 9644   3.771   1.909   2.767
 2915SOL    HW2 9645   3.621   1.855   2.803
 2916SOL     OW 9646   2.358   5.560   0.415
 2916SOL    HW1 9647   2.306   5.533   0.334
 2916SOL    HW2 9648   2.365   5.660   0.419
 2917SOL     OW 9649   2.448   0.024   3.220
 2917SOL    HW1 9650   2.475   7.000   3.135
 2917SOL    HW2 9651   2.449   0.123   3.208
 2918SOL     OW 9652   5.987   4.271   0.853
 2918SOL    HW1 9653   6.015   4.366   0.863
 2918SOL    HW2 9654   5.895   4.258   0.891
 2919SOL     OW 9655   0.666   6.453   4.521
 2919SOL    HW1 9656   0.741   6.392   4.548
 2919SOL    HW2 9657   0.676   6.541   4.567
 2920SOL     OW 9658   1.665   0.603   1.988
 2920SOL    HW1 9659   1.583   0.589   2.043
 2920SOL    HW2 9660   1.642   0.595   1.891
 2921SOL     OW 9661   6.980   0.332   5.512
 2921SOL    HW1 9662   6.885   0.313   5.489
 2921SOL    HW2 9663   0.001   0.388   5.440
 2922SOL     OW 9664   4.546   0.926   3.457
 2922SOL    HW1 9665   4.603   0.871   3.518
 2922SOL    HW2 9666   4.455   0.885   3.450
 2923SOL     OW 9667   6.323   4.926   4.974
 2923SOL    HW1 9668   6.357   4.833   4.987
 2923SOL    HW2 9669   6.308   4.969   5.062
 2924SOL     OW 9670   6.953   2.175   5.339
 2924SOL    HW1 9671   0.007   2.162   5.273
 2924SOL    HW2 9672   6.919   2.269   5.331
 2925SOL     OW 9673   5.544   1.133   5.705
 2925SOL    HW1 9674   5.481   1.057   5.724
 2925SOL    HW2 9675   5.568   1.178   5.790
 2926SOL     OW 9676   0.586   1.561   4.818
 2926SOL    HW1 9677   0.604   1.647   4.866
 2926SOL    HW2 9678   0.488   1.549   4.806
 2927SOL     OW 9679   1.848   2.726   1.685
 2927SOL    HW1 9680   1.880   2.820   1.684
 2927SOL    HW2 9681   1.748   2.724   1.683
 2928SOL     OW 9682   6.499   1.963   6.928
 2928SOL    HW1 9683   6.432   1.955   7.001
 2928SOL    HW2 9684   6.563   2.038   6.948
 2929SOL     OW 9685   2.043   2.393   4.708
 2929SOL    HW1 9686   2.087   2.326   4.649
 2929SOL    HW2 9687   1.997   2.346   4.783
 2930SOL     OW 9688   6.630   5.667   4.969
 2930SOL    HW1 9689   6.628   5.739   5.037
 2930SOL    HW2 9690   6.716   5.672   4.918
 2931SOL     OW 9691   4.104   4.018   6.574
 2931SOL    HW1 9692   4.097   4.092   6.507
 2931SOL    HW2 9693   4.077   3.932   6.531
 2932SOL     OW 9694   6.739   5.896   0.921
 2932SOL    HW1 9695   6.676   5.945   0.981
 2932SOL    HW2 9696   6.786   5.960   0.861
 2933SOL     OW 9697   0.883   6.852   1.003
 2933SOL    HW1 9698   0.979   6.829   1.019
 2933SOL    HW2 9699   0.837   6.863   1.091
 2934SOL     OW 9700   4.113   3.368   0.676
 2934SOL    HW1 9701   4.191   3.315   0.709
 2934SOL    HW2 9702   4.054   3.392   0.753
 2935SOL     OW 9703   0.317   2.511   6.389
 2935SOL    HW1 9704   0.351   2.583   6.329
 2935SOL    HW2 9705   0.339   2.422   6.350
 2936SOL     OW 9706   4.711   0.697   0.563
 2936SOL    HW1 9707   4.809   0.701   0.544
 2936SOL    HW2 9708   4.696   0.705   0.662
 2937SOL     OW 9709   4.053   5.546   1.522
 2937SOL    HW1 9710   4.089   5.456   1.497
 2937SOL    HW2 9711   4.009   5.541   1.612
 2938SOL     OW 9712   6.484   6.337   6.359
 2938SOL    HW1 9713   6.518   6.352   6.266
 2938SOL    HW2 9714   6.461   6.241   6.372
 2939SOL     OW 9715   0.094   5.596   1.719
 2939SOL    HW1 9716   7.020   5.565   1.723
 2939SOL    HW2 9717   0.097   5.695   1.736
 2940SOL     OW 9718   5.699   6.005   4.119
 2940SOL    HW1 9719   5.713   5.913   4.082
 2940SOL    HW2 9720   5.601   6.022   4.131
 2941SOL     OW 9721   1.894   3.331   3.397
 2941SOL    HW1 9722   1.916   3.235   3.382
 2941SOL    HW2 9723   1.796   3.346   3.388
 2942SOL     OW 9724   2.653   1.229   6.968
 2942SOL    HW1 9725   2.623   1.173   0.024
 2942SOL    HW2 9726   2.607   1.317   6.971
 2943SOL     OW 9727   6.152   4.268   3.495
 2943SOL    HW1 9728   6.249   4.262   3.469
 2943SOL    HW2 9729   6.116   4.176   3.509
 2944SOL     OW 9730   2.745   6.168   4.198
 2944SOL    HW1 9731   2.789   6.241   4.250
 2944SOL    HW2 9732   2.687   6.114   4.260
 2945SOL     OW 9733   5.378   4.404   1.391
 2945SOL    HW1 9734   5.329   4.329   1.435
 2945SOL    HW2 9735   5.432   4.368   1.315
 2946SOL     OW 9736   3.191   4.030   6.093
 2946SOL    HW1 9737   3.122   4.070   6.032
 2946SOL    HW2 9738   3.186   3.930   6.089
 2947SOL     OW 9739   5.983   6.256   0.885
 2947SOL    HW1 9740   5.961   6.188   0.955
 2947SOL    HW2 9741   5.961   6.219   0.795
 2948SOL     OW 9742   5.702   4.409   3.056
 2948SOL    HW1 9743   5.763   4.460   3.117
 2948SOL    HW2 9744   5.725   4.430   2.961
 2949SOL     OW 9745   1.216   6.729   1.269
 2949SOL    HW1 9746   1.282   6.792   1.229
 2949SOL    HW2 9747   1.131   6.777   1.288
 2950SOL     OW 9748   4.704   4.695   2.698
 2950SOL    HW1 9749   4.738   4.647   2.617
 2950SOL    HW2 9750   4.739   4.651   2.780
 2951SOL     OW 9751   5.679   0.881   1.304
 2951SOL    HW1 9752   5.616   0.951   1.337
 2951SOL    HW2 9753   5.627   0.811   1.255
 2952SOL     OW 9754   5.971   0.945   4.451
 2952SOL    HW1 9755   5.909   0.930   4.374
 2952SOL    HW2 9756   6.065   0.954   4.418
 2953SOL     OW 9757   0.722   6.092   3.234
 2953SOL    HW1 9758   0.773   6.015   3.272
 2953SOL    HW2 9759   0.753   6.109   3.140
 2954SOL     OW 9760   1.129   4.272   6.336
 2954SOL    HW1 9761   1.213   4.233   6.373
 2954SOL    HW2 9762   1.070   4.302   6.411
 2955SOL     OW 9763   1.392   3.933   0.085
 2955SOL    HW1 9764   1.293   3.917   0.083
 2955SOL    HW2 9765   1.440   3.845   0.083
 2956SOL     OW 9766   6.702   4.380   3.919
 2956SOL    HW1 9767   6.766   4.304   3.928
 2956SOL    HW2 9768   6.692   4.427   4.007
 2957SOL     OW 9769   2.757   4.979   1.660
 2957SOL    HW1 9770   2.701   4.993   1.578
 2957SOL    HW2 9771   2.808   4.894   1.651
 2958SOL     OW 9772   1.890   5.100   3.182
 2958SOL    HW1 9773   1.875   5.056   3.271
 2958SOL    HW2 9774   1.988   5.106   3.163
 2959SOL     OW 9775   6.134   2.404   2.793
 2959SOL    HW1 9776   6.224   2.443   2.811
 2959SOL    HW2 9777   6.079   2.407   2.876
 2960SOL     OW 9778   4.059   0.708   0.360
 2960SOL    HW1 9779   4.106   0.778   0.414
 2960SOL    HW2 9780   4.036   0.630   0.419
 2961SOL     OW 9781   5.590   4.111   2.210
 2961SOL    HW1 9782   5.598   4.210   2.224
 2961SOL    HW2 9783   5.537   4.071   2.284
 2962SOL     OW 9784   6.449   6.625   2.507
 2962SOL    HW1 9785   6.461   6.724   2.504
 2962SOL    HW2 9786   6.360   6.601   2.467
 2963SOL     OW 9787   1.228   0.791   5.681
 2963SOL    HW1 9788   1.317   0.756   5.710
 2963SOL    HW2 9789   1.162   0.716   5.676
 2964SOL     OW 9790   0.856   2.876   6.886
 2964SOL    HW1 9791   0.807   2.798   6.924
 2964SOL    HW2 9792   0.846   2.954   6.948
 2965SOL     OW 9793   0.929   0.501   4.689
 2965SOL    HW1 9794   0.908   0.404   4.703
 2965SOL    HW2 9795   0.874   0.537   4.614
 2966SOL     OW 9796   4.078   5.759   3.645
 2966SOL    HW1 9797   4.072   5.668   3.604
 2966SOL    HW2 9798   3.987   5.789   3.673
 2967SOL     OW 9799   6.455   1.042   5.805
 2967SOL    HW1 9800   6.514   0.981   5.752
 2967SOL    HW2 9801   6.479   1.137   5.785
 2968SOL     OW 9802   2.058   2.450   1.255
 2968SOL    HW1 9803   2.071   2.353   1.277
 2968SOL    HW2 9804   2.111   2.506   1.318
 2969SOL     OW 9805   5.221   3.855   4.763
 2969SOL    HW1 9806   5.139   3.802   4.787
 2969SOL    HW2 9807   5.255   3.902   4.844
 2970SOL     OW 9808   2.132   2.869   5.047
 2970SOL    HW1 9809   2.073   2.947   5.024
 2970SOL    HW2 9810   2.228   2.896   5.041
 2971SOL     OW 9811   5.532   3.936   0.070
 2971SOL    HW1 9812   5.473   3.911   0.147
 2971SOL    HW2 9813   5.622   3.892   0.082
 2972SOL     OW 9814   5.962   5.568   6.076
 2972SOL    HW1 9815   6.031   5.496   6.067
 2972SOL    HW2 9816   5.912   5.555   6.162
 2973SOL     OW 9817   5.217   6.712   2.041
 2973SOL    HW1 9818   5.274   6.735   2.119
 2973SOL    HW2 9819   5.212   6.612   2.031
 2974SOL     OW 9820   5.782   4.958   3.743
 2974SOL    HW1 9821   5.698   4.946   3.797
 2974SOL    HW2 9822   5.770   4.914   3.653
 2975SOL     OW 9823   4.812   4.615   4.253
 2975SOL    HW1 9824   4.779   4.622   4.347
 2975SOL    HW2 9825   4.765   4.682   4.196
 2976SOL     OW 9826   4.889   2.254   2.518
 2976SOL    HW1 9827   4.979   2.227   2.483
 2976SOL    HW2 9828   4.876   2.352   2.505
 2977SOL     OW 9829   0.213   0.164   1.733
 2977SOL    HW1 9830   0.287   0.206   1.786
 2977SOL    HW2 9831   0.180   0.228   1.664
 2978SOL     OW 9832   4.169   4.416   5.957
 2978SOL    HW1 9833   4.228   4.490   5.923
 2978SOL    HW2 9834   4.196   4.392   6.050
 2979SOL     OW 9835   2.868   1.617   4.666
 2979SOL    HW1 9836   2.891   1.673   4.586
 2979SOL    HW2 9837   2.928   1.642   4.742
 2980SOL     OW 9838   3.962   3.882   6.221
 2980SOL    HW1 9839   3.897   3.814   6.188
 2980SOL    HW2 9840   3.954   3.965   6.165
 2981SOL     OW 9841   2.015   0.913   1.001
 2981SOL    HW1 9842   2.087   0.944   0.939
 2981SOL    HW2 9843   1.933   0.890   0.949
 2982SOL     OW 9844   1.529   6.715   2.263
 2982SOL    HW1 9845   1.464   6.690   2.191
 2982SOL    HW2 9846   1.489   6.787   2.320
 2983SOL     OW 9847   6.266   3.141   0.114
 2983SOL    HW1 9848   6.266   3.059   0.056
 2983SOL    HW2 9849   6.182   3.143   0.168
 2984SOL     OW 9850   6.357   4.928   7.013
 2984SOL    HW1 9851   6.411   5.010   0.015
 2984SOL    HW2 9852   6.268   4.956   6.979
 2985SOL     OW 9853   0.477   0.493   4.788
 2985SOL    HW1 9854   0.408   0.436   4.832
 2985SOL    HW2 9855   0.549   0.515   4.855
 2986SOL     OW 9856   3.579   4.144   2.821
 2986SOL    HW1 9857   3.645   4.085   2.775
 2986SOL    HW2 9858   3.604   4.153   2.918
 2987SOL     OW 9859   0.842   2.072   4.179
 2987SOL    HW1 9860   0.773   2.013   4.137
 2987SOL    HW2 9861   0.806   2.108   4.265
 2988SOL     OW 9862   1.233   1.489   1.110
 2988SOL    HW1 9863   1.144   1.524   1.082
 2988SOL    HW2 9864   1.291   1.474   1.029
 2989SOL     OW 9865   5.187   3.115   4.916
 2989SOL    HW1 9866   5.246   3.196   4.920
 2989SOL    HW2 9867   5.099   3.135   4.959
 2990SOL     OW 9868   4.918   1.813   4.881
 2990SOL    HW1 9869   4.935   1.901   4.837
 2990SOL    HW2 9870   4.821   1.790   4.876
 2991SOL     OW 9871   5.758   3.011   0.741
 2991SOL    HW1 9872   5.751   2.936   0.675
 2991SOL    HW2 9873   5.810   3.086   0.701
 2992SOL     OW 9874   0.490   3.681   5.432
 2992SOL    HW1 9875   0.487   3.610   5.362
 2992SOL    HW2 9876   0.501   3.770   5.388
 2993SOL     OW 9877   0.726   4.630   6.714
 2993SOL    HW1 9878   0.690   4.639   6.621
 2993SOL    HW2 9879   0.794   4.702   6.730
 2994SOL     OW 9880   4.930   6.109   0.205
 2994SOL    HW1 9881   4.987   6.190   0.217
 2994SOL    HW2 9882   4.884   6.113   0.116
 2995SOL     OW 9883   4.618   0.469   0.450
 2995SOL    HW1 9884   4.650   0.563   0.460
 2995SOL    HW2 9885   4.669   0.410   0.512
 2996SOL     OW 9886   1.683   1.998   4.634
 2996SOL    HW1 9887   1.768   2.042   4.606
 2996SOL    HW2 9888   1.650   2.041   4.719
 2997SOL     OW 9889   5.089   0.870   3.313
 2997SOL    HW1 9890   5.144   0.914   3.242
 2997SOL    HW2 9891   5.120   0.900   3.403
 2998SOL     OW 9892   2.586   0.686   3.231
 2998SOL    HW1 9893   2.552   0.731   3.149
 2998SOL    HW2 9894   2.668   0.633   3.209
 2999SOL     OW 9895   2.694   4.327   0.383
 2999SOL    HW1 9896   2.614   4.283   0.424
 2999SOL    HW2 9897   2.743   4.261   0.327
 3000SOL     OW 9898   2.903   3.518   5.133
 3000SOL    HW1 9899   2.829   3.579   5.104
 3000SOL    HW2 9900   2.991   3.561   5.112
 3001SOL     OW 9901   6.228   1.594   6.090
 3001SOL    HW1 9902   6.249   1.566   6.183
 3001SOL    HW2 9903   6.283   1.674   6.066
 3002SOL     OW 9904   2.947   1.304   1.492
 3002SOL    HW1 9905   2.956   1.317   1.393
 3002SOL    HW2 9906   2.913   1.212   1.511
 3003SOL     OW 9907   1.263   6.071   0.551
 3003SOL    HW1 9908   1.281   5.972   0.548
 3003SOL    HW2 9909   1.289   6.112   0.464
 3004SOL     OW 9910   2.610   4.936   3.944
 3004SOL    HW1 9911   2.549   4.870   3.989
 3004SOL    HW2 9912   2.686   4.887   3.901
 3005SOL     OW 9913   1.383   3.026   6.001
 3005SOL    HW1 9914   1.303   3.076   6.035
 3005SOL    HW2 9915   1.354   2.959   5.933
 3006SOL     OW 9916   5.022   2.051   5.339
 3006SOL    HW1 9917   5.012   2.066   5.438
 3006SOL    HW2 9918   4.985   1.961   5.316
 3007SOL     OW 9919   5.539   5.417   0.063
 3007SOL    HW1 9920   5.637   5.398   0.064
 3007SOL    HW2 9921   5.521   5.495   0.003
 3008SOL     OW 9922   4.230   2.415   5.799
 3008SOL    HW1 9923   4.134   2.393   5.812
 3008SOL    HW2 9924   4.271   2.350   5.734
 3009SOL     OW 9925   0.370   3.020   3.065
 3009SOL    HW1 9926   0.378   2.967   3.150
 3009SOL    HW2 9927   0.309   2.972   3.002
 3010SOL     OW 9928   4.356   5.798   6.279
 3010SOL    HW1 9929   4.452   5.777   6.260
 3010SOL    HW2 9930   4.346   5.827   6.374
 3011SOL     OW 9931   6.087   0.123   1.138
 3011SOL    HW1 9932   6.159   0.070   1.093
 3011SOL    HW2 9933   6.103   0.125   1.236
 3012SOL     OW 9934   2.652   3.153   6.199
 3012SOL    HW1 9935   2.726   3.198   6.249
 3012SOL    HW2 9936   2.566   3.163   6.250
 3013SOL     OW 9937   0.119   6.421   4.247
 3013SOL    HW1 9938   0.105   6.486   4.172
 3013SOL    HW2 9939   0.096   6.329   4.214
 3014SOL     OW 9940   4.712   1.011   5.453
 3014SOL    HW1 9941   4.731   1.102   5.416
 3014SOL    HW2 9942   4.729   1.010   5.551
 3015SOL     OW 9943   1.385   0.693   0.505
 3015SOL    HW1 9944   1.357   0.780   0.546
 3015SOL    HW2 9945   1.479   0.700   0.472
 3016SOL     OW 9946   2.876   6.955   4.247
 3016SOL    HW1 9947   2.931   6.879   4.283
 3016SOL    HW2 9948   2.811   6.920   4.179
 3017SOL     OW 9949   6.328   5.967   1.940
 3017SOL    HW1 9950   6.414   5.969   1.991
 3017SOL    HW2 9951   6.322   5.882   1.887
 3018SOL     OW 9952   3.343   0.016   0.426
 3018SOL    HW1 9953   3.378   6.980   0.352
 3018SOL    HW2 9954   3.349   0.112   0.401
 3019SOL     OW 9955   1.538   6.442   6.474
 3019SOL    HW1 9956   1.621   6.466   6.523
 3019SOL    HW2 9957   1.461   6.439   6.538
 3020SOL     OW 9958   5.275   3.327   6.812
 3020SOL    HW1 9959   5.267   3.425   6.833
 3020SOL    HW2 9960   5.320   3.280   6.888
 3021SOL     OW 9961   3.340   6.386   5.185
 3021SOL    HW1 9962   3.363   6.394   5.282
 3021SOL    HW2 9963   3.414   6.339   5.137
 3022SOL     OW 9964   3.692   5.964   3.450
 3022SOL    HW1 9965   3.765   5.913   3.404
 3022SOL    HW2 9966   3.649   6.026   3.384
 3023SOL     OW 9967   4.345   6.520   2.714
 3023SOL    HW1 9968   4.264   6.554   2.667
 3023SOL    HW2 9969   4.420   6.510   2.648
 3024SOL     OW 9970   0.324   6.710   6.137
 3024SOL    HW1 9971   0.238   6.713   6.188
 3024SOL    HW2 9972   0.341   6.617   6.105
 3025SOL     OW 9973   4.119   5.988   0.749
 3025SOL    HW1 9974   4.168   5.994   0.662
 3025SOL    HW2 9975   4.185   5.972   0.823
 3026SOL     OW 9976   5.657   1.483   0.381
 3026SOL    HW1 9977   5.679   1.577   0.357
 3026SOL    HW2 9978   5.739   1.426   0.373
 3027SOL     OW 9979   4.940   1.767   1.742
 3027SOL    HW1 9980   4.875   1.797   1.812
 3027SOL    HW2 9981   4.925   1.670   1.723
 3028SOL     OW 9982   2.340   4.281   6.588
 3028SOL    HW1 9983   2.371   4.373   6.562
 3028SOL    HW2 9984   2.382   4.214   6.527
 3029SOL     OW 9985   1.031   2.644   4.382
 3029SOL    HW1 9986   1.021   2.722   4.321
 3029SOL    HW2 9987   1.072   2.567   4.332
 3030SOL     OW 9988   1.524   4.208   1.389
 3030SOL    HW1 9989   1.582   4.154   1.329
 3030SOL    HW2 9990   1.576   4.286   1.424
 3031SOL     OW 9991   1.677   5.687   1.000
 3031SOL    HW1 9992   1.746   5.678   1.071
 3031SOL    HW2 9993   1.626   5.772   1.013
 3032SOL     OW 9994   1.486   0.470   2.928
 3032SOL    HW1 9995   1.453   0.548   2.875
 3032SOL    HW2 9996   1.562   0.426   2.879
 3033SOL     OW 9997   6.414   2.546   4.679
 3033SOL    HW1 9998   6.510   2.571   4.669
 3033SOL    HW2 9999   6.400   2.497   4.765
 3034SOL     OW10000   0.703   6.104   3.696
 3034SOL    HW110001   0.678   6.185   3.643
 3034SOL    HW210002   0.730   6.132   3.789
 3035SOL     OW10003   1.471   2.580   6.312
 3035SOL    HW110004   1.402   2.565   6.241
 3035SOL    HW210005   1.476   2.678   6.333
 3036SOL     OW10006   1.899   2.276   6.415
 3036SOL    HW110007   1.930   2.281   6.510
 3036SOL    HW210008   1.820   2.335   6.403
 3037SOL     OW10009   0.693   5.493   5.994
 3037SOL    HW110010   0.684   5.395   5.977
 3037SOL    HW210011   0.650   5.544   5.919
 3038SOL     OW10012   5.051   5.106   6.282
 3038SOL    HW110013   5.100   5.093   6.369
 3038SOL    HW210014   5.116   5.125   6.209
 3039SOL     OW10015   6.004   3.870   6.682
 3039SOL    HW110016   5.933   3.803   6.665
 3039SOL    HW210017   5.968   3.962   6.667
 3040SOL     OW10018   3.697   4.232   5.744
 3040SOL    HW110019   3.630   4.297   5.709
 3040SOL    HW210020   3.651   4.166   5.803
 3041SOL     OW10021   2.047   4.069   5.070
 3041SOL    HW110022   2.014   4.024   5.152
 3041SOL    HW210023   2.133   4.027   5.041
 3042SOL     OW10024   0.475   5.160   3.315
 3042SOL    HW110025   0.511   5.071   3.285
 3042SOL    HW210026   0.519   5.187   3.400
 3043SOL     OW10027   2.900   3.703   1.015
 3043SOL    HW110028   2.897   3.665   1.107
 3043SOL    HW210029   2.990   3.744   1.000
 3044SOL     OW10030   3.477   3.617   4.908
 3044SOL    HW110031   3.393   3.608   4.856
 3044SOL    HW210032   3.468   3.569   4.995
 3045SOL     OW10033   5.057   1.554   3.071
 3045SOL    HW110034   5.081   1.630   3.011
 3045SOL    HW210035   4.975   1.577   3.123
 3046SOL     OW10036   5.401   5.368   0.678
 3046SOL    HW110037   5.401   5.329   0.770
 3046SOL    HW210038   5.455   5.310   0.617
 3047SOL     OW10039   6.166   0.326   6.929
 3047SOL    HW110040   6.174   0.345   6.831
 3047SOL    HW210041   6.218   0.244   6.952
 3048SOL     OW10042   4.211   3.218   1.163
 3048SOL    HW110043   4.244   3.204   1.069
 3048SOL    HW210044   4.290   3.224   1.224
 3049SOL     OW10045   1.523   0.489   4.401
 3049SOL    HW110046   1.554   0.421   4.335
 3049SOL    HW210047   1.541   0.581   4.366
 3050SOL     OW10048   2.957   2.325   0.844
 3050SOL    HW110049   3.010   2.306   0.761
 3050SOL    HW210050   2.959   2.245   0.903
 3051SOL     OW10051   2.588   6.822   5.065
 3051SOL    HW110052   2.599   6.920   5.083
 3051SOL    HW210053   2.667   6.789   5.013
 3052SOL     OW10054   5.705   6.361   2.524
 3052SOL    HW110055   5.650   6.420   2.465
 3052SOL    HW210056   5.779   6.415   2.565
 3053SOL     OW10057   2.079   4.128   0.307
 3053SOL    HW110058   2.060   4.223   0.332
 3053SOL    HW210059   2.161   4.124   0.250
 3054SOL     OW10060   5.543   1.398   2.946
 3054SOL    HW110061   5.608   1.474   2.946
 3054SOL    HW210062   5.458   1.427   2.991
 3055SOL     OW10063   6.100   6.145   6.554
 3055SOL    HW110064   6.161   6.082   6.602
 3055SOL    HW210065   6.036   6.186   6.619
 3056SOL     OW10066   4.753   1.613   6.558
 3056SOL    HW110067   4.748   1.523   6.600
 3056SOL    HW210068   4.805   1.608   6.472
 3057SOL     OW10069   5.989   5.548   3.317
 3057SOL    HW110070   5.893   5.576   3.324
 3057SOL    HW210071   5.998   5.479   3.246
 3058SOL     OW10072   5.842   4.311   0.214
 3058SOL    HW110073   5.836   4.293   0.312
 3058SOL    HW210074   5.874   4.404   0.199
 3059SOL     OW10075   2.329   2.895   4.518
 3059SOL    HW110076   2.358   2.806   4.483
 3059SOL    HW210077   2.345   2.965   4.449
 3060SOL     OW10078   3.461   5.045   5.431
 3060SOL    HW110079   3.385   5.022   5.492
 3060SOL    HW210080   3.525   4.968   5.427
 3061SOL     OW10081   5.420   4.683   5.729
 3061SOL    HW110082   5.396   4.780   5.737
 3061SOL    HW210083   5.514   4.674   5.697
 3062SOL     OW10084   4.227   4.423   1.353
 3062SOL    HW110085   4.314   4.460   1.385
 3062SOL    HW210086   4.152   4.474   1.394
 3063SOL     OW10087   0.370   4.146   1.450
 3063SOL    HW110088   0.275   4.117   1.438
 3063SOL    HW210089   0.379   4.242   1.425
 3064SOL     OW10090   4.025   2.559   6.943
 3064SOL    HW110091   3.953   2.521   7.002
 3064SOL    HW210092   3.985   2.586   6.856
 3065SOL     OW10093   1.121   0.809   0.227
 3065SOL    HW110094   1.203   0.826   0.281
 3065SOL    HW210095   1.130   0.855   0.138
 3066SOL     OW10096   4.972   5.617   5.447
 3066SOL    HW110097   4.999   5.700   5.495
 3066SOL    HW210098   4.875   5.597   5.464
 3067SOL     OW10099   2.657   1.753   6.856
 3067SOL    HW110100   2.736   1.776   6.799
 3067SOL    HW210101   2.604   1.682   6.811
 3068SOL     OW10102   0.504   1.214   1.143
 3068SOL    HW110103   0.427   1.151   1.156
 3068SOL    HW210104   0.589   1.167   1.166
 3069SOL     OW10105   5.364   6.887   2.992
 3069SOL    HW110106   5.325   6.979   2.989
 3069SOL    HW210107   5.458   6.892   3.027
 3070SOL     OW10108   2.997   1.293   0.759
 3070SOL    HW110109   3.050   1.347   0.823
 3070SOL    HW210110   2.925   1.243   0.808
 3071SOL     OW10111   0.295   3.326   3.391
 3071SOL    HW110112   0.361   3.369   3.452
 3071SOL    HW210113   0.269   3.237   3.428
 3072SOL     OW10114   1.912   6.318   6.746
 3072SOL    HW110115   1.991   6.314   6.686
 3072SOL    HW210116   1.910   6.238   6.805
 3073SOL     OW10117   6.419   4.704   0.505
 3073SOL    HW110118   6.431   4.754   0.591
 3073SOL    HW210119   6.454   4.760   0.429
 3074SOL     OW10120   0.791   3.704   0.895
 3074SOL    HW110121   0.775   3.645   0.816
 3074SOL    HW210122   0.869   3.669   0.947
 3075SOL     OW10123   2.057   5.307   3.773
 3075SOL    HW110124   1.959   5.313   3.755
 3075SOL    HW210125   2.093   5.222   3.733
 3076SOL     OW10126   0.327   1.527   4.792
 3076SOL    HW110127   0.270   1.576   4.726
 3076SOL    HW210128   0.340   1.433   4.761
 3077SOL     OW10129   6.495   3.952   1.072
 3077SOL    HW110130   6.472   3.981   1.165
 3077SOL    HW210131   6.594   3.950   1.061
 3078SOL     OW10132   6.623   2.888   1.776
 3078SOL    HW110133   6.630   2.976   1.822
 3078SOL    HW210134   6.685   2.886   1.697
 3079SOL     OW10135   2.209   2.742   5.281
 3079SOL    HW110136   2.241   2.654   5.246
 3079SOL    HW210137   2.193   2.805   5.205
 3080SOL     OW10138   4.681   5.015   0.893
 3080SOL    HW110139   4.628   5.044   0.973
 3080SOL    HW210140   4.763   4.966   0.923
 3081SOL     OW10141   1.228   4.091   0.698
 3081SOL    HW110142   1.256   4.075   0.603
 3081SOL    HW210143   1.253   4.012   0.754
 3082SOL     OW10144   3.551   5.201   4.360
 3082SOL    HW110145   3.453   5.193   4.340
 3082SOL    HW210146   3.592   5.110   4.361
 3083SOL     OW10147   2.061   5.918   2.900
 3083SOL    HW110148   2.041   5.861   2.820
 3083SOL    HW210149   1.997   5.995   2.904
 3084SOL     OW10150   0.970   3.652   3.273
 3084SOL    HW110151   1.025   3.735   3.274
 3084SOL    HW210152   0.960   3.617   3.366
 3085SOL     OW10153   4.632   5.122   0.611
 3085SOL    HW110154   4.683   5.208   0.613
 3085SOL    HW210155   4.572   5.120   0.532
 3086SOL     OW10156   6.020   1.117   6.991
 3086SOL    HW110157   5.988   1.074   0.054
 3086SOL    HW210158   5.966   1.084   6.913
 3087SOL     OW10159   2.900   6.679   1.891
 3087SOL    HW110160   2.828   6.707   1.954
 3087SOL    HW210161   2.869   6.600   1.838
 3088SOL     OW10162   0.729   2.802   5.674
 3088SOL    HW110163   0.659   2.834   5.738
 3088SOL    HW210164   0.695   2.723   5.624
 3089SOL     OW10165   4.878   0.257   4.858
 3089SOL    HW110166   4.801   0.218   4.909
 3089SOL    HW210167   4.917   0.332   4.911
 3090SOL     OW10168   1.036   1.780   1.485
 3090SOL    HW110169   1.124   1.818   1.460
 3090SOL    HW210170   1.046   1.722   1.566
 3091SOL     OW10171   1.518   1.635   1.070
 3091SOL    HW110172   1.432   1.601   1.030
 3091SOL    HW210173   1.587   1.643   0.998
 3092SOL     OW10174   5.599   0.048   2.231
 3092SOL    HW110175   5.583   0.043   2.330
 3092SOL    HW210176   5.607   6.976   2.194
 3093SOL     OW10177   5.718   5.315   6.049
 3093SOL    HW110178   5.627   5.352   6.068
 3093SOL    HW210179   5.710   5.220   6.019
 3094SOL     OW10180   2.678   0.865   5.870
 3094SOL    HW110181   2.676   0.964   5.884
 3094SOL    HW210182   2.592   0.825   5.903
 3095SOL     OW10183   2.509   2.794   5.337
 3095SOL    HW110184   2.507   2.866   5.267
 3095SOL    HW210185   2.426   2.800   5.393
 3096SOL     OW10186   0.847   3.546   4.916
 3096SOL    HW110187   0.807   3.539   5.007
 3096SOL    HW210188   0.903   3.465   4.897
 3097SOL     OW10189   5.980   2.038   6.485
 3097SOL    HW110190   6.070   2.034   6.441
 3097SOL    HW210191   5.992   2.054   6.583
 3098SOL     OW10192   1.916   1.741   2.286
 3098SOL    HW110193   1.992   1.676   2.277
 3098SOL    HW210194   1.941   1.828   2.245
 3099SOL     OW10195   0.909   6.619   3.927
 3099SOL    HW110196   1.007   6.632   3.910
 3099SOL    HW210197   0.862   6.707   3.918
 3100SOL     OW10198   6.436   6.537   2.914
 3100SOL    HW110199   6.385   6.621   2.932
 3100SOL    HW210200   6.429   6.476   2.993
 3101SOL     OW10201   4.345   6.758   5.793
 3101SOL    HW110202   4.431   6.760   5.844
 3101SOL    HW210203   4.314   6.663   5.783
 3102SOL     OW10204   0.059   5.503   0.415
 3102SOL    HW110205   0.069   5.485   0.317
 3102SOL    HW210206   6.983   5.519   0.435
 3103SOL     OW10207   3.155   0.047   1.399
 3103SOL    HW110208   3.189   0.138   1.375
 3103SOL    HW210209   3.227   7.016   1.445
 3104SOL     OW10210   4.611   0.377   6.369
 3104SOL    HW110211   4.580   0.323   6.291
 3104SOL    HW210212   4.691   0.334   6.410
 3105SOL     OW10213   5.317   3.066   6.957
 3105SOL    HW110214   5.244   3.074   0.004
 3105SOL    HW210215   5.369   2.983   6.973
 3106SOL     OW10216   5.630   1.171   4.806
 3106SOL    HW110217   5.645   1.081   4.848
 3106SOL    HW210218   5.667   1.242   4.866
 3107SOL     OW10219   4.253   1.333   5.167
 3107SOL    HW110220   4.327   1.290   5.219
 3107SOL    HW210221   4.205   1.263   5.114
 3108SOL     OW10222   2.329   4.332   4.310
 3108SOL    HW110223   2.310   4.362   4.404
 3108SOL    HW210224   2.263   4.262   4.283
 3109SOL     OW10225   6.699   6.834   4.270
 3109SOL    HW110226   6.751   6.883   4.340
 3109SOL    HW210227   6.699   6.888   4.186
 3110SOL     OW10228   2.319   4.377   3.473
 3110SOL    HW110229   2.295   4.287   3.437
 3110SOL    HW210230   2.405   4.407   3.433
 3111SOL     OW10231   6.467   4.755   4.658
 3111SOL    HW110232   6.419   4.800   4.582
 3111SOL    HW210233   6.528   4.685   4.622
 3112SOL     OW10234   3.662   2.389   0.270
 3112SOL    HW110235   3.577   2.388   0.216
 3112SOL    HW210236   3.679   2.298   0.307
 3113SOL     OW10237   2.495   5.732   3.168
 3113SOL    HW110238   2.574   5.786   3.140
 3113SOL    HW210239   2.496   5.644   3.121
 3114SOL     OW10240   3.542   1.906   0.530
 3114SOL    HW110241   3.463   1.905   0.470
 3114SOL    HW210242   3.566   1.812   0.556
 3115SOL     OW10243   4.158   4.424   5.393
 3115SOL    HW110244   4.173   4.382   5.303
 3115SOL    HW210245   4.105   4.361   5.451
 3116SOL     OW10246   0.376   2.428   0.849
 3116SOL    HW110247   0.452   2.420   0.912
 3116SOL    HW210248   0.372   2.522   0.814
 3117SOL     OW10249   4.843   2.098   5.593
 3117SOL    HW110250   4.770   2.034   5.570
 3117SOL    HW210251   4.824   2.188   5.553
 3118SOL     OW10252   1.557   0.757   2.797
 3118SOL    HW110253   1.638   0.810   2.824
 3118SOL    HW210254   1.494   0.815   2.746
 3119SOL     OW10255   4.050   3.400   5.822
 3119SOL    HW110256   4.088   3.325   5.767
 3119SOL    HW210257   4.119   3.432   5.886
 3120SOL     OW10258   2.877   0.195   5.387
 3120SOL    HW110259   2.908   0.239   5.472
 3120SOL    HW210260   2.892   0.257   5.310
 3121SOL     OW10261   4.833   1.376   4.413
 3121SOL    HW110262   4.767   1.321   4.464
 3121SOL    HW210263   4.835   1.346   4.317
 3122SOL     OW10264   4.262   4.721   4.223
 3122SOL    HW110265   4.277   4.656   4.149
 3122SOL    HW210266   4.304   4.686   4.307
 3123SOL     OW10267   2.522   1.652   2.819
 3123SOL    HW110268   2.575   1.735   2.802
 3123SOL    HW210269   2.441   1.652   2.761
 3124SOL     OW10270   4.795   6.832   4.539
 3124SOL    HW110271   4.840   6.892   4.605
 3124SOL    HW210272   4.860   6.808   4.466
 3125SOL     OW10273   1.429   2.790   5.541
 3125SOL    HW110274   1.522   2.754   5.552
 3125SOL    HW210275   1.420   2.829   5.449
 3126SOL     OW10276   5.626   5.914   4.412
 3126SOL    HW110277   5.535   5.947   4.436
 3126SOL    HW210278   5.652   5.952   4.323
 3127SOL     OW10279   0.836   2.357   4.526
 3127SOL    HW110280   0.921   2.390   4.566
 3127SOL    HW210281   0.781   2.435   4.495
 3128SOL     OW10282   3.975   0.190   0.442
 3128SOL    HW110283   4.031   0.205   0.524
 3128SOL    HW210284   3.884   0.230   0.456
 3129SOL     OW10285   4.710   3.063   1.086
 3129SOL    HW110286   4.639   3.066   1.156
 3129SOL    HW210287   4.763   3.147   1.089
 3130SOL     OW10288   1.938   3.918   0.913
 3130SOL    HW110289   2.032   3.939   0.886
 3130SOL    HW210290   1.923   3.944   1.008
 3131SOL     OW10291   6.698   4.074   1.615
 3131SOL    HW110292   6.768   4.144   1.632
 3131SOL    HW210293   6.740   3.984   1.611
 3132SOL     OW10294   3.881   4.160   0.446
 3132SOL    HW110295   3.929   4.205   0.371
 3132SOL    HW210296   3.938   4.164   0.528
 3133SOL     OW10297   4.257   0.062   3.132
 3133SOL    HW110298   4.254   0.117   3.048
 3133SOL    HW210299   4.174   0.005   3.138
 3134SOL     OW10300   3.181   5.005   1.970
 3134SOL    HW110301   3.112   4.934   1.984
 3134SOL    HW210302   3.181   5.067   2.048
 3135SOL     OW10303   5.871   6.820   5.866
 3135SOL    HW110304   5.865   6.841   5.769
 3135SOL    HW210305   5.965   6.797   5.890
 3136SOL     OW10306   6.227   1.219   2.755
 3136SOL    HW110307   6.136   1.191   2.725
 3136SOL    HW210308   6.296   1.174   2.698
 3137SOL     OW10309   6.048   0.072   0.132
 3137SOL    HW110310   6.049   0.073   0.232
 3137SOL    HW210311   5.997   0.151   0.097
 3138SOL     OW10312   5.382   5.348   3.973
 3138SOL    HW110313   5.415   5.256   3.996
 3138SOL    HW210314   5.379   5.358   3.874
 3139SOL     OW10315   1.972   5.311   1.364
 3139SOL    HW110316   1.907   5.346   1.296
 3139SOL    HW210317   2.044   5.378   1.378
 3140SOL     OW10318   6.374   6.712   5.676
 3140SOL    HW110319   6.395   6.650   5.752
 3140SOL    HW210320   6.314   6.667   5.611
 3141SOL     OW10321   0.327   2.354   6.694
 3141SOL    HW110322   0.257   2.284   6.677
 3141SOL    HW210323   0.406   2.336   6.636
 3142SOL     OW10324   5.054   0.938   1.892
 3142SOL    HW110325   5.132   0.931   1.955
 3142SOL    HW210326   5.087   0.949   1.799
 3143SOL     OW10327   6.080   1.484   0.290
 3143SOL    HW110328   6.087   1.544   0.370
 3143SOL    HW210329   6.143   1.516   0.219
 3144SOL     OW10330   4.436   3.862   6.538
 3144SOL    HW110331   4.400   3.938   6.593
 3144SOL    HW210332   4.361   3.802   6.510
 3145SOL     OW10333   2.486   6.108   1.989
 3145SOL    HW110334   2.544   6.036   1.951
 3145SOL    HW210335   2.489   6.103   2.089
 3146SOL     OW10336   0.668   1.055   5.362
 3146SOL    HW110337   0.652   1.019   5.270
 3146SOL    HW210338   0.633   0.991   5.430
 3147SOL     OW10339   3.446   4.828   6.037
 3147SOL    HW110340   3.381   4.771   5.987
 3147SOL    HW210341   3.513   4.771   6.084
 3148SOL     OW10342   0.300   6.375   2.933
 3148SOL    HW110343   0.348   6.325   3.005
 3148SOL    HW210344   0.320   6.472   2.941
 3149SOL     OW10345   3.305   1.312   0.467
 3149SOL    HW110346   3.253   1.246   0.521
 3149SOL    HW210347   3.275   1.308   0.371
 3150SOL     OW10348   6.168   6.476   5.147
 3150SOL    HW110349   6.162   6.414   5.069
 3150SOL    HW210350   6.162   6.571   5.115
 3151SOL     OW10351   6.332   1.821   5.977
 3151SOL    HW110352   6.277   1.796   5.897
 3151SOL    HW210353   6.392   1.897   5.953
 3152SOL     OW10354   1.574   3.907   6.681
 3152SOL    HW110355   1.588   3.811   6.707
 3152SOL    HW210356   1.570   3.964   6.762
 3153SOL     OW10357   6.686   5.036   0.418
 3153SOL    HW110358   6.734   4.994   0.496
 3153SOL    HW210359   6.622   4.969   0.379
 3154SOL     OW10360   5.790   1.515   1.553
 3154SOL    HW110361   5.738   1.565   1.484
 3154SOL    HW210362   5.729   1.449   1.599
 3155SOL     OW10363   6.442   4.660   0.114
 3155SOL    HW110364   6.368   4.593   0.111
 3155SOL    HW210365   6.420   4.737   0.054
 3156SOL     OW10366   3.605   4.139   2.296
 3156SOL    HW110367   3.611   4.210   2.226
 3156SOL    HW210368   3.692   4.133   2.345
 3157SOL     OW10369   1.421   2.014   5.246
 3157SOL    HW110370   1.460   2.089   5.300
 3157SOL    HW210371   1.495   1.969   5.194
 3158SOL     OW10372   2.874   2.168   5.387
 3158SOL    HW110373   2.894   2.258   5.350
 3158SOL    HW210374   2.796   2.173   5.449
 3159SOL     OW10375   4.696   6.741   0.347
 3159SOL    HW110376   4.721   6.815   0.409
 3159SOL    HW210377   4.773   6.678   0.336
 3160SOL     OW10378   2.459   6.920   5.605
 3160SOL    HW110379   2.487   6.981   5.679
 3160SOL    HW210380   2.530   6.917   5.535
 3161SOL     OW10381   2.038   2.677   2.570
 3161SOL    HW110382   2.125   2.648   2.531
 3161SOL    HW210383   1.990   2.736   2.505
 3162SOL     OW10384   1.634   5.310   0.261
 3162SOL    HW110385   1.677   5.325   0.350
 3162SOL    HW210386   1.688   5.242   0.210
 3163SOL     OW10387   3.993   3.826   0.525
 3163SOL    HW110388   3.998   3.736   0.481
 3163SOL    HW210389   3.946   3.890   0.464
 3164SOL     OW10390   2.904   5.313   2.793
 3164SOL    HW110391   2.823   5.322   2.735
 3164SOL    HW210392   2.976   5.264   2.743
 3165SOL     OW10393   0.392   5.300   0.160
 3165SOL    HW110394   0.389   5.201   0.165
 3165SOL    HW210395   0.394   5.330   0.065
 3166SOL     OW10396   3.742   1.087   4.868
 3166SOL    HW110397   3.726   1.113   4.963
 3166SOL    HW210398   3.840   1.070   4.854
 3167SOL     OW10399   4.687   4.119   0.286
 3167SOL    HW110400   4.664   4.054   0.358
 3167SOL    HW210401   4.698   4.210   0.326
 3168SOL     OW10402   4.922   2.738   0.773
 3168SOL    HW110403   5.018   2.720   0.754
 3168SOL    HW210404   4.910   2.834   0.798
 3169SOL     OW10405   1.492   4.800   2.323
 3169SOL    HW110406   1.566   4.771   2.384
 3169SOL    HW210407   1.408   4.809   2.376
 3170SOL     OW10408   3.701   5.700   2.771
 3170SOL    HW110409   3.741   5.788   2.745
 3170SOL    HW210410   3.644   5.666   2.696
 3171SOL     OW10411   5.391   3.124   2.598
 3171SOL    HW110412   5.436   3.186   2.662
 3171SOL    HW210413   5.396   3.161   2.506
 3172SOL     OW10414   6.969   4.874   0.199
 3172SOL    HW110415   7.009   4.783   0.210
 3172SOL    HW210416   0.020   4.939   0.178
 3173SOL     OW10417   3.254   1.918   6.938
 3173SOL    HW110418   3.178   1.890   6.997
 3173SOL    HW210419   3.258   2.018   6.934
 3174SOL     OW10420   2.711   3.108   5.569
 3174SOL    HW110421   2.785   3.127   5.634
 3174SOL    HW210422   2.623   3.115   5.616
 3175SOL     OW10423   6.589   1.701   3.746
 3175SOL    HW110424   6.499   1.678   3.785
 3175SOL    HW210425   6.580   1.715   3.648
 3176SOL     OW10426   0.040   4.233   4.878
 3176SOL    HW110427   0.082   4.241   4.968
 3176SOL    HW210428   0.080   4.155   4.829
 3177SOL     OW10429   5.278   4.114   3.060
 3177SOL    HW110430   5.378   4.115   3.057
 3177SOL    HW210431   5.242   4.086   2.972
 3178SOL     OW10432   5.514   1.269   0.256
 3178SOL    HW110433   5.562   1.332   0.318
 3178SOL    HW210434   5.520   1.304   0.162
 3179SOL     OW10435   0.857   1.808   2.359
 3179SOL    HW110436   0.915   1.860   2.297
 3179SOL    HW210437   0.812   1.870   2.423
 3180SOL     OW10438   5.542   6.571   6.433
 3180SOL    HW110439   5.470   6.523   6.384
 3180SOL    HW210440   5.631   6.545   6.395
 3181SOL     OW10441   0.393   1.361   4.237
 3181SOL    HW110442   0.311   1.392   4.284
 3181SOL    HW210443   0.414   1.267   4.265
 3182SOL     OW10444   3.267   0.119   0.777
 3182SOL    HW110445   3.321   0.035   0.775
 3182SOL    HW210446   3.182   0.104   0.827
 3183SOL     OW10447   4.482   4.829   2.454
 3183SOL    HW110448   4.575   4.812   2.423
 3183SOL    HW210449   4.482   4.851   2.551
 3184SOL     OW10450   0.827   2.293   3.255
 3184SOL    HW110451   0.789   2.216   3.307
 3184SOL    HW210452   0.905   2.261   3.200
 3185SOL     OW10453   6.852   7.017   5.498
 3185SOL    HW110454   6.922   0.037   5.556
 3185SOL    HW210455   6.784   6.971   5.555
 3186SOL     OW10456   1.627   0.727   0.388
 3186SOL    HW110457   1.652   0.823   0.373
 3186SOL    HW210458   1.668   0.670   0.317
 3187SOL     OW10459   3.690   5.583   2.499
 3187SOL    HW110460   3.706   5.509   2.565
 3187SOL    HW210461   3.592   5.600   2.492
 3188SOL     OW10462   2.194   4.722   5.079
 3188SOL    HW110463   2.227   4.637   5.121
 3188SOL    HW210464   2.142   4.774   5.147
 3189SOL     OW10465   2.080   0.822   0.237
 3189SOL    HW110466   2.000   0.857   0.286
 3189SOL    HW210467   2.161   0.874   0.264
 3190SOL     OW10468   6.849   5.825   5.325
 3190SOL    HW110469   6.844   5.776   5.412
 3190SOL    HW210470   6.867   5.922   5.342
 3191SOL     OW10471   4.324   5.316   2.077
 3191SOL    HW110472   4.405   5.375   2.076
 3191SOL    HW210473   4.273   5.331   2.163
 3192SOL     OW10474   6.856   2.651   1.523
 3192SOL    HW110475   6.859   2.727   1.588
 3192SOL    HW210476   6.863   2.687   1.429
 3193SOL     OW10477   4.064   1.071   5.041
 3193SOL    HW110478   4.132   1.026   5.098
 3193SOL    HW210479   4.042   1.012   4.963
 3194SOL     OW10480   1.138   1.306   5.341
 3194SOL    HW110481   1.047   1.268   5.328
 3194SOL    HW210482   1.151   1.384   5.280
 3195SOL     OW10483   0.283   1.298   1.895
 3195SOL    HW110484   0.336   1.221   1.931
 3195SOL    HW210485   0.299   1.379   1.952
 3196SOL     OW10486   6.430   0.950   5.486
 3196SOL    HW110487   6.523   0.932   5.519
 3196SOL    HW210488   6.372   0.872   5.505
 3197SOL     OW10489   1.866   6.563   6.061
 3197SOL    HW110490   1.947   6.601   6.106
 3197SOL    HW210491   1.888   6.540   5.966
 3198SOL     OW10492   6.404   2.387   3.982
 3198SOL    HW110493   6.400   2.482   4.012
 3198SOL    HW210494   6.319   2.340   4.009
 3199SOL     OW10495   5.280   4.912   2.862
 3199SOL    HW110496   5.268   5.006   2.831
 3199SOL    HW210497   5.191   4.867   2.865
 3200SOL     OW10498   6.111   3.274   4.293
 3200SOL    HW110499   6.053   3.237   4.220
 3200SOL    HW210500   6.183   3.330   4.254
 3201SOL     OW10501   6.325   4.491   2.973
 3201SOL    HW110502   6.276   4.542   3.044
 3201SOL    HW210503   6.375   4.415   3.014
 3202SOL     OW10504   1.200   5.135   0.481
 3202SOL    HW110505   1.109   5.140   0.521
 3202SOL    HW210506   1.251   5.219   0.502
 3203SOL     OW10507   4.483   0.020   1.181
 3203SOL    HW110508   4.504   7.016   1.276
 3203SOL    HW210509   4.551   6.999   1.120
 3204SOL     OW10510   2.825   1.540   3.685
 3204SOL    HW110511   2.888   1.571   3.614
 3204SOL    HW210512   2.860   1.456   3.726
 3205SOL     OW10513   5.553   3.365   5.888
 3205SOL    HW110514   5.611   3.356   5.807
 3205SOL    HW210515   5.533   3.461   5.904
 3206SOL     OW10516   2.635   2.949   1.484
 3206SOL    HW110517   2.605   2.979   1.394
 3206SOL    HW210518   2.611   3.020   1.552
 3207SOL     OW10519   1.092   0.531   5.813
 3207SOL    HW110520   1.105   0.482   5.727
 3207SOL    HW210521   1.143   0.486   5.886
 3208SOL     OW10522   5.818   6.026   5.279
 3208SOL    HW110523   5.719   6.010   5.274
 3208SOL    HW210524   5.851   5.998   5.369
 3209SOL     OW10525   3.796   5.137   5.218
 3209SOL    HW110526   3.804   5.037   5.220
 3209SOL    HW210527   3.740   5.168   5.295
 3210SOL     OW10528   0.206   5.132   1.626
 3210SOL    HW110529   0.180   5.186   1.546
 3210SOL    HW210530   0.142   5.151   1.701
 3211SOL     OW10531   1.360   4.922   0.618
 3211SOL    HW110532   1.274   4.955   0.576
 3211SOL    HW210533   1.361   4.822   0.617
 3212SOL     OW10534   2.959   0.176   2.295
 3212SOL    HW110535   2.955   0.274   2.314
 3212SOL    HW210536   3.022   0.159   2.220
 3213SOL     OW10537   1.722   0.550   6.267
 3213SOL    HW110538   1.667   0.602   6.202
 3213SOL    HW210539   1.702   0.581   6.360
 3214SOL     OW10540   4.910   0.039   3.802
 3214SOL    HW110541   4.829   7.002   3.796
 3214SOL    HW210542   4.992   7.002   3.811
 3215SOL     OW10543   1.305   3.367   0.366
 3215SOL    HW110544   1.396   3.410   0.372
 3215SOL    HW210545   1.312   3.280   0.317
 3216SOL     OW10546   5.884   5.162   1.550
 3216SOL    HW110547   5.830   5.150   1.467
 3216SOL    HW210548   5.829   5.139   1.630
 3217SOL     OW10549   6.976   5.509   3.272
 3217SOL    HW110550   7.012   5.600   3.293
 3217SOL    HW210551   6.888   5.518   3.226
 3218SOL     OW10552   5.911   2.545   3.836
 3218SOL    HW110553   5.974   2.478   3.876
 3218SOL    HW210554   5.821   2.536   3.879
 3219SOL     OW10555   6.753   0.960   4.889
 3219SOL    HW110556   6.740   0.978   4.791
 3219SOL    HW210557   6.670   0.986   4.938
 3220SOL     OW10558   0.187   5.915   6.520
 3220SOL    HW110559   0.256   5.883   6.456
 3220SOL    HW210560   0.120   5.971   6.471
 3221SOL     OW10561   4.128   0.164   2.608
 3221SOL    HW110562   4.105   0.102   2.533
 3221SOL    HW210563   4.179   0.242   2.573
 3222SOL     OW10564   3.085   1.197   3.400
 3222SOL    HW110565   3.171   1.235   3.367
 3222SOL    HW210566   3.098   1.101   3.426
 3223SOL     OW10567   1.961   6.464   0.531
 3223SOL    HW110568   1.864   6.481   0.515
 3223SOL    HW210569   1.994   6.394   0.467
 3224SOL     OW10570   5.077   2.387   4.844
 3224SOL    HW110571   5.115   2.386   4.751
 3224SOL    HW210572   4.978   2.403   4.839
 3225SOL     OW10573   4.061   1.290   3.916
 3225SOL    HW110574   4.091   1.303   3.822
 3225SOL    HW210575   4.012   1.203   3.924
 3226SOL     OW10576   1.708   6.977   2.158
 3226SOL    HW110577   1.633   6.914   2.177
 3226SOL    HW210578   1.702   0.036   2.219
 3227SOL     OW10579   3.362   2.594   6.452
 3227SOL    HW110580   3.399   2.607   6.360
 3227SOL    HW210581   3.400   2.510   6.491
 3228SOL     OW10582   0.401   4.307   0.945
 3228SOL    HW110583   0.485   4.291   0.892
 3228SOL    HW210584   0.420   4.374   1.017
 3229SOL     OW10585   3.414   0.474   5.645
 3229SOL    HW110586   3.449   0.470   5.739
 3229SOL    HW210587   3.466   0.412   5.587
 3230SOL     OW10588   2.261   5.500   6.213
 3230SOL    HW110589   2.360   5.511   6.223
 3230SOL    HW210590   2.226   5.449   6.292
 3231SOL     OW10591   3.058   1.119   2.532
 3231SOL    HW110592   3.137   1.065   2.558
 3231SOL    HW210593   2.990   1.118   2.606
 3232SOL     OW10594   3.548   6.051   3.934
 3232SOL    HW110595   3.647   6.041   3.951
 3232SOL    HW210596   3.498   6.026   4.017
 3233SOL     OW10597   6.967   2.641   0.488
 3233SOL    HW110598   6.974   2.646   0.588
 3233SOL    HW210599   6.871   2.631   0.463
 3234SOL     OW10600   1.583   2.778   0.280
 3234SOL    HW110601   1.487   2.806   0.285
 3234SOL    HW210602   1.635   2.847   0.231
 3235SOL     OW10603   5.830   5.787   1.679
 3235SOL    HW110604   5.863   5.703   1.635
 3235SOL    HW210605   5.815   5.857   1.610
 3236SOL     OW10606   2.421   3.518   0.302
 3236SOL    HW110607   2.380   3.607   0.320
 3236SOL    HW210608   2.483   3.494   0.377
 3237SOL     OW10609   6.076   1.837   4.368
 3237SOL    HW110610   6.045   1.847   4.462
 3237SOL    HW210611   6.123   1.749   4.358
 3238SOL     OW10612   6.203   5.373   0.241
 3238SOL    HW110613   6.227   5.338   0.150
 3238SOL    HW210614   6.267   5.337   0.308
 3239SOL     OW10615   0.073   0.145   3.790
 3239SOL    HW110616   0.159   0.145   3.842
 3239SOL    HW210617   7.017   0.155   3.853
 3240SOL     OW10618   6.788   0.832   6.183
 3240SOL    HW110619   6.717   0.765   6.204
 3240SOL    HW210620   6.787   0.904   6.252
 3241SOL     OW10621   4.990   2.213   6.972
 3241SOL    HW110622   4.907   2.182   6.926
 3241SOL    HW210623   5.001   2.164   0.038
 3242SOL     OW10624   4.932   3.912   5.746
 3242SOL    HW110625   4.999   3.970   5.699
 3242SOL    HW210626   4.883   3.857   5.678
 3243SOL     OW10627   4.634   5.604   6.502
 3243SOL    HW110628   4.682   5.551   6.573
 3243SOL    HW210629   4.554   5.552   6.472
 3244SOL     OW10630   5.552   6.082   0.456
 3244SOL    HW110631   5.529   6.172   0.420
 3244SOL    HW210632   5.650   6.065   0.442
 3245SOL     OW10633   4.821   2.419   4.303
 3245SOL    HW110634   4.840   2.509   4.342
 3245SOL    HW210635   4.733   2.421   4.257
 3246SOL     OW10636   7.017   0.130   2.539
 3246SOL    HW110637   0.065   0.060   2.558
 3246SOL    HW210638   6.930   0.086   2.515
 3247SOL     OW10639   0.299   4.286   2.716
 3247SOL    HW110640   0.325   4.373   2.757
 3247SOL    HW210641   0.299   4.295   2.616
 3248SOL     OW10642   5.814   2.611   2.700
 3248SOL    HW110643   5.888   2.674   2.721
 3248SOL    HW210644   5.726   2.657   2.709
 3249SOL     OW10645   3.468   3.525   3.819
 3249SOL    HW110646   3.409   3.572   3.884
 3249SOL    HW210647   3.524   3.592   3.770
 3250SOL     OW10648   5.152   6.534   3.705
 3250SOL    HW110649   5.201   6.594   3.768
 3250SOL    HW210650   5.188   6.441   3.714
 3251SOL     OW10651   2.813   1.062   4.817
 3251SOL    HW110652   2.865   1.106   4.744
 3251SOL    HW210653   2.733   1.119   4.839
 3252SOL     OW10654   3.028   1.387   3.044
 3252SOL    HW110655   3.037   1.307   3.104
 3252SOL    HW210656   2.933   1.398   3.016
 3253SOL     OW10657   4.952   3.792   0.980
 3253SOL    HW110658   5.020   3.718   0.982
 3253SOL    HW210659   4.886   3.777   1.053
 3254SOL     OW10660   5.165   6.906   6.263
 3254SOL    HW110661   5.130   6.812   6.267
 3254SOL    HW210662   5.252   6.907   6.213
 3255SOL     OW10663   5.606   5.897   0.686
 3255SOL    HW110664   5.700   5.910   0.717
 3255SOL    HW210665   5.583   5.967   0.618
 3256SOL     OW10666   4.486   2.238   1.081
 3256SOL    HW110667   4.483   2.200   1.173
 3256SOL    HW210668   4.396   2.230   1.038
 3257SOL     OW10669   3.010   2.099   2.161
 3257SOL    HW110670   3.106   2.090   2.185
 3257SOL    HW210671   2.998   2.171   2.093
 3258SOL     OW10672   3.101   5.091   3.755
 3258SOL    HW110673   3.139   5.007   3.716
 3258SOL    HW210674   3.024   5.122   3.699
 3259SOL     OW10675   5.487   4.676   3.939
 3259SOL    HW110676   5.546   4.596   3.927
 3259SOL    HW210677   5.402   4.649   3.985
 3260SOL     OW10678   1.813   3.934   1.962
 3260SOL    HW110679   1.844   3.884   1.881
 3260SOL    HW210680   1.727   3.895   1.994
 3261SOL     OW10681   5.550   0.569   2.430
 3261SOL    HW110682   5.529   0.483   2.478
 3261SOL    HW210683   5.631   0.611   2.471
 3262SOL     OW10684   4.073   2.116   2.288
 3262SOL    HW110685   4.141   2.091   2.219
 3262SOL    HW210686   3.982   2.094   2.255
 3263SOL     OW10687   3.154   0.924   3.467
 3263SOL    HW110688   3.142   0.886   3.376
 3263SOL    HW210689   3.251   0.938   3.486
 3264SOL     OW10690   1.910   4.927   0.769
 3264SOL    HW110691   1.862   5.003   0.726
 3264SOL    HW210692   1.951   4.869   0.699
 3265SOL     OW10693   6.321   6.406   5.566
 3265SOL    HW110694   6.374   6.475   5.517
 3265SOL    HW210695   6.250   6.450   5.620
 3266SOL     OW10696   2.519   4.450   0.132
 3266SOL    HW110697   2.541   4.471   0.037
 3266SOL    HW210698   2.598   4.408   0.176
 3267SOL     OW10699   3.906   0.361   1.564
 3267SOL    HW110700   3.844   0.380   1.489
 3267SOL    HW210701   3.996   0.336   1.528
 3268SOL     OW10702   0.846   4.823   1.550
 3268SOL    HW110703   0.798   4.887   1.491
 3268SOL    HW210704   0.875   4.870   1.634
 3269SOL     OW10705   0.630   5.402   2.394
 3269SOL    HW110706   0.665   5.419   2.486
 3269SOL    HW210707   0.562   5.472   2.371
 3270SOL     OW10708   1.392   3.302   6.371
 3270SOL    HW110709   1.438   3.351   6.445
 3270SOL    HW210710   1.453   3.299   6.291
 3271SOL     OW10711   6.426   3.362   1.542
 3271SOL    HW110712   6.391   3.368   1.635
 3271SOL    HW210713   6.482   3.280   1.532
 3272SOL     OW10714   3.601   5.092   6.723
 3272SOL    HW110715   3.526   5.156   6.741
 3272SOL    HW210716   3.568   5.020   6.661
 3273SOL     OW10717   5.096   4.441   5.981
 3273SOL    HW110718   5.047   4.504   6.041
 3273SOL    HW210719   5.081   4.347   6.012
 3274SOL     OW10720   5.929   0.287   0.014
 3274SOL    HW110721   5.870   0.359   0.050
 3274SOL    HW210722   6.017   0.326   7.007
 3275SOL     OW10723   4.245   0.859   0.445
 3275SOL    HW110724   4.320   0.811   0.399
 3275SOL    HW210725   4.280   0.901   0.529
 3276SOL     OW10726   4.625   6.773   0.039
 3276SOL    HW110727   4.536   6.815   0.022
 3276SOL    HW210728   4.656   6.797   0.131
 3277SOL     OW10729   2.980   1.191   1.229
 3277SOL    HW110730   2.929   1.264   1.182
 3277SOL    HW210731   2.940   1.102   1.205
 3278SOL     OW10732   0.140   0.498   5.817
 3278SOL    HW110733   0.153   0.422   5.880
 3278SOL    HW210734   0.050   0.492   5.774
 3279SOL     OW10735   4.383   6.423   0.774
 3279SOL    HW110736   4.364   6.482   0.852
 3279SOL    HW210737   4.305   6.363   0.757
 3280SOL     OW10738   5.317   4.320   4.234
 3280SOL    HW110739   5.317   4.223   4.207
 3280SOL    HW210740   5.311   4.326   4.334
 3281SOL     OW10741   6.977   4.878   1.419
 3281SOL    HW110742   0.008   4.799   1.453
 3281SOL    HW210743   6.962   4.869   1.321
 3282SOL     OW10744   0.305   3.602   4.839
 3282SOL    HW110745   0.283   3.514   4.883
 3282SOL    HW210746   0.404   3.612   4.831
 3283SOL     OW10747   3.822   1.451   1.119
 3283SOL    HW110748   3.853   1.356   1.115
 3283SOL    HW210749   3.754   1.461   1.191
 3284SOL     OW10750   1.143   5.093   4.746
 3284SOL    HW110751   1.226   5.046   4.715
 3284SOL    HW210752   1.071   5.025   4.763
 3285SOL     OW10753   5.750   1.975   4.664
 3285SOL    HW110754   5.678   2.034   4.628
 3285SOL    HW210755   5.712   1.911   4.730
 3286SOL     OW10756   3.438   2.457   1.721
 3286SOL    HW110757   3.397   2.408   1.644
 3286SOL    HW210758   3.508   2.400   1.764
 3287SOL     OW10759   0.602   0.418   0.159
 3287SOL    HW110760   0.618   0.362   0.078
 3287SOL    HW210761   0.515   0.392   0.201
 3288SOL     OW10762   1.642   6.477   0.869
 3288SOL    HW110763   1.553   6.453   0.907
 3288SOL    HW210764   1.713   6.423   0.914
 3289SOL     OW10765   2.839   1.854   6.653
 3289SOL    HW110766   2.925   1.804   6.644
 3289SOL    HW210767   2.858   1.952   6.657
 3290SOL     OW10768   6.817   5.594   0.423
 3290SOL    HW110769   6.836   5.688   0.449
 3290SOL    HW210770   6.761   5.551   0.494
 3291SOL     OW10771   4.019   0.829   6.224
 3291SOL    HW110772   4.107   0.873   6.207
 3291SOL    HW210773   4.033   0.746   6.278
 3292SOL     OW10774   0.182   1.182   0.917
 3292SOL    HW110775   0.236   1.106   0.881
 3292SOL    HW210776   0.112   1.209   0.851
 3293SOL     OW10777   6.812   4.715   2.302
 3293SOL    HW110778   6.775   4.626   2.330
 3293SOL    HW210779   6.772   4.742   2.215
 3294SOL     OW10780   5.205   1.963   6.010
 3294SOL    HW110781   5.180   1.962   5.913
 3294SOL    HW210782   5.234   2.056   6.036
 3295SOL     OW10783   1.845   3.087   0.699
 3295SOL    HW110784   1.922   3.098   0.763
 3295SOL    HW210785   1.811   3.177   0.672
 3296SOL     OW10786   6.310   0.330   5.002
 3296SOL    HW110787   6.332   0.377   5.088
 3296SOL    HW210788   6.275   0.397   4.936
 3297SOL     OW10789   3.515   1.963   5.066
 3297SOL    HW110790   3.444   2.021   5.105
 3297SOL    HW210791   3.602   2.011   5.067
 3298SOL     OW10792   6.604   3.119   5.389
 3298SOL    HW110793   6.588   3.187   5.461
 3298SOL    HW210794   6.532   3.126   5.320
 3299SOL     OW10795   4.466   5.938   3.206
 3299SOL    HW110796   4.417   6.011   3.253
 3299SOL    HW210797   4.435   5.849   3.240
 3300SOL     OW10798   2.089   0.472   5.626
 3300SOL    HW110799   2.019   0.535   5.660
 3300SOL    HW210800   2.152   0.522   5.566
 3301SOL     OW10801   1.576   3.227   2.823
 3301SOL    HW110802   1.521   3.300   2.782
 3301SOL    HW210803   1.522   3.143   2.825
 3302SOL     OW10804   1.329   4.535   6.560
 3302SOL    HW110805   1.247   4.510   6.612
 3302SOL    HW210806   1.306   4.538   6.463
 3303SOL     OW10807   3.854   3.265   0.411
 3303SOL    HW110808   3.860   3.268   0.312
 3303SOL    HW210809   3.833   3.172   0.441
 3304SOL     OW10810   2.332   4.839   6.155
 3304SOL    HW110811   2.257   4.801   6.100
 3304SOL    HW210812   2.306   4.930   6.187
 3305SOL     OW10813   3.165   0.502   1.536
 3305SOL    HW110814   3.151   0.409   1.571
 3305SOL    HW210815   3.116   0.567   1.594
 3306SOL     OW10816   1.214   5.861   6.001
 3306SOL    HW110817   1.217   5.761   5.999
 3306SOL    HW210818   1.225   5.893   6.095
 3307SOL     OW10819   1.036   0.108   6.167
 3307SOL    HW110820   1.098   0.185   6.182
 3307SOL    HW210821   1.058   0.035   6.233
 3308SOL     OW10822   3.918   4.906   1.075
 3308SOL    HW110823   4.000   4.945   1.033
 3308SOL    HW210824   3.943   4.835   1.140
 3309SOL     OW10825   5.209   4.294   3.858
 3309SOL    HW110826   5.124   4.309   3.909
 3309SOL    HW210827   5.250   4.382   3.835
 3310SOL     OW10828   0.484   4.261   4.827
 3310SOL    HW110829   0.444   4.243   4.737
 3310SOL    HW210830   0.455   4.352   4.858
 3311SOL     OW10831   3.539   3.301   1.112
 3311SOL    HW110832   3.471   3.266   1.177
 3311SOL    HW210833   3.629   3.303   1.155
 3312SOL     OW10834   4.261   2.864   5.771
 3312SOL    HW110835   4.175   2.912   5.757
 3312SOL    HW210836   4.337   2.926   5.751
 3313SOL     OW10837   0.714   0.698   3.180
 3313SOL    HW110838   0.775   0.645   3.122
 3313SOL    HW210839   0.745   0.793   3.183
 3314SOL     OW10840   2.670   0.527   2.668
 3314SOL    HW110841   2.627   0.614   2.694
 3314SOL    HW210842   2.604   0.453   2.675
 3315SOL     OW10843   0.885   4.366   5.254
 3315SOL    HW110844   0.902   4.413   5.341
 3315SOL    HW210845   0.786   4.353   5.243
 3316SOL     OW10846   3.681   0.965   5.640
 3316SOL    HW110847   3.721   1.042   5.691
 3316SOL    HW210848   3.583   0.962   5.656
 3317SOL     OW10849   5.581   1.552   2.544
 3317SOL    HW110850   5.648   1.481   2.521
 3317SOL    HW210851   5.539   1.586   2.460
 3318SOL     OW10852   2.132   1.480   6.654
 3318SOL    HW110853   2.189   1.561   6.664
 3318SOL    HW210854   2.036   1.507   6.644
 3319SOL     OW10855   6.715   7.014   2.947
 3319SOL    HW110856   6.647   0.046   2.997
 3319SOL    HW210857   6.807   0.022   2.975
 3320SOL     OW10858   6.567   0.209   0.063
 3320SOL    HW110859   6.653   0.237   0.021
 3320SOL    HW210860   6.581   0.193   0.161
 3321SOL     OW10861   6.237   1.528   1.027
 3321SOL    HW110862   6.195   1.616   1.008
 3321SOL    HW210863   6.184   1.481   1.098
 3322SOL     OW10864   6.816   3.241   0.704
 3322SOL    HW110865   6.738   3.294   0.738
 3322SOL    HW210866   6.899   3.268   0.753
 3323SOL     OW10867   2.544   1.366   0.931
 3323SOL    HW110868   2.540   1.423   1.014
 3323SOL    HW210869   2.587   1.418   0.857
 3324SOL     OW10870   4.063   5.204   5.186
 3324SOL    HW110871   3.966   5.181   5.188
 3324SOL    HW210872   4.073   5.302   5.168
 3325SOL     OW10873   0.326   3.303   6.291
 3325SOL    HW110874   0.314   3.315   6.192
 3325SOL    HW210875   0.285   3.380   6.339
 3326SOL     OW10876   4.760   1.188   2.277
 3326SOL    HW110877   4.796   1.172   2.185
 3326SOL    HW210878   4.679   1.130   2.290
 3327SOL     OW10879   2.213   5.766   1.990
 3327SOL    HW110880   2.255   5.765   2.081
 3327SOL    HW210881   2.202   5.672   1.958
 3328SOL     OW10882   3.389   1.554   1.202
 3328SOL    HW110883   3.428   1.528   1.114
 3328SOL    HW210884   3.396   1.653   1.214
 3329SOL     OW10885   5.876   0.405   5.330
 3329SOL    HW110886   5.925   0.447   5.254
 3329SOL    HW210887   5.922   0.426   5.416
 3330SOL     OW10888   6.818   3.855   2.090
 3330SOL    HW110889   6.857   3.783   2.148
 3330SOL    HW210890   6.733   3.888   2.130
 3331SOL     OW10891   2.247   2.913   1.379
 3331SOL    HW110892   2.151   2.936   1.394
 3331SOL    HW210893   2.263   2.819   1.409
 3332SOL     OW10894   5.471   5.706   6.969
 3332SOL    HW110895   5.515   5.720   6.880
 3332SOL    HW210896   5.387   5.760   6.973
 3333SOL     OW10897   4.748   5.484   6.705
 3333SOL    HW110898   4.844   5.512   6.710
 3333SOL    HW210899   4.736   5.396   6.751
 3334SOL     OW10900   3.342   3.227   1.290
 3334SOL    HW110901   3.314   3.184   1.376
 3334SOL    HW210902   3.274   3.206   1.219
 3335SOL     OW10903   4.641   5.505   5.276
 3335SOL    HW110904   4.702   5.532   5.201
 3335SOL    HW210905   4.581   5.431   5.244
 3336SOL     OW10906   2.856   5.187   5.601
 3336SOL    HW110907   2.825   5.255   5.667
 3336SOL    HW210908   2.913   5.232   5.532
 3337SOL     OW10909   3.400   2.457   1.376
 3337SOL    HW110910   3.332   2.386   1.392
 3337SOL    HW210911   3.477   2.446   1.439
 3338SOL     OW10912   6.777   3.557   1.101
 3338SOL    HW110913   6.840   3.595   1.033
 3338SOL    HW210914   6.701   3.512   1.054
 3339SOL     OW10915   6.713   6.277   6.958
 3339SOL    HW110916   6.797   6.235   6.991
 3339SOL    HW210917   6.683   6.347   0.002
 3340SOL     OW10918   3.745   6.579   1.533
 3340SOL    HW110919   3.801   6.650   1.577
 3340SOL    HW210920   3.710   6.517   1.604
 3341SOL     OW10921   0.659   0.104   3.366
 3341SOL    HW110922   0.622   0.057   3.286
 3341SOL    HW210923   0.712   0.184   3.337
 3342SOL     OW10924   2.162   0.151   3.637
 3342SOL    HW110925   2.216   0.104   3.567
 3342SOL    HW210926   2.125   0.236   3.598
 3343SOL     OW10927   5.170   3.200   0.182
 3343SOL    HW110928   5.265   3.225   0.167
 3343SOL    HW210929   5.131   3.257   0.254
 3344SOL     OW10930   5.533   4.030   5.122
 3344SOL    HW110931   5.513   3.933   5.130
 3344SOL    HW210932   5.553   4.068   5.212
 3345SOL     OW10933   2.802   3.499   6.064
 3345SOL    HW110934   2.743   3.555   6.123
 3345SOL    HW210935   2.895   3.535   6.067
 3346SOL     OW10936   0.550   1.056   2.368
 3346SOL    HW110937   0.581   1.068   2.274
 3346SOL    HW210938   0.621   1.087   2.431
 3347SOL     OW10939   6.819   4.559   2.945
 3347SOL    HW110940   6.871   4.640   2.970
 3347SOL    HW210941   6.785   4.567   2.851
 3348SOL     OW10942   3.426   2.975   3.945
 3348SOL    HW110943   3.385   2.979   3.854
 3348SOL    HW210944   3.509   2.919   3.943
 3349SOL     OW10945   0.369   4.938   4.421
 3349SOL    HW110946   0.445   4.993   4.386
 3349SOL    HW210947   0.385   4.842   4.400
 3350SOL     OW10948   1.517   1.558   6.656
 3350SOL    HW110949   1.468   1.477   6.686
 3350SOL    HW210950   1.610   1.557   6.693
 3351SOL     OW10951   5.311   0.729   1.818
 3351SOL    HW110952   5.302   0.677   1.733
 3351SOL    HW210953   5.262   0.682   1.891
 3352SOL     OW10954   0.055   3.743   0.061
 3352SOL    HW110955   6.982   3.744   0.097
 3352SOL    HW210956   0.083   3.648   0.045
 3353SOL     OW10957   1.631   6.615   1.616
 3353SOL    HW110958   1.621   6.705   1.573
 3353SOL    HW210959   1.540   6.580   1.639
 3354SOL     OW10960   6.496   2.688   3.684
 3354SOL    HW110961   6.539   2.686   3.774
 3354SOL    HW210962   6.397   2.676   3.695
 3355SOL     OW10963   1.023   1.703   0.335
 3355SOL    HW110964   0.990   1.660   0.419
 3355SOL    HW210965   1.057   1.632   0.273
 3356SOL     OW10966   2.683   2.965   0.226
 3356SOL    HW110967   2.731   2.877   0.232
 3356SOL    HW210968   2.665   3.000   0.318
 3357SOL     OW10969   2.029   4.940   1.268
 3357SOL    HW110970   1.962   5.005   1.231
 3357SOL    HW210971   2.026   4.855   1.215
 3358SOL     OW10972   4.673   6.300   1.656
 3358SOL    HW110973   4.658   6.292   1.755
 3358SOL    HW210974   4.588   6.328   1.611
 3359SOL     OW10975   0.191   0.338   3.549
 3359SOL    HW110976   0.151   0.278   3.618
 3359SOL    HW210977   0.200   0.289   3.462
 3360SOL     OW10978   0.323   1.012   0.771
 3360SOL    HW110979   0.315   0.921   0.810
 3360SOL    HW210980   0.406   1.056   0.805
 3361SOL     OW10981   6.521   5.352   2.893
 3361SOL    HW110982   6.472   5.417   2.951
 3361SOL    HW210983   6.591   5.305   2.947
 3362SOL     OW10984   2.987   1.182   5.172
 3362SOL    HW110985   3.002   1.250   5.101
 3362SOL    HW210986   2.980   1.091   5.131
 3363SOL     OW10987   0.318   0.873   6.357
 3363SOL    HW110988   0.280   0.808   6.292
 3363SOL    HW210989   0.257   0.882   6.435
 3364SOL     OW10990   0.931   5.579   5.769
 3364SOL    HW110991   0.889   5.508   5.713
 3364SOL    HW210992   0.859   5.629   5.819
 3365SOL     OW10993   0.680   2.542   4.126
 3365SOL    HW110994   0.639   2.616   4.178
 3365SOL    HW210995   0.640   2.455   4.155
 3366SOL     OW10996   5.520   0.965   4.596
 3366SOL    HW110997   5.547   1.027   4.669
 3366SOL    HW210998   5.600   0.913   4.565
 3367SOL     OW10999   2.112   2.911   1.895
 3367SOL    HW111000   2.066   2.824   1.914
 3367SOL    HW211001   2.210   2.901   1.909
 3368SOL     OW11002   6.859   5.231   6.489
 3368SOL    HW111003   6.766   5.196   6.480
 3368SOL    HW211004   6.874   5.261   6.584
 3369SOL     OW11005   3.384   1.780   0.315
 3369SOL    HW111006   3.425   1.722   0.244
 3369SOL    HW211007   3.340   1.722   0.384
 3370SOL     OW11008   6.477   6.630   5.225
 3370SOL    HW111009   6.485   6.638   5.126
 3370SOL    HW211010   6.507   6.538   5.254
 3371SOL     OW11011   1.563   4.346   2.542
 3371SOL    HW111012   1.661   4.332   2.559
 3371SOL    HW211013   1.546   4.340   2.443
 3372SOL     OW11014   0.391   1.441   2.113
 3372SOL    HW111015   0.488   1.462   2.125
 3372SOL    HW211016   0.354   1.405   2.199
 3373SOL     OW11017   6.016   1.306   4.393
 3373SOL    HW111018   5.940   1.278   4.334
 3373SOL    HW211019   6.007   1.262   4.482
 3374SOL     OW11020   3.511   6.063   5.215
 3374SOL    HW111021   3.555   6.151   5.197
 3374SOL    HW211022   3.542   6.028   5.303
 3375SOL     OW11023   4.323   4.762   4.856
 3375SOL    HW111024   4.295   4.726   4.767
 3375SOL    HW211025   4.331   4.687   4.921
 3376SOL     OW11026   4.007   3.310   3.124
 3376SOL    HW111027   4.069   3.386   3.104
 3376SOL    HW211028   3.984   3.263   3.039
 3377SOL     OW11029   0.939   6.207   4.580
 3377SOL    HW111030   0.982   6.213   4.670
 3377SOL    HW211031   0.855   6.153   4.587
 3378SOL     OW11032   6.655   0.747   0.818
 3378SOL    HW111033   6.619   0.819   0.877
 3378SOL    HW211034   6.724   0.785   0.756
 3379SOL     OW11035   0.453   3.949   5.599
 3379SOL    HW111036   0.468   3.855   5.570
 3379SOL    HW211037   0.359   3.960   5.630
 3380SOL     OW11038   6.852   5.779   6.024
 3380SOL    HW111039   6.778   5.754   6.088
 3380SOL    HW211040   6.814   5.788   5.932
 3381SOL     OW11041   2.129   1.848   0.335
 3381SOL    HW111042   2.211   1.801   0.300
 3381SOL    HW211043   2.117   1.934   0.286
 3382SOL     OW11044   0.682   1.334   0.489
 3382SOL    HW111045   0.583   1.328   0.505
 3382SOL    HW211046   0.699   1.377   0.401
 3383SOL     OW11047   5.994   4.971   2.655
 3383SOL    HW111048   6.024   4.881   2.687
 3383SOL    HW211049   5.935   4.959   2.575
 3384SOL     OW11050   3.048   2.994   5.321
 3384SOL    HW111051   2.951   3.015   5.333
 3384SOL    HW211052   3.082   2.949   5.404
 3385SOL     OW11053   0.133   4.207   3.773
 3385SOL    HW111054   0.130   4.214   3.673
 3385SOL    HW211055   0.187   4.282   3.810
 3386SOL     OW11056   5.953   3.440   5.484
 3386SOL    HW111057   6.033   3.500   5.490
 3386SOL    HW211058   5.874   3.493   5.453
 3387SOL     OW11059   2.472   1.454   3.000
 3387SOL    HW111060   2.486   1.537   2.946
 3387SOL    HW211061   2.496   1.472   3.096
 3388SOL     OW11062   5.541   3.408   1.396
 3388SOL    HW111063   5.545   3.318   1.439
 3388SOL    HW211064   5.462   3.411   1.335
 3389SOL     OW11065   4.530   4.473   4.622
 3389SOL    HW111066   4.588   4.545   4.584
 3389SOL    HW211067   4.563   4.384   4.590
 3390SOL     OW11068   5.138   3.591   5.692
 3390SOL    HW111069   5.161   3.660   5.761
 3390SOL    HW211070   5.184   3.505   5.714
 3391SOL     OW11071   4.299   1.951   4.709
 3391SOL    HW111072   4.201   1.971   4.709
 3391SOL    HW211073   4.335   1.962   4.802
 3392SOL     OW11074   2.745   0.955   4.142
 3392SOL    HW111075   2.805   0.940   4.063
 3392SOL    HW211076   2.677   0.882   4.146
 3393SOL     OW11077   6.207   6.432   0.591
 3393SOL    HW111078   6.218   6.416   0.689
 3393SOL    HW211079   6.112   6.456   0.571
 3394SOL     OW11080   5.802   3.393   0.891
 3394SOL    HW111081   5.891   3.421   0.855
 3394SOL    HW211082   5.813   3.315   0.952
 3395SOL     OW11083   6.588   3.020   4.266
 3395SOL    HW111084   6.675   3.066   4.255
 3395SOL    HW211085   6.530   3.038   4.187
 3396SOL     OW11086   0.565   3.107   3.382
 3396SOL    HW111087   0.564   3.032   3.448
 3396SOL    HW211088   0.586   3.071   3.291
 3397SOL     OW11089   3.445   1.238   5.331
 3397SOL    HW111090   3.362   1.293   5.329
 3397SOL    HW211091   3.434   1.161   5.267
 3398SOL     OW11092   1.035   6.845   4.406
 3398SOL    HW111093   0.937   6.864   4.394
 3398SOL    HW211094   1.047   6.771   4.472
 3399SOL     OW11095   4.629   4.438   3.948
 3399SOL    HW111096   4.666   4.383   3.874
 3399SOL    HW211097   4.632   4.385   4.033
 3400SOL     OW11098   3.867   1.813   5.822
 3400SOL    HW111099   3.830   1.837   5.732
 3400SOL    HW211100   3.966   1.830   5.822
 3401SOL     OW11101   0.036   4.054   0.749
 3401SOL    HW111102   0.048   3.976   0.687
 3401SOL    HW211103   0.112   4.057   0.813
 3402SOL     OW11104   5.188   5.841   1.033
 3402SOL    HW111105   5.180   5.922   0.974
 3402SOL    HW211106   5.190   5.870   1.129
 3403SOL     OW11107   3.824   0.535   5.345
 3403SOL    HW111108   3.727   0.515   5.336
 3403SOL    HW211109   3.844   0.564   5.439
 3404SOL     OW11110   4.039   1.776   0.804
 3404SOL    HW111111   4.102   1.724   0.861
 3404SOL    HW211112   4.058   1.759   0.707
 3405SOL     OW11113   6.414   3.554   4.807
 3405SOL    HW111114   6.413   3.489   4.883
 3405SOL    HW211115   6.377   3.510   4.725
 3406SOL     OW11116   1.948   3.910   1.612
 3406SOL    HW111117   1.926   3.882   1.518
 3406SOL    HW211118   1.919   3.839   1.676
 3407SOL     OW11119   1.601   5.332   1.417
 3407SOL    HW111120   1.590   5.241   1.378
 3407SOL    HW211121   1.585   5.328   1.516
 3408SOL     OW11122   4.715   4.305   4.169
 3408SOL    HW111123   4.686   4.318   4.264
 3408SOL    HW211124   4.804   4.260   4.167
 3409SOL     OW11125   3.842   6.967   5.473
 3409SOL    HW111126   3.815   7.005   5.385
 3409SOL    HW211127   3.761   6.947   5.528
 3410SOL     OW11128   5.945   6.230   6.765
 3410SOL    HW111129   5.964   6.263   6.857
 3410SOL    HW211130   5.893   6.299   6.715
 3411SOL     OW11131   6.335   3.178   2.206
 3411SOL    HW111132   6.284   3.247   2.257
 3411SOL    HW211133   6.288   3.158   2.120
 3412SOL     OW11134   3.946   2.955   6.564
 3412SOL    HW111135   4.022   3.017   6.583
 3412SOL    HW211136   3.967   2.900   6.483
 3413SOL     OW11137   4.242   1.778   2.667
 3413SOL    HW111138   4.243   1.678   2.673
 3413SOL    HW211139   4.158   1.807   2.621
 3414SOL     OW11140   3.150   1.265   5.366
 3414SOL    HW111141   3.084   1.259   5.291
 3414SOL    HW211142   3.186   1.173   5.386
 3415SOL     OW11143   1.300   3.916   4.606
 3415SOL    HW111144   1.210   3.957   4.596
 3415SOL    HW211145   1.354   3.969   4.672
 3416SOL     OW11146   6.667   4.538   6.263
 3416SOL    HW111147   6.631   4.458   6.312
 3416SOL    HW211148   6.599   4.611   6.266
 3417SOL     OW11149   5.990   5.983   2.603
 3417SOL    HW111150   6.084   5.956   2.580
 3417SOL    HW211151   5.963   5.941   2.689
 3418SOL     OW11152   4.566   0.608   4.371
 3418SOL    HW111153   4.538   0.701   4.394
 3418SOL    HW211154   4.612   0.568   4.450
 3419SOL     OW11155   3.682   5.652   5.728
 3419SOL    HW111156   3.706   5.583   5.659
 3419SOL    HW211157   3.584   5.648   5.746
 3420SOL     OW11158   5.022   2.293   3.799
 3420SOL    HW111159   5.047   2.196   3.801
 3420SOL    HW211160   4.958   2.312   3.874
 3421SOL     OW11161   6.386   0.633   5.619
 3421SOL    HW111162   6.410   0.583   5.536
 3421SOL    HW211163   6.300   0.682   5.605
 3422SOL     OW11164   3.205   6.721   1.291
 3422SOL    HW111165   3.244   6.641   1.246
 3422SOL    HW211166   3.125   6.694   1.344
 3423SOL     OW11167   1.791   0.251   0.819
 3423SOL    HW111168   1.811   0.155   0.801
 3423SOL    HW211169   1.753   0.293   0.736
 3424SOL     OW11170   3.627   0.663   2.121
 3424SOL    HW111171   3.620   0.622   2.030
 3424SOL    HW211172   3.536   0.683   2.155
 3425SOL     OW11173   5.126   4.232   2.326
 3425SOL    HW111174   5.142   4.186   2.239
 3425SOL    HW211175   5.029   4.229   2.348
 3426SOL     OW11176   3.383   3.192   0.313
 3426SOL    HW111177   3.305   3.132   0.333
 3426SOL    HW211178   3.448   3.143   0.255
 3427SOL     OW11179   6.374   6.210   0.026
 3427SOL    HW111180   6.290   6.172   0.064
 3427SOL    HW211181   6.352   6.276   6.975
 3428SOL     OW11182   3.973   4.687   1.701
 3428SOL    HW111183   4.063   4.680   1.744
 3428SOL    HW211184   3.933   4.776   1.724
 3429SOL     OW11185   0.621   1.573   6.466
 3429SOL    HW111186   0.588   1.479   6.480
 3429SOL    HW211187   0.585   1.632   6.537
 3430SOL     OW11188   0.728   6.763   6.243
 3430SOL    HW111189   0.753   6.851   6.283
 3430SOL    HW211190   0.650   6.775   6.181
 3431SOL     OW11191   2.486   6.619   0.736
 3431SOL    HW111192   2.387   6.632   0.747
 3431SOL    HW211193   2.520   6.560   0.809
 3432SOL     OW11194   2.907   2.466   5.625
 3432SOL    HW111195   2.958   2.446   5.541
 3432SOL    HW211196   2.811   2.441   5.612
 3433SOL     OW11197   2.063   0.405   6.529
 3433SOL    HW111198   2.122   0.343   6.581
 3433SOL    HW211199   2.006   0.457   6.593
 3434SOL     OW11200   3.434   2.714   0.792
 3434SOL    HW111201   3.363   2.755   0.850
 3434SOL    HW211202   3.474   2.635   0.838
 3435SOL     OW11203   0.044   2.033   2.008
 3435SOL    HW111204   0.028   2.077   2.096
 3435SOL    HW211205   0.141   2.011   1.998
 3436SOL     OW11206   4.279   6.869   5.286
 3436SOL    HW111207   4.291   6.967   5.301
 3436SOL    HW211208   4.209   6.834   5.348
 3437SOL     OW11209   4.690   1.135   6.373
 3437SOL    HW111210   4.631   1.196   6.425
 3437SOL    HW211211   4.756   1.091   6.435
 3438SOL     OW11212   1.577   2.734   6.021
 3438SOL    HW111213   1.494   2.716   5.969
 3438SOL    HW211214   1.623   2.648   6.042
 3439SOL     OW11215   2.663   0.475   5.131
 3439SOL    HW111216   2.655   0.570   5.103
 3439SOL    HW211217   2.618   0.462   5.220
 3440SOL     OW11218   5.226   3.254   1.514
 3440SOL    HW111219   5.228   3.156   1.499
 3440SOL    HW211220   5.189   3.274   1.605
 3441SOL     OW11221   5.109   0.380   3.082
 3441SOL    HW111222   5.106   0.476   3.111
 3441SOL    HW211223   5.071   0.371   2.990
 3442SOL     OW11224   2.802   5.098   3.206
 3442SOL    HW111225   2.850   5.078   3.291
 3442SOL    HW211226   2.703   5.098   3.222
 3443SOL     OW11227   5.248   0.788   2.843
 3443SOL    HW111228   5.190   0.772   2.923
 3443SOL    HW211229   5.224   0.876   2.802
 3444SOL     OW11230   5.421   5.102   6.951
 3444SOL    HW111231   5.361   5.053   6.887
 3444SOL    HW211232   5.373   5.115   0.017
 3445SOL     OW11233   6.344   4.320   4.052
 3445SOL    HW111234   6.360   4.403   3.998
 3445SOL    HW211235   6.262   4.274   4.017
 3446SOL     OW11236   5.847   1.012   2.958
 3446SOL    HW111237   5.829   1.063   3.042
 3446SOL    HW211238   5.770   0.952   2.939
 3447SOL     OW11239   4.929   5.093   0.207
 3447SOL    HW111240   4.958   5.056   0.296
 3447SOL    HW211241   4.936   5.193   0.208
 3448SOL     OW11242   3.262   6.931   1.108
 3448SOL    HW111243   3.173   6.947   1.066
 3448SOL    HW211244   3.250   6.873   1.189
 3449SOL     OW11245   5.290   6.411   2.968
 3449SOL    HW111246   5.223   6.421   3.042
 3449SOL    HW211247   5.364   6.351   2.999
 3450SOL     OW11248   0.541   2.889   0.481
 3450SOL    HW111249   0.468   2.863   0.543
 3450SOL    HW211250   0.508   2.958   0.417
 3451SOL     OW11251   0.391   5.694   2.940
 3451SOL    HW111252   0.333   5.688   3.021
 3451SOL    HW211253   0.465   5.626   2.948
 3452SOL     OW11254   5.877   1.332   0.364
 3452SOL    HW111255   5.902   1.252   0.418
 3452SOL    HW211256   5.959   1.383   0.339
 3453SOL     OW11257   6.313   6.113   5.488
 3453SOL    HW111258   6.297   6.210   5.469
 3453SOL    HW211259   6.269   6.089   5.574
 3454SOL     OW11260   1.929   0.370   6.257
 3454SOL    HW111261   1.988   0.389   6.336
 3454SOL    HW211262   1.850   0.430   6.259
 3455SOL     OW11263   1.331   3.030   4.283
 3455SOL    HW111264   1.430   3.042   4.293
 3455SOL    HW211265   1.309   2.932   4.289
 3456SOL     OW11266   5.376   6.447   2.322
 3456SOL    HW111267   5.391   6.522   2.386
 3456SOL    HW211268   5.438   6.457   2.244
 3457SOL     OW11269   2.419   5.252   4.221
 3457SOL    HW111270   2.419   5.269   4.123
 3457SOL    HW211271   2.489   5.183   4.243
 3458SOL     OW11272   5.582   6.670   6.893
 3458SOL    HW111273   5.538   6.637   6.809
 3458SOL    HW211274   5.673   6.629   6.902
 3459SOL     OW11275   0.415   4.157   2.956
 3459SOL    HW111276   0.365   4.196   2.879
 3459SOL    HW211277   0.388   4.062   2.969
 3460SOL     OW11278   3.134   3.187   0.597
 3460SOL    HW111279   3.051   3.138   0.570
 3460SOL    HW211280   3.177   3.140   0.675
 3461SOL     OW11281   4.747   5.533   3.937
 3461SOL    HW111282   4.727   5.610   3.876
 3461SOL    HW211283   4.666   5.512   3.992
 3462SOL     OW11284   5.993   3.928   1.492
 3462SOL    HW111285   5.955   3.983   1.418
 3462SOL    HW211286   6.069   3.977   1.535
 3463SOL     OW11287   0.750   3.372   2.686
 3463SOL    HW111288   0.795   3.427   2.757
 3463SOL    HW211289   0.669   3.328   2.725
 3464SOL     OW11290   5.849   2.163   6.737
 3464SOL    HW111291   5.876   2.106   6.815
 3464SOL    HW211292   5.894   2.252   6.743
 3465SOL     OW11293   1.137   2.799   1.988
 3465SOL    HW111294   1.167   2.757   1.903
 3465SOL    HW211295   1.074   2.874   1.968
 3466SOL     OW11296   5.705   5.112   5.590
 3466SOL    HW111297   5.626   5.050   5.595
 3466SOL    HW211298   5.683   5.189   5.530
 3467SOL     OW11299   2.248   1.434   1.127
 3467SOL    HW111300   2.226   1.415   1.031
 3467SOL    HW211301   2.246   1.533   1.143
 3468SOL     OW11302   5.659   1.704   3.142
 3468SOL    HW111303   5.749   1.712   3.183
 3468SOL    HW211304   5.591   1.749   3.201
 3469SOL     OW11305   5.220   1.281   5.757
 3469SOL    HW111306   5.205   1.287   5.855
 3469SOL    HW211307   5.288   1.349   5.729
 3470SOL     OW11308   0.127   2.803   2.134
 3470SOL    HW111309   0.092   2.769   2.047
 3470SOL    HW211310   0.140   2.726   2.197
 3471SOL     OW11311   4.629   4.288   3.707
 3471SOL    HW111312   4.545   4.312   3.755
 3471SOL    HW211313   4.610   4.281   3.608
 3472SOL     OW11314   3.904   0.953   1.450
 3472SOL    HW111315   3.950   0.874   1.490
 3472SOL    HW211316   3.971   1.009   1.400
 3473SOL     OW11317   6.189   3.199   3.475
 3473SOL    HW111318   6.184   3.277   3.538
 3473SOL    HW211319   6.234   3.229   3.390
 3474SOL     OW11320   0.694   4.008   3.930
 3474SOL    HW111321   0.647   3.990   3.843
 3474SOL    HW211322   0.696   3.924   3.984
 3475SOL     OW11323   0.743   4.156   4.986
 3475SOL    HW111324   0.823   4.207   5.018
 3475SOL    HW211325   0.661   4.194   5.028
 3476SOL     OW11326   2.004   2.231   2.613
 3476SOL    HW111327   2.044   2.227   2.521
 3476SOL    HW211328   1.925   2.291   2.612
 3477SOL     OW11329   0.829   4.441   0.744
 3477SOL    HW111330   0.837   4.539   0.729
 3477SOL    HW211331   0.913   4.395   0.714
 3478SOL     OW11332   2.700   6.339   6.618
 3478SOL    HW111333   2.647   6.423   6.612
 3478SOL    HW211334   2.655   6.275   6.680
 3479SOL     OW11335   0.714   0.883   2.923
 3479SOL    HW111336   0.645   0.941   2.968
 3479SOL    HW211337   0.797   0.882   2.979
 3480SOL     OW11338   0.770   6.269   5.631
 3480SOL    HW111339   0.851   6.231   5.585
 3480SOL    HW211340   0.781   6.369   5.638
 3481SOL     OW11341   5.193   0.507   0.314
 3481SOL    HW111342   5.140   0.454   0.380
 3481SOL    HW211343   5.291   0.491   0.329
 3482SOL     OW11344   5.715   1.244   2.192
 3482SOL    HW111345   5.646   1.173   2.179
 3482SOL    HW211346   5.758   1.266   2.104
 3483SOL     OW11347   5.719   1.992   2.804
 3483SOL    HW111348   5.732   2.081   2.760
 3483SOL    HW211349   5.712   1.921   2.735
 3484SOL     OW11350   1.246   2.904   6.680
 3484SOL    HW111351   1.179   2.872   6.747
 3484SOL    HW211352   1.337   2.871   6.706
 3485SOL     OW11353   1.173   2.155   4.489
 3485SOL    HW111354   1.161   2.247   4.527
 3485SOL    HW211355   1.257   2.115   4.525
 3486SOL     OW11356   1.986   0.554   4.084
 3486SOL    HW111357   1.988   0.467   4.035
 3486SOL    HW211358   2.006   0.538   4.181
 3487SOL     OW11359   6.306   2.411   6.909
 3487SOL    HW111360   6.360   2.396   6.992
 3487SOL    HW211361   6.209   2.394   6.929
 3488SOL     OW11362   5.562   0.897   4.933
 3488SOL    HW111363   5.621   0.841   4.991
 3488SOL    HW211364   5.533   0.842   4.854
 3489SOL     OW11365   3.779   0.131   1.738
 3489SOL    HW111366   3.729   0.188   1.673
 3489SOL    HW211367   3.772   0.171   1.829
 3490SOL     OW11368   3.323   4.506   1.402
 3490SOL    HW111369   3.358   4.510   1.495
 3490SOL    HW211370   3.233   4.460   1.403
 3491SOL     OW11371   4.092   3.318   6.141
 3491SOL    HW111372   4.004   3.279   6.114
 3491SOL    HW211373   4.164   3.278   6.086
 3492SOL     OW11374   5.995   4.657   0.591
 3492SOL    HW111375   5.918   4.711   0.626
 3492SOL    HW211376   5.960   4.576   0.544
 3493SOL     OW11377   5.835   3.845   3.979
 3493SOL    HW111378   5.883   3.762   4.010
 3493SOL    HW211379   5.855   3.920   4.041
 3494SOL     OW11380   2.337   0.654   2.043
 3494SOL    HW111381   2.401   0.683   1.972
 3494SOL    HW211382   2.255   0.617   2.000
 3495SOL     OW11383   0.433   4.154   2.252
 3495SOL    HW111384   0.399   4.061   2.237
 3495SOL    HW211385   0.406   4.213   2.176
 3496SOL     OW11386   6.090   5.421   1.204
 3496SOL    HW111387   6.110   5.375   1.291
 3496SOL    HW211388   6.076   5.518   1.220
 3497SOL     OW11389   2.545   1.369   4.170
 3497SOL    HW111390   2.476   1.335   4.106
 3497SOL    HW211391   2.572   1.295   4.231
 3498SOL     OW11392   3.062   1.399   2.406
 3498SOL    HW111393   3.040   1.310   2.447
 3498SOL    HW211394   3.107   1.457   2.475
 3499SOL     OW11395   6.669   4.835   4.090
 3499SOL    HW111396   6.754   4.817   4.039
 3499SOL    HW211397   6.688   4.830   4.188
 3500SOL     OW11398   1.789   2.895   3.022
 3500SOL    HW111399   1.823   2.880   2.929
 3500SOL    HW211400   1.729   2.819   3.048
 3501SOL     OW11401   3.614   6.852   6.274
 3501SOL    HW111402   3.711   6.832   6.288
 3501SOL    HW211403   3.603   6.949   6.250
 3502SOL     OW11404   6.916   2.924   1.626
 3502SOL    HW111405   6.889   2.977   1.546
 3502SOL    HW211406   6.930   2.985   1.704
 3503SOL     OW11407   0.006   6.145   5.795
 3503SOL    HW111408   0.059   6.222   5.759
 3503SOL    HW211409   7.007   6.080   5.721
 3504SOL     OW11410   1.944   0.755   1.942
 3504SOL    HW111411   1.854   0.716   1.959
 3504SOL    HW211412   1.955   0.838   1.996
 3505SOL     OW11413   5.354   4.850   5.183
 3505SOL    HW111414   5.415   4.905   5.125
 3505SOL    HW211415   5.262   4.850   5.144
 3506SOL     OW11416   5.597   4.617   4.891
 3506SOL    HW111417   5.682   4.594   4.842
 3506SOL    HW211418   5.535   4.664   4.829
 3507SOL     OW11419   2.910   0.455   0.927
 3507SOL    HW111420   2.831   0.439   0.986
 3507SOL    HW211421   2.883   0.447   0.831
 3508SOL     OW11422   2.300   1.913   6.329
 3508SOL    HW111423   2.308   1.896   6.231
 3508SOL    HW211424   2.385   1.951   6.364
 3509SOL     OW11425   5.542   6.973   6.455
 3509SOL    HW111426   5.625   6.926   6.484
 3509SOL    HW211427   5.549   0.050   6.477
 3510SOL     OW11428   1.360   0.475   1.627
 3510SOL    HW111429   1.264   0.469   1.597
 3510SOL    HW211430   1.382   0.395   1.683
 3511SOL     OW11431   2.110   4.117   1.653
 3511SOL    HW111432   2.057   4.032   1.653
 3511SOL    HW211433   2.073   4.179   1.584
 3512SOL     OW11434   0.240   4.459   0.794
 3512SOL    HW111435   0.299   4.388   0.831
 3512SOL    HW211436   0.278   4.549   0.816
 3513SOL     OW11437   6.048   2.065   0.663
 3513SOL    HW111438   6.084   2.053   0.755
 3513SOL    HW211439   5.951   2.041   0.661
 3514SOL     OW11440   6.677   0.907   1.404
 3514SOL    HW111441   6.661   0.999   1.369
 3514SOL    HW211442   6.744   0.910   1.478
 3515SOL     OW11443   5.040   6.273   3.122
 3515SOL    HW111444   5.070   6.286   3.216
 3515SOL    HW211445   5.068   6.182   3.090
 3516SOL     OW11446   4.563   6.271   0.897
 3516SOL    HW111447   4.503   6.327   0.839
 3516SOL    HW211448   4.649   6.320   0.912
 3517SOL     OW11449   0.124   1.294   1.153
 3517SOL    HW111450   0.163   1.219   1.205
 3517SOL    HW211451   0.143   1.282   1.055
 3518SOL     OW11452   4.932   2.792   5.007
 3518SOL    HW111453   4.871   2.729   5.056
 3518SOL    HW211454   5.027   2.769   5.026
 3519SOL     OW11455   1.763   0.326   5.639
 3519SOL    HW111456   1.781   0.370   5.727
 3519SOL    HW211457   1.794   0.385   5.565
 3520SOL     OW11458   3.420   6.177   0.467
 3520SOL    HW111459   3.508   6.199   0.425
 3520SOL    HW211460   3.423   6.086   0.507
 3521SOL     OW11461   4.593   2.577   0.195
 3521SOL    HW111462   4.618   2.662   0.241
 3521SOL    HW211463   4.556   2.598   0.104
 3522SOL     OW11464   6.780   6.038   6.469
 3522SOL    HW111465   6.811   6.095   6.393
 3522SOL    HW211466   6.759   6.097   6.548
 3523SOL     OW11467   1.304   4.350   4.767
 3523SOL    HW111468   1.284   4.361   4.865
 3523SOL    HW211469   1.345   4.434   4.732
 3524SOL     OW11470   5.038   2.040   1.829
 3524SOL    HW111471   4.948   2.032   1.872
 3524SOL    HW211472   5.094   1.961   1.855
 3525SOL     OW11473   6.678   3.594   4.157
 3525SOL    HW111474   6.691   3.588   4.256
 3525SOL    HW211475   6.753   3.647   4.117
 3526SOL     OW11476   2.190   6.853   3.913
 3526SOL    HW111477   2.189   6.846   4.012
 3526SOL    HW211478   2.276   6.816   3.878
 3527SOL     OW11479   5.813   3.529   6.525
 3527SOL    HW111480   5.730   3.474   6.527
 3527SOL    HW211481   5.858   3.517   6.437
 3528SOL     OW11482   2.106   6.886   5.519
 3528SOL    HW111483   2.135   6.907   5.426
 3528SOL    HW211484   2.186   6.860   5.573
 3529SOL     OW11485   3.879   6.632   1.046
 3529SOL    HW111486   3.863   6.731   1.039
 3529SOL    HW211487   3.820   6.584   0.981
 3530SOL     OW11488   6.773   5.566   1.378
 3530SOL    HW111489   6.865   5.537   1.351
 3530SOL    HW211490   6.780   5.640   1.444
 3531SOL     OW11491   5.297   2.240   0.543
 3531SOL    HW111492   5.348   2.173   0.597
 3531SOL    HW211493   5.289   2.208   0.449
 3532SOL     OW11494   2.800   0.480   1.613
 3532SOL    HW111495   2.819   0.478   1.711
 3532SOL    HW211496   2.869   0.535   1.566
 3533SOL     OW11497   0.163   1.089   2.203
 3533SOL    HW111498   0.144   1.186   2.221
 3533SOL    HW211499   0.081   1.035   2.221
 3534SOL     OW11500   0.719   2.003   0.717
 3534SOL    HW111501   0.764   1.933   0.662
 3534SOL    HW211502   0.627   2.020   0.683
 3535SOL     OW11503   1.993   5.061   6.253
 3535SOL    HW111504   1.936   4.982   6.229
 3535SOL    HW211505   2.025   5.051   6.347
 3536SOL     OW11506   3.431   1.799   2.759
 3536SOL    HW111507   3.371   1.813   2.681
 3536SOL    HW211508   3.397   1.723   2.815
 3537SOL     OW11509   2.343   5.548   2.794
 3537SOL    HW111510   2.337   5.607   2.713
 3537SOL    HW211511   2.264   5.487   2.796
 3538SOL     OW11512   2.565   6.198   5.395
 3538SOL    HW111513   2.510   6.230   5.318
 3538SOL    HW211514   2.582   6.100   5.385
 3539SOL     OW11515   3.878   3.551   5.086
 3539SOL    HW111516   3.808   3.503   5.139
 3539SOL    HW211517   3.847   3.643   5.065
 3540SOL     OW11518   2.064   2.813   4.556
 3540SOL    HW111519   2.151   2.857   4.534
 3540SOL    HW211520   2.054   2.805   4.655
 3541SOL     OW11521   2.596   2.547   6.083
 3541SOL    HW111522   2.689   2.562   6.116
 3541SOL    HW211523   2.569   2.623   6.024
 3542SOL     OW11524   1.286   5.392   3.500
 3542SOL    HW111525   1.280   5.348   3.589
 3542SOL    HW211526   1.360   5.351   3.447
 3543SOL     OW11527   0.558   2.778   4.994
 3543SOL    HW111528   0.564   2.817   5.086
 3543SOL    HW211529   0.649   2.756   4.961
 3544SOL     OW11530   1.261   4.083   6.168
 3544SOL    HW111531   1.286   3.987   6.158
 3544SOL    HW211532   1.211   4.096   6.254
 3545SOL     OW11533   3.923   5.817   6.373
 3545SOL    HW111534   3.881   5.756   6.305
 3545SOL    HW211535   3.939   5.766   6.458
 3546SOL     OW11536   1.282   4.904   4.099
 3546SOL    HW111537   1.321   4.824   4.053
 3546SOL    HW211538   1.340   4.928   4.177
 3547SOL     OW11539   5.365   4.385   3.429
 3547SOL    HW111540   5.372   4.485   3.425
 3547SOL    HW211541   5.443   4.344   3.382
 3548SOL     OW11542   5.796   1.525   5.984
 3548SOL    HW111543   5.865   1.544   6.054
 3548SOL    HW211544   5.817   1.437   5.940
 3549SOL     OW11545   6.416   4.694   4.920
 3549SOL    HW111546   6.509   4.663   4.943
 3549SOL    HW211547   6.419   4.747   4.836
 3550SOL     OW11548   5.445   1.910   2.471
 3550SOL    HW111549   5.497   1.838   2.517
 3550SOL    HW211550   5.366   1.869   2.425
 3551SOL     OW11551   4.095   6.626   2.618
 3551SOL    HW111552   4.037   6.707   2.626
 3551SOL    HW211553   4.058   6.565   2.549
 3552SOL     OW11554   5.062   6.184   1.703
 3552SOL    HW111555   5.050   6.241   1.783
 3552SOL    HW211556   5.156   6.191   1.670
 3553SOL     OW11557   5.784   3.422   1.273
 3553SOL    HW111558   5.856   3.443   1.339
 3553SOL    HW211559   5.697   3.410   1.322
 3554SOL     OW11560   3.821   2.692   1.179
 3554SOL    HW111561   3.907   2.718   1.225
 3554SOL    HW211562   3.782   2.613   1.225
 3555SOL     OW11563   1.093   3.239   3.150
 3555SOL    HW111564   0.996   3.243   3.173
 3555SOL    HW211565   1.131   3.332   3.149
 3556SOL     OW11566   3.969   0.954   4.811
 3556SOL    HW111567   3.993   0.860   4.833
 3556SOL    HW211568   3.982   0.970   4.713
 3557SOL     OW11569   0.437   0.405   3.731
 3557SOL    HW111570   0.357   0.419   3.672
 3557SOL    HW211571   0.513   0.462   3.698
 3558SOL     OW11572   1.084   5.682   0.820
 3558SOL    HW111573   1.025   5.617   0.868
 3558SOL    HW211574   1.121   5.639   0.738
 3559SOL     OW11575   0.703   0.050   4.859
 3559SOL    HW111576   0.660   0.005   4.937
 3559SOL    HW211577   0.791   0.006   4.839
 3560SOL     OW11578   1.306   5.211   0.794
 3560SOL    HW111579   1.259   5.161   0.721
 3560SOL    HW211580   1.283   5.169   0.882
 3561SOL     OW11581   3.794   4.889   5.075
 3561SOL    HW111582   3.852   4.947   5.017
 3561SOL    HW211583   3.698   4.914   5.062
 3562SOL     OW11584   5.075   0.781   4.008
 3562SOL    HW111585   4.992   0.832   4.030
 3562SOL    HW211586   5.153   0.843   4.005
 3563SOL     OW11587   5.006   0.343   1.476
 3563SOL    HW111588   4.960   0.428   1.498
 3563SOL    HW211589   4.984   0.273   1.544
 3564SOL     OW11590   1.462   4.598   4.668
 3564SOL    HW111591   1.464   4.673   4.733
 3564SOL    HW211592   1.426   4.630   4.580
 3565SOL     OW11593   4.015   6.413   4.508
 3565SOL    HW111594   4.106   6.440   4.539
 3565SOL    HW211595   3.950   6.422   4.583
 3566SOL     OW11596   6.181   3.534   6.710
 3566SOL    HW111597   6.206   3.579   6.624
 3566SOL    HW211598   6.263   3.521   6.765
 3567SOL     OW11599   0.992   2.673   0.115
 3567SOL    HW111600   0.989   2.573   0.108
 3567SOL    HW211601   1.049   2.710   0.042
 3568SOL     OW11602   5.170   5.191   3.488
 3568SOL    HW111603   5.082   5.222   3.524
 3568SOL    HW211604   5.244   5.238   3.537
 3569SOL     OW11605   2.801   2.906   5.959
 3569SOL    HW111606   2.810   3.005   5.949
 3569SOL    HW211607   2.804   2.863   5.869
 3570SOL     OW11608   5.472   0.508   4.507
 3570SOL    HW111609   5.396   0.508   4.442
 3570SOL    HW211610   5.559   0.512   4.457
 3571SOL     OW11611   2.404   1.029   5.158
 3571SOL    HW111612   2.347   1.049   5.238
 3571SOL    HW211613   2.386   1.097   5.087
 3572SOL     OW11614   5.709   3.748   2.858
 3572SOL    HW111615   5.739   3.652   2.850
 3572SOL    HW211616   5.673   3.778   2.770
 3573SOL     OW11617   6.166   4.085   2.520
 3573SOL    HW111618   6.117   4.102   2.435
 3573SOL    HW211619   6.192   3.989   2.524
 3574SOL     OW11620   1.232   3.665   0.296
 3574SOL    HW111621   1.256   3.692   0.203
 3574SOL    HW211622   1.238   3.565   0.303
 3575SOL     OW11623   5.051   5.978   1.879
 3575SOL    HW111624   5.092   6.032   1.805
 3575SOL    HW211625   5.051   6.032   1.963
 3576SOL     OW11626   0.582   2.013   0.424
 3576SOL    HW111627   0.591   2.112   0.435
 3576SOL    HW211628   0.525   1.976   0.497
 3577SOL     OW11629   2.546   2.814   5.947
 3577SOL    HW111630   2.493   2.877   6.003
 3577SOL    HW211631   2.644   2.834   5.959
 3578SOL     OW11632   4.823   2.311   1.269
 3578SOL    HW111633   4.887   2.385   1.248
 3578SOL    HW211634   4.729   2.344   1.258
 3579SOL     OW11635   7.019   2.713   2.831
 3579SOL    HW111636   6.970   2.627   2.817
 3579SOL    HW211637   6.987   2.781   2.766
 3580SOL     OW11638   6.597   3.401   0.688
 3580SOL    HW111639   6.575   3.364   0.597
 3580SOL    HW211640   6.553   3.489   0.700
 3581SOL     OW11641   0.612   6.559   2.740
 3581SOL    HW111642   0.620   6.482   2.803
 3581SOL    HW211643   0.702   6.577   2.698
 3582SOL     OW11644   2.495   4.771   5.946
 3582SOL    HW111645   2.448   4.775   5.859
 3582SOL    HW211646   2.434   4.800   6.019
 3583SOL     OW11647   1.141   4.419   0.456
 3583SOL    HW111648   1.237   4.427   0.431
 3583SOL    HW211649   1.134   4.399   0.554
 3584SOL     OW11650   5.658   4.699   5.579
 3584SOL    HW111651   5.609   4.676   5.495
 3584SOL    HW211652   5.747   4.652   5.580
 3585SOL     OW11653   3.504   1.894   4.554
 3585SOL    HW111654   3.551   1.806   4.550
 3585SOL    HW211655   3.513   1.933   4.646
 3586SOL     OW11656   0.171   2.694   4.780
 3586SOL    HW111657   0.266   2.686   4.809
 3586SOL    HW211658   0.159   2.777   4.726
 3587SOL     OW11659   3.157   5.307   6.382
 3587SOL    HW111660   3.157   5.207   6.380
 3587SOL    HW211661   3.236   5.340   6.434
 3588SOL     OW11662   6.783   3.892   4.478
 3588SOL    HW111663   6.847   3.860   4.548
 3588SOL    HW211664   6.808   3.984   4.448
 3589SOL     OW11665   5.785   6.429   6.637
 3589SOL    HW111666   5.812   6.516   6.677
 3589SOL    HW211667   5.806   6.429   6.540
 3590SOL     OW11668   0.491   3.857   0.639
 3590SOL    HW111669   0.409   3.843   0.583
 3590SOL    HW211670   0.562   3.792   0.612
 3591SOL     OW11671   5.393   3.057   1.044
 3591SOL    HW111672   5.446   3.141   1.033
 3591SOL    HW211673   5.418   3.012   1.130
 3592SOL     OW11674   0.370   0.027   2.457
 3592SOL    HW111675   0.298   7.001   2.508
 3592SOL    HW211676   0.459   0.003   2.497
 3593SOL     OW11677   0.642   4.759   6.173
 3593SOL    HW111678   0.598   4.848   6.189
 3593SOL    HW211679   0.720   4.750   6.236
 3594SOL     OW11680   5.009   0.381   4.364
 3594SOL    HW111681   4.957   0.411   4.284
 3594SOL    HW211682   4.976   0.430   4.445
 3595SOL     OW11683   5.964   5.793   0.505
 3595SOL    HW111684   5.956   5.696   0.483
 3595SOL    HW211685   5.938   5.807   0.601
 3596SOL     OW11686   4.391   2.207   3.674
 3596SOL    HW111687   4.363   2.183   3.767
 3596SOL    HW211688   4.445   2.291   3.676
 3597SOL     OW11689   2.002   2.542   5.553
 3597SOL    HW111690   2.071   2.597   5.600
 3597SOL    HW211691   1.952   2.600   5.488
 3598SOL     OW11692   1.753   6.349   5.316
 3598SOL    HW111693   1.785   6.334   5.409
 3598SOL    HW211694   1.774   6.442   5.287
 3599SOL     OW11695   4.796   2.093   6.818
 3599SOL    HW111696   4.699   2.099   6.842
 3599SOL    HW211697   4.807   2.031   6.740
 3600SOL     OW11698   1.157   3.401   1.845
 3600SOL    HW111699   1.184   3.475   1.782
 3600SOL    HW211700   1.212   3.320   1.827
 3601SOL     OW11701   5.375   2.226   5.789
 3601SOL    HW111702   5.432   2.155   5.830
 3601SOL    HW211703   5.321   2.186   5.715
 3602SOL     OW11704   1.934   2.889   0.524
 3602SOL    HW111705   1.896   2.939   0.601
 3602SOL    HW211706   1.866   2.884   0.450
 3603SOL     OW11707   3.303   1.019   5.984
 3603SOL    HW111708   3.323   0.961   6.062
 3603SOL    HW211709   3.205   1.036   5.979
 3604SOL     OW11710   5.848   1.227   3.806
 3604SOL    HW111711   5.842   1.292   3.730
 3604SOL    HW211712   5.930   1.247   3.860
 3605SOL     OW11713   1.037   5.325   4.080
 3605SOL    HW111714   1.004   5.323   4.175
 3605SOL    HW211715   1.000   5.247   4.030
 3606SOL     OW11716   1.669   6.697   2.575
 3606SOL    HW111717   1.576   6.669   2.600
 3606SOL    HW211718   1.690   6.784   2.619
 3607SOL     OW11719   5.639   2.763   2.489
 3607SOL    HW111720   5.658   2.723   2.400
 3607SOL    HW211721   5.541   2.778   2.499
 3608SOL     OW11722   4.938   1.427   3.644
 3608SOL    HW111723   4.861   1.389   3.695
 3608SOL    HW211724   5.017   1.436   3.704
 3609SOL     OW11725   2.123   6.895   4.572
 3609SOL    HW111726   2.150   6.979   4.526
 3609SOL    HW211727   2.058   6.845   4.515
 3610SOL     OW11728   1.821   0.484   5.424
 3610SOL    HW111729   1.743   0.531   5.383
 3610SOL    HW211730   1.906   0.525   5.392
 3611SOL     OW11731   4.387   4.580   4.011
 3611SOL    HW111732   4.466   4.518   4.013
 3611SOL    HW211733   4.410   4.660   3.955
 3612SOL     OW11734   6.703   1.343   6.784
 3612SOL    HW111735   6.682   1.441   6.774
 3612SOL    HW211736   6.771   1.317   6.716
 3613SOL     OW11737   4.055   5.113   2.174
 3613SOL    HW111738   4.023   5.208   2.169
 3613SOL    HW211739   3.978   5.052   2.157
 3614SOL     OW11740   3.107   3.271   6.741
 3614SOL    HW111741   3.103   3.367   6.715
 3614SOL    HW211742   3.202   3.246   6.762
 3615SOL     OW11743   5.984   2.674   6.144
 3615SOL    HW111744   6.016   2.594   6.195
 3615SOL    HW211745   5.944   2.740   6.208
 3616SOL     OW11746   1.768   1.357   6.456
 3616SOL    HW111747   1.681   1.309   6.457
 3616SOL    HW211748   1.842   1.292   6.437
 3617SOL     OW11749   4.616   0.192   6.181
 3617SOL    HW111750   4.670   0.204   6.098
 3617SOL    HW211751   4.595   0.095   6.194
 3618SOL     OW11752   2.515   3.413   5.416
 3618SOL    HW111753   2.604   3.393   5.375
 3618SOL    HW211754   2.490   3.508   5.397
 3619SOL     OW11755   5.621   3.188   0.353
 3619SOL    HW111756   5.526   3.216   0.368
 3619SOL    HW211757   5.682   3.254   0.395
 3620SOL     OW11758   6.373   5.880   4.615
 3620SOL    HW111759   6.386   5.794   4.666
 3620SOL    HW211760   6.285   5.877   4.567
 3621SOL     OW11761   3.334   3.242   4.007
 3621SOL    HW111762   3.412   3.304   3.996
 3621SOL    HW211763   3.358   3.152   3.972
 3622SOL     OW11764   0.736   0.585   1.276
 3622SOL    HW111765   0.719   0.516   1.346
 3622SOL    HW211766   0.795   0.547   1.205
 3623SOL     OW11767   0.585   5.978   4.925
 3623SOL    HW111768   0.633   5.892   4.943
 3623SOL    HW211769   0.558   6.020   5.011
 3624SOL     OW11770   1.570   6.926   1.862
 3624SOL    HW111771   1.537   6.834   1.883
 3624SOL    HW211772   1.670   6.928   1.869
 3625SOL     OW11773   0.242   3.289   6.976
 3625SOL    HW111774   0.177   3.250   6.909
 3625SOL    HW211775   0.237   3.389   6.973
 3626SOL     OW11776   0.644   3.508   4.454
 3626SOL    HW111777   0.614   3.469   4.541
 3626SOL    HW211778   0.735   3.474   4.432
 3627SOL     OW11779   5.113   3.395   1.777
 3627SOL    HW111780   5.019   3.360   1.783
 3627SOL    HW211781   5.112   3.494   1.786
 3628SOL     OW11782   1.623   1.152   2.242
 3628SOL    HW111783   1.657   1.235   2.287
 3628SOL    HW211784   1.701   1.099   2.209
 3629SOL     OW11785   1.382   0.620   4.123
 3629SOL    HW111786   1.447   0.663   4.185
 3629SOL    HW211787   1.332   0.690   4.073
 3630SOL     OW11788   6.728   2.545   3.214
 3630SOL    HW111789   6.653   2.515   3.155
 3630SOL    HW211790   6.693   2.570   3.304
 3631SOL     OW11791   1.942   6.725   3.818
 3631SOL    HW111792   1.949   6.637   3.769
 3631SOL    HW211793   2.023   6.739   3.874
 3632SOL     OW11794   4.501   4.098   0.985
 3632SOL    HW111795   4.515   4.038   1.063
 3632SOL    HW211796   4.452   4.180   1.014
 3633SOL     OW11797   3.607   2.377   5.678
 3633SOL    HW111798   3.666   2.450   5.644
 3633SOL    HW211799   3.514   2.391   5.646
 3634SOL     OW11800   2.066   6.303   6.152
 3634SOL    HW111801   2.072   6.289   6.053
 3634SOL    HW211802   2.078   6.400   6.173
 3635SOL     OW11803   2.513   1.404   1.221
 3635SOL    HW111804   2.416   1.399   1.197
 3635SOL    HW211805   2.534   1.335   1.290
 3636SOL     OW11806   0.173   5.583   1.033
 3636SOL    HW111807   0.247   5.633   1.079
 3636SOL    HW211808   0.086   5.629   1.050
 3637SOL     OW11809   1.118   2.381   0.398
 3637SOL    HW111810   1.138   2.474   0.429
 3637SOL    HW211811   1.116   2.379   0.298
 3638SOL     OW11812   6.847   3.793   2.592
 3638SOL    HW111813   6.767   3.735   2.576
 3638SOL    HW211814   6.837   3.841   2.679
 3639SOL     OW11815   3.825   4.693   5.562
 3639SOL    HW111816   3.841   4.623   5.493
 3639SOL    HW211817   3.910   4.711   5.612
 3640SOL     OW11818   5.498   2.452   0.536
 3640SOL    HW111819   5.589   2.431   0.500
 3640SOL    HW211820   5.444   2.368   0.540
 3641SOL     OW11821   5.192   4.756   1.293
 3641SOL    HW111822   5.277   4.761   1.345
 3641SOL    HW211823   5.122   4.813   1.337
 3642SOL     OW11824   5.166   1.742   6.582
 3642SOL    HW111825   5.208   1.807   6.518
 3642SOL    HW211826   5.167   1.780   6.674
 3643SOL     OW11827   4.114   6.902   5.800
 3643SOL    HW111828   4.202   6.855   5.792
 3643SOL    HW211829   4.115   6.963   5.879
 3644SOL     OW11830   3.221   1.025   1.430
 3644SOL    HW111831   3.199   1.123   1.435
 3644SOL    HW211832   3.147   0.977   1.383
 3645SOL     OW11833   1.446   3.607   4.231
 3645SOL    HW111834   1.534   3.601   4.185
 3645SOL    HW211835   1.425   3.703   4.249
 3646SOL     OW11836   2.349   4.757   4.824
 3646SOL    HW111837   2.274   4.731   4.763
 3646SOL    HW211838   2.316   4.765   4.917
 3647SOL     OW11839   2.906   7.014   6.622
 3647SOL    HW111840   2.872   0.072   6.569
 3647SOL    HW211841   2.829   6.953   6.643
 3648SOL     OW11842   5.255   5.999   3.352
 3648SOL    HW111843   5.190   5.985   3.277
 3648SOL    HW211844   5.275   6.097   3.362
 3649SOL     OW11845   5.574   4.203   0.107
 3649SOL    HW111846   5.571   4.105   0.089
 3649SOL    HW211847   5.654   4.224   0.162
 3650SOL     OW11848   5.584   4.307   0.860
 3650SOL    HW111849   5.649   4.268   0.925
 3650SOL    HW211850   5.553   4.397   0.892
 3651SOL     OW11851   2.078   1.409   5.826
 3651SOL    HW111852   2.122   1.498   5.837
 3651SOL    HW211853   2.024   1.408   5.741
 3652SOL     OW11854   5.801   0.897   2.422
 3652SOL    HW111855   5.865   0.908   2.498
 3652SOL    HW211856   5.708   0.908   2.455
 3653SOL     OW11857   0.916   0.929   2.718
 3653SOL    HW111858   0.856   0.931   2.798
 3653SOL    HW211859   0.976   0.849   2.722
 3654SOL     OW11860   4.553   6.114   0.423
 3654SOL    HW111861   4.631   6.054   0.408
 3654SOL    HW211862   4.525   6.108   0.518
 3655SOL     OW11863   2.900   1.045   4.353
 3655SOL    HW111864   2.851   1.015   4.272
 3655SOL    HW211865   2.867   1.135   4.382
 3656SOL     OW11866   0.558   5.200   1.387
 3656SOL    HW111867   0.475   5.240   1.349
 3656SOL    HW211868   0.630   5.269   1.391
 3657SOL     OW11869   4.580   6.082   5.524
 3657SOL    HW111870   4.574   6.160   5.462
 3657SOL    HW211871   4.676   6.058   5.537
 3658SOL     OW11872   1.130   5.045   6.307
 3658SOL    HW111873   1.148   4.956   6.265
 3658SOL    HW211874   1.155   5.118   6.243
 3659SOL     OW11875   0.407   1.480   6.235
 3659SOL    HW111876   0.401   1.520   6.143
 3659SOL    HW211877   0.501   1.451   6.252
 3660SOL     OW11878   5.941   6.641   5.527
 3660SOL    HW111879   5.864   6.615   5.585
 3660SOL    HW211880   6.026   6.630   5.578
 3661SOL     OW11881   6.873   0.700   4.512
 3661SOL    HW111882   6.903   0.653   4.430
 3661SOL    HW211883   6.784   0.742   4.496
 3662SOL     OW11884   3.965   1.076   5.543
 3662SOL    HW111885   3.936   1.166   5.511
 3662SOL    HW211886   3.942   1.007   5.475
 3663SOL     OW11887   2.513   1.978   6.507
 3663SOL    HW111888   2.468   1.966   6.596
 3663SOL    HW211889   2.544   2.073   6.498
 3664SOL     OW11890   4.045   1.682   2.167
 3664SOL    HW111891   4.145   1.671   2.168
 3664SOL    HW211892   4.007   1.628   2.091
 3665SOL     OW11893   0.459   6.225   5.657
 3665SOL    HW111894   0.460   6.292   5.583
 3665SOL    HW211895   0.537   6.240   5.717
 3666SOL     OW11896   1.517   2.400   3.353
 3666SOL    HW111897   1.616   2.411   3.359
 3666SOL    HW211898   1.472   2.483   3.386
 3667SOL     OW11899   1.109   1.649   3.265
 3667SOL    HW111900   1.050   1.571   3.286
 3667SOL    HW211901   1.117   1.658   3.165
 3668SOL     OW11902   1.027   0.459   1.826
 3668SOL    HW111903   1.098   0.394   1.797
 3668SOL    HW211904   0.978   0.493   1.746
 3669SOL     OW11905   5.989   1.876   4.611
 3669SOL    HW111906   5.900   1.909   4.644
 3669SOL    HW211907   6.059   1.897   4.679
 3670SOL     OW11908   3.199   4.804   1.410
 3670SOL    HW111909   3.238   4.895   1.430
 3670SOL    HW211910   3.265   4.752   1.356
 3671SOL     OW11911   6.567   1.180   2.916
 3671SOL    HW111912   6.548   1.220   3.006
 3671SOL    HW211913   6.511   1.098   2.903
 3672SOL     OW11914   5.705   1.305   2.456
 3672SOL    HW111915   5.726   1.267   2.366
 3672SOL    HW211916   5.789   1.326   2.505
 3673SOL     OW11917   4.160   5.725   7.008
 3673SOL    HW111918   4.162   5.789   6.932
 3673SOL    HW211919   4.071   5.680   7.012
 3674SOL     OW11920   0.933   5.964   5.906
 3674SOL    HW111921   0.959   5.979   6.002
 3674SOL    HW211922   0.982   5.885   5.871
 3675SOL     OW11923   0.430   2.269   3.577
 3675SOL    HW111924   0.440   2.174   3.549
 3675SOL    HW211925   0.520   2.312   3.581
 3676SOL     OW11926   4.783   2.996   3.069
 3676SOL    HW111927   4.809   3.030   3.159
 3676SOL    HW211928   4.769   3.072   3.006
 3677SOL     OW11929   2.130   1.061   5.074
 3677SOL    HW111930   2.212   1.101   5.033
 3677SOL    HW211931   2.147   1.041   5.170
 3678SOL     OW11932   1.552   0.751   4.296
 3678SOL    HW111933   1.492   0.786   4.368
 3678SOL    HW211934   1.574   0.826   4.232
 3679SOL     OW11935   6.098   0.338   2.782
 3679SOL    HW111936   6.088   0.423   2.730
 3679SOL    HW211937   6.188   0.298   2.764
 3680SOL     OW11938   4.758   2.051   3.191
 3680SOL    HW111939   4.788   2.070   3.285
 3680SOL    HW211940   4.661   2.074   3.182
 3681SOL     OW11941   1.172   0.404   5.574
 3681SOL    HW111942   1.108   0.400   5.497
 3681SOL    HW211943   1.259   0.443   5.544
 3682SOL     OW11944   5.510   2.517   1.433
 3682SOL    HW111945   5.473   2.458   1.361
 3682SOL    HW211946   5.600   2.551   1.405
 3683SOL     OW11947   0.260   0.958   4.312
 3683SOL    HW111948   0.188   0.924   4.372
 3683SOL    HW211949   0.260   0.905   4.227
 3684SOL     OW11950   1.692   6.614   6.298
 3684SOL    HW111951   1.654   6.535   6.345
 3684SOL    HW211952   1.729   6.586   6.209
 3685SOL     OW11953   2.690   5.905   5.606
 3685SOL    HW111954   2.608   5.900   5.663
 3685SOL    HW211955   2.664   5.930   5.513
 3686SOL     OW11956   0.024   3.995   3.608
 3686SOL    HW111957   0.096   4.011   3.676
 3686SOL    HW211958   0.064   3.992   3.517
 3687SOL     OW11959   5.126   6.830   3.293
 3687SOL    HW111960   5.065   6.765   3.246
 3687SOL    HW211961   5.221   6.810   3.269
 3688SOL     OW11962   5.756   3.790   0.158
 3688SOL    HW111963   5.839   3.793   0.102
 3688SOL    HW211964   5.751   3.703   0.207
 3689SOL     OW11965   2.192   1.494   5.535
 3689SOL    HW111966   2.108   1.445   5.559
 3689SOL    HW211967   2.175   1.553   5.456
 3690SOL     OW11968   5.256   5.270   0.410
 3690SOL    HW111969   5.182   5.324   0.369
 3690SOL    HW211970   5.283   5.311   0.497
 3691SOL     OW11971   2.346   2.102   6.072
 3691SOL    HW111972   2.442   2.085   6.094
 3691SOL    HW211973   2.340   2.163   5.994
 3692SOL     OW11974   6.504   3.832   6.439
 3692SOL    HW111975   6.601   3.832   6.464
 3692SOL    HW211976   6.486   3.758   6.375
 3693SOL     OW11977   0.811   1.859   2.766
 3693SOL    HW111978   0.806   1.932   2.698
 3693SOL    HW211979   0.832   1.898   2.856
 3694SOL     OW11980   0.667   0.617   1.766
 3694SOL    HW111981   0.678   0.655   1.858
 3694SOL    HW211982   0.622   0.685   1.708
 3695SOL     OW11983   6.784   2.520   2.199
 3695SOL    HW111984   6.800   2.611   2.160
 3695SOL    HW211985   6.825   2.514   2.290
 3696SOL     OW11986   5.227   1.325   5.121
 3696SOL    HW111987   5.244   1.372   5.207
 3696SOL    HW211988   5.296   1.254   5.107
 3697SOL     OW11989   6.158   5.777   3.234
 3697SOL    HW111990   6.074   5.731   3.261
 3697SOL    HW211991   6.179   5.850   3.298
 3698SOL     OW11992   2.062   0.759   3.727
 3698SOL    HW111993   2.092   0.745   3.822
 3698SOL    HW211994   2.004   0.840   3.722
 3699SOL     OW11995   2.477   2.222   3.886
 3699SOL    HW111996   2.380   2.200   3.875
 3699SOL    HW211997   2.532   2.141   3.865
 3700SOL     OW11998   1.521   5.163   5.484
 3700SOL    HW111999   1.458   5.087   5.502
 3700SOL    HW212000   1.507   5.198   5.392
 3701SOL     OW12001   0.879   6.070   1.917
 3701SOL    HW112002   0.787   6.046   1.887
 3701SOL    HW212003   0.885   6.169   1.928
 3702SOL     OW12004   6.108   6.504   3.834
 3702SOL    HW112005   6.195   6.478   3.877
 3702SOL    HW212006   6.057   6.422   3.810
 3703SOL     OW12007   1.057   0.987   6.304
 3703SOL    HW112008   1.125   1.059   6.321
 3703SOL    HW212009   0.983   1.025   6.248
 3704SOL     OW12010   5.407   2.996   1.323
 3704SOL    HW112011   5.486   3.035   1.371
 3704SOL    HW212012   5.428   2.902   1.296
 3705SOL     OW12013   4.971   4.585   3.632
 3705SOL    HW112014   4.966   4.488   3.607
 3705SOL    HW212015   5.066   4.616   3.625
 3706SOL     OW12016   0.611   3.797   0.261
 3706SOL    HW112017   0.578   3.774   0.170
 3706SOL    HW212018   0.536   3.831   0.317
 3707SOL     OW12019   3.475   4.997   3.929
 3707SOL    HW112020   3.538   5.009   4.006
 3707SOL    HW212021   3.405   4.930   3.954
 3708SOL     OW12022   4.190   6.524   1.363
 3708SOL    HW112023   4.175   6.513   1.462
 3708SOL    HW212024   4.194   6.433   1.320
 3709SOL     OW12025   1.350   6.988   1.596
 3709SOL    HW112026   1.378   6.940   1.513
 3709SOL    HW212027   1.401   6.952   1.674
 3710SOL     OW12028   0.612   4.966   5.295
 3710SOL    HW112029   0.524   4.955   5.249
 3710SOL    HW212030   0.628   4.889   5.356
 3711SOL     OW12031   1.892   6.266   4.992
 3711SOL    HW112032   1.877   6.177   5.036
 3711SOL    HW212033   1.811   6.292   4.940
 3712SOL     OW12034   2.396   5.550   6.661
 3712SOL    HW112035   2.454   5.471   6.638
 3712SOL    HW212036   2.436   5.599   6.738
 3713SOL     OW12037   0.128   6.959   5.006
 3713SOL    HW112038   0.054   0.006   5.001
 3713SOL    HW212039   0.131   6.907   4.921
 3714SOL     OW12040   0.751   4.540   6.441
 3714SOL    HW112041   0.814   4.483   6.495
 3714SOL    HW212042   0.804   4.604   6.386
 3715SOL     OW12043   0.571   5.921   3.540
 3715SOL    HW112044   0.618   5.918   3.452
 3715SOL    HW212045   0.606   5.998   3.593
 3716SOL     OW12046   6.220   5.430   4.051
 3716SOL    HW112047   6.150   5.484   4.096
 3716SOL    HW212048   6.256   5.361   4.115
 3717SOL     OW12049   4.871   1.537   0.259
 3717SOL    HW112050   4.960   1.580   0.244
 3717SOL    HW212051   4.883   1.438   0.265
 3718SOL     OW12052   0.241   0.058   6.956
 3718SOL    HW112053   0.180   0.070   0.014
 3718SOL    HW212054   0.307   7.007   6.976
 3719SOL     OW12055   4.282   3.243   6.369
 3719SOL    HW112056   4.314   3.327   6.413
 3719SOL    HW212057   4.219   3.266   6.296
 3720SOL     OW12058   5.586   3.671   1.128
 3720SOL    HW112059   5.683   3.658   1.108
 3720SOL    HW212060   5.542   3.581   1.137
 3721SOL     OW12061   6.152   5.590   6.662
 3721SOL    HW112062   6.179   5.669   6.608
 3721SOL    HW212063   6.089   5.619   6.734
 3722SOL     OW12064   4.230   7.015   1.218
 3722SOL    HW112065   4.223   6.942   1.285
 3722SOL    HW212066   4.321   7.016   1.177
 3723SOL     OW12067   4.406   5.143   6.888
 3723SOL    HW112068   4.356   5.228   6.869
 3723SOL    HW212069   4.406   5.086   6.806
 3724SOL     OW12070   1.937   5.249   5.429
 3724SOL    HW112071   1.930   5.167   5.485
 3724SOL    HW212072   1.909   5.228   5.335
 3725SOL     OW12073   0.299   5.978   0.135
 3725SOL    HW112074   0.301   5.878   0.136
 3725SOL    HW212075   0.215   6.010   0.179
 3726SOL     OW12076   5.378   5.003   4.686
 3726SOL    HW112077   5.385   5.093   4.727
 3726SOL    HW212078   5.312   5.005   4.611
 3727SOL     OW12079   6.863   3.593   4.709
 3727SOL    HW112080   6.911   3.675   4.678
 3727SOL    HW212081   6.831   3.541   4.630
 3728SOL     OW12082   2.901   3.234   6.965
 3728SOL    HW112083   2.805   3.207   6.966
 3728SOL    HW212084   2.916   3.297   6.889
 3729SOL     OW12085   0.545   0.460   4.521
 3729SOL    HW112086   0.569   0.369   4.486
 3729SOL    HW212087   0.537   0.455   4.621
 3730SOL     OW12088   4.643   6.401   5.805
 3730SOL    HW112089   4.684   6.333   5.865
 3730SOL    HW212090   4.550   6.372   5.781
 3731SOL     OW12091   0.834   1.108   6.902
 3731SOL    HW112092   0.774   1.086   6.979
 3731SOL    HW212093   0.822   1.041   6.830
 3732SOL     OW12094   1.654   2.057   0.841
 3732SOL    HW112095   1.563   2.101   0.841
 3732SOL    HW212096   1.719   2.114   0.891
 3733SOL     OW12097   1.879   3.025   3.444
 3733SOL    HW112098   1.810   3.071   3.499
 3733SOL    HW212099   1.854   3.031   3.347
 3734SOL     OW12100   4.252   0.367   1.050
 3734SOL    HW112101   4.309   0.409   0.979
 3734SOL    HW212102   4.206   0.439   1.103
 3735SOL     OW12103   4.490   0.135   2.096
 3735SOL    HW112104   4.540   0.163   2.014
 3735SOL    HW212105   4.538   0.060   2.141
 3736SOL     OW12106   6.674   0.467   0.814
 3736SOL    HW112107   6.592   0.493   0.864
 3736SOL    HW212108   6.750   0.527   0.840
 3737SOL     OW12109   5.979   2.767   3.991
 3737SOL    HW112110   5.925   2.785   4.073
 3737SOL    HW212111   5.940   2.689   3.942
 3738SOL     OW12112   6.474   5.593   1.229
 3738SOL    HW112113   6.461   5.498   1.203
 3738SOL    HW212114   6.569   5.609   1.253
 3739SOL     OW12115   2.913   4.734   1.688
 3739SOL    HW112116   2.933   4.681   1.606
 3739SOL    HW212117   2.907   4.674   1.767
 3740SOL     OW12118   5.842   6.080   0.124
 3740SOL    HW112119   5.786   6.148   0.077
 3740SOL    HW212120   5.858   6.003   0.063
 3741SOL     OW12121   5.085   2.705   6.989
 3741SOL    HW112122   5.002   2.733   6.942
 3741SOL    HW212123   5.086   2.605   6.999
 3742SOL     OW12124   4.817   5.517   0.067
 3742SOL    HW112125   4.807   5.601   0.120
 3742SOL    HW212126   4.726   5.482   0.043
 3743SOL     OW12127   4.580   4.322   1.558
 3743SOL    HW112128   4.573   4.297   1.654
 3743SOL    HW212129   4.497   4.293   1.510
 3744SOL     OW12130   0.908   6.350   1.870
 3744SOL    HW112131   0.985   6.390   1.819
 3744SOL    HW212132   0.909   6.385   1.964
 3745SOL     OW12133   4.978   3.605   2.357
 3745SOL    HW112134   4.974   3.660   2.274
 3745SOL    HW212135   4.902   3.540   2.359
 3746SOL     OW12136   6.823   0.532   3.691
 3746SOL    HW112137   6.811   0.550   3.593
 3746SOL    HW212138   6.832   0.619   3.740
 3747SOL     OW12139   4.573   6.750   5.930
 3747SOL    HW112140   4.641   6.824   5.935
 3747SOL    HW212141   4.588   6.685   6.004
 3748SOL     OW12142   5.948   1.136   2.314
 3748SOL    HW112143   5.883   1.207   2.286
 3748SOL    HW212144   5.897   1.053   2.338
 3749SOL     OW12145   1.216   5.658   2.537
 3749SOL    HW112146   1.216   5.738   2.477
 3749SOL    HW212147   1.231   5.687   2.631
 3750SOL     OW12148   5.571   4.749   0.881
 3750SOL    HW112149   5.616   4.702   0.805
 3750SOL    HW212150   5.488   4.795   0.847
 3751SOL     OW12151   0.978   3.105   0.730
 3751SOL    HW112152   0.966   3.145   0.640
 3751SOL    HW212153   1.063   3.053   0.733
 3752SOL     OW12154   0.504   0.139   0.014
 3752SOL    HW112155   0.474   0.184   6.950
 3752SOL    HW212156   0.425   0.117   0.070
 3753SOL     OW12157   0.434   6.370   5.418
 3753SOL    HW112158   0.475   6.344   5.331
 3753SOL    HW212159   0.341   6.402   5.402
 3754SOL     OW12160   5.324   6.508   1.647
 3754SOL    HW112161   5.267   6.513   1.729
 3754SOL    HW212162   5.409   6.559   1.663
 3755SOL     OW12163   5.921   5.733   4.259
 3755SOL    HW112164   5.837   5.690   4.290
 3755SOL    HW212165   5.907   5.773   4.168
 3756SOL     OW12166   2.126   0.497   6.124
 3756SOL    HW112167   2.036   0.455   6.124
 3756SOL    HW212168   2.144   0.538   6.214
 3757SOL     OW12169   3.959   5.878   5.530
 3757SOL    HW112170   3.885   5.887   5.464
 3757SOL    HW212171   4.025   5.809   5.498
 3758SOL     OW12172   1.897   1.634   4.432
 3758SOL    HW112173   1.947   1.548   4.439
 3758SOL    HW212174   1.851   1.652   4.519
 3759SOL     OW12175   4.500   5.376   5.659
 3759SOL    HW112176   4.454   5.325   5.731
 3759SOL    HW212177   4.448   5.369   5.574
 3760SOL     OW12178   1.198   3.494   3.198
 3760SOL    HW112179   1.116   3.538   3.233
 3760SOL    HW212180   1.210   3.519   3.101
 3761SOL     OW12181   0.928   6.945   4.794
 3761SOL    HW112182   0.921   6.846   4.784
 3761SOL    HW212183   1.020   6.975   4.769
 3762SOL     OW12184   0.818   4.284   6.717
 3762SOL    HW112185   0.776   4.216   6.656
 3762SOL    HW212186   0.830   4.244   6.808
 3763SOL     OW12187   6.735   4.554   6.627
 3763SOL    HW112188   6.689   4.640   6.604
 3763SOL    HW212189   6.789   4.567   6.711
 3764SOL     OW12190   2.366   0.838   4.812
 3764SOL    HW112191   2.457   0.846   4.773
 3764SOL    HW212192   2.327   0.748   4.792
 3765SOL     OW12193   4.777   1.196   3.071
 3765SOL    HW112194   4.769   1.295   3.079
 3765SOL    HW212195   4.698   1.153   3.113
 3766SOL     OW12196   0.960   0.781   3.924
 3766SOL    HW112197   0.914   0.854   3.976
 3766SOL    HW212198   0.899   0.703   3.915
 3767SOL     OW12199   2.064   4.379   0.367
 3767SOL    HW112200   2.001   4.404   0.293
 3767SOL    HW212201   2.035   4.423   0.452
 3768SOL     OW12202   3.698   6.397   6.123
 3768SOL    HW112203   3.671   6.307   6.157
 3768SOL    HW212204   3.632   6.465   6.153
 3769SOL     OW12205   5.280   5.768   5.279
 3769SOL    HW112206   5.284   5.837   5.207
 3769SOL    HW212207   5.273   5.677   5.238
 3770SOL     OW12208   2.141   0.723   6.739
 3770SOL    HW112209   2.208   0.650   6.725
 3770SOL    HW212210   2.160   0.769   6.826
 3771SOL     OW12211   5.423   1.916   1.097
 3771SOL    HW112212   5.435   1.941   1.194
 3771SOL    HW212213   5.333   1.948   1.066
 3772SOL     OW12214   6.557   1.438   0.868
 3772SOL    HW112215   6.459   1.441   0.846
 3772SOL    HW212216   6.610   1.443   0.784
 3773SOL     OW12217   5.631   3.094   5.790
 3773SOL    HW112218   5.668   3.045   5.868
 3773SOL    HW212219   5.533   3.074   5.780
 3774SOL     OW12220   1.069   6.948   6.853
 3774SOL    HW112221   0.977   6.967   6.820
 3774SOL    HW212222   1.126   6.919   6.776
 3775SOL     OW12223   5.446   3.734   2.455
 3775SOL    HW112224   5.416   3.666   2.521
 3775SOL    HW212225   5.473   3.688   2.370
 3776SOL     OW12226   2.646   1.272   1.820
 3776SOL    HW112227   2.589   1.190   1.818
 3776SOL    HW212228   2.658   1.306   1.727
 3777SOL     OW12229   2.563   4.668   4.706
 3777SOL    HW112230   2.649   4.665   4.757
 3777SOL    HW212231   2.493   4.712   4.762
 3778SOL     OW12232   2.044   5.886   3.185
 3778SOL    HW112233   1.946   5.868   3.198
 3778SOL    HW212234   2.066   5.878   3.088
 3779SOL     OW12235   2.900   5.069   6.663
 3779SOL    HW112236   2.805   5.063   6.634
 3779SOL    HW212237   2.914   5.012   6.743
 3780SOL     OW12238   3.356   4.933   4.546
 3780SOL    HW112239   3.438   4.988   4.561
 3780SOL    HW212240   3.318   4.905   4.634
 3781SOL     OW12241   1.907   6.108   3.960
 3781SOL    HW112242   1.927   6.021   4.005
 3781SOL    HW212243   1.810   6.111   3.935
 3782SOL     OW12244   2.623   2.416   4.161
 3782SOL    HW112245   2.703   2.405   4.102
 3782SOL    HW212246   2.572   2.331   4.164
 3783SOL     OW12247   6.832   6.791   4.828
 3783SOL    HW112248   6.903   6.840   4.778
 3783SOL    HW212249   6.864   6.771   4.920
 3784SOL     OW12250   5.183   1.589   3.373
 3784SOL    HW112251   5.188   1.489   3.385
 3784SOL    HW212252   5.099   1.623   3.414
 3785SOL     OW12253   2.236   1.423   0.417
 3785SOL    HW112254   2.215   1.434   0.515
 3785SOL    HW212255   2.160   1.459   0.363
 3786SOL     OW12256   2.878   5.068   3.459
 3786SOL    HW112257   2.792   5.068   3.510
 3786SOL    HW212258   2.919   5.159   3.463
 3787SOL     OW12259   5.644   6.471   3.691
 3787SOL    HW112260   5.673   6.404   3.622
 3787SOL    HW212261   5.724   6.520   3.725
 3788SOL     OW12262   6.428   3.322   3.738
 3788SOL    HW112263   6.342   3.372   3.752
 3788SOL    HW212264   6.478   3.362   3.661
 3789SOL     OW12265   1.763   4.279   4.118
 3789SOL    HW112266   1.705   4.287   4.199
 3789SOL    HW212267   1.809   4.190   4.119
 3790SOL     OW12268   2.116   3.721   4.905
 3790SOL    HW112269   2.117   3.650   4.835
 3790SOL    HW212270   2.165   3.801   4.873
 3791SOL     OW12271   5.423   6.855   0.871
 3791SOL    HW112272   5.445   6.762   0.903
 3791SOL    HW212273   5.489   6.882   0.801
 3792SOL     OW12274   6.711   0.481   5.060
 3792SOL    HW112275   6.727   0.451   4.966
 3792SOL    HW212276   6.723   0.580   5.067
 3793SOL     OW12277   2.281   0.928   2.676
 3793SOL    HW112278   2.331   0.947   2.592
 3793SOL    HW212279   2.326   0.853   2.725
 3794SOL     OW12280   3.935   5.282   1.740
 3794SOL    HW112281   3.846   5.323   1.722
 3794SOL    HW212282   3.924   5.193   1.784
 3795SOL     OW12283   4.297   6.837   6.267
 3795SOL    HW112284   4.231   6.785   6.214
 3795SOL    HW212285   4.343   6.903   6.207
 3796SOL     OW12286   1.862   1.984   1.552
 3796SOL    HW112287   1.809   2.057   1.593
 3796SOL    HW212288   1.807   1.900   1.549
 3797SOL     OW12289   6.565   5.459   2.419
 3797SOL    HW112290   6.555   5.406   2.503
 3797SOL    HW212291   6.662   5.469   2.398
 3798SOL     OW12292   2.272   5.138   2.900
 3798SOL    HW112293   2.259   5.104   2.807
 3798SOL    HW212294   2.365   5.174   2.909
 3799SOL     OW12295   1.191   2.402   4.245
 3799SOL    HW112296   1.291   2.406   4.252
 3799SOL    HW212297   1.165   2.337   4.174
 3800SOL     OW12298   5.137   2.436   5.106
 3800SOL    HW112299   5.135   2.410   5.010
 3800SOL    HW212300   5.044   2.446   5.141
 3801SOL     OW12301   6.469   5.744   5.518
 3801SOL    HW112302   6.479   5.681   5.440
 3801SOL    HW212303   6.499   5.835   5.491
 3802SOL     OW12304   1.406   1.924   4.967
 3802SOL    HW112305   1.351   1.977   5.032
 3802SOL    HW212306   1.347   1.857   4.921
 3803SOL     OW12307   3.730   0.929   2.002
 3803SOL    HW112308   3.662   0.998   1.977
 3803SOL    HW212309   3.684   0.844   2.027
 3804SOL     OW12310   4.511   2.231   4.590
 3804SOL    HW112311   4.417   2.220   4.622
 3804SOL    HW212312   4.558   2.142   4.592
 3805SOL     OW12313   3.204   4.098   1.842
 3805SOL    HW112314   3.215   4.125   1.937
 3805SOL    HW212315   3.121   4.044   1.832
 3806SOL     OW12316   2.662   2.546   0.058
 3806SOL    HW112317   2.678   2.452   0.087
 3806SOL    HW212318   2.713   2.609   0.117
 3807SOL     OW12319   1.989   1.660   4.822
 3807SOL    HW112320   1.906   1.605   4.834
 3807SOL    HW212321   2.063   1.621   4.877
 3808SOL     OW12322   3.001   0.447   2.304
 3808SOL    HW112323   3.048   0.472   2.389
 3808SOL    HW212324   3.068   0.436   2.231
 3809SOL     OW12325   5.856   1.933   0.280
 3809SOL    HW112326   5.931   1.993   0.305
 3809SOL    HW212327   5.831   1.948   0.185
 3810SOL     OW12328   4.124   2.948   5.345
 3810SOL    HW112329   4.049   2.893   5.307
 3810SOL    HW212330   4.126   3.037   5.300
 3811SOL     OW12331   0.816   4.559   3.537
 3811SOL    HW112332   0.799   4.461   3.539
 3811SOL    HW212333   0.733   4.607   3.507
 3812SOL     OW12334   5.703   1.639   5.507
 3812SOL    HW112335   5.798   1.656   5.531
 3812SOL    HW212336   5.689   1.541   5.490
 3813SOL     OW12337   4.437   4.393   0.861
 3813SOL    HW112338   4.523   4.420   0.904
 3813SOL    HW212339   4.376   4.355   0.931
 3814SOL     OW12340   6.974   6.257   1.140
 3814SOL    HW112341   7.003   6.195   1.067
 3814SOL    HW212342   0.029   6.317   1.164
 3815SOL     OW12343   4.909   2.303   0.637
 3815SOL    HW112344   4.850   2.359   0.695
 3815SOL    HW212345   4.915   2.211   0.675
 3816SOL     OW12346   6.987   6.202   1.732
 3816SOL    HW112347   6.932   6.266   1.785
 3816SOL    HW212348   0.063   6.219   1.749
 3817SOL     OW12349   4.885   2.972   4.073
 3817SOL    HW112350   4.811   2.944   4.135
 3817SOL    HW212351   4.960   2.906   4.080
 3818SOL     OW12352   4.412   6.311   1.593
 3818SOL    HW112353   4.363   6.275   1.673
 3818SOL    HW212354   4.380   6.265   1.511
 3819SOL     OW12355   5.510   5.124   0.226
 3819SOL    HW112356   5.412   5.105   0.230
 3819SOL    HW212357   5.527   5.206   0.172
 3820SOL     OW12358   6.230   6.103   3.743
 3820SOL    HW112359   6.145   6.068   3.704
 3820SOL    HW212360   6.305   6.041   3.719
 3821SOL     OW12361   1.382   3.368   2.056
 3821SOL    HW112362   1.375   3.269   2.043
 3821SOL    HW212363   1.311   3.414   2.003
 3822SOL     OW12364   1.542   5.384   2.044
 3822SOL    HW112365   1.545   5.451   2.118
 3822SOL    HW212366   1.462   5.402   1.986
 3823SOL     OW12367   4.064   2.172   5.046
 3823SOL    HW112368   3.986   2.160   5.108
 3823SOL    HW212369   4.125   2.243   5.082
 3824SOL     OW12370   6.108   2.014   5.435
 3824SOL    HW112371   6.158   1.932   5.465
 3824SOL    HW212372   6.125   2.089   5.498
 3825SOL     OW12373   6.796   0.258   6.933
 3825SOL    HW112374   6.879   0.300   6.897
 3825SOL    HW212375   6.738   0.229   6.857
 3826SOL     OW12376   0.324   3.794   0.422
 3826SOL    HW112377   0.254   3.846   0.373
 3826SOL    HW212378   0.307   3.697   0.410
 3827SOL     OW12379   3.974   4.190   1.070
 3827SOL    HW112380   3.888   4.141   1.086
 3827SOL    HW212381   3.971   4.234   0.981
 3828SOL     OW12382   4.459   2.190   0.721
 3828SOL    HW112383   4.511   2.159   0.641
 3828SOL    HW212384   4.512   2.259   0.770
 3829SOL     OW12385   2.444   5.072   3.750
 3829SOL    HW112386   2.365   5.012   3.754
 3829SOL    HW212387   2.518   5.034   3.806
 3830SOL     OW12388   1.465   0.165   5.527
 3830SOL    HW112389   1.397   0.188   5.458
 3830SOL    HW212390   1.509   0.078   5.503
 3831SOL     OW12391   4.447   1.900   2.068
 3831SOL    HW112392   4.358   1.925   2.105
 3831SOL    HW212393   4.443   1.902   1.968
 3832SOL     OW12394   6.219   1.010   1.459
 3832SOL    HW112395   6.281   1.000   1.537
 3832SOL    HW212396   6.212   0.923   1.410
 3833SOL     OW12397   0.477   5.057   6.907
 3833SOL    HW112398   0.495   4.968   6.867
 3833SOL    HW212399   0.390   5.054   6.957
 3834SOL     OW12400   2.829   2.090   0.177
 3834SOL    HW112401   2.831   2.023   0.251
 3834SOL    HW212402   2.911   2.079   0.120
 3835SOL     OW12403   3.709   5.500   5.272
 3835SOL    HW112404   3.658   5.417   5.250
 3835SOL    HW212405   3.657   5.580   5.243
 3836SOL     OW12406   2.061   3.672   5.972
 3836SOL    HW112407   1.993   3.602   5.953
 3836SOL    HW212408   2.144   3.654   5.918
 3837SOL     OW12409   4.753   3.337   0.393
 3837SOL    HW112410   4.742   3.309   0.297
 3837SOL    HW212411   4.718   3.429   0.405
 3838SOL     OW12412   5.135   3.106   4.483
 3838SOL    HW112413   5.042   3.128   4.452
 3838SOL    HW212414   5.193   3.188   4.477
 3839SOL     OW12415   5.154   0.173   5.154
 3839SOL    HW112416   5.216   0.166   5.076
 3839SOL    HW212417   5.207   0.185   5.238
 3840SOL     OW12418   1.468   0.976   5.035
 3840SOL    HW112419   1.427   0.909   4.973
 3840SOL    HW212420   1.448   1.068   5.002
 3841SOL     OW12421   0.621   3.852   5.008
 3841SOL    HW112422   0.585   3.942   4.982
 3841SOL    HW212423   0.622   3.793   4.927
 3842SOL     OW12424   0.573   5.593   0.027
 3842SOL    HW112425   0.638   5.613   6.974
 3842SOL    HW212426   0.487   5.562   7.007
 3843SOL     OW12427   0.134   3.558   0.646
 3843SOL    HW112428   0.127   3.466   0.685
 3843SOL    HW212429   0.116   3.553   0.548
 3844SOL     OW12430   1.345   5.373   5.740
 3844SOL    HW112431   1.373   5.345   5.831
 3844SOL    HW212432   1.425   5.386   5.682
 3845SOL     OW12433   3.276   2.915   2.807
 3845SOL    HW112434   3.220   2.994   2.831
 3845SOL    HW212435   3.341   2.896   2.881
 3846SOL     OW12436   6.988   4.952   3.726
 3846SOL    HW112437   0.048   4.932   3.781
 3846SOL    HW212438   6.965   4.873   3.670
 3847SOL     OW12439   6.493   1.171   6.720
 3847SOL    HW112440   6.558   1.236   6.760
 3847SOL    HW212441   6.526   1.078   6.735
 3848SOL     OW12442   2.091   5.201   2.227
 3848SOL    HW112443   1.998   5.163   2.227
 3848SOL    HW212444   2.111   5.242   2.316
 3849SOL     OW12445   0.822   1.522   5.864
 3849SOL    HW112446   0.908   1.563   5.833
 3849SOL    HW212447   0.756   1.594   5.887
 3850SOL     OW12448   2.952   3.593   1.745
 3850SOL    HW112449   2.995   3.503   1.751
 3850SOL    HW212450   2.911   3.605   1.655
 3851SOL     OW12451   2.439   4.508   2.867
 3851SOL    HW112452   2.449   4.476   2.961
 3851SOL    HW212453   2.385   4.442   2.815
 3852SOL     OW12454   4.503   0.878   5.199
 3852SOL    HW112455   4.491   0.838   5.289
 3852SOL    HW212456   4.597   0.864   5.168
 3853SOL     OW12457   0.519   3.284   2.801
 3853SOL    HW112458   0.516   3.287   2.900
 3853SOL    HW212459   0.459   3.355   2.763
 3854SOL     OW12460   0.982   3.540   3.511
 3854SOL    HW112461   1.056   3.480   3.540
 3854SOL    HW212462   0.906   3.533   3.576
 3855SOL     OW12463   5.943   5.182   6.112
 3855SOL    HW112464   5.955   5.094   6.066
 3855SOL    HW212465   5.880   5.239   6.060
 3856SOL     OW12466   0.343   0.639   6.162
 3856SOL    HW112467   0.383   0.550   6.139
 3856SOL    HW212468   0.415   0.708   6.166
 3857SOL     OW12469   1.353   6.997   5.109
 3857SOL    HW112470   1.294   6.938   5.055
 3857SOL    HW212471   1.395   6.943   5.183
 3858SOL     OW12472   0.912   6.125   6.361
 3858SOL    HW112473   0.950   6.212   6.331
 3858SOL    HW212474   0.836   6.141   6.424
 3859SOL     OW12475   6.681   2.754   3.933
 3859SOL    HW112476   6.742   2.675   3.927
 3859SOL    HW212477   6.733   2.838   3.918
 3860SOL     OW12478   1.970   5.594   4.828
 3860SOL    HW112479   2.056   5.581   4.877
 3860SOL    HW212480   1.897   5.542   4.873
 3861SOL     OW12481   5.440   4.842   1.492
 3861SOL    HW112482   5.463   4.907   1.420
 3861SOL    HW212483   5.458   4.749   1.459
 3862SOL     OW12484   0.443   0.186   6.347
 3862SOL    HW112485   0.438   0.105   6.288
 3862SOL    HW212486   0.454   0.158   6.442
 3863SOL     OW12487   3.133   3.809   0.939
 3863SOL    HW112488   3.160   3.812   0.843
 3863SOL    HW212489   3.181   3.881   0.990
 3864SOL     OW12490   3.732   2.063   6.991
 3864SOL    HW112491   3.714   1.971   0.005
 3864SOL    HW212492   3.831   2.079   6.989
 3865SOL     OW12493   3.497   0.306   2.143
 3865SOL    HW112494   3.541   0.321   2.232
 3865SOL    HW212495   3.436   0.227   2.149
 3866SOL     OW12496   3.952   0.056   1.209
 3866SOL    HW112497   4.048   0.031   1.196
 3866SOL    HW212498   3.912   7.019   1.280
 3867SOL     OW12499   2.058   3.611   2.987
 3867SOL    HW112500   2.033   3.634   2.893
 3867SOL    HW212501   2.077   3.696   3.038
 3868SOL     OW12502   2.267   6.452   1.733
 3868SOL    HW112503   2.310   6.483   1.648
 3868SOL    HW212504   2.250   6.531   1.793
 3869SOL     OW12505   0.275   2.383   3.401
 3869SOL    HW112506   0.338   2.348   3.471
 3869SOL    HW212507   0.217   2.309   3.367
 3870SOL     OW12508   2.881   4.965   6.919
 3870SOL    HW112509   2.923   4.875   6.932
 3870SOL    HW212510   2.794   4.968   6.969
 3871SOL     OW12511   3.468   6.984   2.421
 3871SOL    HW112512   3.500   6.956   2.511
 3871SOL    HW212513   3.394   6.923   2.391
 3872SOL     OW12514   3.993   3.274   0.937
 3872SOL    HW112515   4.021   3.314   1.025
 3872SOL    HW212516   3.993   3.175   0.943
 3873SOL     OW12517   5.262   5.483   1.117
 3873SOL    HW112518   5.265   5.471   1.216
 3873SOL    HW212519   5.181   5.536   1.092
 3874SOL     OW12520   4.394   6.355   6.727
 3874SOL    HW112521   4.399   6.431   6.792
 3874SOL    HW212522   4.448   6.278   6.761
 3875SOL     OW12523   1.687   4.483   1.434
 3875SOL    HW112524   1.636   4.526   1.508
 3875SOL    HW212525   1.754   4.418   1.472
 3876SOL     OW12526   6.015   5.189   4.649
 3876SOL    HW112527   5.919   5.216   4.657
 3876SOL    HW212528   6.025   5.094   4.679
 3877SOL     OW12529   6.212   1.384   2.409
 3877SOL    HW112530   6.264   1.302   2.434
 3877SOL    HW212531   6.191   1.380   2.311
 3878SOL     OW12532   4.126   6.708   6.085
 3878SOL    HW112533   4.125   6.689   5.987
 3878SOL    HW212534   4.067   6.786   6.104
 3879SOL     OW12535   4.297   5.516   1.770
 3879SOL    HW112536   4.204   5.517   1.808
 3879SOL    HW212537   4.314   5.428   1.726
 3880SOL     OW12538   5.786   3.304   2.654
 3880SOL    HW112539   5.760   3.355   2.572
 3880SOL    HW212540   5.790   3.207   2.633
 3881SOL     OW12541   0.727   4.733   0.696
 3881SOL    HW112542   0.628   4.727   0.707
 3881SOL    HW212543   0.751   4.821   0.655
 3882SOL     OW12544   6.180   1.240   5.969
 3882SOL    HW112545   6.173   1.154   5.918
 3882SOL    HW212546   6.192   1.219   6.066
 3883SOL     OW12547   4.133   1.409   3.694
 3883SOL    HW112548   4.109   1.507   3.694
 3883SOL    HW212549   4.209   1.394   3.631
 3884SOL     OW12550   1.591   6.128   4.931
 3884SOL    HW112551   1.522   6.093   4.867
 3884SOL    HW212552   1.625   6.053   4.988
 3885SOL     OW12553   6.909   1.412   3.674
 3885SOL    HW112554   6.984   1.349   3.657
 3885SOL    HW212555   6.822   1.362   3.675
 3886SOL     OW12556   6.878   0.349   5.236
 3886SOL    HW112557   6.972   0.379   5.223
 3886SOL    HW212558   6.818   0.400   5.174
 3887SOL     OW12559   4.006   2.048   5.347
 3887SOL    HW112560   3.916   2.006   5.354
 3887SOL    HW212561   4.071   1.983   5.307
 3888SOL     OW12562   6.350   1.859   0.816
 3888SOL    HW112563   6.255   1.844   0.844
 3888SOL    HW212564   6.411   1.846   0.895
 3889SOL     OW12565   0.695   5.625   6.344
 3889SOL    HW112566   0.608   5.601   6.300
 3889SOL    HW212567   0.684   5.711   6.394
 3890SOL     OW12568   5.519   4.978   2.694
 3890SOL    HW112569   5.440   4.937   2.739
 3890SOL    HW212570   5.584   4.906   2.668
 3891SOL     OW12571   5.352   5.239   4.847
 3891SOL    HW112572   5.363   5.254   4.945
 3891SOL    HW212573   5.259   5.207   4.828
 3892SOL     OW12574   6.130   6.947   2.875
 3892SOL    HW112575   6.095   6.975   2.785
 3892SOL    HW212576   6.121   0.002   2.939
 3893SOL     OW12577   3.196   5.532   4.514
 3893SOL    HW112578   3.257   5.611   4.519
 3893SOL    HW212579   3.244   5.451   4.548
 3894SOL     OW12580   4.196   3.314   0.416
 3894SOL    HW112581   4.123   3.298   0.349
 3894SOL    HW212582   4.157   3.310   0.508
 3895SOL     OW12583   2.237   1.251   6.004
 3895SOL    HW112584   2.261   1.173   5.947
 3895SOL    HW212585   2.169   1.307   5.955
 3896SOL     OW12586   0.136   2.954   5.273
 3896SOL    HW112587   0.104   2.946   5.178
 3896SOL    HW212588   0.131   3.049   5.301
 3897SOL     OW12589   3.397   6.976   1.946
 3897SOL    HW112590   3.487   6.936   1.965
 3897SOL    HW212591   3.373   0.019   2.020
 3898SOL     OW12592   4.089   3.255   4.221
 3898SOL    HW112593   3.997   3.219   4.236
 3898SOL    HW212594   4.143   3.188   4.170
 3899SOL     OW12595   4.546   1.673   5.708
 3899SOL    HW112596   4.507   1.604   5.768
 3899SOL    HW212597   4.640   1.693   5.736
 3900SOL     OW12598   6.001   2.793   3.202
 3900SOL    HW112599   6.056   2.718   3.239
 3900SOL    HW212600   5.948   2.761   3.124
 3901SOL     OW12601   1.118   6.845   5.381
 3901SOL    HW112602   1.079   6.914   5.441
 3901SOL    HW212603   1.071   6.847   5.293
 3902SOL     OW12604   4.957   5.215   1.859
 3902SOL    HW112605   4.892   5.155   1.811
 3902SOL    HW212606   5.046   5.211   1.814
 3903SOL     OW12607   4.432   2.615   6.664
 3903SOL    HW112608   4.362   2.606   6.593
 3903SOL    HW212609   4.521   2.593   6.625
 3904SOL     OW12610   0.942   6.154   0.898
 3904SOL    HW112611   0.910   6.161   0.803
 3904SOL    HW212612   1.032   6.111   0.900
 3905SOL     OW12613   0.069   0.790   5.669
 3905SOL    HW112614   0.115   0.775   5.757
 3905SOL    HW212615   0.094   0.880   5.634
 3906SOL     OW12616   1.906   4.894   4.288
 3906SOL    HW112617   1.912   4.869   4.192
 3906SOL    HW212618   1.810   4.896   4.316
 3907SOL     OW12619   6.548   1.503   4.062
 3907SOL    HW112620   6.456   1.529   4.035
 3907SOL    HW212621   6.611   1.578   4.043
 3908SOL     OW12622   1.710   0.395   4.857
 3908SOL    HW112623   1.663   0.451   4.925
 3908SOL    HW212624   1.751   0.316   4.901
 3909SOL     OW12625   5.778   2.764   5.775
 3909SOL    HW112626   5.732   2.836   5.724
 3909SOL    HW212627   5.709   2.709   5.822
 3910SOL     OW12628   3.499   2.360   0.562
 3910SOL    HW112629   3.456   2.363   0.653
 3910SOL    HW212630   3.598   2.356   0.572
 3911SOL     OW12631   6.433   0.662   1.349
 3911SOL    HW112632   6.378   0.742   1.324
 3911SOL    HW212633   6.407   0.584   1.292
 3912SOL     OW12634   4.183   2.319   6.930
 3912SOL    HW112635   4.159   2.416   6.928
 3912SOL    HW212636   4.273   2.306   6.888
 3913SOL     OW12637   4.557   5.390   0.695
 3913SOL    HW112638   4.646   5.435   0.698
 3913SOL    HW212639   4.507   5.410   0.778
 3914SOL     OW12640   5.694   0.957   0.741
 3914SOL    HW112641   5.737   1.019   0.675
 3914SOL    HW212642   5.759   0.936   0.813
 3915SOL     OW12643   4.712   5.211   6.892
 3915SOL    HW112644   4.810   5.226   6.887
 3915SOL    HW212645   4.693   5.130   6.947
 3916SOL     OW12646   1.678   0.623   2.512
 3916SOL    HW112647   1.719   0.712   2.530
 3916SOL    HW212648   1.584   0.621   2.546
 3917SOL     OW12649   2.946   5.054   0.735
 3917SOL    HW112650   2.856   5.067   0.693
 3917SOL    HW212651   3.009   5.125   0.702
 3918SOL     OW12652   5.655   0.685   0.652
 3918SOL    HW112653   5.562   0.652   0.669
 3918SOL    HW212654   5.659   0.783   0.667
 3919SOL     OW12655   4.011   0.066   1.577
 3919SOL    HW112656   3.938   0.113   1.627
 3919SOL    HW212657   4.092   0.124   1.575
 3920SOL     OW12658   3.296   1.263   6.110
 3920SOL    HW112659   3.334   1.182   6.065
 3920SOL    HW212660   3.233   1.309   6.048
 3921SOL     OW12661   0.776   2.740   6.431
 3921SOL    HW112662   0.770   2.789   6.519
 3921SOL    HW212663   0.792   2.806   6.358
 3922SOL     OW12664   4.806   4.950   2.669
 3922SOL    HW112665   4.854   4.959   2.582
 3922SOL    HW212666   4.787   4.853   2.686
 3923SOL     OW12667   5.232   1.014   1.304
 3923SOL    HW112668   5.200   0.920   1.319
 3923SOL    HW212669   5.156   1.077   1.316
 3924SOL     OW12670   6.288   4.269   4.347
 3924SOL    HW112671   6.311   4.346   4.407
 3924SOL    HW212672   6.262   4.303   4.257
 3925SOL     OW12673   4.508   3.905   0.786
 3925SOL    HW112674   4.599   3.865   0.786
 3925SOL    HW212675   4.499   3.969   0.862
 3926SOL     OW12676   0.280   0.282   5.443
 3926SOL    HW112677   0.311   0.305   5.535
 3926SOL    HW212678   0.195   0.329   5.424
 3927SOL     OW12679   6.447   2.839   5.147
 3927SOL    HW112680   6.406   2.929   5.161
 3927SOL    HW212681   6.511   2.820   5.221
 3928SOL     OW12682   1.987   6.201   2.934
 3928SOL    HW112683   2.086   6.190   2.922
 3928SOL    HW212684   1.968   6.292   2.971
 3929SOL     OW12685   0.448   1.858   5.388
 3929SOL    HW112686   0.493   1.790   5.329
 3929SOL    HW212687   0.357   1.877   5.353
 3930SOL     OW12688   0.980   3.996   3.832
 3930SOL    HW112689   0.952   4.088   3.857
 3930SOL    HW212690   0.904   3.932   3.848
 3931SOL     OW12691   1.450   2.562   1.429
 3931SOL    HW112692   1.503   2.512   1.361
 3931SOL    HW212693   1.484   2.541   1.521
 3932SOL     OW12694   1.741   5.665   4.204
 3932SOL    HW112695   1.789   5.751   4.220
 3932SOL    HW212696   1.705   5.663   4.111
 3933SOL     OW12697   2.076   4.787   0.571
 3933SOL    HW112698   2.028   4.782   0.483
 3933SOL    HW212699   2.096   4.694   0.604
 3934SOL     OW12700   0.543   1.255   1.684
 3934SOL    HW112701   0.613   1.296   1.743
 3934SOL    HW212702   0.455   1.299   1.701
 3935SOL     OW12703   5.927   3.512   6.782
 3935SOL    HW112704   6.023   3.529   6.762
 3935SOL    HW212705   5.876   3.505   6.696
 3936SOL     OW12706   0.653   5.106   5.569
 3936SOL    HW112707   0.588   5.182   5.569
 3936SOL    HW212708   0.628   5.041   5.498
 3937SOL     OW12709   6.962   0.108   2.224
 3937SOL    HW112710   6.987   0.122   2.320
 3937SOL    HW212711   7.018   0.035   2.185
 3938SOL     OW12712   0.658   4.285   2.974
 3938SOL    HW112713   0.583   4.219   2.962
 3938SOL    HW212714   0.670   4.305   3.071
 3939SOL     OW12715   0.946   0.965   2.374
 3939SOL    HW112716   0.886   1.025   2.427
 3939SOL    HW212717   1.017   1.019   2.330
 3940SOL     OW12718   2.735   5.301   1.143
 3940SOL    HW112719   2.741   5.375   1.210
 3940SOL    HW212720   2.766   5.334   1.054
 3941SOL     OW12721   6.060   6.898   3.824
 3941SOL    HW112722   6.092   6.831   3.757
 3941SOL    HW212723   5.981   6.947   3.788
 3942SOL     OW12724   0.005   5.879   6.232
 3942SOL    HW112725   6.966   5.838   6.163
 3942SOL    HW212726   0.100   5.864   6.207
 3943SOL     OW12727   1.280   2.875   0.013
 3943SOL    HW112728   1.297   2.812   0.089
 3943SOL    HW212729   1.229   2.827   6.962
 3944SOL     OW12730   6.222   1.780   6.565
 3944SOL    HW112731   6.245   1.847   6.494
 3944SOL    HW212732   6.294   1.779   6.634
 3945SOL     OW12733   6.813   1.012   3.381
 3945SOL    HW112734   6.791   1.104   3.349
 3945SOL    HW212735   6.912   1.001   3.388
 3946SOL     OW12736   1.221   2.941   0.723
 3946SOL    HW112737   1.258   2.850   0.738
 3946SOL    HW212738   1.283   2.994   0.665
 3947SOL     OW12739   5.976   4.887   1.510
 3947SOL    HW112740   5.900   4.824   1.528
 3947SOL    HW212741   5.958   4.975   1.553
 3948SOL     OW12742   1.312   2.296   6.627
 3948SOL    HW112743   1.312   2.203   6.592
 3948SOL    HW212744   1.302   2.295   6.727
 3949SOL     OW12745   5.846   6.611   2.616
 3949SOL    HW112746   5.789   6.666   2.554
 3949SOL    HW212747   5.942   6.620   2.590
 3950SOL     OW12748   2.999   4.624   1.458
 3950SOL    HW112749   2.934   4.641   1.384
 3950SOL    HW212750   3.061   4.703   1.468
 3951SOL     OW12751   0.812   2.400   5.638
 3951SOL    HW112752   0.833   2.463   5.713
 3951SOL    HW212753   0.743   2.334   5.668
 3952SOL     OW12754   6.523   3.786   5.333
 3952SOL    HW112755   6.574   3.868   5.306
 3952SOL    HW212756   6.444   3.775   5.273
 3953SOL     OW12757   3.663   4.384   6.112
 3953SOL    HW112758   3.759   4.368   6.092
 3953SOL    HW212759   3.637   4.332   6.194
 3954SOL     OW12760   0.820   3.323   5.312
 3954SOL    HW112761   0.794   3.389   5.241
 3954SOL    HW212762   0.900   3.271   5.282
 3955SOL     OW12763   5.922   5.017   6.770
 3955SOL    HW112764   5.838   5.018   6.824
 3955SOL    HW212765   5.904   4.975   6.681
 3956SOL     OW12766   1.154   2.660   5.606
 3956SOL    HW112767   1.222   2.588   5.596
 3956SOL    HW212768   1.195   2.739   5.652
 3957SOL     OW12769   1.482   0.390   3.202
 3957SOL    HW112770   1.510   0.396   3.106
 3957SOL    HW212771   1.543   0.445   3.258
 3958SOL     OW12772   5.179   6.285   5.069
 3958SOL    HW112773   5.117   6.363   5.074
 3958SOL    HW212774   5.263   6.307   5.118
 3959SOL     OW12775   2.555   4.741   0.289
 3959SOL    HW112776   2.503   4.664   0.251
 3959SOL    HW212777   2.491   4.813   0.318
 3960SOL     OW12778   4.055   3.075   0.258
 3960SOL    HW112779   3.994   3.018   0.312
 3960SOL    HW212780   4.141   3.025   0.241
 3961SOL     OW12781   4.681   1.185   1.371
 3961SOL    HW112782   4.689   1.234   1.284
 3961SOL    HW212783   4.602   1.123   1.368
 3962SOL     OW12784   0.410   0.360   6.124
 3962SOL    HW112785   0.406   0.315   6.213
 3962SOL    HW212786   0.505   0.379   6.100
 3963SOL     OW12787   4.764   5.643   3.315
 3963SOL    HW112788   4.851   5.620   3.360
 3963SOL    HW212789   4.759   5.742   3.302
 3964SOL     OW12790   5.448   5.922   5.025
 3964SOL    HW112791   5.431   5.971   4.939
 3964SOL    HW212792   5.526   5.860   5.013
 3965SOL     OW12793   3.399   3.475   0.278
 3965SOL    HW112794   3.390   3.377   0.293
 3965SOL    HW212795   3.438   3.517   0.360
 3966SOL     OW12796   5.858   3.898   5.281
 3966SOL    HW112797   5.934   3.927   5.222
 3966SOL    HW212798   5.809   3.823   5.236
 3967SOL     OW12799   0.483   5.521   6.203
 3967SOL    HW112800   0.413   5.452   6.224
 3967SOL    HW212801   0.537   5.490   6.124
 3968SOL     OW12802   6.007   0.717   1.860
 3968SOL    HW112803   5.961   0.638   1.902
 3968SOL    HW212804   6.047   0.774   1.931
 3969SOL     OW12805   0.470   5.013   2.227
 3969SOL    HW112806   0.493   4.932   2.281
 3969SOL    HW212807   0.434   5.084   2.287
 3970SOL     OW12808   5.398   4.329   2.720
 3970SOL    HW112809   5.492   4.320   2.687
 3970SOL    HW212810   5.398   4.374   2.810
 3971SOL     OW12811   1.391   6.147   3.035
 3971SOL    HW112812   1.487   6.122   3.027
 3971SOL    HW212813   1.382   6.226   3.096
 3972SOL     OW12814   1.287   6.855   6.996
 3972SOL    HW112815   1.314   6.795   6.921
 3972SOL    HW212816   1.207   6.908   6.969
 3973SOL     OW12817   3.249   3.474   4.391
 3973SOL    HW112818   3.189   3.554   4.393
 3973SOL    HW212819   3.195   3.393   4.368
 3974SOL     OW12820   6.021   1.876   6.759
 3974SOL    HW112821   6.102   1.853   6.705
 3974SOL    HW212822   5.997   1.798   6.817
 3975SOL     OW12823   0.202   0.961   5.465
 3975SOL    HW112824   0.236   1.013   5.543
 3975SOL    HW212825   0.278   0.913   5.421
 3976SOL     OW12826   1.095   3.265   0.530
 3976SOL    HW112827   1.167   3.294   0.468
 3976SOL    HW212828   1.006   3.297   0.496
 3977SOL     OW12829   3.670   6.136   6.134
 3977SOL    HW112830   3.750   6.116   6.077
 3977SOL    HW212831   3.588   6.141   6.076
 3978SOL     OW12832   5.694   2.977   6.026
 3978SOL    HW112833   5.650   2.909   6.084
 3978SOL    HW212834   5.790   2.952   6.011
 3979SOL     OW12835   0.741   6.908   2.326
 3979SOL    HW112836   0.762   6.998   2.290
 3979SOL    HW212837   0.663   6.869   2.277
 3980SOL     OW12838   5.211   3.558   4.388
 3980SOL    HW112839   5.258   3.604   4.313
 3980SOL    HW212840   5.112   3.563   4.373
 3981SOL     OW12841   6.753   1.607   6.989
 3981SOL    HW112842   6.668   1.591   6.939
 3981SOL    HW212843   6.822   1.540   6.960
 3982SOL     OW12844   2.333   1.767   3.841
 3982SOL    HW112845   2.357   1.742   3.747
 3982SOL    HW212846   2.254   1.828   3.840
 3983SOL     OW12847   3.240   6.277   4.414
 3983SOL    HW112848   3.339   6.291   4.417
 3983SOL    HW212849   3.196   6.331   4.486
 3984SOL     OW12850   2.165   6.815   1.330
 3984SOL    HW112851   2.169   6.900   1.382
 3984SOL    HW212852   2.114   6.830   1.246
 3985SOL     OW12853   2.375   2.780   1.820
 3985SOL    HW112854   2.349   2.876   1.810
 3985SOL    HW212855   2.457   2.763   1.766
 3986SOL     OW12856   0.720   2.203   1.695
 3986SOL    HW112857   0.780   2.180   1.771
 3986SOL    HW212858   0.655   2.274   1.724
 3987SOL     OW12859   2.898   4.618   6.496
 3987SOL    HW112860   2.841   4.544   6.462
 3987SOL    HW212861   2.918   4.604   6.593
 3988SOL     OW12862   4.114   3.044   0.613
 3988SOL    HW112863   4.105   2.959   0.561
 3988SOL    HW212864   4.025   3.090   0.618
 3989SOL     OW12865   4.875   6.811   6.577
 3989SOL    HW112866   4.932   6.733   6.549
 3989SOL    HW212867   4.811   6.781   6.648
 3990SOL     OW12868   0.845   3.270   3.236
 3990SOL    HW112869   0.825   3.366   3.216
 3990SOL    HW212870   0.760   3.223   3.260
 3991SOL     OW12871   0.331   2.508   4.157
 3991SOL    HW112872   0.347   2.527   4.060
 3991SOL    HW212873   0.387   2.430   4.185
 3992SOL     OW12874   4.348   3.597   6.397
 3992SOL    HW112875   4.380   3.534   6.468
 3992SOL    HW212876   4.264   3.560   6.356
 3993SOL     OW12877   2.640   2.255   2.983
 3993SOL    HW112878   2.728   2.214   3.007
 3993SOL    HW212879   2.654   2.330   2.919
 3994SOL     OW12880   2.154   3.156   3.686
 3994SOL    HW112881   2.133   3.246   3.649
 3994SOL    HW212882   2.144   3.087   3.613
 3995SOL     OW12883   2.140   4.066   2.772
 3995SOL    HW112884   2.104   4.009   2.847
 3995SOL    HW212885   2.131   4.017   2.686
 3996SOL     OW12886   0.066   1.022   2.923
 3996SOL    HW112887   0.105   1.107   2.888
 3996SOL    HW212888   6.987   1.023   2.909
 3997SOL     OW12889   5.731   4.078   2.819
 3997SOL    HW112890   5.824   4.110   2.800
 3997SOL    HW212891   5.707   4.006   2.754
 3998SOL     OW12892   6.349   1.822   2.947
 3998SOL    HW112893   6.363   1.842   2.851
 3998SOL    HW212894   6.358   1.723   2.963
 3999SOL     OW12895   5.800   2.943   2.602
 3999SOL    HW112896   5.859   2.991   2.537
 3999SOL    HW212897   5.740   2.880   2.552
 4000SOL     OW12898   2.166   5.905   2.385
 4000SOL    HW112899   2.199   5.978   2.445
 4000SOL    HW212900   2.224   5.824   2.395
 4001SOL     OW12901   2.582   3.931   5.309
 4001SOL    HW112902   2.662   3.881   5.274
 4001SOL    HW212903   2.506   3.922   5.245
 4002SOL     OW12904   3.581   3.120   4.393
 4002SOL    HW112905   3.507   3.066   4.354
 4002SOL    HW212906   3.543   3.204   4.433
 4003SOL     OW12907   2.592   0.963   5.590
 4003SOL    HW112908   2.687   0.975   5.620
 4003SOL    HW212909   2.545   0.901   5.652
 4004SOL     OW12910   0.730   3.892   3.395
 4004SOL    HW112911   0.755   3.802   3.360
 4004SOL    HW212912   0.803   3.926   3.454
 4005SOL     OW12913   4.486   3.631   1.512
 4005SOL    HW112914   4.479   3.610   1.415
 4005SOL    HW212915   4.524   3.552   1.560
 4006SOL     OW12916   4.999   5.541   3.435
 4006SOL    HW112917   5.033   5.450   3.409
 4006SOL    HW212918   5.008   5.552   3.534
 4007SOL     OW12919   0.216   1.801   2.754
 4007SOL    HW112920   0.130   1.777   2.708
 4007SOL    HW212921   0.262   1.717   2.784
 4008SOL     OW12922   2.475   6.862   0.381
 4008SOL    HW112923   2.511   6.880   0.473
 4008SOL    HW212924   2.501   6.770   0.353
 4009SOL     OW12925   4.325   1.772   0.902
 4009SOL    HW112926   4.315   1.842   0.973
 4009SOL    HW212927   4.284   1.687   0.933
 4010SOL     OW12928   2.529   4.512   1.470
 4010SOL    HW112929   2.594   4.467   1.408
 4010SOL    HW212930   2.445   4.458   1.474
 4011SOL     OW12931   6.188   6.047   0.667
 4011SOL    HW112932   6.286   6.037   0.686
 4011SOL    HW212933   6.164   5.992   0.587
 4012SOL     OW12934   4.256   6.202   1.808
 4012SOL    HW112935   4.241   6.278   1.872
 4012SOL    HW212936   4.280   6.120   1.860
 4013SOL     OW12937   1.445   1.032   1.300
 4013SOL    HW112938   1.387   1.112   1.284
 4013SOL    HW212939   1.389   0.957   1.334
 4014SOL     OW12940   2.190   5.758   3.723
 4014SOL    HW112941   2.158   5.692   3.656
 4014SOL    HW212942   2.287   5.778   3.706
 4015SOL     OW12943   4.561   5.132   6.141
 4015SOL    HW112944   4.634   5.141   6.208
 4015SOL    HW212945   4.551   5.217   6.090
 4016SOL     OW12946   3.840   5.895   5.774
 4016SOL    HW112947   3.772   5.821   5.774
 4016SOL    HW212948   3.895   5.888   5.690
 4017SOL     OW12949   0.485   5.372   5.520
 4017SOL    HW112950   0.388   5.351   5.517
 4017SOL    HW212951   0.497   5.469   5.541
 4018SOL     OW12952   3.894   6.169   2.102
 4018SOL    HW112953   3.876   6.071   2.112
 4018SOL    HW212954   3.862   6.199   2.012
 4019SOL     OW12955   5.273   3.411   3.005
 4019SOL    HW112956   5.180   3.400   3.040
 4019SOL    HW212957   5.309   3.323   2.975
 4020SOL     OW12958   6.653   4.472   4.210
 4020SOL    HW112959   6.715   4.487   4.286
 4020SOL    HW212960   6.586   4.402   4.234
 4021SOL     OW12961   3.440   3.744   5.999
 4021SOL    HW112962   3.347   3.757   5.965
 4021SOL    HW212963   3.487   3.676   5.943
 4022SOL     OW12964   3.119   6.872   0.494
 4022SOL    HW112965   3.072   6.914   0.417
 4022SOL    HW212966   3.214   6.901   0.496
 4023SOL     OW12967   0.244   1.955   5.795
 4023SOL    HW112968   0.187   1.998   5.725
 4023SOL    HW212969   0.328   1.921   5.753
 4024SOL     OW12970   1.254   5.118   3.942
 4024SOL    HW112971   1.264   5.033   3.994
 4024SOL    HW212972   1.157   5.135   3.924
 4025SOL     OW12973   1.460   6.005   4.173
 4025SOL    HW112974   1.414   5.921   4.144
 4025SOL    HW212975   1.521   5.985   4.249
 4026SOL     OW12976   6.768   6.175   4.274
 4026SOL    HW112977   6.843   6.203   4.334
 4026SOL    HW212978   6.681   6.183   4.323
 4027SOL     OW12979   2.212   2.152   6.667
 4027SOL    HW112980   2.248   2.094   6.740
 4027SOL    HW212981   2.282   2.165   6.597
 4028SOL     OW12982   4.665   1.735   3.503
 4028SOL    HW112983   4.582   1.745   3.448
 4028SOL    HW212984   4.669   1.809   3.571
 4029SOL     OW12985   2.697   3.948   6.723
 4029SOL    HW112986   2.697   4.014   6.647
 4029SOL    HW212987   2.748   3.985   6.800
 4030SOL     OW12988   6.791   1.089   1.990
 4030SOL    HW112989   6.786   1.046   2.081
 4030SOL    HW212990   6.880   1.135   1.980
 4031SOL     OW12991   5.473   0.419   1.936
 4031SOL    HW112992   5.449   0.486   2.006
 4031SOL    HW212993   5.390   0.375   1.902
 4032SOL     OW12994   6.473   6.405   1.460
 4032SOL    HW112995   6.431   6.484   1.504
 4032SOL    HW212996   6.560   6.432   1.418
 4033SOL     OW12997   2.948   2.301   2.901
 4033SOL    HW112998   2.922   2.305   2.997
 4033SOL    HW212999   3.046   2.321   2.892
 4034SOL     OW13000   6.557   2.774   5.404
 4034SOL    HW113001   6.495   2.810   5.473
 4034SOL    HW213002   6.650   2.808   5.422
 4035SOL     OW13003   6.797   2.442   1.151
 4035SOL    HW113004   6.843   2.525   1.182
 4035SOL    HW213005   6.861   2.365   1.155
 4036SOL     OW13006   3.708   4.824   2.754
 4036SOL    HW113007   3.710   4.924   2.755
 4036SOL    HW213008   3.795   4.789   2.790
 4037SOL     OW13009   3.326   0.887   6.273
 4037SOL    HW113010   3.256   0.816   6.267
 4037SOL    HW213011   3.417   0.846   6.263
 4038SOL     OW13012   4.219   3.382   6.813
 4038SOL    HW113013   4.282   3.385   6.891
 4038SOL    HW213014   4.188   3.288   6.800
 4039SOL     OW13015   5.253   5.692   1.578
 4039SOL    HW113016   5.193   5.622   1.617
 4039SOL    HW213017   5.197   5.766   1.540
 4040SOL     OW13018   3.081   5.193   5.217
 4040SOL    HW113019   3.099   5.205   5.315
 4040SOL    HW213020   3.140   5.256   5.165
 4041SOL     OW13021   2.097   6.213   1.157
 4041SOL    HW113022   2.051   6.209   1.245
 4041SOL    HW213023   2.135   6.123   1.135
 4042SOL     OW13024   5.770   6.588   2.871
 4042SOL    HW113025   5.787   6.607   2.775
 4042SOL    HW213026   5.846   6.534   2.909
 4043SOL     OW13027   6.101   2.357   0.057
 4043SOL    HW113028   6.106   2.284   7.010
 4043SOL    HW213029   6.015   2.349   0.108
 4044SOL     OW13030   4.721   4.643   2.967
 4044SOL    HW113031   4.713   4.712   3.039
 4044SOL    HW213032   4.773   4.565   3.001
 4045SOL     OW13033   4.716   6.596   6.373
 4045SOL    HW113034   4.741   6.632   6.283
 4045SOL    HW213035   4.793   6.607   6.436
 4046SOL     OW13036   0.664   1.313   3.076
 4046SOL    HW113037   0.647   1.218   3.103
 4046SOL    HW213038   0.760   1.324   3.051
 4047SOL     OW13039   1.731   2.945   0.134
 4047SOL    HW113040   1.772   2.860   0.101
 4047SOL    HW213041   1.684   2.991   0.059
 4048SOL     OW13042   4.860   1.116   2.038
 4048SOL    HW113043   4.905   1.053   1.975
 4048SOL    HW213044   4.797   1.175   1.988
 4049SOL     OW13045   4.449   5.846   6.609
 4049SOL    HW113046   4.413   5.824   6.700
 4049SOL    HW213047   4.503   5.768   6.575
 4050SOL     OW13048   0.960   5.662   2.424
 4050SOL    HW113049   1.045   5.652   2.475
 4050SOL    HW213050   0.913   5.746   2.452
 4051SOL     OW13051   5.069   1.332   6.430
 4051SOL    HW113052   5.027   1.294   6.512
 4051SOL    HW213053   5.057   1.431   6.428
 4052SOL     OW13054   6.024   2.349   3.460
 4052SOL    HW113055   6.081   2.315   3.535
 4052SOL    HW213056   5.981   2.271   3.414
 4053SOL     OW13057   1.390   6.067   4.787
 4053SOL    HW113058   1.409   6.135   4.716
 4053SOL    HW213059   1.291   6.058   4.799
 4054SOL     OW13060   4.918   4.464   1.282
 4054SOL    HW113061   4.933   4.560   1.258
 4054SOL    HW213062   4.874   4.417   1.206
 4055SOL     OW13063   1.265   3.949   1.662
 4055SOL    HW113064   1.280   3.939   1.760
 4055SOL    HW213065   1.297   4.039   1.632
 4056SOL     OW13066   5.296   3.698   1.254
 4056SOL    HW113067   5.296   3.673   1.351
 4056SOL    HW213068   5.356   3.778   1.241
 4057SOL     OW13069   6.229   3.144   6.685
 4057SOL    HW113070   6.298   3.188   6.742
 4057SOL    HW213071   6.195   3.210   6.617
 4058SOL     OW13072   2.868   6.444   4.928
 4058SOL    HW113073   2.900   6.441   5.023
 4058SOL    HW213074   2.820   6.359   4.907
 4059SOL     OW13075   0.077   3.096   3.727
 4059SOL    HW113076   0.129   3.047   3.796
 4059SOL    HW213077   7.002   3.067   3.730
 4060SOL     OW13078   6.157   5.837   4.925
 4060SOL    HW113079   6.193   5.751   4.961
 4060SOL    HW213080   6.125   5.824   4.831
 4061SOL     OW13081   2.397   4.703   1.855
 4061SOL    HW113082   2.485   4.654   1.853
 4061SOL    HW213083   2.411   4.796   1.889
 4062SOL     OW13084   3.021   0.674   1.706
 4062SOL    HW113085   2.952   0.656   1.776
 4062SOL    HW213086   3.038   0.773   1.700
 4063SOL     OW13087   5.806   6.730   0.987
 4063SOL    HW113088   5.794   6.674   1.070
 4063SOL    HW213089   5.903   6.753   0.976
 4064SOL     OW13090   2.593   1.864   4.943
 4064SOL    HW113091   2.635   1.955   4.952
 4064SOL    HW213092   2.497   1.874   4.919
 4065SOL     OW13093   0.691   7.003   0.854
 4065SOL    HW113094   0.765   6.953   0.899
 4065SOL    HW213095   0.615   6.941   0.838
 4066SOL     OW13096   6.697   3.886   3.214
 4066SOL    HW113097   6.685   3.822   3.291
 4066SOL    HW213098   6.742   3.839   3.139
 4067SOL     OW13099   6.063   4.171   3.246
 4067SOL    HW113100   6.043   4.258   3.292
 4067SOL    HW213101   6.105   4.107   3.310
 4068SOL     OW13102   2.072   2.634   4.179
 4068SOL    HW113103   2.111   2.550   4.142
 4068SOL    HW213104   2.043   2.619   4.274
 4069SOL     OW13105   3.094   6.022   6.883
 4069SOL    HW113106   3.000   5.989   6.872
 4069SOL    HW213107   3.157   5.960   6.835
 4070SOL     OW13108   1.083   3.050   2.967
 4070SOL    HW113109   1.092   3.110   3.046
 4070SOL    HW213110   1.122   3.095   2.887
 4071SOL     OW13111   1.827   0.342   5.135
 4071SOL    HW113112   1.851   0.385   5.222
 4071SOL    HW213113   1.910   0.316   5.086
 4072SOL     OW13114   1.103   4.608   4.810
 4072SOL    HW113115   1.046   4.560   4.744
 4072SOL    HW213116   1.073   4.703   4.817
 4073SOL     OW13117   2.799   5.441   6.097
 4073SOL    HW113118   2.729   5.506   6.067
 4073SOL    HW213119   2.769   5.348   6.076
 4074SOL     OW13120   0.685   4.584   1.457
 4074SOL    HW113121   0.714   4.490   1.473
 4074SOL    HW213122   0.729   4.645   1.523
 4075SOL     OW13123   5.085   1.666   1.039
 4075SOL    HW113124   5.058   1.581   1.085
 4075SOL    HW213125   5.077   1.743   1.103
 4076SOL     OW13126   3.508   3.562   5.661
 4076SOL    HW113127   3.472   3.606   5.579
 4076SOL    HW213128   3.551   3.631   5.720
 4077SOL     OW13129   4.363   1.164   1.505
 4077SOL    HW113130   4.264   1.153   1.502
 4077SOL    HW213131   4.399   1.116   1.585
 4078SOL     OW13132   2.420   5.173   2.268
 4078SOL    HW113133   2.336   5.140   2.223
 4078SOL    HW213134   2.499   5.146   2.214
 4079SOL     OW13135   1.902   1.690   3.693
 4079SOL    HW113136   1.858   1.686   3.783
 4079SOL    HW213137   1.982   1.630   3.693
 4080SOL     OW13138   5.190   2.331   5.350
 4080SOL    HW113139   5.162   2.360   5.258
 4080SOL    HW213140   5.201   2.411   5.409
 4081SOL     OW13141   1.649   2.871   4.124
 4081SOL    HW113142   1.641   2.864   4.224
 4081SOL    HW213143   1.702   2.952   4.101
 4082SOL     OW13144   1.102   3.403   0.788
 4082SOL    HW113145   1.091   3.336   0.714
 4082SOL    HW213146   1.171   3.470   0.762
 4083SOL     OW13147   6.051   2.978   3.660
 4083SOL    HW113148   6.141   3.018   3.675
 4083SOL    HW213149   6.033   2.971   3.562
 4084SOL     OW13150   5.743   1.680   4.124
 4084SOL    HW113151   5.815   1.621   4.161
 4084SOL    HW213152   5.658   1.666   4.175
 4085SOL     OW13153   3.944   5.718   0.803
 4085SOL    HW113154   3.965   5.815   0.797
 4085SOL    HW213155   3.932   5.692   0.899
 4086SOL     OW13156   2.166   6.101   1.438
 4086SOL    HW113157   2.200   6.102   1.531
 4086SOL    HW213158   2.073   6.064   1.437
 4087SOL     OW13159   2.631   2.294   3.346
 4087SOL    HW113160   2.548   2.241   3.365
 4087SOL    HW213161   2.639   2.309   3.248
 4088SOL     OW13162   7.018   1.454   0.754
 4088SOL    HW113163   0.037   1.540   0.720
 4088SOL    HW213164   7.016   1.455   0.854
 4089SOL     OW13165   6.680   6.242   3.340
 4089SOL    HW113166   6.687   6.146   3.311
 4089SOL    HW213167   6.769   6.286   3.332
 4090SOL     OW13168   2.744   4.017   5.597
 4090SOL    HW113169   2.843   4.012   5.587
 4090SOL    HW213170   2.701   3.947   5.540
 4091SOL     OW13171   6.244   6.983   0.570
 4091SOL    HW113172   6.179   0.027   0.530
 4091SOL    HW213173   6.296   6.938   0.498
 4092SOL     OW13174   6.815   2.873   5.444
 4092SOL    HW113175   6.834   2.971   5.448
 4092SOL    HW213176   6.847   2.829   5.529
 4093SOL     OW13177   4.864   0.321   3.837
 4093SOL    HW113178   4.883   0.223   3.840
 4093SOL    HW213179   4.766   0.336   3.843
 4094SOL     OW13180   2.458   5.206   5.116
 4094SOL    HW113181   2.366   5.234   5.087
 4094SOL    HW213182   2.507   5.285   5.153
 4095SOL     OW13183   1.124   4.281   6.890
 4095SOL    HW113184   1.049   4.215   6.892
 4095SOL    HW213185   1.199   4.245   6.834
 4096SOL     OW13186   4.159   5.466   1.037
 4096SOL    HW113187   4.094   5.531   1.077
 4096SOL    HW213188   4.247   5.474   1.084
 4097SOL     OW13189   3.862   3.642   6.142
 4097SOL    HW113190   3.784   3.579   6.149
 4097SOL    HW213191   3.893   3.645   6.047
 4098SOL     OW13192   0.008   3.047   2.275
 4098SOL    HW113193   0.041   3.077   2.185
 4098SOL    HW213194   0.066   2.973   2.309
 4099SOL     OW13195   2.616   4.764   1.090
 4099SOL    HW113196   2.641   4.860   1.078
 4099SOL    HW213197   2.588   4.726   1.002
 4100SOL     OW13198   5.772   6.115   4.682
 4100SOL    HW113199   5.801   6.144   4.772
 4100SOL    HW213200   5.737   6.021   4.686
 4101SOL     OW13201   5.599   0.882   6.745
 4101SOL    HW113202   5.619   0.811   6.678
 4101SOL    HW213203   5.555   0.841   6.825
 4102SOL     OW13204   6.938   0.771   1.961
 4102SOL    HW113205   6.982   0.758   2.050
 4102SOL    HW213206   6.967   0.859   1.923
 4103SOL     OW13207   0.351   0.561   1.910
 4103SOL    HW113208   0.378   0.617   1.988
 4103SOL    HW213209   0.403   0.476   1.911
 4104SOL     OW13210   1.352   4.391   2.733
 4104SOL    HW113211   1.434   4.382   2.676
 4104SOL    HW213212   1.272   4.364   2.681
 4105SOL     OW13213   3.840   5.199   0.895
 4105SOL    HW113214   3.860   5.190   0.992
 4105SOL    HW213215   3.742   5.184   0.879
 4106SOL     OW13216   0.469   2.641   5.399
 4106SOL    HW113217   0.460   2.591   5.313
 4106SOL    HW213218   0.563   2.632   5.434
 4107SOL     OW13219   1.178   6.022   0.823
 4107SOL    HW113220   1.163   5.925   0.807
 4107SOL    HW213221   1.194   6.068   0.735
 4108SOL     OW13222   0.479   4.524   6.236
 4108SOL    HW113223   0.384   4.544   6.212
 4108SOL    HW213224   0.537   4.602   6.214
 4109SOL     OW13225   4.759   6.306   4.782
 4109SOL    HW113226   4.760   6.305   4.882
 4109SOL    HW213227   4.742   6.400   4.750
 4110SOL     OW13228   4.392   3.422   6.602
 4110SOL    HW113229   4.478   3.415   6.653
 4110SOL    HW213230   4.315   3.423   6.667
 4111SOL     OW13231   3.575   3.123   6.798
 4111SOL    HW113232   3.630   3.121   6.715
 4111SOL    HW213233   3.551   3.029   6.825
 4112SOL     OW13234   5.041   1.568   5.910
 4112SOL    HW113235   5.125   1.597   5.865
 4112SOL    HW213236   5.049   1.473   5.939
 4113SOL     OW13237   4.184   5.862   4.983
 4113SOL    HW113238   4.224   5.953   4.997
 4113SOL    HW213239   4.109   5.848   5.049
 4114SOL     OW13240   3.842   2.017   3.533
 4114SOL    HW113241   3.897   2.090   3.491
 4114SOL    HW213242   3.854   1.933   3.480
 4115SOL     OW13243   4.655   5.829   2.051
 4115SOL    HW113244   4.680   5.788   2.138
 4115SOL    HW213245   4.594   5.907   2.067
 4116SOL     OW13246   4.400   2.584   1.710
 4116SOL    HW113247   4.307   2.579   1.673
 4116SOL    HW213248   4.405   2.530   1.794
 4117SOL     OW13249   0.335   5.058   1.956
 4117SOL    HW113250   0.320   4.960   1.966
 4117SOL    HW213251   0.432   5.079   1.969
 4118SOL     OW13252   1.789   5.923   0.214
 4118SOL    HW113253   1.809   6.021   0.220
 4118SOL    HW213254   1.796   5.882   0.305
 4119SOL     OW13255   4.164   1.497   3.120
 4119SOL    HW113256   4.137   1.587   3.088
 4119SOL    HW213257   4.258   1.478   3.094
 4120SOL     OW13258   4.483   0.126   0.803
 4120SOL    HW113259   4.566   0.086   0.841
 4120SOL    HW213260   4.404   0.073   0.834
 4121SOL     OW13261   6.101   1.093   4.841
 4121SOL    HW113262   6.147   1.012   4.806
 4121SOL    HW213263   6.030   1.066   4.906
 4122SOL     OW13264   0.910   6.742   5.612
 4122SOL    HW113265   0.983   6.681   5.583
 4122SOL    HW213266   0.946   6.835   5.621
 4123SOL     OW13267   4.840   4.833   5.493
 4123SOL    HW113268   4.839   4.899   5.418
 4123SOL    HW213269   4.807   4.876   5.577
 4124SOL     OW13270   6.196   5.560   5.344
 4124SOL    HW113271   6.287   5.583   5.309
 4124SOL    HW213272   6.139   5.531   5.267
 4125SOL     OW13273   4.646   0.743   1.871
 4125SOL    HW113274   4.712   0.701   1.933
 4125SOL    HW213275   4.639   0.841   1.891
 4126SOL     OW13276   1.081   4.484   4.122
 4126SOL    HW113277   1.158   4.473   4.184
 4126SOL    HW213278   1.001   4.436   4.159
 4127SOL     OW13279   5.005   4.338   4.452
 4127SOL    HW113280   5.050   4.402   4.515
 4127SOL    HW213281   5.011   4.245   4.489
 4128SOL     OW13282   1.971   3.647   2.316
 4128SOL    HW113283   1.985   3.592   2.398
 4128SOL    HW213284   2.053   3.702   2.299
 4129SOL     OW13285   5.764   1.474   6.325
 4129SOL    HW113286   5.815   1.447   6.244
 4129SOL    HW213287   5.774   1.572   6.340
 4130SOL     OW13288   6.867   3.646   5.852
 4130SOL    HW113289   6.909   3.563   5.890
 4130SOL    HW213290   6.931   3.723   5.861
 4131SOL     OW13291   0.979   5.880   3.797
 4131SOL    HW113292   0.944   5.789   3.819
 4131SOL    HW213293   1.005   5.883   3.700
 4132SOL     OW13294   5.274   4.114   3.665
 4132SOL    HW113295   5.272   4.187   3.733
 4132SOL    HW213296   5.262   4.152   3.574
 4133SOL     OW13297   2.934   6.349   1.498
 4133SOL    HW113298   3.032   6.368   1.504
 4133SOL    HW213299   2.918   6.251   1.508
 4134SOL     OW13300   1.622   2.471   0.804
 4134SOL    HW113301   1.670   2.422   0.731
 4134SOL    HW213302   1.608   2.566   0.775
 4135SOL     OW13303   2.180   0.969   2.337
 4135SOL    HW113304   2.151   0.875   2.321
 4135SOL    HW213305   2.274   0.970   2.369
 4136SOL     OW13306   0.514   1.890   3.711
 4136SOL    HW113307   0.417   1.902   3.686
 4136SOL    HW213308   0.523   1.815   3.776
 4137SOL     OW13309   2.294   3.673   1.077
 4137SOL    HW113310   2.283   3.736   1.000
 4137SOL    HW213311   2.389   3.640   1.079
 4138SOL     OW13312   3.773   5.538   3.774
 4138SOL    HW113313   3.715   5.595   3.833
 4138SOL    HW213314   3.869   5.559   3.793
 4139SOL     OW13315   2.240   1.843   5.987
 4139SOL    HW113316   2.279   1.925   6.030
 4139SOL    HW213317   2.275   1.762   6.034
 4140SOL     OW13318   3.281   0.329   5.301
 4140SOL    HW113319   3.194   0.374   5.319
 4140SOL    HW213320   3.269   0.229   5.303
 4141SOL     OW13321   4.986   5.487   0.880
 4141SOL    HW113322   4.956   5.555   0.946
 4141SOL    HW213323   4.991   5.527   0.789
 4142SOL     OW13324   6.476   5.893   1.057
 4142SOL    HW113325   6.524   5.841   1.127
 4142SOL    HW213326   6.384   5.856   1.044
 4143SOL     OW13327   6.732   3.684   0.749
 4143SOL    HW113328   6.764   3.727   0.666
 4143SOL    HW213329   6.806   3.680   0.816
 4144SOL     OW13330   5.914   2.290   0.840
 4144SOL    HW113331   5.874   2.220   0.780
 4144SOL    HW213332   5.870   2.378   0.823
 4145SOL     OW13333   0.469   5.735   1.861
 4145SOL    HW113334   0.546   5.687   1.904
 4145SOL    HW213335   0.432   5.679   1.787
 4146SOL     OW13336   6.024   0.509   5.104
 4146SOL    HW113337   6.063   0.519   5.012
 4146SOL    HW213338   6.098   0.501   5.171
 4147SOL     OW13339   3.611   1.788   5.315
 4147SOL    HW113340   3.670   1.730   5.259
 4147SOL    HW213341   3.548   1.730   5.367
 4148SOL     OW13342   0.743   0.252   3.961
 4148SOL    HW113343   0.775   0.166   3.921
 4148SOL    HW213344   0.789   0.329   3.916
 4149SOL     OW13345   0.679   3.532   0.288
 4149SOL    HW113346   0.645   3.625   0.280
 4149SOL    HW213347   0.692   3.493   0.196
 4150SOL     OW13348   6.087   0.695   6.035
 4150SOL    HW113349   6.123   0.766   6.096
 4150SOL    HW213350   6.056   0.617   6.090
 4151SOL     OW13351   5.214   6.164   6.849
 4151SOL    HW113352   5.120   6.191   6.829
 4151SOL    HW213353   5.243   6.207   6.935
 4152SOL     OW13354   2.878   5.326   1.514
 4152SOL    HW113355   2.870   5.355   1.419
 4152SOL    HW213356   2.946   5.254   1.521
 4153SOL     OW13357   5.459   5.432   6.377
 4153SOL    HW113358   5.463   5.335   6.402
 4153SOL    HW213359   5.375   5.451   6.327
 4154SOL     OW13360   6.825   3.904   5.503
 4154SOL    HW113361   6.812   3.968   5.427
 4154SOL    HW213362   6.761   3.829   5.495
 4155SOL     OW13363   6.851   3.330   3.487
 4155SOL    HW113364   6.836   3.274   3.405
 4155SOL    HW213365   6.943   3.314   3.522
 4156SOL     OW13366   5.394   6.927   5.046
 4156SOL    HW113367   5.491   6.937   5.067
 4156SOL    HW213368   5.362   7.007   4.996
 4157SOL     OW13369   3.692   6.850   3.365
 4157SOL    HW113370   3.631   6.891   3.432
 4157SOL    HW213371   3.758   6.919   3.334
 4158SOL     OW13372   1.371   5.229   4.179
 4158SOL    HW113373   1.322   5.219   4.093
 4158SOL    HW213374   1.311   5.273   4.247
 4159SOL     OW13375   1.557   3.340   4.014
 4159SOL    HW113376   1.604   3.379   3.935
 4159SOL    HW213377   1.609   3.262   4.049
 4160SOL     OW13378   6.348   0.256   0.658
 4160SOL    HW113379   6.409   0.182   0.688
 4160SOL    HW213380   6.403   0.334   0.628
 4161SOL     OW13381   1.944   6.735   6.459
 4161SOL    HW113382   1.920   6.703   6.551
 4161SOL    HW213383   1.872   6.711   6.395
 4162SOL     OW13384   6.318   0.176   4.773
 4162SOL    HW113385   6.330   0.218   4.863
 4162SOL    HW213386   6.338   0.243   4.702
 4163SOL     OW13387   5.848   1.687   3.638
 4163SOL    HW113388   5.765   1.665   3.690
 4163SOL    HW213389   5.873   1.610   3.580
 4164SOL     OW13390   1.670   0.103   6.398
 4164SOL    HW113391   1.616   0.019   6.398
 4164SOL    HW213392   1.742   0.097   6.329
 4165SOL     OW13393   4.674   0.313   0.690
 4165SOL    HW113394   4.738   0.261   0.634
 4165SOL    HW213395   4.591   0.258   0.704
 4166SOL     OW13396   5.560   2.364   0.896
 4166SOL    HW113397   5.633   2.422   0.860
 4166SOL    HW213398   5.586   2.268   0.886
 4167SOL     OW13399   2.662   3.285   0.712
 4167SOL    HW113400   2.746   3.338   0.702
 4167SOL    HW213401   2.685   3.187   0.718
 4168SOL     OW13402   0.291   5.105   1.202
 4168SOL    HW113403   0.248   5.117   1.112
 4168SOL    HW213404   0.221   5.110   1.273
 4169SOL     OW13405   5.604   3.908   4.452
 4169SOL    HW113406   5.611   3.990   4.396
 4169SOL    HW213407   5.508   3.884   4.465
 4170SOL     OW13408   3.771   2.904   4.782
 4170SOL    HW113409   3.674   2.921   4.764
 4170SOL    HW213410   3.809   2.848   4.708
 4171SOL     OW13411   5.254   4.476   1.121
 4171SOL    HW113412   5.212   4.539   1.186
 4171SOL    HW213413   5.214   4.385   1.131
 4172SOL     OW13414   6.829   2.115   6.311
 4172SOL    HW113415   6.910   2.173   6.297
 4172SOL    HW213416   6.750   2.172   6.334
 4173SOL     OW13417   5.775   3.083   4.968
 4173SOL    HW113418   5.685   3.044   4.986
 4173SOL    HW213419   5.827   3.087   5.054
 4174SOL     OW13420   5.253   0.925   3.515
 4174SOL    HW113421   5.301   0.837   3.511
 4174SOL    HW213422   5.302   0.987   3.577
 4175SOL     OW13423   2.926   6.639   4.513
 4175SOL    HW113424   2.982   6.672   4.436
 4175SOL    HW213425   2.907   6.715   4.575
 4176SOL     OW13426   3.319   0.107   2.169
 4176SOL    HW113427   3.253   0.159   2.115
 4176SOL    HW213428   3.271   0.060   2.243
 4177SOL     OW13429   0.605   5.464   5.279
 4177SOL    HW113430   0.556   5.405   5.344
 4177SOL    HW213431   0.556   5.464   5.192
 4178SOL     OW13432   3.574   0.830   5.023
 4178SOL    HW113433   3.645   0.772   5.064
 4178SOL    HW213434   3.607   0.868   4.937
 4179SOL     OW13435   5.342   3.614   4.137
 4179SOL    HW113436   5.283   3.537   4.113
 4179SOL    HW213437   5.307   3.697   4.094
 4180SOL     OW13438   5.411   4.378   1.935
 4180SOL    HW113439   5.380   4.295   1.888
 4180SOL    HW213440   5.351   4.454   1.910
 4181SOL     OW13441   1.941   1.593   6.075
 4181SOL    HW113442   1.985   1.641   5.999
 4181SOL    HW213443   1.927   1.656   6.151
 4182SOL     OW13444   0.215   0.390   2.902
 4182SOL    HW113445   0.150   0.321   2.869
 4182SOL    HW213446   0.173   0.443   2.976
 4183SOL     OW13447   2.944   1.480   1.814
 4183SOL    HW113448   2.984   1.526   1.893
 4183SOL    HW213449   2.858   1.526   1.789
 4184SOL     OW13450   4.006   4.679   1.221
 4184SOL    HW113451   4.073   4.643   1.156
 4184SOL    HW213452   3.995   4.614   1.297
 4185SOL     OW13453   0.831   5.566   3.464
 4185SOL    HW113454   0.919   5.545   3.422
 4185SOL    HW213455   0.843   5.578   3.563
 4186SOL     OW13456   2.304   4.087   0.173
 4186SOL    HW113457   2.297   4.177   0.129
 4186SOL    HW213458   2.395   4.077   0.214
 4187SOL     OW13459   3.657   3.347   5.676
 4187SOL    HW113460   3.600   3.428   5.666
 4187SOL    HW213461   3.696   3.345   5.768
 4188SOL     OW13462   4.502   0.357   4.273
 4188SOL    HW113463   4.515   0.414   4.355
 4188SOL    HW213464   4.510   0.414   4.191
 4189SOL     OW13465   3.004   1.758   4.469
 4189SOL    HW113466   3.036   1.837   4.521
 4189SOL    HW213467   2.973   1.788   4.379
 4190SOL     OW13468   2.831   7.012   6.211
 4190SOL    HW113469   2.750   7.004   6.270
 4190SOL    HW213470   2.854   0.088   6.199
 4191SOL     OW13471   5.560   3.423   3.012
 4191SOL    HW113472   5.466   3.458   3.022
 4191SOL    HW213473   5.592   3.386   3.099
 4192SOL     OW13474   6.625   1.945   3.477
 4192SOL    HW113475   6.556   1.872   3.474
 4192SOL    HW213476   6.699   1.923   3.413
 4193SOL     OW13477   2.233   6.168   1.701
 4193SOL    HW113478   2.212   6.103   1.775
 4193SOL    HW213479   2.256   6.257   1.740
 4194SOL     OW13480   6.722   2.100   4.759
 4194SOL    HW113481   6.769   2.150   4.831
 4194SOL    HW213482   6.718   2.003   4.782
 4195SOL     OW13483   3.849   0.616   1.292
 4195SOL    HW113484   3.849   0.701   1.345
 4195SOL    HW213485   3.785   0.551   1.333
 4196SOL     OW13486   5.813   2.701   4.257
 4196SOL    HW113487   5.796   2.602   4.255
 4196SOL    HW213488   5.726   2.750   4.262
 4197SOL     OW13489   5.262   4.541   3.768
 4197SOL    HW113490   5.248   4.587   3.856
 4197SOL    HW213491   5.255   4.609   3.695
 4198SOL     OW13492   6.231   3.872   6.854
 4198SOL    HW113493   6.145   3.886   6.805
 4198SOL    HW213494   6.251   3.952   6.910
 4199SOL     OW13495   2.924   3.166   5.738
 4199SOL    HW113496   3.014   3.123   5.738
 4199SOL    HW213497   2.898   3.190   5.831
 4200SOL     OW13498   2.969   6.340   6.145
 4200SOL    HW113499   2.996   6.423   6.096
 4200SOL    HW213500   3.051   6.290   6.172
 4201SOL     OW13501   6.284   6.586   3.395
 4201SOL    HW113502   6.257   6.633   3.478
 4201SOL    HW213503   6.205   6.580   3.333
 4202SOL     OW13504   4.986   4.597   5.749
 4202SOL    HW113505   4.911   4.546   5.706
 4202SOL    HW213506   5.032   4.539   5.816
 4203SOL     OW13507   4.424   6.042   2.953
 4203SOL    HW113508   4.363   5.985   2.898
 4203SOL    HW213509   4.424   6.009   3.047
 4204SOL     OW13510   3.193   3.002   2.164
 4204SOL    HW113511   3.102   2.992   2.205
 4204SOL    HW213512   3.259   2.950   2.217
 4205SOL     OW13513   3.659   4.983   4.167
 4205SOL    HW113514   3.756   4.986   4.142
 4205SOL    HW213515   3.651   4.971   4.266
 4206SOL     OW13516   5.042   0.870   6.372
 4206SOL    HW113517   4.962   0.925   6.396
 4206SOL    HW213518   5.070   0.816   6.451
 4207SOL     OW13519   1.916   1.157   1.747
 4207SOL    HW113520   2.015   1.169   1.754
 4207SOL    HW213521   1.892   1.131   1.653
 4208SOL     OW13522   1.272   2.153   1.109
 4208SOL    HW113523   1.197   2.090   1.091
 4208SOL    HW213524   1.243   2.222   1.176
 4209SOL     OW13525   1.477   0.952   5.390
 4209SOL    HW113526   1.476   0.965   5.489
 4209SOL    HW213527   1.460   1.040   5.345
 4210SOL     OW13528   3.380   3.447   1.916
 4210SOL    HW113529   3.416   3.368   1.966
 4210SOL    HW213530   3.338   3.416   1.831
 4211SOL     OW13531   4.497   5.276   5.194
 4211SOL    HW113532   4.593   5.271   5.166
 4211SOL    HW213533   4.439   5.245   5.118
 4212SOL     OW13534   6.823   1.343   2.363
 4212SOL    HW113535   6.835   1.296   2.450
 4212SOL    HW213536   6.728   1.336   2.334
 4213SOL     OW13537   2.449   1.000   2.467
 4213SOL    HW113538   2.510   0.929   2.431
 4213SOL    HW213539   2.493   1.047   2.544
 4214SOL     OW13540   0.347   3.714   6.409
 4214SOL    HW113541   0.305   3.792   6.362
 4214SOL    HW213542   0.354   3.734   6.506
 4215SOL     OW13543   0.505   6.045   4.280
 4215SOL    HW113544   0.539   6.021   4.189
 4215SOL    HW213545   0.458   6.133   4.275
 4216SOL     OW13546   1.573   1.952   4.168
 4216SOL    HW113547   1.660   1.920   4.130
 4216SOL    HW213548   1.514   1.982   4.093
 4217SOL     OW13549   0.052   6.693   2.926
 4217SOL    HW113550   0.062   6.600   2.961
 4217SOL    HW213551   6.981   6.706   2.890
 4218SOL     OW13552   4.882   6.845   2.180
 4218SOL    HW113553   4.909   6.940   2.199
 4218SOL    HW213554   4.960   6.795   2.144
 4219SOL     OW13555   3.068   4.599   5.400
 4219SOL    HW113556   3.097   4.686   5.360
 4219SOL    HW213557   3.006   4.552   5.337
 4220SOL     OW13558   6.674   3.396   3.198
 4220SOL    HW113559   6.650   3.384   3.295
 4220SOL    HW213560   6.606   3.456   3.154
 4221SOL     OW13561   5.798   5.989   6.704
 4221SOL    HW113562   5.730   6.027   6.641
 4221SOL    HW213563   5.848   6.064   6.748
 4222SOL     OW13564   6.238   1.572   2.083
 4222SOL    HW113565   6.277   1.480   2.092
 4222SOL    HW213566   6.140   1.568   2.101
 4223SOL     OW13567   3.468   3.387   3.170
 4223SOL    HW113568   3.534   3.345   3.108
 4223SOL    HW213569   3.515   3.450   3.232
 4224SOL     OW13570   4.949   3.376   4.259
 4224SOL    HW113571   4.900   3.294   4.288
 4224SOL    HW213572   4.967   3.371   4.161
 4225SOL     OW13573   5.315   1.008   4.996
 4225SOL    HW113574   5.292   1.045   5.086
 4225SOL    HW213575   5.398   0.953   5.003
 4226SOL     OW13576   1.741   1.635   3.932
 4226SOL    HW113577   1.734   1.578   4.014
 4226SOL    HW213578   1.731   1.731   3.958
 4227SOL     OW13579   3.775   4.607   6.774
 4227SOL    HW113580   3.696   4.644   6.823
 4227SOL    HW213581   3.855   4.610   6.834
 4228SOL     OW13582   5.903   6.457   4.113
 4228SOL    HW113583   5.980   6.518   4.131
 4228SOL    HW213584   5.831   6.509   4.067
 4229SOL     OW13585   3.848   4.727   6.002
 4229SOL    HW113586   3.819   4.715   6.097
 4229SOL    HW213587   3.871   4.637   5.964
 4230SOL     OW13588   2.500   0.215   5.129
 4230SOL    HW113589   2.569   0.143   5.139
 4230SOL    HW213590   2.544   0.300   5.103
 4231SOL     OW13591   4.870   6.367   5.212
 4231SOL    HW113592   4.903   6.310   5.288
 4231SOL    HW213593   4.939   6.436   5.190
 4232SOL     OW13594   1.035   5.497   2.044
 4232SOL    HW113595   1.106   5.431   2.070
 4232SOL    HW213596   0.954   5.447   2.013
 4233SOL     OW13597   6.505   0.906   6.900
 4233SOL    HW113598   6.566   0.915   6.979
 4233SOL    HW213599   6.414   0.939   6.924
 4234SOL     OW13600   2.205   5.101   6.085
 4234SOL    HW113601   2.111   5.079   6.112
 4234SOL    HW213602   2.204   5.179   6.023
 4235SOL     OW13603   6.349   4.322   5.690
 4235SOL    HW113604   6.410   4.302   5.766
 4235SOL    HW213605   6.401   4.323   5.604
 4236SOL     OW13606   0.343   2.526   3.876
 4236SOL    HW113607   0.359   2.427   3.875
 4236SOL    HW213608   0.313   2.555   3.785
 4237SOL     OW13609   6.112   3.781   4.686
 4237SOL    HW113610   6.033   3.815   4.635
 4237SOL    HW213611   6.157   3.709   4.633
 4238SOL     OW13612   4.139   4.905   3.718
 4238SOL    HW113613   4.133   4.961   3.636
 4238SOL    HW213614   4.049   4.900   3.762
 4239SOL     OW13615   4.686   0.079   4.463
 4239SOL    HW113616   4.731   0.119   4.383
 4239SOL    HW213617   4.755   0.036   4.522
 4240SOL     OW13618   2.849   5.869   6.616
 4240SOL    HW113619   2.855   5.887   6.714
 4240SOL    HW213620   2.805   5.780   6.601
 4241SOL     OW13621   5.151   0.329   1.249
 4241SOL    HW113622   5.069   0.332   1.306
 4241SOL    HW213623   5.207   0.410   1.267
 4242SOL     OW13624   2.408   6.415   2.897
 4242SOL    HW113625   2.403   6.451   2.990
 4242SOL    HW213626   2.503   6.421   2.864
 4243SOL     OW13627   0.513   3.821   2.358
 4243SOL    HW113628   0.562   3.806   2.272
 4243SOL    HW213629   0.578   3.852   2.428
 4244SOL     OW13630   5.107   6.431   0.672
 4244SOL    HW113631   5.010   6.411   0.654
 4244SOL    HW213632   5.162   6.405   0.593
 4245SOL     OW13633   6.425   3.101   0.347
 4245SOL    HW113634   6.468   3.185   0.382
 4245SOL    HW213635   6.374   3.122   0.264
 4246SOL     OW13636   5.466   2.655   3.109
 4246SOL    HW113637   5.472   2.555   3.108
 4246SOL    HW213638   5.391   2.684   3.168
 4247SOL     OW13639   2.627   5.524   4.709
 4247SOL    HW113640   2.528   5.538   4.702
 4247SOL    HW213641   2.646   5.460   4.783
 4248SOL     OW13642   1.801   0.797   3.047
 4248SOL    HW113643   1.708   0.785   3.082
 4248SOL    HW213644   1.861   0.731   3.090
 4249SOL     OW13645   0.223   1.774   4.204
 4249SOL    HW113646   0.222   1.859   4.152
 4249SOL    HW213647   0.227   1.697   4.141
 4250SOL     OW13648   0.640   5.622   4.166
 4250SOL    HW113649   0.671   5.527   4.174
 4250SOL    HW213650   0.717   5.684   4.181
 4251SOL     OW13651   5.719   3.044   6.977
 4251SOL    HW113652   5.741   3.137   7.005
 4251SOL    HW213653   5.801   2.998   6.944
 4252SOL     OW13654   6.030   6.178   5.214
 4252SOL    HW113655   5.957   6.128   5.261
 4252SOL    HW213656   6.027   6.274   5.242
 4253SOL     OW13657   3.846   6.275   2.364
 4253SOL    HW113658   3.832   6.196   2.424
 4253SOL    HW213659   3.853   6.244   2.270
 4254SOL     OW13660   2.158   3.422   0.375
 4254SOL    HW113661   2.194   3.360   0.445
 4254SOL    HW213662   2.234   3.470   0.331
 4255SOL     OW13663   0.906   4.665   3.186
 4255SOL    HW113664   0.886   4.644   3.281
 4255SOL    HW213665   0.821   4.689   3.138
 4256SOL     OW13666   0.263   4.849   1.621
 4256SOL    HW113667   0.317   4.841   1.704
 4256SOL    HW213668   0.243   4.946   1.603
 4257SOL     OW13669   6.124   2.089   5.184
 4257SOL    HW113670   6.029   2.110   5.158
 4257SOL    HW213671   6.125   2.052   5.277
 4258SOL     OW13672   3.245   5.580   0.890
 4258SOL    HW113673   3.225   5.541   0.800
 4258SOL    HW213674   3.341   5.564   0.912
 4259SOL     OW13675   1.422   6.835   1.092
 4259SOL    HW113676   1.470   6.753   1.122
 4259SOL    HW213677   1.486   6.897   1.046
 4260SOL     OW13678   4.815   0.200   4.265
 4260SOL    HW113679   4.909   0.232   4.279
 4260SOL    HW213680   4.763   0.268   4.214
 4261SOL     OW13681   2.172   0.434   5.018
 4261SOL    HW113682   2.170   0.415   4.920
 4261SOL    HW213683   2.193   0.530   5.033
 4262SOL     OW13684   1.150   4.724   6.251
 4262SOL    HW113685   1.117   4.748   6.160
 4262SOL    HW213686   1.202   4.639   6.247
 4263SOL     OW13687   2.819   2.137   3.493
 4263SOL    HW113688   2.792   2.043   3.472
 4263SOL    HW213689   2.755   2.200   3.449
 4264SOL     OW13690   5.314   1.209   4.429
 4264SOL    HW113691   5.404   1.231   4.466
 4264SOL    HW213692   5.246   1.209   4.503
 4265SOL     OW13693   2.942   0.045   1.211
 4265SOL    HW113694   3.024   0.066   1.263
 4265SOL    HW213695   2.908   6.975   1.236
 4266SOL     OW13696   0.988   6.821   0.477
 4266SOL    HW113697   1.013   6.872   0.559
 4266SOL    HW213698   0.989   6.883   0.398
 4267SOL     OW13699   2.167   4.019   3.565
 4267SOL    HW113700   2.245   3.957   3.554
 4267SOL    HW213701   2.157   4.044   3.661
 4268SOL     OW13702   0.932   4.815   6.803
 4268SOL    HW113703   0.999   4.887   6.787
 4268SOL    HW213704   0.885   4.832   6.890
 4269SOL     OW13705   3.305   1.621   4.223
 4269SOL    HW113706   3.371   1.568   4.277
 4269SOL    HW213707   3.223   1.566   4.206
 4270SOL     OW13708   3.572   2.998   1.342
 4270SOL    HW113709   3.616   2.965   1.258
 4270SOL    HW213710   3.516   3.079   1.321
 4271SOL     OW13711   6.363   0.412   1.213
 4271SOL    HW113712   6.381   0.448   1.121
 4271SOL    HW213713   6.267   0.424   1.235
 4272SOL     OW13714   0.051   3.392   5.552
 4272SOL    HW113715   0.096   3.427   5.635
 4272SOL    HW213716   6.992   3.337   5.579
 4273SOL     OW13717   4.220   6.535   4.671
 4273SOL    HW113718   4.235   6.633   4.663
 4273SOL    HW213719   4.309   6.488   4.667
 4274SOL     OW13720   0.010   6.420   2.050
 4274SOL    HW113721   6.949   6.464   2.087
 4274SOL    HW213722   7.016   6.399   1.953
 4275SOL     OW13723   0.848   2.629   3.697
 4275SOL    HW113724   0.909   2.551   3.688
 4275SOL    HW213725   0.840   2.654   3.793
 4276SOL     OW13726   2.765   5.173   4.031
 4276SOL    HW113727   2.852   5.149   4.075
 4276SOL    HW213728   2.722   5.090   3.995
 4277SOL     OW13729   6.637   5.069   3.883
 4277SOL    HW113730   6.734   5.069   3.905
 4277SOL    HW213731   6.585   5.044   3.965
 4278SOL     OW13732   6.875   6.299   2.943
 4278SOL    HW113733   6.937   6.302   2.865
 4278SOL    HW213734   6.846   6.204   2.959
 4279SOL     OW13735   1.393   1.488   2.554
 4279SOL    HW113736   1.388   1.587   2.567
 4279SOL    HW213737   1.450   1.467   2.475
 4280SOL     OW13738   6.386   6.548   6.503
 4280SOL    HW113739   6.376   6.474   6.436
 4280SOL    HW213740   6.482   6.557   6.529
 4281SOL     OW13741   4.352   5.681   3.814
 4281SOL    HW113742   4.352   5.716   3.908
 4281SOL    HW213743   4.345   5.758   3.750
 4282SOL     OW13744   2.848   4.037   1.038
 4282SOL    HW113745   2.866   3.990   1.124
 4282SOL    HW213746   2.927   4.027   0.978
 4283SOL     OW13747   5.088   0.706   3.066
 4283SOL    HW113748   5.117   0.769   3.137
 4283SOL    HW213749   4.995   0.676   3.084
 4284SOL     OW13750   4.421   5.474   0.488
 4284SOL    HW113751   4.479   5.432   0.558
 4284SOL    HW213752   4.464   5.465   0.398
 4285SOL     OW13753   3.441   0.394   6.321
 4285SOL    HW113754   3.472   0.312   6.273
 4285SOL    HW213755   3.495   0.472   6.291
 4286SOL     OW13756   6.477   1.303   0.187
 4286SOL    HW113757   6.401   1.311   0.123
 4286SOL    HW213758   6.506   1.394   0.217
 4287SOL     OW13759   4.295   0.717   0.082
 4287SOL    HW113760   4.220   0.655   0.106
 4287SOL    HW213761   4.349   0.677   0.008
 4288SOL     OW13762   6.063   6.053   1.946
 4288SOL    HW113763   6.033   6.053   1.851
 4288SOL    HW213764   6.161   6.035   1.950
 4289SOL     OW13765   0.719   2.605   5.492
 4289SOL    HW113766   0.795   2.651   5.446
 4289SOL    HW213767   0.750   2.518   5.530
 4290SOL     OW13768   0.457   0.458   2.982
 4290SOL    HW113769   0.500   0.521   2.917
 4290SOL    HW213770   0.388   0.403   2.935
 4291SOL     OW13771   4.963   2.986   5.822
 4291SOL    HW113772   4.879   2.933   5.828
 4291SOL    HW213773   5.035   2.930   5.781
 4292SOL     OW13774   4.878   1.997   0.355
 4292SOL    HW113775   4.899   2.094   0.345
 4292SOL    HW213776   4.963   1.946   0.368
 4293SOL     OW13777   5.032   3.824   6.817
 4293SOL    HW113778   5.103   3.864   6.760
 4293SOL    HW213779   5.074   3.775   6.893
 4294SOL     OW13780   3.114   2.140   5.969
 4294SOL    HW113781   3.211   2.164   5.962
 4294SOL    HW213782   3.058   2.210   5.926
 4295SOL     OW13783   4.542   6.449   2.064
 4295SOL    HW113784   4.543   6.548   2.049
 4295SOL    HW213785   4.521   6.430   2.160
 4296SOL     OW13786   2.926   6.327   0.960
 4296SOL    HW113787   2.875   6.290   0.883
 4296SOL    HW213788   2.872   6.318   1.044
 4297SOL     OW13789   6.550   5.358   0.965
 4297SOL    HW113790   6.557   5.283   0.900
 4297SOL    HW213791   6.642   5.390   0.989
 4298SOL     OW13792   3.561   6.195   1.425
 4298SOL    HW113793   3.579   6.264   1.356
 4298SOL    HW213794   3.595   6.106   1.394
 4299SOL     OW13795   0.285   2.725   6.732
 4299SOL    HW113796   0.244   2.701   6.644
 4299SOL    HW213797   0.333   2.812   6.723
 4300SOL     OW13798   3.429   0.637   0.908
 4300SOL    HW113799   3.376   0.639   0.824
 4300SOL    HW213800   3.491   0.558   0.907
 4301SOL     OW13801   3.231   6.029   1.775
 4301SOL    HW113802   3.305   6.046   1.840
 4301SOL    HW213803   3.254   6.070   1.687
 4302SOL     OW13804   1.047   6.724   6.552
 4302SOL    HW113805   1.007   6.801   6.602
 4302SOL    HW213806   1.057   6.749   6.456
 4303SOL     OW13807   6.459   4.675   4.142
 4303SOL    HW113808   6.507   4.588   4.131
 4303SOL    HW213809   6.514   4.748   4.101
 4304SOL     OW13810   3.320   3.531   1.607
 4304SOL    HW113811   3.360   3.554   1.518
 4304SOL    HW213812   3.333   3.607   1.670
 4305SOL     OW13813   6.952   0.216   5.963
 4305SOL    HW113814   6.953   0.123   5.926
 4305SOL    HW213815   0.015   0.233   6.014
 4306SOL     OW13816   4.817   3.877   4.485
 4306SOL    HW113817   4.877   3.879   4.565
 4306SOL    HW213818   4.873   3.872   4.402
 4307SOL     OW13819   6.343   3.100   5.654
 4307SOL    HW113820   6.304   3.119   5.564
 4307SOL    HW213821   6.293   3.024   5.697
 4308SOL     OW13822   5.442   5.151   1.548
 4308SOL    HW113823   5.459   5.053   1.560
 4308SOL    HW213824   5.522   5.203   1.578
 4309SOL     OW13825   0.926   3.269   0.171
 4309SOL    HW113826   0.998   3.299   0.109
 4309SOL    HW213827   0.878   3.191   0.131
 4310SOL     OW13828   0.787   2.002   2.534
 4310SOL    HW113829   0.702   2.050   2.517
 4310SOL    HW213830   0.864   2.063   2.517
 4311SOL     OW13831   0.885   6.367   2.191
 4311SOL    HW113832   0.890   6.396   2.286
 4311SOL    HW213833   0.801   6.314   2.177
 4312SOL     OW13834   0.853   4.879   2.043
 4312SOL    HW113835   0.792   4.802   2.064
 4312SOL    HW213836   0.948   4.848   2.044
 4313SOL     OW13837   5.459   1.596   0.680
 4313SOL    HW113838   5.473   1.547   0.766
 4313SOL    HW213839   5.400   1.542   0.620
 4314SOL     OW13840   6.643   2.949   5.734
 4314SOL    HW113841   6.588   2.998   5.801
 4314SOL    HW213842   6.649   3.002   5.649
 4315SOL     OW13843   2.187   1.361   3.548
 4315SOL    HW113844   2.280   1.331   3.570
 4315SOL    HW213845   2.181   1.381   3.450
 4316SOL     OW13846   5.173   0.636   2.023
 4316SOL    HW113847   5.159   0.691   2.105
 4316SOL    HW213848   5.195   0.542   2.049
 4317SOL     OW13849   4.437   0.744   5.705
 4317SOL    HW113850   4.337   0.741   5.707
 4317SOL    HW213851   4.473   0.744   5.798
 4318SOL     OW13852   0.833   1.000   4.088
 4318SOL    HW113853   0.871   1.044   4.169
 4318SOL    HW213854   0.741   1.035   4.071
 4319SOL     OW13855   1.307   2.921   1.706
 4319SOL    HW113856   1.365   2.871   1.770
 4319SOL    HW213857   1.276   2.859   1.634
 4320SOL     OW13858   3.504   6.335   0.713
 4320SOL    HW113859   3.537   6.374   0.626
 4320SOL    HW213860   3.406   6.316   0.706
 4321SOL     OW13861   6.874   5.895   2.590
 4321SOL    HW113862   6.803   5.848   2.642
 4321SOL    HW213863   6.930   5.951   2.653
 4322SOL     OW13864   0.608   2.304   5.170
 4322SOL    HW113865   0.693   2.352   5.192
 4322SOL    HW213866   0.597   2.225   5.231
 4323SOL     OW13867   3.903   5.608   6.959
 4323SOL    HW113868   3.887   5.620   0.036
 4323SOL    HW213869   3.875   5.691   6.910
 4324SOL     OW13870   0.293   3.674   5.648
 4324SOL    HW113871   0.230   3.744   5.615
 4324SOL    HW213872   0.329   3.623   5.570
 4325SOL     OW13873   2.947   0.550   3.410
 4325SOL    HW113874   2.887   0.595   3.344
 4325SOL    HW213875   3.041   0.552   3.376
 4326SOL     OW13876   5.528   2.380   2.545
 4326SOL    HW113877   5.544   2.429   2.459
 4326SOL    HW213878   5.465   2.303   2.527
 4327SOL     OW13879   3.408   5.510   3.969
 4327SOL    HW113880   3.447   5.421   3.947
 4327SOL    HW213881   3.312   5.512   3.941
 4328SOL     OW13882   6.307   5.312   5.300
 4328SOL    HW113883   6.306   5.229   5.356
 4328SOL    HW213884   6.251   5.382   5.344
 4329SOL     OW13885   5.635   3.225   5.374
 4329SOL    HW113886   5.610   3.311   5.330
 4329SOL    HW213887   5.622   3.150   5.310
 4330SOL     OW13888   2.302   5.984   5.304
 4330SOL    HW113889   2.387   5.985   5.356
 4330SOL    HW213890   2.260   5.894   5.310
 4331SOL     OW13891   6.442   0.670   1.616
 4331SOL    HW113892   6.533   0.636   1.641
 4331SOL    HW213893   6.432   0.668   1.517
 4332SOL     OW13894   6.461   3.624   3.052
 4332SOL    HW113895   6.406   3.597   2.973
 4332SOL    HW213896   6.440   3.564   3.129
 4333SOL     OW13897   4.372   2.027   4.974
 4333SOL    HW113898   4.420   2.113   4.956
 4333SOL    HW213899   4.292   2.045   5.031
 4334SOL     OW13900   1.364   2.630   3.067
 4334SOL    HW113901   1.355   2.530   3.073
 4334SOL    HW213902   1.280   2.669   3.031
 4335SOL     OW13903   3.274   2.877   0.948
 4335SOL    HW113904   3.273   2.960   0.891
 4335SOL    HW213905   3.208   2.887   1.022
 4336SOL     OW13906   1.826   5.532   6.374
 4336SOL    HW113907   1.812   5.549   6.276
 4336SOL    HW213908   1.890   5.598   6.411
 4337SOL     OW13909   0.982   6.015   2.484
 4337SOL    HW113910   0.934   6.034   2.399
 4337SOL    HW213911   1.081   6.011   2.467
 4338SOL     OW13912   6.365   0.317   5.691
 4338SOL    HW113913   6.434   0.371   5.642
 4338SOL    HW213914   6.334   0.242   5.632
 4339SOL     OW13915   3.911   2.597   6.711
 4339SOL    HW113916   3.846   2.650   6.655
 4339SOL    HW213917   3.915   2.503   6.677
 4340SOL     OW13918   6.407   4.008   0.805
 4340SOL    HW113919   6.422   4.032   0.901
 4340SOL    HW213920   6.427   3.911   0.791
 4341SOL     OW13921   1.189   5.682   1.525
 4341SOL    HW113922   1.181   5.597   1.577
 4341SOL    HW213923   1.224   5.663   1.434
 4342SOL     OW13924   5.326   3.881   2.717
 4342SOL    HW113925   5.292   3.940   2.644
 4342SOL    HW213926   5.301   3.786   2.698
 4343SOL     OW13927   4.370   0.308   5.647
 4343SOL    HW113928   4.313   0.265   5.577
 4343SOL    HW213929   4.425   0.381   5.605
 4344SOL     OW13930   0.431   3.078   4.086
 4344SOL    HW113931   0.469   3.150   4.029
 4344SOL    HW213932   0.501   3.047   4.150
 4345SOL     OW13933   3.009   3.386   2.713
 4345SOL    HW113934   2.964   3.386   2.623
 4345SOL    HW213935   3.104   3.413   2.702
 4346SOL     OW13936   2.541   2.530   2.902
 4346SOL    HW113937   2.478   2.601   2.872
 4346SOL    HW213938   2.605   2.509   2.828
 4347SOL     OW13939   6.064   5.365   1.506
 4347SOL    HW113940   6.142   5.336   1.561
 4347SOL    HW213941   5.997   5.291   1.502
 4348SOL     OW13942   6.712   5.943   3.591
 4348SOL    HW113943   6.771   5.908   3.664
 4348SOL    HW213944   6.646   6.007   3.629
 4349SOL     OW13945   0.218   4.250   3.491
 4349SOL    HW113946   0.178   4.169   3.449
 4349SOL    HW213947   0.244   4.315   3.420
 4350SOL     OW13948   5.643   1.834   4.923
 4350SOL    HW113949   5.634   1.750   4.869
 4350SOL    HW213950   5.556   1.855   4.967
 4351SOL     OW13951   1.185   6.227   1.277
 4351SOL    HW113952   1.094   6.260   1.251
 4351SOL    HW213953   1.237   6.203   1.196
 4352SOL     OW13954   4.892   4.281   1.089
 4352SOL    HW113955   4.907   4.198   1.037
 4352SOL    HW213956   4.911   4.264   1.186
 4353SOL     OW13957   3.403   3.616   6.613
 4353SOL    HW113958   3.503   3.610   6.624
 4353SOL    HW213959   3.359   3.551   6.674
 4354SOL     OW13960   0.000   0.503   3.913
 4354SOL    HW113961   6.985   0.458   3.830
 4354SOL    HW213962   6.947   0.554   3.957
 4355SOL     OW13963   1.492   0.497   3.914
 4355SOL    HW113964   1.452   0.546   3.991
 4355SOL    HW213965   1.429   0.499   3.836
 4356SOL     OW13966   5.043   2.603   5.957
 4356SOL    HW113967   5.085   2.637   5.873
 4356SOL    HW213968   4.957   2.652   5.974
 4357SOL     OW13969   6.344   1.301   2.039
 4357SOL    HW113970   6.398   1.306   1.955
 4357SOL    HW213971   6.402   1.273   2.115
 4358SOL     OW13972   0.618   1.078   0.091
 4358SOL    HW113973   0.550   1.123   0.150
 4358SOL    HW213974   0.656   0.999   0.138
 4359SOL     OW13975   2.393   0.531   6.783
 4359SOL    HW113976   2.444   0.617   6.793
 4359SOL    HW213977   2.360   0.502   6.873
 4360SOL     OW13978   1.379   2.664   3.359
 4360SOL    HW113979   1.405   2.755   3.393
 4360SOL    HW213980   1.365   2.669   3.260
 4361SOL     OW13981   0.960   2.075   1.303
 4361SOL    HW113982   0.949   2.161   1.252
 4361SOL    HW213983   0.872   2.027   1.306
 4362SOL     OW13984   0.704   6.488   4.091
 4362SOL    HW113985   0.754   6.408   4.125
 4362SOL    HW213986   0.764   6.542   4.032
 4363SOL     OW13987   4.539   0.927   3.012
 4363SOL    HW113988   4.526   0.834   3.046
 4363SOL    HW213989   4.530   0.927   2.912
 4364SOL     OW13990   3.011   3.717   2.440
 4364SOL    HW113991   3.099   3.757   2.465
 4364SOL    HW213992   3.013   3.690   2.343
 4365SOL     OW13993   3.130   2.104   1.730
 4365SOL    HW113994   3.126   2.202   1.710
 4365SOL    HW213995   3.039   2.070   1.752
 4366SOL     OW13996   5.017   5.492   5.195
 4366SOL    HW113997   5.117   5.501   5.196
 4366SOL    HW213998   4.978   5.554   5.263
 4367SOL     OW13999   3.062   5.273   3.475
 4367SOL    HW114000   3.060   5.369   3.447
 4367SOL    HW214001   3.141   5.227   3.434
 4368SOL     OW14002   5.289   5.756   2.718
 4368SOL    HW114003   5.334   5.812   2.649
 4368SOL    HW214004   5.293   5.660   2.691
 4369SOL     OW14005   4.970   5.154   2.731
 4369SOL    HW114006   4.910   5.091   2.682
 4369SOL    HW214007   4.999   5.228   2.670
 4370SOL     OW14008   3.686   4.317   1.575
 4370SOL    HW114009   3.782   4.294   1.557
 4370SOL    HW214010   3.681   4.409   1.613
 4371SOL     OW14011   2.542   1.001   1.824
 4371SOL    HW114012   2.640   0.982   1.813
 4371SOL    HW214013   2.489   0.922   1.793
 4372SOL     OW14014   1.794   2.322   4.889
 4372SOL    HW114015   1.723   2.254   4.870
 4372SOL    HW214016   1.782   2.356   4.982
 4373SOL     OW14017   4.627   1.171   6.094
 4373SOL    HW114018   4.646   1.268   6.079
 4373SOL    HW214019   4.653   1.145   6.187
 4374SOL     OW14020   2.644   1.938   1.596
 4374SOL    HW114021   2.738   1.974   1.596
 4374SOL    HW214022   2.598   1.966   1.680
 4375SOL     OW14023   3.546   0.137   3.427
 4375SOL    HW114024   3.531   0.179   3.338
 4375SOL    HW214025   3.464   0.085   3.454
 4376SOL     OW14026   6.265   6.249   1.474
 4376SOL    HW114027   6.201   6.294   1.536
 4376SOL    HW214028   6.341   6.311   1.455
 4377SOL     OW14029   5.560   6.320   0.357
 4377SOL    HW114030   5.508   6.405   0.365
 4377SOL    HW214031   5.621   6.326   0.279
 4378SOL     OW14032   1.673   5.863   2.217
 4378SOL    HW114033   1.651   5.924   2.292
 4378SOL    HW214034   1.772   5.860   2.204
 4379SOL     OW14035   1.612   0.577   1.724
 4379SOL    HW114036   1.547   0.502   1.713
 4379SOL    HW214037   1.564   0.664   1.716
 4380SOL     OW14038   2.069   5.995   5.515
 4380SOL    HW114039   2.054   5.900   5.542
 4380SOL    HW214040   2.041   6.007   5.419
 4381SOL     OW14041   4.123   6.017   4.177
 4381SOL    HW114042   4.054   6.082   4.207
 4381SOL    HW214043   4.107   5.992   4.081
 4382SOL     OW14044   5.062   4.101   4.620
 4382SOL    HW114045   5.045   4.159   4.700
 4382SOL    HW214046   5.156   4.066   4.624
 4383SOL     OW14047   1.297   1.940   6.299
 4383SOL    HW114048   1.339   2.029   6.281
 4383SOL    HW214049   1.259   1.903   6.215
 4384SOL     OW14050   3.793   6.482   1.260
 4384SOL    HW114051   3.831   6.547   1.194
 4384SOL    HW214052   3.778   6.527   1.348
 4385SOL     OW14053   0.226   1.970   3.628
 4385SOL    HW114054   0.154   2.019   3.678
 4385SOL    HW214055   0.264   2.029   3.557
 4386SOL     OW14056   0.548   4.026   6.696
 4386SOL    HW114057   0.508   4.051   6.608
 4386SOL    HW214058   0.635   3.980   6.681
 4387SOL     OW14059   6.511   3.081   1.110
 4387SOL    HW114060   6.500   3.178   1.133
 4387SOL    HW214061   6.422   3.036   1.115
 4388SOL     OW14062   3.826   0.372   6.212
 4388SOL    HW114063   3.797   0.285   6.254
 4388SOL    HW214064   3.904   0.355   6.152
 4389SOL     OW14065   5.757   2.945   1.506
 4389SOL    HW114066   5.680   2.891   1.541
 4389SOL    HW214067   5.843   2.896   1.523
 4390SOL     OW14068   5.021   2.085   1.414
 4390SOL    HW114069   4.963   2.148   1.363
 4390SOL    HW214070   5.090   2.137   1.466
 4391SOL     OW14071   1.060   5.902   0.124
 4391SOL    HW114072   1.098   5.994   0.132
 4391SOL    HW214073   1.135   5.835   0.122
 4392SOL     OW14074   4.838   3.130   4.328
 4392SOL    HW114075   4.879   3.043   4.301
 4392SOL    HW214076   4.766   3.114   4.396
 4393SOL     OW14077   5.623   0.024   3.516
 4393SOL    HW114078   5.555   0.038   3.444
 4393SOL    HW214079   5.583   6.988   3.589
 4394SOL     OW14080   6.056   6.180   2.882
 4394SOL    HW114081   6.078   6.216   2.792
 4394SOL    HW214082   6.079   6.082   2.886
 4395SOL     OW14083   4.277   1.520   2.025
 4395SOL    HW114084   4.337   1.558   1.955
 4395SOL    HW214085   4.193   1.486   1.982
 4396SOL     OW14086   1.486   1.420   4.582
 4396SOL    HW114087   1.548   1.498   4.576
 4396SOL    HW214088   1.491   1.379   4.673
 4397SOL     OW14089   0.115   1.421   4.338
 4397SOL    HW114090   0.065   1.503   4.311
 4397SOL    HW214091   0.079   1.342   4.289
 4398SOL     OW14092   0.948   3.942   4.312
 4398SOL    HW114093   0.851   3.965   4.304
 4398SOL    HW214094   0.981   3.970   4.403
 4399SOL     OW14095   2.318   0.498   0.563
 4399SOL    HW114096   2.412   0.532   0.554
 4399SOL    HW214097   2.289   0.455   0.478
 4400SOL     OW14098   2.356   6.508   4.148
 4400SOL    HW114099   2.354   6.603   4.179
 4400SOL    HW214100   2.289   6.496   4.075
 4401SOL     OW14101   5.207   6.016   5.118
 4401SOL    HW114102   5.204   6.113   5.093
 4401SOL    HW214103   5.284   5.972   5.071
 4402SOL     OW14104   0.799   5.872   2.764
 4402SOL    HW114105   0.870   5.934   2.729
 4402SOL    HW214106   0.712   5.922   2.770
 4403SOL     OW14107   6.743   0.212   3.392
 4403SOL    HW114108   6.817   0.206   3.460
 4403SOL    HW214109   6.772   0.270   3.317
 4404SOL     OW14110   1.129   4.536   3.864
 4404SOL    HW114111   1.171   4.474   3.799
 4404SOL    HW214112   1.122   4.492   3.954
 4405SOL     OW14113   3.286   4.657   5.920
 4405SOL    HW114114   3.310   4.563   5.941
 4405SOL    HW214115   3.188   4.663   5.899
 4406SOL     OW14116   4.792   4.843   1.515
 4406SOL    HW114117   4.781   4.748   1.543
 4406SOL    HW214118   4.703   4.881   1.491
 4407SOL     OW14119   6.862   6.193   0.621
 4407SOL    HW114120   6.783   6.175   0.562
 4407SOL    HW214121   6.915   6.269   0.583
 4408SOL     OW14122   4.356   0.435   0.416
 4408SOL    HW114123   4.453   0.442   0.440
 4408SOL    HW214124   4.313   0.524   0.426
 4409SOL     OW14125   4.358   1.827   1.810
 4409SOL    HW114126   4.434   1.806   1.749
 4409SOL    HW214127   4.282   1.765   1.790
 4410SOL     OW14128   2.288   4.566   0.297
 4410SOL    HW114129   2.321   4.554   0.390
 4410SOL    HW214130   2.222   4.494   0.275
 4411SOL     OW14131   3.734   3.668   2.868
 4411SOL    HW114132   3.773   3.707   2.952
 4411SOL    HW214133   3.648   3.714   2.847
 4412SOL     OW14134   3.948   1.376   5.594
 4412SOL    HW114135   3.882   1.426   5.538
 4412SOL    HW214136   4.028   1.352   5.539
 4413SOL     OW14137   3.886   5.830   3.919
 4413SOL    HW114138   3.831   5.784   3.988
 4413SOL    HW214139   3.834   5.835   3.833
 4414SOL     OW14140   4.271   4.870   2.214
 4414SOL    HW114141   4.278   4.844   2.310
 4414SOL    HW214142   4.201   4.814   2.169
 4415SOL     OW14143   5.624   3.714   5.854
 4415SOL    HW114144   5.594   3.674   5.941
 4415SOL    HW214145   5.708   3.669   5.823
 4416SOL     OW14146   3.195   1.511   4.497
 4416SOL    HW114147   3.145   1.468   4.572
 4416SOL    HW214148   3.168   1.607   4.489
 4417SOL     OW14149   6.916   4.971   2.077
 4417SOL    HW114150   6.995   4.937   2.129
 4417SOL    HW214151   6.938   5.062   2.041
 4418SOL     OW14152   4.556   6.423   4.041
 4418SOL    HW114153   4.470   6.474   4.043
 4418SOL    HW214154   4.609   6.444   4.123
 4419SOL     OW14155   5.886   5.279   0.717
 4419SOL    HW114156   5.905   5.362   0.770
 4419SOL    HW214157   5.852   5.304   0.626
 4420SOL     OW14158   4.617   0.732   0.826
 4420SOL    HW114159   4.527   0.752   0.865
 4420SOL    HW214160   4.687   0.752   0.894
 4421SOL     OW14161   2.477   1.354   2.498
 4421SOL    HW114162   2.426   1.309   2.424
 4421SOL    HW214163   2.424   1.347   2.583
 4422SOL     OW14164   3.322   3.392   5.765
 4422SOL    HW114165   3.381   3.459   5.719
 4422SOL    HW214166   3.235   3.435   5.787
 4423SOL     OW14167   1.249   1.797   6.029
 4423SOL    HW114168   1.283   1.706   6.052
 4423SOL    HW214169   1.304   1.835   5.955
 4424SOL     OW14170   5.185   6.313   3.375
 4424SOL    HW114171   5.142   6.400   3.400
 4424SOL    HW214172   5.280   6.329   3.349
 4425SOL     OW14173   3.646   5.272   5.489
 4425SOL    HW114174   3.686   5.355   5.527
 4425SOL    HW214175   3.557   5.292   5.449
 4426SOL     OW14176   7.017   1.089   5.371
 4426SOL    HW114177   0.074   1.028   5.388
 4426SOL    HW214178   0.030   1.175   5.332
 4427SOL     OW14179   0.556   0.619   3.393
 4427SOL    HW114180   0.493   0.561   3.340
 4427SOL    HW214181   0.625   0.656   3.331
 4428SOL     OW14182   2.680   4.658   4.453
 4428SOL    HW114183   2.637   4.644   4.542
 4428SOL    HW214184   2.619   4.627   4.380
 4429SOL     OW14185   3.061   6.945   3.447
 4429SOL    HW114186   2.978   6.911   3.491
 4429SOL    HW214187   3.067   0.024   3.459
 4430SOL     OW14188   4.245   2.284   2.988
 4430SOL    HW114189   4.275   2.338   3.067
 4430SOL    HW214190   4.308   2.299   2.912
 4431SOL     OW14191   3.212   1.762   3.124
 4431SOL    HW114192   3.200   1.752   3.025
 4431SOL    HW214193   3.201   1.673   3.168
 4432SOL     OW14194   3.493   2.960   3.152
 4432SOL    HW114195   3.529   2.932   3.063
 4432SOL    HW214196   3.414   3.020   3.139
 4433SOL     OW14197   5.921   7.000   3.347
 4433SOL    HW114198   5.986   0.028   3.405
 4433SOL    HW214199   5.828   0.009   3.368
 4434SOL     OW14200   5.069   1.633   4.231
 4434SOL    HW114201   5.162   1.665   4.249
 4434SOL    HW214202   5.016   1.633   4.316
 4435SOL     OW14203   3.677   3.039   1.596
 4435SOL    HW114204   3.646   3.038   1.501
 4435SOL    HW214205   3.710   2.948   1.621
 4436SOL     OW14206   3.287   2.016   0.358
 4436SOL    HW114207   3.324   1.926   0.333
 4436SOL    HW214208   3.207   2.036   0.302
 4437SOL     OW14209   3.991   0.551   4.443
 4437SOL    HW114210   3.940   0.516   4.364
 4437SOL    HW214211   4.023   0.644   4.422
 4438SOL     OW14212   3.988   2.327   0.415
 4438SOL    HW114213   4.077   2.345   0.456
 4438SOL    HW214214   3.958   2.408   0.365
 4439SOL     OW14215   0.722   4.983   1.372
 4439SOL    HW114216   0.696   4.915   1.303
 4439SOL    HW214217   0.676   5.070   1.353
 4440SOL     OW14218   2.168   5.446   0.226
 4440SOL    HW114219   2.094   5.400   0.276
 4440SOL    HW214220   2.131   5.484   0.141
 4441SOL     OW14221   6.539   2.349   2.287
 4441SOL    HW114222   6.613   2.310   2.232
 4441SOL    HW214223   6.496   2.425   2.238
 4442SOL     OW14224   3.859   6.314   3.290
 4442SOL    HW114225   3.950   6.332   3.253
 4442SOL    HW214226   3.865   6.291   3.387
 4443SOL     OW14227   2.041   1.921   6.577
 4443SOL    HW114228   2.098   2.002   6.591
 4443SOL    HW214229   1.973   1.941   6.507
 4444SOL     OW14230   4.827   6.416   0.668
 4444SOL    HW114231   4.790   6.437   0.759
 4444SOL    HW214232   4.773   6.464   0.599
 4445SOL     OW14233   1.384   0.584   6.442
 4445SOL    HW114234   1.350   0.667   6.398
 4445SOL    HW214235   1.484   0.585   6.444
 4446SOL     OW14236   5.491   0.973   1.659
 4446SOL    HW114237   5.540   1.020   1.733
 4446SOL    HW214238   5.513   0.876   1.661
 4447SOL     OW14239   5.678   3.387   5.636
 4447SOL    HW114240   5.681   3.307   5.576
 4447SOL    HW214241   5.615   3.454   5.598
 4448SOL     OW14242   2.725   3.616   0.412
 4448SOL    HW114243   2.691   3.523   0.421
 4448SOL    HW214244   2.769   3.644   0.498
 4449SOL     OW14245   3.169   0.554   5.690
 4449SOL    HW114246   3.175   0.503   5.776
 4449SOL    HW214247   3.255   0.545   5.640
 4450SOL     OW14248   2.913   3.397   3.000
 4450SOL    HW114249   2.940   3.364   2.909
 4450SOL    HW214250   2.965   3.348   3.070
 4451SOL     OW14251   6.200   4.409   2.269
 4451SOL    HW114252   6.144   4.491   2.258
 4451SOL    HW214253   6.195   4.377   2.364
 4452SOL     OW14254   6.133   6.932   5.283
 4452SOL    HW114255   6.194   6.903   5.357
 4452SOL    HW214256   6.184   6.989   5.219
 4453SOL     OW14257   6.282   2.887   1.525
 4453SOL    HW114258   6.369   2.844   1.500
 4453SOL    HW214259   6.222   2.821   1.569
 4454SOL     OW14260   5.497   2.581   1.063
 4454SOL    HW114261   5.561   2.644   1.020
 4454SOL    HW214262   5.447   2.531   0.993
 4455SOL     OW14263   3.460   6.182   1.982
 4455SOL    HW114264   3.525   6.121   2.026
 4455SOL    HW214265   3.494   6.207   1.891
 4456SOL     OW14266   2.194   5.378   2.055
 4456SOL    HW114267   2.173   5.306   2.121
 4456SOL    HW214268   2.110   5.406   2.008
 4457SOL     OW14269   4.381   2.296   6.397
 4457SOL    HW114270   4.402   2.344   6.482
 4457SOL    HW214271   4.427   2.342   6.321
 4458SOL     OW14272   2.201   3.376   6.071
 4458SOL    HW114273   2.150   3.330   5.999
 4458SOL    HW214274   2.258   3.448   6.031
 4459SOL     OW14275   5.215   0.297   3.941
 4459SOL    HW114276   5.229   0.244   3.857
 4459SOL    HW214277   5.188   0.235   4.015
 4460SOL     OW14278   2.276   3.210   6.771
 4460SOL    HW114279   2.316   3.302   6.760
 4460SOL    HW214280   2.241   3.200   6.864
 4461SOL     OW14281   1.015   6.828   2.385
 4461SOL    HW114282   1.041   6.790   2.474
 4461SOL    HW214283   0.916   6.831   2.377
 4462SOL     OW14284   6.209   4.617   0.830
 4462SOL    HW114285   6.248   4.581   0.914
 4462SOL    HW214286   6.277   4.672   0.782
 4463SOL     OW14287   1.753   2.760   6.785
 4463SOL    HW114288   1.759   2.858   6.768
 4463SOL    HW214289   1.816   2.734   6.859
 4464SOL     OW14290   6.186   4.895   6.741
 4464SOL    HW114291   6.184   4.901   6.641
 4464SOL    HW214292   6.102   4.934   6.778
 4465SOL     OW14293   2.108   6.664   2.372
 4465SOL    HW114294   2.010   6.647   2.381
 4465SOL    HW214295   2.129   6.758   2.397
 4466SOL     OW14296   0.765   1.088   2.559
 4466SOL    HW114297   0.816   1.028   2.621
 4466SOL    HW214298   0.744   1.173   2.605
 4467SOL     OW14299   1.436   6.842   3.382
 4467SOL    HW114300   1.393   6.763   3.424
 4467SOL    HW214301   1.417   6.924   3.436
 4468SOL     OW14302   1.007   2.163   0.005
 4468SOL    HW114303   1.074   2.114   6.970
 4468SOL    HW214304   0.973   2.103   0.077
 4469SOL     OW14305   3.167   0.404   1.918
 4469SOL    HW114306   3.217   0.370   1.838
 4469SOL    HW214307   3.230   0.454   1.978
 4470SOL     OW14308   5.216   3.879   1.814
 4470SOL    HW114309   5.269   3.846   1.893
 4470SOL    HW214310   5.267   3.953   1.769
 4471SOL     OW14311   0.295   3.093   0.626
 4471SOL    HW114312   0.274   3.055   0.536
 4471SOL    HW214313   0.338   3.022   0.683
 4472SOL     OW14314   1.798   3.959   2.468
 4472SOL    HW114315   1.847   4.016   2.401
 4472SOL    HW214316   1.749   4.018   2.532
 4473SOL     OW14317   0.265   0.786   4.683
 4473SOL    HW114318   0.351   0.783   4.733
 4473SOL    HW214319   0.193   0.741   4.738
 4474SOL     OW14320   3.171   7.017   2.365
 4474SOL    HW114321   3.133   6.932   2.403
 4474SOL    HW214322   3.101   0.068   2.367
 4475SOL     OW14323   1.054   3.810   1.208
 4475SOL    HW114324   1.114   3.796   1.287
 4475SOL    HW214325   1.022   3.721   1.175
 4476SOL     OW14326   5.031   6.407   2.790
 4476SOL    HW114327   4.998   6.485   2.736
 4476SOL    HW214328   5.093   6.440   2.861
 4477SOL     OW14329   1.997   0.105   6.883
 4477SOL    HW114330   1.968   0.188   6.931
 4477SOL    HW214331   2.074   0.126   6.822
 4478SOL     OW14332   2.407   6.460   2.103
 4478SOL    HW114333   2.476   6.445   2.032
 4478SOL    HW214334   2.442   6.426   2.190
 4479SOL     OW14335   1.221   0.281   6.245
 4479SOL    HW114336   1.312   0.243   6.231
 4479SOL    HW214337   1.215   0.324   6.335
 4480SOL     OW14338   1.674   3.768   4.378
 4480SOL    HW114339   1.580   3.777   4.411
 4480SOL    HW214340   1.701   3.672   4.382
 4481SOL     OW14341   1.706   6.230   4.567
 4481SOL    HW114342   1.778   6.164   4.588
 4481SOL    HW214343   1.746   6.309   4.521
 4482SOL     OW14344   0.734   4.274   4.391
 4482SOL    HW114345   0.726   4.182   4.351
 4482SOL    HW214346   0.712   4.270   4.488
 4483SOL     OW14347   6.816   3.368   1.361
 4483SOL    HW114348   6.734   3.327   1.321
 4483SOL    HW214349   6.793   3.459   1.398
 4484SOL     OW14350   3.939   2.751   5.268
 4484SOL    HW114351   3.855   2.700   5.284
 4484SOL    HW214352   4.008   2.691   5.229
 4485SOL     OW14353   4.933   2.565   6.487
 4485SOL    HW114354   4.936   2.474   6.528
 4485SOL    HW214355   4.992   2.566   6.406
 4486SOL     OW14356   0.115   4.224   5.147
 4486SOL    HW114357   0.106   4.124   5.152
 4486SOL    HW214358   0.148   4.259   5.235
 4487SOL     OW14359   2.655   3.534   6.693
 4487SOL    HW114360   2.629   3.613   6.638
 4487SOL    HW214361   2.629   3.450   6.645
 4488SOL     OW14362   5.630   2.373   5.985
 4488SOL    HW114363   5.621   2.330   5.895
 4488SOL    HW214364   5.712   2.338   6.030
 4489SOL     OW14365   5.581   5.905   4.734
 4489SOL    HW114366   5.555   5.963   4.657
 4489SOL    HW214367   5.523   5.823   4.736
 4490SOL     OW14368   6.088   1.425   1.447
 4490SOL    HW114369   6.047   1.512   1.419
 4490SOL    HW214370   6.134   1.437   1.535
 4491SOL     OW14371   1.309   3.570   2.435
 4491SOL    HW114372   1.388   3.620   2.471
 4491SOL    HW214373   1.253   3.537   2.510
 4492SOL     OW14374   5.351   2.455   0.166
 4492SOL    HW114375   5.266   2.442   0.115
 4492SOL    HW214376   5.332   2.454   0.264
 4493SOL     OW14377   4.275   5.092   4.568
 4493SOL    HW114378   4.203   5.160   4.558
 4493SOL    HW214379   4.363   5.133   4.542
 4494SOL     OW14380   0.040   3.109   6.028
 4494SOL    HW114381   0.108   3.041   6.055
 4494SOL    HW214382   6.973   3.087   6.071
 4495SOL     OW14383   5.368   6.831   2.600
 4495SOL    HW114384   5.277   6.796   2.622
 4495SOL    HW214385   5.374   6.927   2.625
 4496SOL     OW14386   5.196   4.913   6.849
 4496SOL    HW114387   5.256   4.899   6.927
 4496SOL    HW214388   5.127   4.841   6.847
 4497SOL     OW14389   5.420   5.954   6.815
 4497SOL    HW114390   5.483   5.882   6.784
 4497SOL    HW214391   5.365   5.985   6.738
 4498SOL     OW14392   6.813   4.176   6.911
 4498SOL    HW114393   6.834   4.247   6.978
 4498SOL    HW214394   6.892   4.163   6.850
 4499SOL     OW14395   6.802   2.714   4.756
 4499SOL    HW114396   6.724   2.713   4.819
 4499SOL    HW214397   6.772   2.684   4.665
 4500SOL     OW14398   3.056   3.900   3.956
 4500SOL    HW114399   3.132   3.941   4.007
 4500SOL    HW214400   3.065   3.924   3.859
 4501SOL     OW14401   1.062   3.913   5.486
 4501SOL    HW114402   0.969   3.948   5.493
 4501SOL    HW214403   1.060   3.813   5.480
 4502SOL     OW14404   1.981   2.371   5.985
 4502SOL    HW114405   2.040   2.433   6.036
 4502SOL    HW214406   1.994   2.277   6.016
 4503SOL     OW14407   2.446   1.269   3.581
 4503SOL    HW114408   2.453   1.270   3.481
 4503SOL    HW214409   2.535   1.252   3.621
 4504SOL     OW14410   6.401   2.472   5.903
 4504SOL    HW114411   6.328   2.514   5.849
 4504SOL    HW214412   6.373   2.381   5.933
 4505SOL     OW14413   0.769   5.983   4.689
 4505SOL    HW114414   0.708   5.967   4.767
 4505SOL    HW214415   0.730   5.942   4.607
 4506SOL     OW14416   3.634   1.594   4.831
 4506SOL    HW114417   3.558   1.614   4.893
 4506SOL    HW214418   3.720   1.607   4.879
 4507SOL     OW14419   5.043   5.192   1.468
 4507SOL    HW114420   5.117   5.213   1.531
 4507SOL    HW214421   5.041   5.261   1.396
 4508SOL     OW14422   1.411   4.105   0.295
 4508SOL    HW114423   1.410   4.038   0.369
 4508SOL    HW214424   1.401   4.058   0.207
 4509SOL     OW14425   4.257   1.984   4.436
 4509SOL    HW114426   4.296   1.948   4.521
 4509SOL    HW214427   4.286   1.928   4.359
 4510SOL     OW14428   5.740   0.790   5.114
 4510SOL    HW114429   5.785   0.789   5.203
 4510SOL    HW214430   5.698   0.700   5.097
 4511SOL     OW14431   0.425   3.738   0.035
 4511SOL    HW114432   0.365   3.675   0.085
 4511SOL    HW214433   0.403   3.734   6.958
 4512SOL     OW14434   2.680   6.656   6.817
 4512SOL    HW114435   2.738   6.715   6.762
 4512SOL    HW214436   2.693   6.561   6.788
 4513SOL     OW14437   4.548   6.583   1.374
 4513SOL    HW114438   4.473   6.520   1.353
 4513SOL    HW214439   4.625   6.564   1.312
 4514SOL     OW14440   3.821   1.224   5.112
 4514SOL    HW114441   3.799   1.195   5.205
 4514SOL    HW214442   3.912   1.191   5.087
 4515SOL     OW14443   6.911   4.561   6.858
 4515SOL    HW114444   6.984   4.506   6.816
 4515SOL    HW214445   6.900   4.533   6.954
 4516SOL     OW14446   1.151   0.998   5.508
 4516SOL    HW114447   1.197   0.923   5.556
 4516SOL    HW214448   1.119   0.966   5.419
 4517SOL     OW14449   2.821   6.711   6.583
 4517SOL    HW114450   2.895   6.644   6.574
 4517SOL    HW214451   2.756   6.699   6.507
 4518SOL     OW14452   0.921   2.342   4.014
 4518SOL    HW114453   1.020   2.357   4.022
 4518SOL    HW214454   0.873   2.408   4.072
 4519SOL     OW14455   0.424   2.044   3.415
 4519SOL    HW114456   0.342   2.019   3.362
 4519SOL    HW214457   0.505   2.028   3.360
 4520SOL     OW14458   6.138   4.711   2.702
 4520SOL    HW114459   6.215   4.762   2.740
 4520SOL    HW214460   6.080   4.678   2.777
 4521SOL     OW14461   4.759   2.080   6.095
 4521SOL    HW114462   4.792   2.089   6.189
 4521SOL    HW214463   4.659   2.088   6.094
 4522SOL     OW14464   5.618   6.607   3.986
 4522SOL    HW114465   5.562   6.559   4.053
 4522SOL    HW214466   5.622   6.553   3.901
 4523SOL     OW14467   2.778   4.490   6.899
 4523SOL    HW114468   2.785   4.441   6.986
 4523SOL    HW214469   2.846   4.454   6.835
 4524SOL     OW14470   5.284   1.669   5.790
 4524SOL    HW114471   5.302   1.680   5.888
 4524SOL    HW214472   5.346   1.600   5.752
 4525SOL     OW14473   6.526   1.654   4.340
 4525SOL    HW114474   6.563   1.631   4.251
 4525SOL    HW214475   6.521   1.754   4.349
 4526SOL     OW14476   5.266   0.085   1.317
 4526SOL    HW114477   5.293   0.019   1.247
 4526SOL    HW214478   5.237   0.170   1.272
 4527SOL     OW14479   4.278   0.404   3.403
 4527SOL    HW114480   4.240   0.481   3.455
 4527SOL    HW214481   4.324   0.341   3.465
 4528SOL     OW14482   4.776   6.725   6.834
 4528SOL    HW114483   4.722   6.743   6.917
 4528SOL    HW214484   4.855   6.786   6.834
 4529SOL     OW14485   2.859   1.348   3.423
 4529SOL    HW114486   2.863   1.447   3.440
 4529SOL    HW214487   2.952   1.312   3.418
 4530SOL     OW14488   0.359   3.350   5.538
 4530SOL    HW114489   0.415   3.315   5.463
 4530SOL    HW214490   0.264   3.322   5.524
 4531SOL     OW14491   1.523   3.691   2.754
 4531SOL    HW114492   1.461   3.767   2.775
 4531SOL    HW214493   1.603   3.696   2.815
 4532SOL     OW14494   6.644   1.171   1.291
 4532SOL    HW114495   6.690   1.249   1.334
 4532SOL    HW214496   6.627   1.191   1.195
 4533SOL     OW14497   1.751   0.421   3.830
 4533SOL    HW114498   1.671   0.479   3.850
 4533SOL    HW214499   1.799   0.457   3.750
 4534SOL     OW14500   6.408   3.819   4.909
 4534SOL    HW114501   6.371   3.896   4.858
 4534SOL    HW214502   6.410   3.737   4.852
 4535SOL     OW14503   4.748   2.396   2.127
 4535SOL    HW114504   4.801   2.389   2.043
 4535SOL    HW214505   4.754   2.490   2.162
 4536SOL     OW14506   4.627   1.226   4.510
 4536SOL    HW114507   4.528   1.238   4.507
 4536SOL    HW214508   4.649   1.151   4.573
 4537SOL     OW14509   3.838   3.304   6.794
 4537SOL    HW114510   3.772   3.324   6.867
 4537SOL    HW214511   3.794   3.245   6.726
 4538SOL     OW14512   3.330   1.663   3.797
 4538SOL    HW114513   3.415   1.631   3.839
 4538SOL    HW214514   3.296   1.742   3.848
 4539SOL     OW14515   2.905   2.286   3.695
 4539SOL    HW114516   2.869   2.230   3.620
 4539SOL    HW214517   2.998   2.257   3.717
 4540SOL     OW14518   3.335   3.729   3.960
 4540SOL    HW114519   3.308   3.742   3.865
 4540SOL    HW214520   3.275   3.662   4.003
 4541SOL     OW14521   5.341   0.907   0.190
 4541SOL    HW114522   5.403   0.893   0.112
 4541SOL    HW214523   5.282   0.986   0.172
 4542SOL     OW14524   6.031   5.993   1.668
 4542SOL    HW114525   5.952   6.019   1.613
 4542SOL    HW214526   6.107   5.967   1.609
 4543SOL     OW14527   4.658   1.872   0.269
 4543SOL    HW114528   4.744   1.908   0.305
 4543SOL    HW214529   4.581   1.920   0.312
 4544SOL     OW14530   2.340   6.138   6.852
 4544SOL    HW114531   2.280   6.109   6.777
 4544SOL    HW214532   2.309   6.226   6.888
 4545SOL     OW14533   4.228   2.192   5.304
 4545SOL    HW114534   4.137   2.157   5.326
 4545SOL    HW214535   4.297   2.132   5.343
 4546SOL     OW14536   0.722   0.175   6.141
 4546SOL    HW114537   0.710   0.122   6.057
 4546SOL    HW214538   0.731   0.272   6.118
 4547SOL     OW14539   5.477   2.796   1.874
 4547SOL    HW114540   5.571   2.831   1.875
 4547SOL    HW214541   5.477   2.700   1.903
 4548SOL     OW14542   0.717   4.865   4.292
 4548SOL    HW114543   0.792   4.917   4.251
 4548SOL    HW214544   0.682   4.913   4.372
 4549SOL     OW14545   6.930   3.382   3.928
 4549SOL    HW114546   6.849   3.337   3.891
 4549SOL    HW214547   6.961   3.453   3.865
 4550SOL     OW14548   0.810   6.388   3.782
 4550SOL    HW114549   0.862   6.318   3.830
 4550SOL    HW214550   0.831   6.478   3.821
 4551SOL     OW14551   0.200   2.491   5.486
 4551SOL    HW114552   0.208   2.590   5.478
 4551SOL    HW214553   0.191   2.450   5.395
 4552SOL     OW14554   0.575   2.891   5.868
 4552SOL    HW114555   0.480   2.899   5.840
 4552SOL    HW214556   0.603   2.976   5.914
 4553SOL     OW14557   4.280   4.921   6.987
 4553SOL    HW114558   4.340   4.995   6.956
 4553SOL    HW214559   4.213   4.957   0.032
 4554SOL     OW14560   3.828   0.481   2.168
 4554SOL    HW114561   3.768   0.561   2.163
 4554SOL    HW214562   3.785   0.410   2.223
 4555SOL     OW14563   4.418   2.334   6.794
 4555SOL    HW114564   4.442   2.425   6.762
 4555SOL    HW214565   4.493   2.271   6.773
 4556SOL     OW14566   3.939   0.920   3.595
 4556SOL    HW114567   3.971   1.010   3.566
 4556SOL    HW214568   3.921   0.863   3.515
 4557SOL     OW14569   5.068   0.514   4.823
 4557SOL    HW114570   5.143   0.581   4.827
 4557SOL    HW214571   5.052   0.476   4.914
 4558SOL     OW14572   6.004   3.653   6.347
 4558SOL    HW114573   6.051   3.722   6.402
 4558SOL    HW214574   6.070   3.604   6.290
 4559SOL     OW14575   1.541   6.578   1.176
 4559SOL    HW114576   1.639   6.581   1.196
 4559SOL    HW214577   1.524   6.505   1.109
 4560SOL     OW14578   4.919   3.760   3.129
 4560SOL    HW114579   5.017   3.776   3.141
 4560SOL    HW214580   4.893   3.677   3.177
 4561SOL     OW14581   2.790   1.035   0.391
 4561SOL    HW114582   2.855   0.959   0.397
 4561SOL    HW214583   2.829   1.116   0.433
 4562SOL     OW14584   3.096   5.801   5.497
 4562SOL    HW114585   3.009   5.769   5.459
 4562SOL    HW214586   3.103   5.771   5.593
 4563SOL     OW14587   5.726   2.824   0.536
 4563SOL    HW114588   5.698   2.835   0.441
 4563SOL    HW214589   5.659   2.768   0.585
 4564SOL     OW14590   0.538   5.731   0.412
 4564SOL    HW114591   0.614   5.679   0.371
 4564SOL    HW214592   0.572   5.819   0.444
 4565SOL     OW14593   0.328   1.537   5.417
 4565SOL    HW114594   0.372   1.582   5.340
 4565SOL    HW214595   0.274   1.460   5.383
 4566SOL     OW14596   6.691   0.587   0.099
 4566SOL    HW114597   6.697   0.519   0.173
 4566SOL    HW214598   6.620   0.559   0.034
 4567SOL     OW14599   0.448   0.235   1.146
 4567SOL    HW114600   0.499   0.230   1.059
 4567SOL    HW214601   0.350   0.228   1.128
 4568SOL     OW14602   2.287   4.540   5.489
 4568SOL    HW114603   2.368   4.492   5.522
 4568SOL    HW214604   2.280   4.530   5.390
 4569SOL     OW14605   1.169   2.384   3.964
 4569SOL    HW114606   1.169   2.481   3.987
 4569SOL    HW214607   1.263   2.351   3.959
 4570SOL     OW14608   6.974   6.157   3.460
 4570SOL    HW114609   6.938   6.091   3.394
 4570SOL    HW214610   6.951   6.129   3.553
 4571SOL     OW14611   3.046   3.756   4.829
 4571SOL    HW114612   3.120   3.691   4.809
 4571SOL    HW214613   3.031   3.760   4.928
 4572SOL     OW14614   0.051   6.671   0.530
 4572SOL    HW114615   0.132   6.657   0.587
 4572SOL    HW214616   7.000   6.716   0.583
 4573SOL     OW14617   5.672   5.956   1.268
 4573SOL    HW114618   5.676   6.034   1.206
 4573SOL    HW214619   5.678   5.871   1.216
 4574SOL     OW14620   6.924   4.865   1.147
 4574SOL    HW114621   6.866   4.946   1.147
 4574SOL    HW214622   6.983   4.866   1.066
 4575SOL     OW14623   6.606   2.230   0.479
 4575SOL    HW114624   6.544   2.305   0.501
 4575SOL    HW214625   6.698   2.266   0.463
 4576SOL     OW14626   3.057   6.011   6.433
 4576SOL    HW114627   3.054   5.950   6.354
 4576SOL    HW214628   3.078   5.959   6.516
 4577SOL     OW14629   0.948   3.776   2.793
 4577SOL    HW114630   0.976   3.802   2.886
 4577SOL    HW214631   0.950   3.856   2.734
 4578SOL     OW14632   0.792   3.515   3.119
 4578SOL    HW114633   0.709   3.566   3.096
 4578SOL    HW214634   0.851   3.571   3.177
 4579SOL     OW14635   4.656   1.689   2.695
 4579SOL    HW114636   4.628   1.775   2.652
 4579SOL    HW214637   4.682   1.624   2.623
 4580SOL     OW14638   6.349   5.198   0.467
 4580SOL    HW114639   6.419   5.265   0.445
 4580SOL    HW214640   6.332   5.140   0.387
 4581SOL     OW14641   3.149   4.896   3.075
 4581SOL    HW114642   3.233   4.888   3.129
 4581SOL    HW214643   3.172   4.892   2.978
 4582SOL     OW14644   5.874   0.084   4.313
 4582SOL    HW114645   5.782   0.102   4.278
 4582SOL    HW214646   5.932   0.053   4.238
 4583SOL     OW14647   2.918   2.134   5.115
 4583SOL    HW114648   2.898   2.152   5.211
 4583SOL    HW214649   2.990   2.195   5.084
 4584SOL     OW14650   0.229   5.656   5.889
 4584SOL    HW114651   0.134   5.632   5.906
 4584SOL    HW214652   0.249   5.745   5.930
 4585SOL     OW14653   3.276   6.745   2.427
 4585SOL    HW114654   3.205   6.692   2.380
 4585SOL    HW214655   3.243   6.771   2.518
 4586SOL     OW14656   3.378   4.379   0.997
 4586SOL    HW114657   3.390   4.462   0.942
 4586SOL    HW214658   3.466   4.333   1.009
 4587SOL     OW14659   4.199   3.572   1.795
 4587SOL    HW114660   4.180   3.515   1.874
 4587SOL    HW214661   4.159   3.530   1.713
 4588SOL     OW14662   3.521   3.918   5.126
 4588SOL    HW114663   3.595   3.859   5.094
 4588SOL    HW214664   3.555   3.978   5.199
 4589SOL     OW14665   6.181   2.027   2.384
 4589SOL    HW114666   6.191   2.032   2.483
 4589SOL    HW214667   6.118   2.098   2.353
 4590SOL     OW14668   4.684   6.002   2.393
 4590SOL    HW114669   4.592   6.034   2.372
 4590SOL    HW214670   4.687   5.970   2.488
 4591SOL     OW14671   6.689   6.062   5.554
 4591SOL    HW114672   6.736   6.072   5.466
 4591SOL    HW214673   6.650   6.150   5.581
 4592SOL     OW14674   4.105   3.016   1.001
 4592SOL    HW114675   4.041   2.939   0.999
 4592SOL    HW214676   4.171   3.002   1.075
 4593SOL     OW14677   4.374   5.675   3.309
 4593SOL    HW114678   4.379   5.587   3.357
 4593SOL    HW214679   4.322   5.663   3.224
 4594SOL     OW14680   3.497   1.857   2.402
 4594SOL    HW114681   3.551   1.815   2.475
 4594SOL    HW214682   3.485   1.792   2.327
 4595SOL     OW14683   3.405   2.906   6.874
 4595SOL    HW114684   3.373   2.817   6.841
 4595SOL    HW214685   3.344   2.978   6.841
 4596SOL     OW14686   6.390   6.305   2.130
 4596SOL    HW114687   6.314   6.286   2.191
 4596SOL    HW214688   6.434   6.390   2.156
 4597SOL     OW14689   5.483   5.433   6.656
 4597SOL    HW114690   5.529   5.347   6.675
 4597SOL    HW214691   5.455   5.435   6.560
 4598SOL     OW14692   1.483   4.780   6.318
 4598SOL    HW114693   1.486   4.728   6.233
 4598SOL    HW214694   1.388   4.797   6.344
 4599SOL     OW14695   1.578   3.988   1.227
 4599SOL    HW114696   1.548   3.968   1.133
 4599SOL    HW214697   1.560   3.908   1.285
 4600SOL     OW14698   2.549   5.231   6.402
 4600SOL    HW114699   2.588   5.167   6.336
 4600SOL    HW214700   2.451   5.240   6.385
 4601SOL     OW14701   1.904   0.836   5.666
 4601SOL    HW114702   1.955   0.915   5.698
 4601SOL    HW214703   1.864   0.855   5.576
 4602SOL     OW14704   1.233   6.531   1.096
 4602SOL    HW114705   1.299   6.459   1.120
 4602SOL    HW214706   1.225   6.595   1.172
 4603SOL     OW14707   3.607   6.252   1.692
 4603SOL    HW114708   3.585   6.228   1.597
 4603SOL    HW214709   3.592   6.350   1.705
 4604SOL     OW14710   4.255   0.633   1.485
 4604SOL    HW114711   4.240   0.728   1.456
 4604SOL    HW214712   4.177   0.602   1.538
 4605SOL     OW14713   4.819   0.884   4.030
 4605SOL    HW114714   4.803   0.914   4.124
 4605SOL    HW214715   4.733   0.850   3.991
 4606SOL     OW14716   0.014   6.751   3.451
 4606SOL    HW114717   0.100   6.706   3.430
 4606SOL    HW214718   6.996   6.713   3.535
 4607SOL     OW14719   2.630   2.453   1.026
 4607SOL    HW114720   2.543   2.502   1.035
 4607SOL    HW214721   2.621   2.384   0.954
 4608SOL     OW14722   1.380   4.857   5.272
 4608SOL    HW114723   1.317   4.895   5.205
 4608SOL    HW214724   1.355   4.890   5.363
 4609SOL     OW14725   4.543   5.730   6.108
 4609SOL    HW114726   4.483   5.761   6.035
 4609SOL    HW214727   4.502   5.650   6.152
 4610SOL     OW14728   6.845   2.344   0.408
 4610SOL    HW114729   6.837   2.440   0.380
 4610SOL    HW214730   6.912   2.297   0.350
 4611SOL     OW14731   6.097   4.106   0.226
 4611SOL    HW114732   6.064   4.022   0.268
 4611SOL    HW214733   6.021   4.168   0.210
 4612SOL     OW14734   1.765   5.948   6.665
 4612SOL    HW114735   1.719   6.016   6.609
 4612SOL    HW214736   1.698   5.882   6.699
 4613SOL     OW14737   2.203   5.674   3.275
 4613SOL    HW114738   2.140   5.748   3.251
 4613SOL    HW214739   2.294   5.695   3.240
 4614SOL     OW14740   1.611   5.013   6.538
 4614SOL    HW114741   1.653   4.922   6.539
 4614SOL    HW214742   1.660   5.072   6.474
 4615SOL     OW14743   1.655   1.413   0.961
 4615SOL    HW114744   1.563   1.430   0.928
 4615SOL    HW214745   1.692   1.331   0.916
 4616SOL     OW14746   6.483   0.670   6.761
 4616SOL    HW114747   6.480   0.586   6.815
 4616SOL    HW214748   6.477   0.749   6.822
 4617SOL     OW14749   0.911   2.624   2.472
 4617SOL    HW114750   0.919   2.713   2.428
 4617SOL    HW214751   1.001   2.591   2.498
 4618SOL     OW14752   1.257   1.791   5.341
 4618SOL    HW114753   1.314   1.868   5.313
 4618SOL    HW214754   1.161   1.813   5.327
 4619SOL     OW14755   4.372   0.256   3.616
 4619SOL    HW114756   4.384   0.273   3.714
 4619SOL    HW214757   4.291   0.200   3.601
 4620SOL     OW14758   3.947   4.367   0.229
 4620SOL    HW114759   4.043   4.360   0.253
 4620SOL    HW214760   3.923   4.293   0.166
 4621SOL     OW14761   6.423   2.084   4.777
 4621SOL    HW114762   6.514   2.044   4.767
 4621SOL    HW214763   6.410   2.115   4.871
 4622SOL     OW14764   1.479   2.671   1.031
 4622SOL    HW114765   1.575   2.676   1.057
 4622SOL    HW214766   1.456   2.577   1.005
 4623SOL     OW14767   0.069   5.270   1.055
 4623SOL    HW114768   7.003   5.236   1.018
 4623SOL    HW214769   0.091   5.359   1.015
 4624SOL     OW14770   4.579   0.801   3.851
 4624SOL    HW114771   4.593   0.765   3.759
 4624SOL    HW214772   4.484   0.785   3.879
 4625SOL     OW14773   1.725   4.274   0.070
 4625SOL    HW114774   1.730   4.314   6.999
 4625SOL    HW214775   1.649   4.316   0.120
 4626SOL     OW14776   6.331   4.386   1.643
 4626SOL    HW114777   6.430   4.382   1.630
 4626SOL    HW214778   6.309   4.454   1.713
 4627SOL     OW14779   4.347   5.786   5.882
 4627SOL    HW114780   4.276   5.843   5.839
 4627SOL    HW214781   4.305   5.708   5.927
 4628SOL     OW14782   5.816   4.729   2.300
 4628SOL    HW114783   5.806   4.808   2.361
 4628SOL    HW214784   5.907   4.690   2.310
 4629SOL     OW14785   2.122   4.697   6.052
 4629SOL    HW114786   2.036   4.708   6.103
 4629SOL    HW214787   2.104   4.650   5.966
 4630SOL     OW14788   2.565   5.888   3.963
 4630SOL    HW114789   2.540   5.846   4.050
 4630SOL    HW214790   2.515   5.974   3.952
 4631SOL     OW14791   2.455   6.774   3.411
 4631SOL    HW114792   2.449   6.753   3.314
 4631SOL    HW214793   2.535   6.729   3.450
 4632SOL     OW14794   4.188   5.335   3.922
 4632SOL    HW114795   4.271   5.329   3.867
 4632SOL    HW214796   4.164   5.431   3.936
 4633SOL     OW14797   7.007   2.079   4.995
 4633SOL    HW114798   6.993   2.046   4.901
 4633SOL    HW214799   0.084   2.084   5.014
 4634SOL     OW14800   2.826   4.352   0.102
 4634SOL    HW114801   2.830   4.264   0.149
 4634SOL    HW214802   2.896   4.413   0.139
 4635SOL     OW14803   6.213   3.381   2.374
 4635SOL    HW114804   6.122   3.402   2.409
 4635SOL    HW214805   6.282   3.417   2.437
 4636SOL     OW14806   2.895   5.346   6.641
 4636SOL    HW114807   2.886   5.344   6.541
 4636SOL    HW214808   2.919   5.254   6.674
 4637SOL     OW14809   1.282   0.653   6.922
 4637SOL    HW114810   1.313   0.674   6.829
 4637SOL    HW214811   1.230   0.568   6.921
 4638SOL     OW14812   3.946   2.910   6.112
 4638SOL    HW114813   4.031   2.873   6.149
 4638SOL    HW214814   3.905   2.843   6.049
 4639SOL     OW14815   1.407   4.150   5.796
 4639SOL    HW114816   1.335   4.218   5.778
 4639SOL    HW214817   1.388   4.067   5.744
 4640SOL     OW14818   4.991   4.518   4.038
 4640SOL    HW114819   4.951   4.474   3.957
 4640SOL    HW214820   4.926   4.513   4.113
 4641SOL     OW14821   2.620   4.935   4.249
 4641SOL    HW114822   2.679   4.857   4.268
 4641SOL    HW214823   2.636   4.968   4.156
 4642SOL     OW14824   6.380   5.396   5.030
 4642SOL    HW114825   6.317   5.358   5.098
 4642SOL    HW214826   6.474   5.375   5.058
 4643SOL     OW14827   4.663   2.398   0.410
 4643SOL    HW114828   4.723   2.453   0.468
 4643SOL    HW214829   4.654   2.441   0.320
 4644SOL     OW14830   1.314   5.224   4.917
 4644SOL    HW114831   1.296   5.317   4.948
 4644SOL    HW214832   1.245   5.197   4.850
 4645SOL     OW14833   2.094   6.580   4.588
 4645SOL    HW114834   2.095   6.552   4.492
 4645SOL    HW214835   2.009   6.628   4.608
 4646SOL     OW14836   2.741   0.479   2.371
 4646SOL    HW114837   2.837   0.472   2.344
 4646SOL    HW214838   2.735   0.500   2.469
 4647SOL     OW14839   1.019   6.566   3.445
 4647SOL    HW114840   1.029   6.532   3.538
 4647SOL    HW214841   0.934   6.619   3.438
 4648SOL     OW14842   3.586   6.517   1.780
 4648SOL    HW114843   3.516   6.535   1.849
 4648SOL    HW214844   3.671   6.563   1.807
 4649SOL     OW14845   5.039   0.937   5.883
 4649SOL    HW114846   5.021   0.861   5.946
 4649SOL    HW214847   4.988   1.018   5.913
 4650SOL     OW14848   3.793   5.955   2.765
 4650SOL    HW114849   3.874   5.965   2.707
 4650SOL    HW214850   3.818   5.971   2.861
 4651SOL     OW14851   0.801   2.502   1.426
 4651SOL    HW114852   0.794   2.570   1.353
 4651SOL    HW214853   0.755   2.418   1.397
 4652SOL     OW14854   0.818   6.979   3.529
 4652SOL    HW114855   0.812   6.882   3.507
 4652SOL    HW214856   0.751   0.010   3.475
 4653SOL     OW14857   6.658   6.096   0.217
 4653SOL    HW114858   6.571   6.098   0.167
 4653SOL    HW214859   6.734   6.100   0.152
 4654SOL     OW14860   0.730   0.030   0.087
 4654SOL    HW114861   0.714   6.984   0.160
 4654SOL    HW214862   0.648   0.087   0.077
 4655SOL     OW14863   0.868   5.106   2.682
 4655SOL    HW114864   0.806   5.116   2.604
 4655SOL    HW214865   0.845   5.023   2.733
 4656SOL     OW14866   1.050   6.960   3.193
 4656SOL    HW114867   1.065   6.978   3.290
 4656SOL    HW214868   1.000   0.016   3.153
 4657SOL     OW14869   5.121   6.961   1.956
 4657SOL    HW114870   5.157   0.003   2.026
 4657SOL    HW214871   5.128   6.867   1.989
 4658SOL     OW14872   4.226   0.207   2.910
 4658SOL    HW114873   4.192   0.223   2.817
 4658SOL    HW214874   4.227   0.294   2.959
 4659SOL     OW14875   1.768   3.071   5.224
 4659SOL    HW114876   1.705   3.130   5.174
 4659SOL    HW214877   1.721   3.030   5.302
 4660SOL     OW14878   1.640   1.860   5.079
 4660SOL    HW114879   1.622   1.786   5.143
 4660SOL    HW214880   1.563   1.870   5.016
 4661SOL     OW14881   3.660   3.769   4.788
 4661SOL    HW114882   3.589   3.720   4.838
 4661SOL    HW214883   3.618   3.844   4.736
 4662SOL     OW14884   4.601   0.477   5.519
 4662SOL    HW114885   4.608   0.462   5.420
 4662SOL    HW214886   4.583   0.574   5.536
 4663SOL     OW14887   0.092   1.875   2.374
 4663SOL    HW114888   0.131   1.910   2.289
 4663SOL    HW214889   0.006   1.921   2.393
 4664SOL     OW14890   1.976   2.387   6.681
 4664SOL    HW114891   1.985   2.475   6.727
 4664SOL    HW214892   2.054   2.329   6.705
 4665SOL     OW14893   4.726   0.047   6.859
 4665SOL    HW114894   4.727   0.115   6.785
 4665SOL    HW214895   4.698   0.092   6.944
 4666SOL     OW14896   2.302   1.196   0.272
 4666SOL    HW114897   2.270   1.219   0.180
 4666SOL    HW214898   2.314   1.279   0.326
 4667SOL     OW14899   6.920   4.597   6.167
 4667SOL    HW114900   6.848   4.555   6.223
 4667SOL    HW214901   6.972   4.525   6.120
 4668SOL     OW14902   0.176   1.589   4.571
 4668SOL    HW114903   0.162   1.672   4.516
 4668SOL    HW214904   0.173   1.509   4.512
 4669SOL     OW14905   2.333   5.819   0.533
 4669SOL    HW114906   2.316   5.914   0.507
 4669SOL    HW214907   2.298   5.802   0.625
 4670SOL     OW14908   3.200   1.054   5.041
 4670SOL    HW114909   3.262   1.076   4.965
 4670SOL    HW214910   3.133   1.127   5.052
 4671SOL     OW14911   6.191   3.114   1.634
 4671SOL    HW114912   6.225   3.027   1.599
 4671SOL    HW214913   6.200   3.185   1.563
 4672SOL     OW14914   2.699   4.121   6.032
 4672SOL    HW114915   2.686   4.063   6.112
 4672SOL    HW214916   2.620   4.112   5.971
 4673SOL     OW14917   3.347   6.880   1.467
 4673SOL    HW114918   3.308   6.818   1.399
 4673SOL    HW214919   3.424   6.930   1.428
 4674SOL     OW14920   5.331   6.162   5.569
 4674SOL    HW114921   5.373   6.088   5.517
 4674SOL    HW214922   5.333   6.139   5.667
 4675SOL     OW14923   1.588   3.589   0.974
 4675SOL    HW114924   1.544   3.506   1.009
 4675SOL    HW214925   1.687   3.578   0.978
 4676SOL     OW14926   1.133   5.942   3.517
 4676SOL    HW114927   1.209   5.888   3.553
 4676SOL    HW214928   1.106   5.906   3.428
 4677SOL     OW14929   1.864   1.585   1.017
 4677SOL    HW114930   1.789   1.524   0.996
 4677SOL    HW214931   1.853   1.671   0.966
 4678SOL     OW14932   1.787   4.299   2.681
 4678SOL    HW114933   1.810   4.375   2.740
 4678SOL    HW214934   1.772   4.217   2.736
 4679SOL     OW14935   4.902   6.439   1.574
 4679SOL    HW114936   4.921   6.504   1.648
 4679SOL    HW214937   4.815   6.393   1.591
 4680SOL     OW14938   3.702   0.365   1.370
 4680SOL    HW114939   3.697   0.283   1.428
 4680SOL    HW214940   3.680   0.340   1.276
 4681SOL     OW14941   4.709   4.743   6.952
 4681SOL    HW114942   4.644   4.766   6.880
 4681SOL    HW214943   4.719   4.643   6.957
 4682SOL     OW14944   5.076   3.602   6.458
 4682SOL    HW114945   5.128   3.519   6.436
 4682SOL    HW214946   5.055   3.652   6.374
 4683SOL     OW14947   5.933   4.691   2.891
 4683SOL    HW114948   5.944   4.668   2.988
 4683SOL    HW214949   5.890   4.615   2.843
 4684SOL     OW14950   4.361   6.070   6.430
 4684SOL    HW114951   4.424   6.036   6.500
 4684SOL    HW214952   4.268   6.071   6.467
 4685SOL     OW14953   1.790   3.855   6.333
 4685SOL    HW114954   1.770   3.860   6.235
 4685SOL    HW214955   1.728   3.916   6.383
 4686SOL     OW14956   3.689   6.001   0.352
 4686SOL    HW114957   3.597   6.006   0.312
 4686SOL    HW214958   3.685   6.028   0.448
 4687SOL     OW14959   3.529   1.591   3.346
 4687SOL    HW114960   3.485   1.675   3.314
 4687SOL    HW214961   3.595   1.560   3.278
 4688SOL     OW14962   5.591   2.629   5.917
 4688SOL    HW114963   5.620   2.536   5.939
 4688SOL    HW214964   5.500   2.626   5.874
 4689SOL     OW14965   5.444   0.158   1.528
 4689SOL    HW114966   5.490   0.191   1.446
 4689SOL    HW214967   5.351   0.128   1.504
 4690SOL     OW14968   1.961   0.923   1.294
 4690SOL    HW114969   1.923   0.832   1.278
 4690SOL    HW214970   2.006   0.955   1.211
 4691SOL     OW14971   4.414   4.256   0.615
 4691SOL    HW114972   4.418   4.305   0.703
 4691SOL    HW214973   4.370   4.167   0.629
 4692SOL     OW14974   6.294   4.330   2.554
 4692SOL    HW114975   6.386   4.307   2.521
 4692SOL    HW214976   6.237   4.248   2.556
 4693SOL     OW14977   1.671   1.286   4.234
 4693SOL    HW114978   1.607   1.336   4.176
 4693SOL    HW214979   1.723   1.351   4.290
 4694SOL     OW14980   2.042   1.814   0.601
 4694SOL    HW114981   2.078   1.801   0.508
 4694SOL    HW214982   2.117   1.843   0.661
 4695SOL     OW14983   1.757   5.414   0.461
 4695SOL    HW114984   1.757   5.412   0.561
 4695SOL    HW214985   1.754   5.510   0.431
 4696SOL     OW14986   0.574   5.235   6.011
 4696SOL    HW114987   0.578   5.138   5.986
 4696SOL    HW214988   0.482   5.270   5.996
 4697SOL     OW14989   1.167   3.544   2.206
 4697SOL    HW114990   1.225   3.563   2.286
 4697SOL    HW214991   1.154   3.628   2.154
 4698SOL     OW14992   4.561   0.282   3.157
 4698SOL    HW114993   4.543   0.295   3.254
 4698SOL    HW214994   4.630   0.210   3.145
 4699SOL     OW14995   0.342   6.889   2.081
 4699SOL    HW114996   0.246   6.885   2.107
 4699SOL    HW214997   0.387   6.964   2.129
 4700SOL     OW14998   6.679   1.753   2.655
 4700SOL    HW114999   6.736   1.689   2.603
 4700SOL    HW215000   6.697   1.739   2.753
 4701SOL     OW15001   3.342   2.116   2.303
 4701SOL    HW115002   3.370   2.193   2.246
 4701SOL    HW215003   3.395   2.034   2.278
 4702SOL     OW15004   4.721   4.992   0.072
 4702SOL    HW115005   4.741   4.895   0.057
 4702SOL    HW215006   4.802   5.038   0.106
 4703SOL     OW15007   1.308   5.665   2.251
 4703SOL    HW115008   1.392   5.712   2.225
 4703SOL    HW215009   1.233   5.694   2.191
 4704SOL     OW15010   0.181   6.359   5.716
 4704SOL    HW115011   0.229   6.396   5.795
 4704SOL    HW215012   0.248   6.319   5.652
 4705SOL     OW15013   3.179   2.572   0.913
 4705SOL    HW115014   3.139   2.611   0.996
 4705SOL    HW215015   3.229   2.489   0.936
 4706SOL     OW15016   1.069   0.105   1.160
 4706SOL    HW115017   1.148   0.083   1.217
 4706SOL    HW215018   1.051   0.030   1.097
 4707SOL     OW15019   1.475   6.257   1.612
 4707SOL    HW115020   1.568   6.281   1.583
 4707SOL    HW215021   1.436   6.191   1.549
 4708SOL     OW15022   1.564   2.140   4.872
 4708SOL    HW115023   1.509   2.221   4.851
 4708SOL    HW215024   1.505   2.066   4.903
 4709SOL     OW15025   4.688   5.029   4.713
 4709SOL    HW115026   4.625   5.037   4.789
 4709SOL    HW215027   4.708   5.120   4.676
 4710SOL     OW15028   6.013   6.899   4.090
 4710SOL    HW115029   6.020   6.872   3.993
 4710SOL    HW215030   6.048   6.992   4.102
 4711SOL     OW15031   6.433   3.066   3.438
 4711SOL    HW115032   6.418   2.967   3.437
 4711SOL    HW215033   6.348   3.112   3.465
 4712SOL     OW15034   4.574   4.581   6.132
 4712SOL    HW115035   4.595   4.581   6.034
 4712SOL    HW215036   4.633   4.646   6.178
 4713SOL     OW15037   5.467   5.778   1.150
 4713SOL    HW115038   5.497   5.696   1.198
 4713SOL    HW215039   5.373   5.766   1.120
 4714SOL     OW15040   6.662   1.770   6.550
 4714SOL    HW115041   6.615   1.858   6.556
 4714SOL    HW215042   6.611   1.709   6.489
 4715SOL     OW15043   6.271   2.064   1.200
 4715SOL    HW115044   6.310   1.972   1.204
 4715SOL    HW215045   6.189   2.068   1.258
 4716SOL     OW15046   4.714   5.550   5.538
 4716SOL    HW115047   4.682   5.518   5.449
 4716SOL    HW215048   4.636   5.569   5.597
 4717SOL     OW15049   2.094   5.788   5.855
 4717SOL    HW115050   2.142   5.775   5.941
 4717SOL    HW215051   2.137   5.732   5.784
 4718SOL     OW15052   5.086   2.824   1.057
 4718SOL    HW115053   5.121   2.804   0.965
 4718SOL    HW215054   5.060   2.921   1.062
 4719SOL     OW15055   5.798   3.489   3.511
 4719SOL    HW115056   5.823   3.507   3.416
 4719SOL    HW215057   5.819   3.394   3.533
 4720SOL     OW15058   3.145   4.715   6.460
 4720SOL    HW115059   3.209   4.667   6.520
 4720SOL    HW215060   3.052   4.682   6.479
 4721SOL     OW15061   6.119   2.927   1.304
 4721SOL    HW115062   6.180   2.923   1.383
 4721SOL    HW215063   6.165   2.976   1.230
 4722SOL     OW15064   0.968   5.305   0.542
 4722SOL    HW115065   0.938   5.396   0.571
 4722SOL    HW215066   0.888   5.247   0.524
 4723SOL     OW15067   3.590   4.166   5.263
 4723SOL    HW115068   3.495   4.196   5.255
 4723SOL    HW215069   3.606   4.128   5.354
 4724SOL     OW15070   6.955   6.690   4.284
 4724SOL    HW115071   6.896   6.660   4.208
 4724SOL    HW215072   6.905   6.755   4.341
 4725SOL     OW15073   6.230   5.003   0.266
 4725SOL    HW115074   6.225   5.020   0.168
 4725SOL    HW215075   6.163   4.932   0.291
 4726SOL     OW15076   1.851   2.728   5.829
 4726SOL    HW115077   1.948   2.737   5.852
 4726SOL    HW215078   1.809   2.660   5.889
 4727SOL     OW15079   0.779   5.891   0.133
 4727SOL    HW115080   0.878   5.898   0.125
 4727SOL    HW215081   0.755   5.808   0.183
 4728SOL     OW15082   6.430   1.579   2.840
 4728SOL    HW115083   6.526   1.587   2.864
 4728SOL    HW215084   6.421   1.552   2.744
 4729SOL     OW15085   4.843   0.238   0.085
 4729SOL    HW115086   4.846   0.326   0.039
 4729SOL    HW215087   4.930   0.190   0.073
 4730SOL     OW15088   3.685   6.589   4.871
 4730SOL    HW115089   3.625   6.667   4.856
 4730SOL    HW215090   3.769   6.620   4.915
 4731SOL     OW15091   3.071   0.664   0.825
 4731SOL    HW115092   3.110   0.607   0.752
 4731SOL    HW215093   3.030   0.605   0.894
 4732SOL     OW15094   1.025   3.607   5.226
 4732SOL    HW115095   1.008   3.619   5.324
 4732SOL    HW215096   0.951   3.651   5.174
 4733SOL     OW15097   1.873   4.646   3.124
 4733SOL    HW115098   1.805   4.591   3.075
 4733SOL    HW215099   1.959   4.647   3.073
 4734SOL     OW15100   5.168   3.338   6.411
 4734SOL    HW115101   5.161   3.330   6.510
 4734SOL    HW215102   5.261   3.315   6.382
 4735SOL     OW15103   0.031   5.710   3.699
 4735SOL    HW115104   0.005   5.701   3.795
 4735SOL    HW215105   0.103   5.779   3.690
 4736SOL     OW15106   5.889   2.012   4.201
 4736SOL    HW115107   5.930   1.944   4.262
 4736SOL    HW215108   5.790   2.000   4.200
 4737SOL     OW15109   2.278   4.200   0.511
 4737SOL    HW115110   2.375   4.184   0.493
 4737SOL    HW215111   2.234   4.235   0.428
 4738SOL     OW15112   3.403   6.814   3.717
 4738SOL    HW115113   3.330   6.748   3.733
 4738SOL    HW215114   3.456   6.826   3.801
 4739SOL     OW15115   6.161   2.526   4.192
 4739SOL    HW115116   6.134   2.506   4.286
 4739SOL    HW215117   6.142   2.622   4.171
 4740SOL     OW15118   0.298   0.729   1.193
 4740SOL    HW115119   0.310   0.632   1.170
 4740SOL    HW215120   0.388   0.771   1.209
 4741SOL     OW15121   4.539   4.902   1.448
 4741SOL    HW115122   4.493   4.829   1.498
 4741SOL    HW215123   4.506   4.904   1.354
 4742SOL     OW15124   2.347   5.187   1.440
 4742SOL    HW115125   2.305   5.105   1.478
 4742SOL    HW215126   2.438   5.200   1.479
 4743SOL     OW15127   2.467   0.985   6.056
 4743SOL    HW115128   2.513   1.048   5.993
 4743SOL    HW215129   2.384   0.949   6.014
 4744SOL     OW15130   2.524   2.525   5.374
 4744SOL    HW115131   2.536   2.622   5.351
 4744SOL    HW215132   2.435   2.494   5.341
 4745SOL     OW15133   3.059   5.051   6.039
 4745SOL    HW115134   3.062   5.097   5.951
 4745SOL    HW215135   3.142   5.072   6.091
 4746SOL     OW15136   5.626   5.601   0.829
 4746SOL    HW115137   5.540   5.562   0.863
 4746SOL    HW215138   5.606   5.663   0.752
 4747SOL     OW15139   0.561   3.230   6.723
 4747SOL    HW115140   0.507   3.312   6.744
 4747SOL    HW215141   0.526   3.187   6.640
 4748SOL     OW15142   0.887   0.534   1.629
 4748SOL    HW115143   0.837   0.456   1.590
 4748SOL    HW215144   0.824   0.591   1.680
 4749SOL     OW15145   3.045   6.336   6.440
 4749SOL    HW115146   3.137   6.297   6.434
 4749SOL    HW215147   2.978   6.269   6.408
 4750SOL     OW15148   6.775   1.971   4.381
 4750SOL    HW115149   6.827   2.053   4.406
 4750SOL    HW215150   6.692   1.966   4.437
 4751SOL     OW15151   1.989   3.362   6.896
 4751SOL    HW115152   2.054   3.437   6.906
 4751SOL    HW215153   2.037   3.275   6.907
 4752SOL     OW15154   2.628   5.993   0.803
 4752SOL    HW115155   2.548   6.031   0.850
 4752SOL    HW215156   2.612   5.896   0.783
 4753SOL     OW15157   5.777   0.323   4.619
 4753SOL    HW115158   5.797   0.250   4.684
 4753SOL    HW215159   5.707   0.291   4.554
 4754SOL     OW15160   6.060   0.706   6.443
 4754SOL    HW115161   6.064   0.649   6.361
 4754SOL    HW215162   5.969   0.745   6.452
 4755SOL     OW15163   2.593   0.233   6.346
 4755SOL    HW115164   2.571   0.140   6.375
 4755SOL    HW215165   2.517   0.271   6.293
 4756SOL     OW15166   5.858   2.527   1.982
 4756SOL    HW115167   5.768   2.520   2.025
 4756SOL    HW215168   5.852   2.583   1.899
 4757SOL     OW15169   2.423   2.210   2.210
 4757SOL    HW115170   2.381   2.235   2.123
 4757SOL    HW215171   2.522   2.211   2.201
 4758SOL     OW15172   4.142   6.208   4.896
 4758SOL    HW115173   4.125   6.274   4.969
 4758SOL    HW215174   4.237   6.177   4.900
 4759SOL     OW15175   4.972   5.466   4.909
 4759SOL    HW115176   4.993   5.454   5.006
 4759SOL    HW215177   4.975   5.377   4.862
 4760SOL     OW15178   2.675   1.599   1.090
 4760SOL    HW115179   2.627   1.517   1.123
 4760SOL    HW215180   2.642   1.679   1.140
 4761SOL     OW15181   6.546   0.271   6.482
 4761SOL    HW115182   6.573   0.354   6.531
 4761SOL    HW215183   6.531   0.293   6.386
 4762SOL     OW15184   2.124   4.602   2.750
 4762SOL    HW115185   2.082   4.692   2.743
 4762SOL    HW215186   2.216   4.611   2.788
 4763SOL     OW15187   6.063   5.956   3.044
 4763SOL    HW115188   6.099   5.892   3.112
 4763SOL    HW215189   6.056   6.047   3.084
 4764SOL     OW15190   4.736   4.221   5.171
 4764SOL    HW115191   4.743   4.138   5.116
 4764SOL    HW215192   4.803   4.218   5.245
 4765SOL     OW15193   4.462   6.409   4.662
 4765SOL    HW115194   4.506   6.353   4.591
 4765SOL    HW215195   4.531   6.440   4.727
 4766SOL     OW15196   3.621   0.628   3.522
 4766SOL    HW115197   3.700   0.689   3.524
 4766SOL    HW215198   3.599   0.599   3.615
 4767SOL     OW15199   4.139   6.381   0.617
 4767SOL    HW115200   4.132   6.479   0.636
 4767SOL    HW215201   4.133   6.365   0.519
 4768SOL     OW15202   5.383   1.762   4.695
 4768SOL    HW115203   5.401   1.855   4.725
 4768SOL    HW215204   5.459   1.703   4.719
 4769SOL     OW15205   4.149   5.015   1.453
 4769SOL    HW115206   4.189   4.924   1.458
 4769SOL    HW215207   4.051   5.007   1.434
 4770SOL     OW15208   2.178   0.271   3.267
 4770SOL    HW115209   2.194   0.245   3.172
 4770SOL    HW215210   2.082   0.259   3.289
 4771SOL     OW15211   3.456   5.219   5.768
 4771SOL    HW115212   3.482   5.251   5.677
 4771SOL    HW215213   3.535   5.177   5.812
 4772SOL     OW15214   2.725   6.584   1.091
 4772SOL    HW115215   2.682   6.524   1.023
 4772SOL    HW215216   2.764   6.527   1.164
 4773SOL     OW15217   0.030   5.823   4.572
 4773SOL    HW115218   0.035   5.871   4.484
 4773SOL    HW215219   6.966   5.847   4.618
 4774SOL     OW15220   0.826   3.020   2.544
 4774SOL    HW115221   0.908   3.057   2.499
 4774SOL    HW215222   0.793   2.941   2.492
 4775SOL     OW15223   6.009   0.597   2.925
 4775SOL    HW115224   6.064   0.681   2.933
 4775SOL    HW215225   5.912   0.620   2.934
 4776SOL     OW15226   2.767   6.920   2.858
 4776SOL    HW115227   2.825   6.941   2.936
 4776SOL    HW215228   2.814   6.855   2.797
 4777SOL     OW15229   2.535   4.271   1.091
 4777SOL    HW115230   2.455   4.321   1.057
 4777SOL    HW215231   2.555   4.194   1.030
 4778SOL     OW15232   5.592   2.537   2.062
 4778SOL    HW115233   5.515   2.487   2.023
 4778SOL    HW215234   5.558   2.609   2.122
 4779SOL     OW15235   6.323   0.264   2.662
 4779SOL    HW115236   6.361   0.171   2.661
 4779SOL    HW215237   6.328   0.303   2.571
 4780SOL     OW15238   0.661   0.455   6.093
 4780SOL    HW115239   0.749   0.503   6.091
 4780SOL    HW215240   0.611   0.472   6.008
 4781SOL     OW15241   2.668   5.730   1.375
 4781SOL    HW115242   2.746   5.789   1.395
 4781SOL    HW215243   2.616   5.769   1.299
 4782SOL     OW15244   4.461   7.011   0.122
 4782SOL    HW115245   4.528   0.017   0.192
 4782SOL    HW215246   4.444   0.068   0.062
 4783SOL     OW15247   4.335   4.528   0.151
 4783SOL    HW115248   4.375   4.615   0.122
 4783SOL    HW215249   4.376   4.498   0.237
 4784SOL     OW15250   6.136   5.368   6.135
 4784SOL    HW115251   6.068   5.295   6.137
 4784SOL    HW215252   6.214   5.344   6.192
 4785SOL     OW15253   6.492   6.162   1.157
 4785SOL    HW115254   6.506   6.073   1.200
 4785SOL    HW215255   6.580   6.205   1.139
 4786SOL     OW15256   1.772   2.120   2.335
 4786SOL    HW115257   1.855   2.099   2.284
 4786SOL    HW215258   1.740   2.212   2.310
 4787SOL     OW15259   3.418   1.995   3.806
 4787SOL    HW115260   3.373   1.938   3.875
 4787SOL    HW215261   3.494   2.044   3.847
 4788SOL     OW15262   1.474   5.405   5.985
 4788SOL    HW115263   1.443   5.389   6.078
 4788SOL    HW215264   1.573   5.394   5.980
 4789SOL     OW15265   5.222   0.666   6.965
 4789SOL    HW115266   5.204   0.757   6.927
 4789SOL    HW215267   5.135   0.622   6.988
 4790SOL     OW15268   5.651   3.372   6.797
 4790SOL    HW115269   5.748   3.372   6.819
 4790SOL    HW215270   5.618   3.466   6.793
 4791SOL     OW15271   5.987   1.526   1.769
 4791SOL    HW115272   5.926   1.527   1.689
 4791SOL    HW215273   6.070   1.476   1.746
 4792SOL     OW15274   1.881   2.855   2.428
 4792SOL    HW115275   1.936   2.915   2.370
 4792SOL    HW215276   1.785   2.883   2.424
 4793SOL     OW15277   1.338   1.933   5.786
 4793SOL    HW115278   1.355   2.027   5.756
 4793SOL    HW215279   1.424   1.883   5.791
 4794SOL     OW15280   3.883   0.349   2.950
 4794SOL    HW115281   3.823   0.350   3.029
 4794SOL    HW215282   3.961   0.410   2.967
 4795SOL     OW15283   6.670   2.493   4.255
 4795SOL    HW115284   6.744   2.454   4.200
 4795SOL    HW215285   6.583   2.450   4.228
 4796SOL     OW15286   5.252   2.059   0.059
 4796SOL    HW115287   5.264   2.102   6.990
 4796SOL    HW215288   5.238   1.961   0.047
 4797SOL     OW15289   1.588   6.159   5.409
 4797SOL    HW115290   1.642   6.232   5.367
 4797SOL    HW215291   1.648   6.082   5.430
 4798SOL     OW15292   0.444   4.137   5.413
 4798SOL    HW115293   0.354   4.177   5.395
 4798SOL    HW215294   0.438   4.074   5.490
 4799SOL     OW15295   5.174   1.560   5.540
 4799SOL    HW115296   5.230   1.575   5.622
 4799SOL    HW215297   5.088   1.610   5.549
 4800SOL     OW15298   3.541   3.281   5.974
 4800SOL    HW115299   3.633   3.314   5.952
 4800SOL    HW215300   3.478   3.305   5.900
 4801SOL     OW15301   2.451   1.877   0.318
 4801SOL    HW115302   2.538   1.888   0.271
 4801SOL    HW215303   2.449   1.934   0.400
 4802SOL     OW15304   1.078   6.191   2.166
 4802SOL    HW115305   1.034   6.281   2.156
 4802SOL    HW215306   1.010   6.125   2.197
 4803SOL     OW15307   0.827   6.551   0.843
 4803SOL    HW115308   0.925   6.535   0.843
 4803SOL    HW215309   0.780   6.471   0.882
 4804SOL     OW15310   4.148   5.437   6.414
 4804SOL    HW115311   4.101   5.391   6.339
 4804SOL    HW215312   4.092   5.433   6.497
 4805SOL     OW15313   6.553   6.661   0.651
 4805SOL    HW115314   6.483   6.607   0.697
 4805SOL    HW215315   6.509   6.722   0.584
 4806SOL     OW15316   6.836   3.734   3.993
 4806SOL    HW115317   6.879   3.739   3.903
 4806SOL    HW215318   6.838   3.824   4.037
 4807SOL     OW15319   1.483   5.398   1.046
 4807SOL    HW115320   1.508   5.371   0.952
 4807SOL    HW215321   1.457   5.495   1.047
 4808SOL     OW15322   6.003   3.830   0.732
 4808SOL    HW115323   5.930   3.849   0.666
 4808SOL    HW215324   6.039   3.917   0.767
 4809SOL     OW15325   3.697   4.204   6.987
 4809SOL    HW115326   3.752   4.197   0.049
 4809SOL    HW215327   3.729   4.135   6.921
 4810SOL     OW15328   1.586   5.030   1.299
 4810SOL    HW115329   1.626   5.008   1.388
 4810SOL    HW215330   1.496   4.987   1.292
 4811SOL     OW15331   2.458   4.878   2.174
 4811SOL    HW115332   2.383   4.924   2.126
 4811SOL    HW215333   2.447   4.890   2.273
 4812SOL     OW15334   6.669   5.135   5.486
 4812SOL    HW115335   6.689   5.038   5.474
 4812SOL    HW215336   6.639   5.151   5.581
 4813SOL     OW15337   4.580   0.995   1.963
 4813SOL    HW115338   4.572   0.989   2.062
 4813SOL    HW215339   4.575   1.092   1.935
 4814SOL     OW15340   6.121   5.024   6.997
 4814SOL    HW115341   6.049   4.972   0.022
 4814SOL    HW215342   6.080   5.100   6.947
 4815SOL     OW15343   5.035   5.300   2.504
 4815SOL    HW115344   4.939   5.287   2.480
 4815SOL    HW215345   5.085   5.334   2.424
 4816SOL     OW15346   6.044   5.327   3.145
 4816SOL    HW115347   5.977   5.349   3.074
 4816SOL    HW215348   6.067   5.230   3.141
 4817SOL     OW15349   0.386   2.060   6.480
 4817SOL    HW115350   0.349   1.967   6.480
 4817SOL    HW215351   0.478   2.060   6.517
 4818SOL     OW15352   1.005   6.967   4.087
 4818SOL    HW115353   1.089   6.923   4.057
 4818SOL    HW215354   1.027   0.027   4.142
 4819SOL     OW15355   1.567   3.011   0.673
 4819SOL    HW115356   1.635   3.073   0.635
 4819SOL    HW215357   1.490   3.003   0.610
 4820SOL     OW15358   6.847   3.050   1.884
 4820SOL    HW115359   6.773   3.113   1.910
 4820SOL    HW215360   6.935   3.095   1.896
 4821SOL     OW15361   0.893   6.001   2.205
 4821SOL    HW115362   0.848   5.912   2.207
 4821SOL    HW215363   0.876   6.045   2.117
 4822SOL     OW15364   1.393   4.056   4.112
 4822SOL    HW115365   1.308   4.017   4.076
 4822SOL    HW215366   1.468   4.037   4.048
 4823SOL     OW15367   1.296   1.758   2.592
 4823SOL    HW115368   1.258   1.785   2.503
 4823SOL    HW215369   1.264   1.820   2.663
 4824SOL     OW15370   4.909   1.834   5.244
 4824SOL    HW115371   4.816   1.833   5.209
 4824SOL    HW215372   4.972   1.807   5.171
 4825SOL     OW15373   1.198   1.434   4.281
 4825SOL    HW115374   1.175   1.440   4.378
 4825SOL    HW215375   1.136   1.491   4.228
 4826SOL     OW15376   5.101   0.608   0.789
 4826SOL    HW115377   5.114   0.705   0.809
 4826SOL    HW215378   5.009   0.580   0.816
 4827SOL     OW15379   6.537   1.560   0.257
 4827SOL    HW115380   6.636   1.550   0.248
 4827SOL    HW215381   6.512   1.561   0.353
 4828SOL     OW15382   4.388   0.112   1.751
 4828SOL    HW115383   4.472   0.148   1.791
 4828SOL    HW215384   4.394   0.116   1.652
 4829SOL     OW15385   3.917   6.645   6.475
 4829SOL    HW115386   3.917   6.562   6.419
 4829SOL    HW215387   4.011   6.668   6.500
 4830SOL     OW15388   3.752   5.824   3.686
 4830SOL    HW115389   3.738   5.887   3.610
 4830SOL    HW215390   3.682   5.753   3.684
 4831SOL     OW15391   2.837   5.397   5.767
 4831SOL    HW115392   2.809   5.427   5.859
 4831SOL    HW215393   2.937   5.400   5.761
 4832SOL     OW15394   3.654   3.514   4.514
 4832SOL    HW115395   3.589   3.448   4.550
 4832SOL    HW215396   3.735   3.515   4.573
 4833SOL     OW15397   5.574   1.993   3.568
 4833SOL    HW115398   5.509   2.069   3.573
 4833SOL    HW215399   5.667   2.028   3.566
 4834SOL     OW15400   2.619   5.673   2.699
 4834SOL    HW115401   2.710   5.653   2.734
 4834SOL    HW215402   2.567   5.588   2.690
 4835SOL     OW15403   6.141   3.533   6.129
 4835SOL    HW115404   6.199   3.605   6.091
 4835SOL    HW215405   6.069   3.510   6.063
 4836SOL     OW15406   4.651   1.316   5.408
 4836SOL    HW115407   4.702   1.335   5.491
 4836SOL    HW215408   4.614   1.402   5.371
 4837SOL     OW15409   6.700   3.012   3.387
 4837SOL    HW115410   6.734   2.964   3.468
 4837SOL    HW215411   6.605   3.040   3.402
 4838SOL     OW15412   1.082   5.321   6.193
 4838SOL    HW115413   1.001   5.376   6.212
 4838SOL    HW215414   1.095   5.313   6.094
 4839SOL     OW15415   1.539   3.049   7.003
 4839SOL    HW115416   1.475   2.972   6.996
 4839SOL    HW215417   1.519   3.116   6.932
 4840SOL     OW15418   5.260   4.148   5.432
 4840SOL    HW115419   5.356   4.125   5.446
 4840SOL    HW215420   5.227   4.104   5.349
 4841SOL     OW15421   3.211   5.362   3.004
 4841SOL    HW115422   3.262   5.338   3.087
 4841SOL    HW215423   3.146   5.290   2.983
 4842SOL     OW15424   2.146   5.319   3.463
 4842SOL    HW115425   2.203   5.332   3.382
 4842SOL    HW215426   2.112   5.225   3.466
 4843SOL     OW15427   6.815   2.825   2.137
 4843SOL    HW115428   6.908   2.803   2.107
 4843SOL    HW215429   6.816   2.913   2.184
 4844SOL     OW15430   1.255   4.179   5.470
 4844SOL    HW115431   1.349   4.192   5.503
 4844SOL    HW215432   1.197   4.152   5.547
 4845SOL     OW15433   4.664   4.593   5.125
 4845SOL    HW115434   4.761   4.604   5.104
 4845SOL    HW215435   4.616   4.557   5.045
 4846SOL     OW15436   0.703   2.360   3.621
 4846SOL    HW115437   0.757   2.442   3.636
 4846SOL    HW215438   0.704   2.303   3.703
 4847SOL     OW15439   2.643   0.075   5.480
 4847SOL    HW115440   2.656   0.124   5.394
 4847SOL    HW215441   2.714   0.005   5.489
 4848SOL     OW15442   2.130   1.073   3.917
 4848SOL    HW115443   2.073   1.026   3.985
 4848SOL    HW215444   2.189   1.007   3.870
 4849SOL     OW15445   1.667   0.029   0.655
 4849SOL    HW115446   1.595   0.083   0.610
 4849SOL    HW215447   1.704   6.983   0.590
 4850SOL     OW15448   4.397   0.271   1.257
 4850SOL    HW115449   4.357   0.313   1.176
 4850SOL    HW215450   4.415   0.174   1.239
 4851SOL     OW15451   3.514   5.547   0.068
 4851SOL    HW115452   3.532   5.497   0.153
 4851SOL    HW215453   3.571   5.510   7.016
 4852SOL     OW15454   3.552   5.962   4.971
 4852SOL    HW115455   3.544   6.000   5.063
 4852SOL    HW215456   3.646   5.934   4.955
 4853SOL     OW15457   3.405   0.510   2.829
 4853SOL    HW115458   3.411   0.510   2.729
 4853SOL    HW215459   3.364   0.596   2.860
 4854SOL     OW15460   5.490   6.587   1.936
 4854SOL    HW115461   5.489   6.676   1.980
 4854SOL    HW215462   5.547   6.591   1.854
 4855SOL     OW15463   0.209   4.023   4.753
 4855SOL    HW115464   0.289   3.988   4.703
 4855SOL    HW215465   0.180   3.955   4.820
 4856SOL     OW15466   0.320   3.460   2.676
 4856SOL    HW115467   0.330   3.513   2.592
 4856SOL    HW215468   0.224   3.460   2.704
 4857SOL     OW15469   3.247   2.148   4.316
 4857SOL    HW115470   3.343   2.119   4.318
 4857SOL    HW215471   3.203   2.124   4.403
 4858SOL     OW15472   0.655   0.335   5.188
 4858SOL    HW115473   0.640   0.431   5.215
 4858SOL    HW215474   0.568   0.285   5.197
 4859SOL     OW15475   0.992   5.068   2.214
 4859SOL    HW115476   0.919   5.116   2.262
 4859SOL    HW215477   0.951   5.006   2.146
 4860SOL     OW15478   4.293   5.369   0.158
 4860SOL    HW115479   4.240   5.374   0.074
 4860SOL    HW215480   4.242   5.412   0.232
 4861SOL     OW15481   6.286   4.857   5.394
 4861SOL    HW115482   6.333   4.895   5.315
 4861SOL    HW215483   6.303   4.914   5.475
 4862SOL     OW15484   2.594   4.727   5.045
 4862SOL    HW115485   2.691   4.706   5.035
 4862SOL    HW215486   2.582   4.826   5.051
 4863SOL     OW15487   4.920   3.178   2.898
 4863SOL    HW115488   5.001   3.142   2.851
 4863SOL    HW215489   4.947   3.250   2.961
 4864SOL     OW15490   3.710   1.521   1.975
 4864SOL    HW115491   3.616   1.490   1.991
 4864SOL    HW215492   3.773   1.467   2.030
 4865SOL     OW15493   3.430   5.525   5.882
 4865SOL    HW115494   3.443   5.436   5.927
 4865SOL    HW215495   3.338   5.559   5.903
 4866SOL     OW15496   6.453   4.796   2.004
 4866SOL    HW115497   6.390   4.719   1.998
 4866SOL    HW215498   6.441   4.856   1.926
 4867SOL     OW15499   5.032   5.304   3.252
 4867SOL    HW115500   5.101   5.263   3.311
 4867SOL    HW215501   5.028   5.254   3.165
 4868SOL     OW15502   0.697   5.435   1.341
 4868SOL    HW115503   0.714   5.527   1.374
 4868SOL    HW215504   0.703   5.433   1.241
 4869SOL     OW15505   0.241   1.796   0.149
 4869SOL    HW115506   0.339   1.814   0.152
 4869SOL    HW215507   0.200   1.850   0.076
 4870SOL     OW15508   4.247   5.942   1.943
 4870SOL    HW115509   4.156   5.908   1.917
 4870SOL    HW215510   4.298   5.868   1.988
 4871SOL     OW15511   1.291   1.729   3.457
 4871SOL    HW115512   1.230   1.728   3.378
 4871SOL    HW215513   1.342   1.643   3.461
 4872SOL     OW15514   0.821   0.053   2.788
 4872SOL    HW115515   0.794   0.144   2.756
 4872SOL    HW215516   0.920   0.048   2.795
 4873SOL     OW15517   0.391   5.207   5.176
 4873SOL    HW115518   0.434   5.279   5.121
 4873SOL    HW215519   0.360   5.133   5.117
 4874SOL     OW15520   4.936   3.529   2.841
 4874SOL    HW115521   5.007   3.522   2.772
 4874SOL    HW215522   4.915   3.626   2.859
 4875SOL     OW15523   6.140   1.333   1.217
 4875SOL    HW115524   6.101   1.369   1.302
 4875SOL    HW215525   6.205   1.259   1.240
 4876SOL     OW15526   5.959   0.528   6.204
 4876SOL    HW115527   6.022   0.455   6.230
 4876SOL    HW215528   5.865   0.494   6.204
 4877SOL     OW15529   6.497   2.319   0.931
 4877SOL    HW115530   6.595   2.317   0.912
 4877SOL    HW215531   6.449   2.260   0.866
 4878SOL     OW15532   0.365   1.638   1.836
 4878SOL    HW115533   0.309   1.635   1.918
 4878SOL    HW215534   0.460   1.658   1.860
 4879SOL     OW15535   4.172   4.753   3.233
 4879SOL    HW115536   4.185   4.852   3.232
 4879SOL    HW215537   4.185   4.716   3.141
 4880SOL     OW15538   5.610   1.001   0.005
 4880SOL    HW115539   5.675   1.015   6.952
 4880SOL    HW215540   5.577   1.090   0.038
 4881SOL     OW15541   2.847   6.088   6.088
 4881SOL    HW115542   2.907   6.020   6.130
 4881SOL    HW215543   2.874   6.179   6.120
 4882SOL     OW15544   6.371   1.955   5.249
 4882SOL    HW115545   6.289   1.997   5.211
 4882SOL    HW215546   6.346   1.871   5.297
 4883SOL     OW15547   6.036   4.139   2.203
 4883SOL    HW115548   6.093   4.059   2.186
 4883SOL    HW215549   5.981   4.159   2.122
 4884SOL     OW15550   4.559   6.930   1.448
 4884SOL    HW115551   4.655   6.904   1.438
 4884SOL    HW215552   4.505   6.848   1.469
 4885SOL     OW15553   2.149   6.504   1.102
 4885SOL    HW115554   2.159   6.408   1.125
 4885SOL    HW215555   2.224   6.556   1.143
 4886SOL     OW15556   6.538   6.846   6.643
 4886SOL    HW115557   6.469   6.904   6.599
 4886SOL    HW215558   6.595   6.804   6.572
 4887SOL     OW15559   6.580   2.401   3.771
 4887SOL    HW115560   6.608   2.305   3.772
 4887SOL    HW215561   6.485   2.409   3.802
 4888SOL     OW15562   1.687   6.326   3.243
 4888SOL    HW115563   1.756   6.369   3.184
 4888SOL    HW215564   1.731   6.292   3.326
 4889SOL     OW15565   1.400   1.971   0.427
 4889SOL    HW115566   1.360   2.054   0.467
 4889SOL    HW215567   1.336   1.895   0.436
 4890SOL     OW15568   0.379   1.396   3.982
 4890SOL    HW115569   0.466   1.381   3.936
 4890SOL    HW215570   0.393   1.393   4.081
 4891SOL     OW15571   0.890   4.974   0.617
 4891SOL    HW115572   0.834   4.992   0.536
 4891SOL    HW215573   0.850   5.021   0.696
 4892SOL     OW15574   1.348   5.735   1.885
 4892SOL    HW115575   1.339   5.799   1.810
 4892SOL    HW215576   1.290   5.764   1.962
 4893SOL     OW15577   6.562   4.341   6.418
 4893SOL    HW115578   6.616   4.269   6.461
 4893SOL    HW215579   6.526   4.403   6.488
 4894SOL     OW15580   1.673   0.275   3.384
 4894SOL    HW115581   1.614   0.299   3.307
 4894SOL    HW215582   1.625   0.211   3.444
 4895SOL     OW15583   0.913   3.545   0.685
 4895SOL    HW115584   0.980   3.483   0.726
 4895SOL    HW215585   0.957   3.596   0.611
 4896SOL     OW15586   3.273   5.164   4.299
 4896SOL    HW115587   3.225   5.091   4.348
 4896SOL    HW215588   3.216   5.195   4.223
 4897SOL     OW15589   3.454   5.340   6.754
 4897SOL    HW115590   3.532   5.375   6.806
 4897SOL    HW215591   3.441   5.396   6.672
 4898SOL     OW15592   5.895   2.419   5.457
 4898SOL    HW115593   5.957   2.371   5.519
 4898SOL    HW215594   5.823   2.357   5.427
 4899SOL     OW15595   6.534   4.946   3.113
 4899SOL    HW115596   6.457   4.973   3.055
 4899SOL    HW215597   6.500   4.896   3.193
 4900SOL     OW15598   0.085   6.833   5.645
 4900SOL    HW115599   0.052   6.923   5.615
 4900SOL    HW215600   0.141   6.844   5.727
 4901SOL     OW15601   1.572   0.341   4.180
 4901SOL    HW115602   1.596   0.369   4.088
 4901SOL    HW215603   1.526   0.252   4.177
 4902SOL     OW15604   1.887   4.452   1.770
 4902SOL    HW115605   1.801   4.431   1.816
 4902SOL    HW215606   1.962   4.406   1.817
 4903SOL     OW15607   4.146   6.417   6.584
 4903SOL    HW115608   4.145   6.478   6.505
 4903SOL    HW215609   4.237   6.419   6.626
 4904SOL     OW15610   1.887   5.868   4.713
 4904SOL    HW115611   1.945   5.806   4.659
 4904SOL    HW215612   1.903   5.962   4.684
 4905SOL     OW15613   4.738   2.676   2.183
 4905SOL    HW115614   4.735   2.743   2.257
 4905SOL    HW215615   4.773   2.719   2.100
 4906SOL     OW15616   4.665   6.982   0.522
 4906SOL    HW115617   4.592   6.955   0.584
 4906SOL    HW215618   4.734   0.014   0.572
 4907SOL     OW15619   4.302   6.744   3.913
 4907SOL    HW115620   4.319   6.711   3.821
 4907SOL    HW215621   4.204   6.752   3.929
 4908SOL     OW15622   3.748   5.575   6.668
 4908SOL    HW115623   3.840   5.607   6.648
 4908SOL    HW215624   3.682   5.648   6.649
 4909SOL     OW15625   6.058   6.743   5.110
 4909SOL    HW115626   6.060   6.819   5.175
 4909SOL    HW215627   5.963   6.723   5.085
 4910SOL     OW15628   5.204   0.570   5.383
 4910SOL    HW115629   5.274   0.501   5.403
 4910SOL    HW215630   5.179   0.617   5.467
 4911SOL     OW15631   0.053   2.137   5.974
 4911SOL    HW115632   6.986   2.178   6.001
 4911SOL    HW215633   0.095   2.193   5.902
 4912SOL     OW15634   3.887   1.842   2.381
 4912SOL    HW115635   3.953   1.790   2.328
 4912SOL    HW215636   3.855   1.921   2.327
 4913SOL     OW15637   3.389   4.058   3.734
 4913SOL    HW115638   3.301   4.068   3.688
 4913SOL    HW215639   3.387   4.107   3.822
 4914SOL     OW15640   2.922   0.705   4.138
 4914SOL    HW115641   3.003   0.651   4.159
 4914SOL    HW215642   2.943   0.802   4.146
 4915SOL     OW15643   4.277   6.569   4.375
 4915SOL    HW115644   4.209   6.639   4.396
 4915SOL    HW215645   4.363   6.613   4.350
 4916SOL     OW15646   2.900   2.252   3.171
 4916SOL    HW115647   2.914   2.307   3.254
 4916SOL    HW215648   2.921   2.157   3.191
 4917SOL     OW15649   1.642   3.976   0.747
 4917SOL    HW115650   1.705   3.998   0.822
 4917SOL    HW215651   1.674   3.893   0.700
 4918SOL     OW15652   2.819   0.795   2.561
 4918SOL    HW115653   2.739   0.804   2.502
 4918SOL    HW215654   2.795   0.820   2.654
 4919SOL     OW15655   1.756   1.882   2.901
 4919SOL    HW115656   1.717   1.974   2.903
 4919SOL    HW215657   1.715   1.830   2.825
 4920SOL     OW15658   4.644   0.865   0.183
 4920SOL    HW115659   4.705   0.788   0.200
 4920SOL    HW215660   4.580   0.841   0.110
 4921SOL     OW15661   2.323   3.710   1.662
 4921SOL    HW115662   2.248   3.761   1.704
 4921SOL    HW215663   2.355   3.640   1.725
 4922SOL     OW15664   1.590   3.318   5.515
 4922SOL    HW115665   1.593   3.378   5.596
 4922SOL    HW215666   1.667   3.339   5.455
 4923SOL     OW15667   5.258   0.031   2.170
 4923SOL    HW115668   5.274   6.967   2.221
 4923SOL    HW215669   5.328   0.098   2.194
 4924SOL     OW15670   1.770   3.831   4.093
 4924SOL    HW115671   1.690   3.862   4.041
 4924SOL    HW215672   1.742   3.811   4.187
 4925SOL     OW15673   4.983   6.622   1.064
 4925SOL    HW115674   4.974   6.722   1.063
 4925SOL    HW215675   5.023   6.593   1.151
 4926SOL     OW15676   5.766   2.865   1.868
 4926SOL    HW115677   5.798   2.937   1.807
 4926SOL    HW215678   5.783   2.776   1.828
 4927SOL     OW15679   3.598   2.949   2.626
 4927SOL    HW115680   3.578   3.046   2.641
 4927SOL    HW215681   3.522   2.907   2.575
 4928SOL     OW15682   0.523   0.039   6.575
 4928SOL    HW115683   0.488   0.089   6.655
 4928SOL    HW215684   0.501   6.962   6.585
 4929SOL     OW15685   1.383   4.114   5.216
 4929SOL    HW115686   1.424   4.202   5.192
 4929SOL    HW215687   1.325   4.125   5.297
 4930SOL     OW15688   1.199   1.699   0.715
 4930SOL    HW115689   1.216   1.768   0.644
 4930SOL    HW215690   1.101   1.694   0.733
 4931SOL     OW15691   0.719   0.290   6.774
 4931SOL    HW115692   0.757   0.379   6.747
 4931SOL    HW215693   0.636   0.272   6.720
 4932SOL     OW15694   2.605   2.710   1.683
 4932SOL    HW115695   2.690   2.660   1.699
 4932SOL    HW215696   2.623   2.786   1.621
 4933SOL     OW15697   2.339   1.462   4.482
 4933SOL    HW115698   2.371   1.367   4.487
 4933SOL    HW215699   2.408   1.522   4.522
 4934SOL     OW15700   0.729   5.147   4.084
 4934SOL    HW115701   0.815   5.116   4.125
 4934SOL    HW215702   0.702   5.083   4.012
 4935SOL     OW15703   1.862   1.133   6.688
 4935SOL    HW115704   1.916   1.170   6.612
 4935SOL    HW215705   1.793   1.069   6.652
 4936SOL     OW15706   2.837   5.509   1.300
 4936SOL    HW115707   2.928   5.533   1.266
 4936SOL    HW215708   2.806   5.578   1.366
 4937SOL     OW15709   0.689   3.868   6.138
 4937SOL    HW115710   0.761   3.881   6.206
 4937SOL    HW215711   0.730   3.850   6.049
 4938SOL     OW15712   3.215   4.132   1.345
 4938SOL    HW115713   3.149   4.118   1.418
 4938SOL    HW215714   3.194   4.217   1.297
 4939SOL     OW15715   1.983   1.590   1.602
 4939SOL    HW115716   1.981   1.648   1.521
 4939SOL    HW215717   1.890   1.578   1.637
 4940SOL     OW15718   6.958   2.699   4.974
 4940SOL    HW115719   0.025   2.709   4.926
 4940SOL    HW215720   6.885   2.686   4.908
 4941SOL     OW15721   3.973   2.387   5.343
 4941SOL    HW115722   4.014   2.335   5.418
 4941SOL    HW215723   4.043   2.443   5.299
 4942SOL     OW15724   5.556   3.384   3.921
 4942SOL    HW115725   5.626   3.455   3.909
 4942SOL    HW215726   5.596   3.306   3.968
 4943SOL     OW15727   5.578   3.661   6.803
 4943SOL    HW115728   5.511   3.723   6.843
 4943SOL    HW215729   5.640   3.712   6.743
 4944SOL     OW15730   1.673   4.734   0.777
 4944SOL    HW115731   1.681   4.833   0.764
 4944SOL    HW215732   1.702   4.711   0.870
 4945SOL     OW15733   2.051   1.368   5.257
 4945SOL    HW115734   2.050   1.390   5.160
 4945SOL    HW215735   2.138   1.397   5.298
 4946SOL     OW15736   1.160   4.558   6.923
 4946SOL    HW115737   1.136   4.587   7.016
 4946SOL    HW215738   1.142   4.460   6.914
 4947SOL     OW15739   2.414   0.632   2.310
 4947SOL    HW115740   2.406   0.634   2.211
 4947SOL    HW215741   2.345   0.569   2.348
 4948SOL     OW15742   2.152   2.288   1.984
 4948SOL    HW115743   2.066   2.247   2.012
 4948SOL    HW215744   2.134   2.378   1.944
 4949SOL     OW15745   6.557   3.434   6.051
 4949SOL    HW115746   6.466   3.395   6.067
 4949SOL    HW215747   6.554   3.490   5.968
 4950SOL     OW15748   2.555   4.499   5.589
 4950SOL    HW115749   2.569   4.489   5.490
 4950SOL    HW215750   2.581   4.414   5.635
 4951SOL     OW15751   6.381   6.321   3.791
 4951SOL    HW115752   6.377   6.369   3.879
 4951SOL    HW215753   6.323   6.240   3.795
 4952SOL     OW15754   6.823   0.548   6.412
 4952SOL    HW115755   6.902   0.609   6.408
 4952SOL    HW215756   6.846   0.469   6.470
 4953SOL     OW15757   1.054   1.634   4.695
 4953SOL    HW115758   1.033   1.645   4.792
 4953SOL    HW215759   0.988   1.686   4.640
 4954SOL     OW15760   2.645   4.253   5.669
 4954SOL    HW115761   2.575   4.219   5.731
 4954SOL    HW215762   2.706   4.178   5.644
 4955SOL     OW15763   3.038   5.182   0.219
 4955SOL    HW115764   3.099   5.163   0.142
 4955SOL    HW215765   2.952   5.220   0.185
 4956SOL     OW15766   2.906   0.343   5.149
 4956SOL    HW115767   2.948   0.385   5.070
 4956SOL    HW215768   2.816   0.383   5.165
 4957SOL     OW15769   6.290   4.314   6.883
 4957SOL    HW115770   6.375   4.297   6.833
 4957SOL    HW215771   6.216   4.329   6.818
 4958SOL     OW15772   2.214   6.641   5.831
 4958SOL    HW115773   2.196   6.736   5.859
 4958SOL    HW215774   2.259   6.641   5.742
 4959SOL     OW15775   0.166   2.221   1.418
 4959SOL    HW115776   0.111   2.262   1.491
 4959SOL    HW215777   0.164   2.122   1.426
 4960SOL     OW15778   4.063   5.480   3.514
 4960SOL    HW115779   4.097   5.428   3.436
 4960SOL    HW215780   4.122   5.464   3.593
 4961SOL     OW15781   3.025   1.079   6.778
 4961SOL    HW115782   2.966   1.153   6.811
 4961SOL    HW215783   3.003   0.995   6.826
 4962SOL     OW15784   6.536   2.878   0.917
 4962SOL    HW115785   6.448   2.846   0.951
 4962SOL    HW215786   6.570   2.951   0.976
 4963SOL     OW15787   0.978   5.007   0.970
 4963SOL    HW115788   0.935   5.097   0.970
 4963SOL    HW215789   0.908   4.936   0.959
 4964SOL     OW15790   2.357   6.608   4.672
 4964SOL    HW115791   2.268   6.625   4.632
 4964SOL    HW215792   2.411   6.549   4.612
 4965SOL     OW15793   1.613   0.071   3.115
 4965SOL    HW115794   1.654   0.001   3.173
 4965SOL    HW215795   1.626   0.047   3.019
 4966SOL     OW15796   2.861   6.207   4.578
 4966SOL    HW115797   2.770   6.199   4.618
 4966SOL    HW215798   2.888   6.120   4.537
 4967SOL     OW15799   3.968   4.810   5.260
 4967SOL    HW115800   3.921   4.851   5.183
 4967SOL    HW215801   3.925   4.722   5.283
 4968SOL     OW15802   0.487   1.106   4.250
 4968SOL    HW115803   0.408   1.050   4.276
 4968SOL    HW215804   0.563   1.085   4.311
 4969SOL     OW15805   0.495   6.453   2.345
 4969SOL    HW115806   0.506   6.367   2.395
 4969SOL    HW215807   0.490   6.435   2.247
 4970SOL     OW15808   1.789   0.647   1.405
 4970SOL    HW115809   1.751   0.728   1.449
 4970SOL    HW215810   1.724   0.571   1.411
 4971SOL     OW15811   6.405   6.061   2.819
 4971SOL    HW115812   6.409   6.134   2.751
 4971SOL    HW215813   6.338   6.085   2.889
 4972SOL     OW15814   1.225   3.799   0.949
 4972SOL    HW115815   1.180   3.833   1.032
 4972SOL    HW215816   1.323   3.790   0.966
 4973SOL     OW15817   0.151   0.340   1.490
 4973SOL    HW115818   0.090   0.400   1.541
 4973SOL    HW215819   0.137   0.354   1.392
 4974SOL     OW15820   4.557   4.191   6.297
 4974SOL    HW115821   4.614   4.186   6.215
 4974SOL    HW215822   4.507   4.105   6.308
 4975SOL     OW15823   5.244   3.811   0.951
 4975SOL    HW115824   5.231   3.819   1.050
 4975SOL    HW215825   5.321   3.867   0.923
 4976SOL     OW15826   0.649   0.911   4.745
 4976SOL    HW115827   0.606   0.958   4.822
 4976SOL    HW215828   0.721   0.851   4.779
 4977SOL     OW15829   3.536   3.934   6.711
 4977SOL    HW115830   3.542   3.851   6.767
 4977SOL    HW215831   3.477   4.001   6.756
 4978SOL     OW15832   4.923   4.556   5.408
 4978SOL    HW115833   4.926   4.634   5.471
 4978SOL    HW215834   4.980   4.483   5.444
 4979SOL     OW15835   0.966   6.528   6.939
 4979SOL    HW115836   1.047   6.515   6.880
 4979SOL    HW215837   0.887   6.552   6.882
 4980SOL     OW15838   6.936   4.414   2.519
 4980SOL    HW115839   6.930   4.324   2.561
 4980SOL    HW215840   6.996   4.410   2.439
 4981SOL     OW15841   3.481   5.003   1.959
 4981SOL    HW115842   3.386   4.973   1.966
 4981SOL    HW215843   3.541   4.925   1.976
 4982SOL     OW15844   4.210   1.874   6.665
 4982SOL    HW115845   4.155   1.790   6.661
 4982SOL    HW215846   4.192   1.921   6.752
 4983SOL     OW15847   6.204   5.183   4.250
 4983SOL    HW115848   6.256   5.216   4.329
 4983SOL    HW215849   6.107   5.175   4.274
 4984SOL     OW15850   4.655   4.349   2.789
 4984SOL    HW115851   4.573   4.404   2.775
 4984SOL    HW215852   4.676   4.299   2.705
 4985SOL     OW15853   5.400   5.929   2.530
 4985SOL    HW115854   5.413   6.024   2.502
 4985SOL    HW215855   5.483   5.877   2.510
 4986SOL     OW15856   6.594   4.373   1.691
 4986SOL    HW115857   6.654   4.303   1.651
 4986SOL    HW215858   6.647   4.430   1.754
 4987SOL     OW15859   0.946   6.628   2.803
 4987SOL    HW115860   0.885   6.692   2.849
 4987SOL    HW215861   1.006   6.585   2.871
 4988SOL     OW15862   6.258   0.967   3.624
 4988SOL    HW115863   6.275   0.964   3.722
 4988SOL    HW215864   6.235   0.876   3.591
 4989SOL     OW15865   4.668   0.402   1.568
 4989SOL    HW115866   4.674   0.311   1.526
 4989SOL    HW215867   4.738   0.410   1.639
 4990SOL     OW15868   4.015   2.100   0.015
 4990SOL    HW115869   4.083   2.172   0.003
 4990SOL    HW215870   3.987   2.096   0.111
 4991SOL     OW15871   0.093   5.736   4.265
 4991SOL    HW115872   0.154   5.675   4.317
 4991SOL    HW215873   0.102   5.829   4.301
 4992SOL     OW15874   6.613   1.461   3.138
 4992SOL    HW115875   6.607   1.487   3.042
 4992SOL    HW215876   6.532   1.408   3.164
 4993SOL     OW15877   4.642   0.109   4.941
 4993SOL    HW115878   4.616   0.055   5.021
 4993SOL    HW215879   4.565   0.166   4.913
 4994SOL     OW15880   2.214   5.314   5.118
 4994SOL    HW115881   2.256   5.283   5.204
 4994SOL    HW215882   2.124   5.272   5.108
 4995SOL     OW15883   0.466   1.002   4.919
 4995SOL    HW115884   0.382   0.976   4.966
 4995SOL    HW215885   0.453   1.092   4.875
 4996SOL     OW15886   0.170   1.571   3.983
 4996SOL    HW115887   0.253   1.515   3.979
 4996SOL    HW215888   0.171   1.637   3.907
 4997SOL     OW15889   3.674   2.510   1.482
 4997SOL    HW115890   3.645   2.601   1.453
 4997SOL    HW215891   3.747   2.518   1.550
 4998SOL     OW15892   1.634   3.655   3.238
 4998SOL    HW115893   1.678   3.574   3.200
 4998SOL    HW215894   1.537   3.637   3.252
 4999SOL     OW15895   0.699   3.534   5.127
 4999SOL    HW115896   0.733   3.602   5.192
 4999SOL    HW215897   0.613   3.496   5.161
 5000SOL     OW15898   3.052   6.412   3.543
 5000SOL    HW115899   3.073   6.343   3.612
 5000SOL    HW215900   3.040   6.368   3.454
 5001SOL     OW15901   0.077   5.643   2.462
 5001SOL    HW115902   0.104   5.722   2.407
 5001SOL    HW215903   0.137   5.636   2.542
 5002SOL     OW15904   0.907   4.623   2.725
 5002SOL    HW115905   0.960   4.578   2.652
 5002SOL    HW215906   0.952   4.607   2.813
 5003SOL     OW15907   3.955   6.058   2.943
 5003SOL    HW115908   4.041   6.107   2.925
 5003SOL    HW215909   3.912   6.095   3.025
 5004SOL     OW15910   2.604   5.468   5.653
 5004SOL    HW115911   2.682   5.422   5.696
 5004SOL    HW215912   2.551   5.402   5.601
 5005SOL     OW15913   2.103   3.587   6.255
 5005SOL    HW115914   2.155   3.518   6.205
 5005SOL    HW215915   2.079   3.662   6.193
 5006SOL     OW15916   4.962   0.996   2.381
 5006SOL    HW115917   4.892   0.998   2.452
 5006SOL    HW215918   4.999   1.088   2.367
 5007SOL     OW15919   6.682   0.539   0.528
 5007SOL    HW115920   6.694   0.515   0.625
 5007SOL    HW215921   6.702   0.637   0.516
 5008SOL     OW15922   6.496   5.358   1.474
 5008SOL    HW115923   6.565   5.428   1.489
 5008SOL    HW215924   6.487   5.340   1.376
 5009SOL     OW15925   0.939   2.928   0.235
 5009SOL    HW115926   0.979   2.941   0.326
 5009SOL    HW215927   0.972   2.843   0.195
 5010SOL     OW15928   3.980   2.288   0.764
 5010SOL    HW115929   4.000   2.190   0.764
 5010SOL    HW215930   4.051   2.337   0.713
 5011SOL     OW15931   1.780   4.205   0.916
 5011SOL    HW115932   1.713   4.250   0.856
 5011SOL    HW215933   1.870   4.206   0.872
 5012SOL     OW15934   6.143   3.013   5.475
 5012SOL    HW115935   6.108   2.920   5.489
 5012SOL    HW215936   6.118   3.069   5.554
 5013SOL     OW15937   5.623   0.463   5.349
 5013SOL    HW115938   5.722   0.456   5.363
 5013SOL    HW215939   5.604   0.465   5.251
 5014SOL     OW15940   6.927   4.524   0.121
 5014SOL    HW115941   6.838   4.561   0.145
 5014SOL    HW215942   6.998   4.575   0.170
 5015SOL     OW15943   5.272   0.998   4.709
 5015SOL    HW115944   5.289   1.010   4.807
 5015SOL    HW215945   5.360   0.990   4.661
 5016SOL     OW15946   1.080   2.774   5.140
 5016SOL    HW115947   1.031   2.755   5.055
 5016SOL    HW215948   1.175   2.800   5.119
 5017SOL     OW15949   0.931   2.326   1.177
 5017SOL    HW115950   1.019   2.354   1.214
 5017SOL    HW215951   0.937   2.319   1.077
 5018SOL     OW15952   1.269   4.822   2.486
 5018SOL    HW115953   1.262   4.791   2.581
 5018SOL    HW215954   1.283   4.921   2.485
 5019SOL     OW15955   2.021   6.031   5.780
 5019SOL    HW115956   2.022   6.024   5.681
 5019SOL    HW215957   2.056   5.946   5.820
 5020SOL     OW15958   0.301   6.640   5.188
 5020SOL    HW115959   0.261   6.639   5.096
 5020SOL    HW215960   0.292   6.731   5.227
 5021SOL     OW15961   1.119   0.521   1.480
 5021SOL    HW115962   1.027   0.509   1.518
 5021SOL    HW215963   1.127   0.467   1.396
 5022SOL     OW15964   0.894   3.059   1.383
 5022SOL    HW115965   0.865   3.059   1.478
 5022SOL    HW215966   0.839   3.124   1.331
 5023SOL     OW15967   6.987   4.431   1.423
 5023SOL    HW115968   0.042   4.495   1.439
 5023SOL    HW215969   6.928   4.465   1.351
 5024SOL     OW15970   5.705   4.921   1.019
 5024SOL    HW115971   5.642   4.873   0.958
 5024SOL    HW215972   5.790   4.940   0.971
 5025SOL     OW15973   3.571   1.802   3.675
 5025SOL    HW115974   3.532   1.873   3.734
 5025SOL    HW215975   3.550   1.712   3.713
 5026SOL     OW15976   6.993   5.255   4.989
 5026SOL    HW115977   0.037   5.179   4.985
 5026SOL    HW215978   7.011   5.318   4.913
 5027SOL     OW15979   6.012   0.354   1.039
 5027SOL    HW115980   6.056   0.265   1.032
 5027SOL    HW215981   6.047   0.403   1.119
 5028SOL     OW15982   6.689   2.156   3.654
 5028SOL    HW115983   6.645   2.075   3.618
 5028SOL    HW215984   6.762   2.185   3.593
 5029SOL     OW15985   6.345   2.350   2.509
 5029SOL    HW115986   6.314   2.443   2.485
 5029SOL    HW215987   6.403   2.314   2.436
 5030SOL     OW15988   0.047   6.125   6.333
 5030SOL    HW115989   0.005   6.035   6.321
 5030SOL    HW215990   6.997   6.195   6.330
 5031SOL     OW15991   6.747   0.984   5.317
 5031SOL    HW115992   6.842   1.004   5.342
 5031SOL    HW215993   6.727   0.888   5.339
 5032SOL     OW15994   2.330   1.616   6.128
 5032SOL    HW115995   2.427   1.626   6.153
 5032SOL    HW215996   2.277   1.593   6.209
 5033SOL     OW15997   2.037   0.535   0.421
 5033SOL    HW115998   2.050   0.615   0.479
 5033SOL    HW215999   2.046   0.452   0.476
 5034SOL     OW16000   5.346   6.703   3.829
 5034SOL    HW116001   5.365   6.619   3.881
 5034SOL    HW216002   5.421   6.768   3.844
 5035SOL     OW16003   0.855   3.411   5.561
 5035SOL    HW116004   0.863   3.381   5.466
 5035SOL    HW216005   0.758   3.422   5.585
 5036SOL     OW16006   6.221   5.183   6.497
 5036SOL    HW116007   6.259   5.210   6.586
 5036SOL    HW216008   6.276   5.221   6.424
 5037SOL     OW16009   4.481   4.684   1.605
 5037SOL    HW116010   4.515   4.634   1.526
 5037SOL    HW216011   4.438   4.620   1.669
 5038SOL     OW16012   4.041   3.223   3.842
 5038SOL    HW116013   4.029   3.143   3.900
 5038SOL    HW216014   4.041   3.195   3.746
 5039SOL     OW16015   2.466   2.999   5.675
 5039SOL    HW116016   2.485   2.907   5.708
 5039SOL    HW216017   2.372   3.005   5.644
 5040SOL     OW16018   1.115   5.980   4.801
 5040SOL    HW116019   1.037   5.991   4.740
 5040SOL    HW216020   1.143   5.884   4.802
 5041SOL     OW16021   1.034   1.969   2.225
 5041SOL    HW116022   0.974   2.049   2.230
 5041SOL    HW216023   1.124   1.996   2.192
 5042SOL     OW16024   6.843   2.979   0.601
 5042SOL    HW116025   6.817   3.070   0.633
 5042SOL    HW216026   6.781   2.951   0.528
 5043SOL     OW16027   4.601   0.720   6.948
 5043SOL    HW116028   4.520   0.770   6.919
 5043SOL    HW216029   4.576   0.657   0.002
 5044SOL     OW16030   0.811   5.707   1.267
 5044SOL    HW116031   0.854   5.693   1.356
 5044SOL    HW216032   0.769   5.798   1.264
 5045SOL     OW16033   6.431   5.805   5.795
 5045SOL    HW116034   6.421   5.765   5.704
 5045SOL    HW216035   6.522   5.846   5.803
 5046SOL     OW16036   3.788   3.721   3.901
 5046SOL    HW116037   3.850   3.642   3.908
 5046SOL    HW216038   3.788   3.772   3.987
 5047SOL     OW16039   2.212   4.289   3.063
 5047SOL    HW116040   2.293   4.292   3.122
 5047SOL    HW216041   2.240   4.303   2.968
 5048SOL     OW16042   1.420   0.750   4.607
 5048SOL    HW116043   1.427   0.758   4.706
 5048SOL    HW216044   1.438   0.839   4.564
 5049SOL     OW16045   5.108   1.060   0.064
 5049SOL    HW116046   5.117   1.142   0.121
 5049SOL    HW216047   5.030   1.006   0.096
 5050SOL     OW16048   1.552   1.013   6.836
 5050SOL    HW116049   1.457   0.991   6.858
 5050SOL    HW216050   1.559   1.110   6.813
 5051SOL     OW16051   4.636   4.355   1.258
 5051SOL    HW116052   4.686   4.332   1.175
 5051SOL    HW216053   4.677   4.308   1.336
 5052SOL     OW16054   3.426   2.312   6.226
 5052SOL    HW116055   3.331   2.341   6.242
 5052SOL    HW216056   3.487   2.388   6.249
 5053SOL     OW16057   0.990   5.250   3.391
 5053SOL    HW116058   1.011   5.348   3.387
 5053SOL    HW216059   0.981   5.214   3.299
 5054SOL     OW16060   2.760   4.734   5.296
 5054SOL    HW116061   2.771   4.672   5.218
 5054SOL    HW216062   2.848   4.775   5.319
 5055SOL     OW16063   1.147   2.483   5.837
 5055SOL    HW116064   1.113   2.448   5.749
 5055SOL    HW216065   1.108   2.429   5.911
 5056SOL     OW16066   5.168   3.677   5.386
 5056SOL    HW116067   5.252   3.726   5.409
 5056SOL    HW216068   5.101   3.689   5.458
 5057SOL     OW16069   0.340   6.648   2.952
 5057SOL    HW116070   0.247   6.685   2.961
 5057SOL    HW216071   0.401   6.719   2.918
 5058SOL     OW16072   3.136   4.362   6.861
 5058SOL    HW116073   3.152   4.274   6.905
 5058SOL    HW216074   3.162   4.436   6.924
 5059SOL     OW16075   0.035   0.888   3.376
 5059SOL    HW116076   7.005   0.808   3.342
 5059SOL    HW216077   0.133   0.872   3.365
 5060SOL     OW16078   6.980   2.320   6.533
 5060SOL    HW116079   6.986   2.385   6.609
 5060SOL    HW216080   0.028   2.248   6.546
 5061SOL     OW16081   4.826   2.629   0.476
 5061SOL    HW116082   4.770   2.705   0.446
 5061SOL    HW216083   4.876   2.654   0.560
 5062SOL     OW16084   6.385   0.197   2.317
 5062SOL    HW116085   6.405   0.289   2.350
 5062SOL    HW216086   6.288   0.177   2.330
 5063SOL     OW16087   0.226   6.419   2.205
 5063SOL    HW116088   0.240   6.328   2.243
 5063SOL    HW216089   0.146   6.419   2.145
 5064SOL     OW16090   5.020   2.962   0.546
 5064SOL    HW116091   5.120   2.965   0.541
 5064SOL    HW216092   4.990   2.991   0.636
 5065SOL     OW16093   3.077   0.686   5.419
 5065SOL    HW116094   2.980   0.695   5.442
 5065SOL    HW216095   3.132   0.724   5.494
 5066SOL     OW16096   4.940   4.527   2.184
 5066SOL    HW116097   4.854   4.477   2.178
 5066SOL    HW216098   4.950   4.565   2.276
 5067SOL     OW16099   5.379   1.497   0.944
 5067SOL    HW116100   5.306   1.552   0.984
 5067SOL    HW216101   5.365   1.400   0.966
 5068SOL     OW16102   2.379   4.472   0.983
 5068SOL    HW116103   2.282   4.447   0.984
 5068SOL    HW216104   2.388   4.572   0.981
 5069SOL     OW16105   1.818   4.079   2.826
 5069SOL    HW116106   1.860   3.989   2.812
 5069SOL    HW216107   1.735   4.068   2.880
 5070SOL     OW16108   4.865   3.379   3.728
 5070SOL    HW116109   4.837   3.330   3.811
 5070SOL    HW216110   4.881   3.313   3.654
 5071SOL     OW16111   4.336   2.404   4.813
 5071SOL    HW116112   4.411   2.351   4.852
 5071SOL    HW216113   4.264   2.416   4.881
 5072SOL     OW16114   0.588   6.063   0.529
 5072SOL    HW116115   0.564   6.061   0.432
 5072SOL    HW216116   0.508   6.090   0.582
 5073SOL     OW16117   6.707   6.544   2.905
 5073SOL    HW116118   6.607   6.542   2.909
 5073SOL    HW216119   6.742   6.450   2.908
 5074SOL     OW16120   3.606   3.711   6.839
 5074SOL    HW116121   3.604   3.688   6.936
 5074SOL    HW216122   3.616   3.627   6.785
 5075SOL     OW16123   0.128   1.222   5.802
 5075SOL    HW116124   0.048   1.167   5.826
 5075SOL    HW216125   0.154   1.278   5.881
 5076SOL     OW16126   4.282   0.756   1.166
 5076SOL    HW116127   4.356   0.688   1.172
 5076SOL    HW216128   4.263   0.793   1.257
 5077SOL     OW16129   1.406   2.434   3.653
 5077SOL    HW116130   1.429   2.372   3.729
 5077SOL    HW216131   1.345   2.387   3.589
 5078SOL     OW16132   0.892   1.904   3.258
 5078SOL    HW116133   0.940   1.817   3.256
 5078SOL    HW216134   0.958   1.980   3.257
 5079SOL     OW16135   2.748   4.752   6.279
 5079SOL    HW116136   2.810   4.743   6.200
 5079SOL    HW216137   2.790   4.708   6.359
 5080SOL     OW16138   5.794   6.890   4.777
 5080SOL    HW116139   5.726   6.852   4.714
 5080SOL    HW216140   5.884   6.854   4.754
 5081SOL     OW16141   3.743   3.766   3.188
 5081SOL    HW116142   3.788   3.682   3.219
 5081SOL    HW216143   3.685   3.801   3.262
 5082SOL     OW16144   5.571   6.293   4.845
 5082SOL    HW116145   5.511   6.214   4.857
 5082SOL    HW216146   5.619   6.312   4.931
 5083SOL     OW16147   1.799   6.617   2.356
 5083SOL    HW116148   1.746   6.639   2.438
 5083SOL    HW216149   1.750   6.649   2.275
 5084SOL     OW16150   1.545   4.412   4.290
 5084SOL    HW116151   1.462   4.358   4.306
 5084SOL    HW216152   1.597   4.419   4.376
 5085SOL     OW16153   5.268   1.933   6.439
 5085SOL    HW116154   5.357   1.970   6.413
 5085SOL    HW216155   5.204   2.008   6.454
 5086SOL     OW16156   6.285   5.257   3.862
 5086SOL    HW116157   6.216   5.190   3.834
 5086SOL    HW216158   6.248   5.313   3.936
 5087SOL     OW16159   6.876   6.344   4.083
 5087SOL    HW116160   6.853   6.268   4.145
 5087SOL    HW216161   6.828   6.333   3.997
 5088SOL     OW16162   5.911   1.354   5.788
 5088SOL    HW116163   5.930   1.256   5.789
 5088SOL    HW216164   5.997   1.404   5.774
 5089SOL     OW16165   6.587   3.410   3.483
 5089SOL    HW116166   6.562   3.502   3.514
 5089SOL    HW216167   6.686   3.397   3.493
 5090SOL     OW16168   1.982   3.941   1.173
 5090SOL    HW116169   2.071   3.974   1.206
 5090SOL    HW216170   1.917   3.937   1.249
 5091SOL     OW16171   1.178   6.272   2.844
 5091SOL    HW116172   1.123   6.339   2.893
 5091SOL    HW216173   1.268   6.263   2.887
 5092SOL     OW16174   3.523   2.732   1.399
 5092SOL    HW116175   3.483   2.715   1.489
 5092SOL    HW216176   3.534   2.830   1.385
 5093SOL     OW16177   1.148   1.710   1.799
 5093SOL    HW116178   1.095   1.780   1.752
 5093SOL    HW216179   1.210   1.754   1.865
 5094SOL     OW16180   0.960   0.412   5.370
 5094SOL    HW116181   0.953   0.499   5.419
 5094SOL    HW216182   0.989   0.430   5.276
 5095SOL     OW16183   1.261   0.538   4.359
 5095SOL    HW116184   1.277   0.560   4.263
 5095SOL    HW216185   1.348   0.516   4.403
 5096SOL     OW16186   4.708   3.617   0.576
 5096SOL    HW116187   4.723   3.691   0.640
 5096SOL    HW216188   4.610   3.610   0.555
 5097SOL     OW16189   1.490   0.209   6.231
 5097SOL    HW116190   1.514   0.280   6.165
 5097SOL    HW216191   1.574   0.175   6.275
 5098SOL     OW16192   0.264   0.650   1.669
 5098SOL    HW116193   0.283   0.624   1.764
 5098SOL    HW216194   0.341   0.624   1.611
 5099SOL     OW16195   0.922   0.287   5.962
 5099SOL    HW116196   0.940   0.254   6.054
 5099SOL    HW216197   0.833   0.333   5.960
 5100SOL     OW16198   4.814   6.768   6.180
 5100SOL    HW116199   4.870   6.849   6.163
 5100SOL    HW216200   4.836   6.697   6.114
 5101SOL     OW16201   5.267   6.420   0.021
 5101SOL    HW116202   5.235   6.508   7.007
 5101SOL    HW216203   5.349   6.433   0.077
 5102SOL     OW16204   5.917   0.794   5.316
 5102SOL    HW116205   5.988   0.854   5.353
 5102SOL    HW216206   5.880   0.738   5.390
 5103SOL     OW16207   6.650   1.367   4.286
 5103SOL    HW116208   6.634   1.420   4.202
 5103SOL    HW216209   6.713   1.418   4.345
 5104SOL     OW16210   1.969   6.726   1.148
 5104SOL    HW116211   1.914   6.751   1.069
 5104SOL    HW216212   2.017   6.640   1.130
 5105SOL     OW16213   4.619   3.685   6.647
 5105SOL    HW116214   4.653   3.602   6.604
 5105SOL    HW216215   4.542   3.722   6.594
 5106SOL     OW16216   3.711   0.077   2.362
 5106SOL    HW116217   3.736   0.056   2.456
 5106SOL    HW216218   3.619   0.043   2.344
 5107SOL     OW16219   2.731   0.458   0.190
 5107SOL    HW116220   2.799   0.529   0.205
 5107SOL    HW216221   2.729   0.435   0.092
 5108SOL     OW16222   3.055   3.970   3.689
 5108SOL    HW116223   3.109   3.968   3.606
 5108SOL    HW216224   2.959   3.990   3.667
 5109SOL     OW16225   0.984   1.615   0.838
 5109SOL    HW116226   1.033   1.679   0.897
 5109SOL    HW216227   0.901   1.583   0.885
 5110SOL     OW16228   1.422   6.599   6.096
 5110SOL    HW116229   1.476   6.677   6.063
 5110SOL    HW216230   1.478   6.516   6.095
 5111SOL     OW16231   0.292   1.039   5.711
 5111SOL    HW116232   0.321   0.998   5.798
 5111SOL    HW216233   0.227   1.113   5.730
 5112SOL     OW16234   0.150   6.871   3.761
 5112SOL    HW116235   0.095   6.943   3.803
 5112SOL    HW216236   0.093   6.789   3.747
 5113SOL     OW16237   0.469   0.511   1.178
 5113SOL    HW116238   0.551   0.552   1.218
 5113SOL    HW216239   0.486   0.415   1.158
 5114SOL     OW16240   3.437   3.626   0.043
 5114SOL    HW116241   3.429   3.725   0.052
 5114SOL    HW216242   3.458   3.585   0.132
 5115SOL     OW16243   1.795   4.506   5.736
 5115SOL    HW116244   1.858   4.436   5.702
 5115SOL    HW216245   1.702   4.469   5.737
 5116SOL     OW16246   5.279   5.530   6.138
 5116SOL    HW116247   5.321   5.526   6.047
 5116SOL    HW216248   5.197   5.473   6.138
 5117SOL     OW16249   2.379   4.677   3.941
 5117SOL    HW116250   2.473   4.645   3.931
 5117SOL    HW216251   2.328   4.615   4.001
 5118SOL     OW16252   4.569   6.523   0.539
 5118SOL    HW116253   4.505   6.471   0.596
 5118SOL    HW216254   4.520   6.599   0.495
 5119SOL     OW16255   4.974   0.270   1.917
 5119SOL    HW116256   4.926   0.184   1.902
 5119SOL    HW216257   4.933   0.342   1.861
 5120SOL     OW16258   5.966   1.535   2.761
 5120SOL    HW116259   5.889   1.549   2.822
 5120SOL    HW216260   6.047   1.510   2.814
 5121SOL     OW16261   0.947   3.273   6.345
 5121SOL    HW116262   1.029   3.220   6.366
 5121SOL    HW216263   0.865   3.221   6.369
 5122SOL     OW16264   2.761   0.964   3.572
 5122SOL    HW116265   2.824   0.890   3.594
 5122SOL    HW216266   2.705   0.939   3.493
 5123SOL     OW16267   5.472   3.691   3.779
 5123SOL    HW116268   5.470   3.705   3.680
 5123SOL    HW216269   5.432   3.602   3.802
 5124SOL     OW16270   2.545   5.895   6.605
 5124SOL    HW116271   2.607   5.971   6.628
 5124SOL    HW216272   2.483   5.924   6.532
 5125SOL     OW16273   0.550   3.764   4.422
 5125SOL    HW116274   0.491   3.729   4.350
 5125SOL    HW216275   0.612   3.691   4.452
 5126SOL     OW16276   6.218   5.233   5.688
 5126SOL    HW116277   6.118   5.230   5.682
 5126SOL    HW216278   6.245   5.305   5.752
 5127SOL     OW16279   5.795   3.948   0.552
 5127SOL    HW116280   5.872   3.966   0.491
 5127SOL    HW216281   5.753   4.034   0.581
 5128SOL     OW16282   0.899   0.399   6.994
 5128SOL    HW116283   0.834   0.327   0.001
 5128SOL    HW216284   0.853   0.463   6.933
 5129SOL     OW16285   5.656   0.367   3.010
 5129SOL    HW116286   5.579   0.427   2.991
 5129SOL    HW216287   5.713   0.359   2.929
 5130SOL     OW16288   0.976   5.351   4.757
 5130SOL    HW116289   1.055   5.404   4.728
 5130SOL    HW216290   1.005   5.280   4.821
 5131SOL     OW16291   3.211   4.866   3.539
 5131SOL    HW116292   3.261   4.868   3.452
 5131SOL    HW216293   3.274   4.842   3.612
 5132SOL     OW16294   3.063   1.640   6.614
 5132SOL    HW116295   3.158   1.613   6.630
 5132SOL    HW216296   3.017   1.571   6.558
 5133SOL     OW16297   3.604   5.578   6.242
 5133SOL    HW116298   3.689   5.525   6.241
 5133SOL    HW216299   3.576   5.598   6.148
 5134SOL     OW16300   6.415   6.957   1.678
 5134SOL    HW116301   6.490   6.901   1.645
 5134SOL    HW216302   6.427   6.975   1.776
 5135SOL     OW16303   6.410   3.492   3.284
 5135SOL    HW116304   6.425   3.414   3.344
 5135SOL    HW216305   6.373   3.569   3.336
 5136SOL     OW16306   0.432   0.905   5.928
 5136SOL    HW116307   0.484   0.886   6.011
 5136SOL    HW216308   0.356   0.840   5.920
 5137SOL     OW16309   4.900   2.644   5.427
 5137SOL    HW116310   4.984   2.690   5.399
 5137SOL    HW216311   4.848   2.704   5.488
 5138SOL     OW16312   3.913   3.965   4.112
 5138SOL    HW116313   3.999   3.922   4.085
 5138SOL    HW216314   3.917   3.989   4.209
 5139SOL     OW16315   1.729   0.804   4.671
 5139SOL    HW116316   1.689   0.713   4.676
 5139SOL    HW216317   1.782   0.812   4.586
 5140SOL     OW16318   4.064   1.706   6.228
 5140SOL    HW116319   3.985   1.768   6.225
 5140SOL    HW216320   4.031   1.613   6.245
 5141SOL     OW16321   6.357   3.083   1.869
 5141SOL    HW116322   6.366   2.985   1.881
 5141SOL    HW216323   6.300   3.102   1.790
 5142SOL     OW16324   6.258   6.868   3.515
 5142SOL    HW116325   6.347   6.870   3.560
 5142SOL    HW216326   6.194   6.817   3.572
 5143SOL     OW16327   0.721   4.254   4.675
 5143SOL    HW116328   0.722   4.227   4.771
 5143SOL    HW216329   0.629   4.285   4.651
 5144SOL     OW16330   1.910   3.660   6.697
 5144SOL    HW116331   1.986   3.659   6.762
 5144SOL    HW216332   1.940   3.700   6.611
 5145SOL     OW16333   3.419   5.766   6.078
 5145SOL    HW116334   3.428   5.854   6.125
 5145SOL    HW216335   3.425   5.781   5.979
 5146SOL     OW16336   4.123   4.603   5.663
 5146SOL    HW116337   4.209   4.605   5.714
 5146SOL    HW216338   4.084   4.511   5.667
 5147SOL     OW16339   5.026   3.718   3.491
 5147SOL    HW116340   5.125   3.709   3.481
 5147SOL    HW216341   5.000   3.812   3.472
 5148SOL     OW16342   0.425   0.281   1.899
 5148SOL    HW116343   0.435   0.272   1.998
 5148SOL    HW216344   0.497   0.229   1.853
 5149SOL     OW16345   6.063   4.704   3.749
 5149SOL    HW116346   5.999   4.696   3.825
 5149SOL    HW216347   6.083   4.613   3.713
 5150SOL     OW16348   1.600   5.488   3.605
 5150SOL    HW116349   1.567   5.484   3.700
 5150SOL    HW216350   1.557   5.416   3.552
 5151SOL     OW16351   6.128   4.909   1.285
 5151SOL    HW116352   6.073   4.908   1.369
 5151SOL    HW216353   6.199   4.839   1.291
 5152SOL     OW16354   1.772   6.547   6.637
 5152SOL    HW116355   1.727   6.584   6.718
 5152SOL    HW216356   1.832   6.471   6.663
 5153SOL     OW16357   1.800   0.843   0.833
 5153SOL    HW116358   1.744   0.817   0.912
 5153SOL    HW216359   1.753   0.817   0.749
 5154SOL     OW16360   1.108   2.569   6.666
 5154SOL    HW116361   1.207   2.558   6.664
 5154SOL    HW216362   1.070   2.544   6.577
 5155SOL     OW16363   2.447   1.523   0.643
 5155SOL    HW116364   2.378   1.459   0.676
 5155SOL    HW216365   2.522   1.529   0.709
 5156SOL     OW16366   5.165   5.041   5.096
 5156SOL    HW116367   5.097   5.094   5.146
 5156SOL    HW216368   5.173   5.077   5.003
 5157SOL     OW16369   3.987   1.574   1.931
 5157SOL    HW116370   4.031   1.490   1.900
 5157SOL    HW216371   3.891   1.555   1.952
 5158SOL     OW16372   3.816   1.389   1.589
 5158SOL    HW116373   3.783   1.476   1.625
 5158SOL    HW216374   3.795   1.315   1.653
 5159SOL     OW16375   5.714   3.783   6.596
 5159SOL    HW116376   5.700   3.835   6.512
 5159SOL    HW216377   5.768   3.701   6.577
 5160SOL     OW16378   6.480   6.728   3.208
 5160SOL    HW116379   6.447   6.701   3.299
 5160SOL    HW216380   6.575   6.699   3.197
 5161SOL     OW16381   1.103   3.362   6.750
 5161SOL    HW116382   1.008   3.361   6.781
 5161SOL    HW216383   1.144   3.272   6.766
 5162SOL     OW16384   0.249   5.614   3.171
 5162SOL    HW116385   0.318   5.544   3.194
 5162SOL    HW216386   0.238   5.676   3.248
 5163SOL     OW16387   3.158   5.778   1.807
 5163SOL    HW116388   3.164   5.744   1.901
 5163SOL    HW216389   3.181   5.875   1.805
 5164SOL     OW16390   2.755   3.018   0.766
 5164SOL    HW116391   2.777   2.925   0.735
 5164SOL    HW216392   2.795   3.033   0.856
 5165SOL     OW16393   1.510   4.634   6.989
 5165SOL    HW116394   1.463   4.606   6.905
 5165SOL    HW216395   1.467   4.718   0.003
 5166SOL     OW16396   2.024   5.805   1.696
 5166SOL    HW116397   2.033   5.722   1.750
 5166SOL    HW216398   1.971   5.872   1.748
 5167SOL     OW16399   5.757   3.649   5.480
 5167SOL    HW116400   5.664   3.613   5.476
 5167SOL    HW216401   5.754   3.747   5.496
 5168SOL     OW16402   4.873   2.505   2.450
 5168SOL    HW116403   4.912   2.536   2.363
 5168SOL    HW216404   4.790   2.558   2.469
 5169SOL     OW16405   4.102   0.786   4.375
 5169SOL    HW116406   4.046   0.810   4.296
 5169SOL    HW216407   4.158   0.705   4.353
 5170SOL     OW16408   1.476   3.674   6.279
 5170SOL    HW116409   1.482   3.608   6.204
 5170SOL    HW216410   1.490   3.626   6.366
 5171SOL     OW16411   1.891   5.288   6.133
 5171SOL    HW116412   1.936   5.204   6.163
 5171SOL    HW216413   1.960   5.358   6.117
 5172SOL     OW16414   1.031   4.803   4.075
 5172SOL    HW116415   1.032   4.707   4.103
 5172SOL    HW216416   1.124   4.840   4.081
 5173SOL     OW16417   4.531   3.636   6.175
 5173SOL    HW116418   4.450   3.630   6.233
 5173SOL    HW216419   4.514   3.702   6.101
 5174SOL     OW16420   1.347   0.053   3.860
 5174SOL    HW116421   1.438   0.083   3.833
 5174SOL    HW216422   1.300   0.015   3.780
 5175SOL     OW16423   2.960   4.419   6.691
 5175SOL    HW116424   2.951   4.336   6.636
 5175SOL    HW216425   3.029   4.405   6.762
 5176SOL     OW16426   5.587   5.735   6.351
 5176SOL    HW116427   5.603   5.744   6.449
 5176SOL    HW216428   5.650   5.668   6.312
 5177SOL     OW16429   4.844   0.502   0.841
 5177SOL    HW116430   4.787   0.426   0.811
 5177SOL    HW216431   4.795   0.553   0.913
 5178SOL     OW16432   0.745   4.025   1.783
 5178SOL    HW116433   0.810   3.964   1.737
 5178SOL    HW216434   0.664   4.035   1.726
 5179SOL     OW16435   5.241   4.168   2.571
 5179SOL    HW116436   5.288   4.242   2.620
 5179SOL    HW216437   5.205   4.203   2.485
 5180SOL     OW16438   2.818   6.355   1.224
 5180SOL    HW116439   2.752   6.282   1.243
 5180SOL    HW216440   2.873   6.373   1.306
 5181SOL     OW16441   6.934   1.244   6.637
 5181SOL    HW116442   6.933   1.315   6.567
 5181SOL    HW216443   7.005   1.264   6.705
 5182SOL     OW16444   4.231   4.727   2.918
 5182SOL    HW116445   4.227   4.735   2.818
 5182SOL    HW216446   4.278   4.642   2.942
 5183SOL     OW16447   4.316   2.053   3.208
 5183SOL    HW116448   4.239   2.117   3.202
 5183SOL    HW216449   4.350   2.033   3.116
 5184SOL     OW16450   2.242   2.453   3.803
 5184SOL    HW116451   2.167   2.485   3.745
 5184SOL    HW216452   2.328   2.493   3.772
 5185SOL     OW16453   4.766   0.626   2.094
 5185SOL    HW116454   4.833   0.646   2.165
 5185SOL    HW216455   4.677   0.607   2.137
 5186SOL     OW16456   6.447   3.082   6.153
 5186SOL    HW116457   6.428   3.134   6.236
 5186SOL    HW216458   6.377   3.102   6.084
 5187SOL     OW16459   2.421   5.033   4.846
 5187SOL    HW116460   2.402   5.063   4.940
 5187SOL    HW216461   2.401   4.935   4.838
 5188SOL     OW16462   6.583   6.297   1.686
 5188SOL    HW116463   6.548   6.320   1.595
 5188SOL    HW216464   6.506   6.283   1.748
 5189SOL     OW16465   5.944   0.096   6.328
 5189SOL    HW116466   5.854   0.107   6.286
 5189SOL    HW216467   5.954   0.161   6.404
 5190SOL     OW16468   1.704   3.015   1.866
 5190SOL    HW116469   1.796   2.985   1.839
 5190SOL    HW216470   1.677   3.095   1.813
 5191SOL     OW16471   2.902   5.928   2.321
 5191SOL    HW116472   2.822   5.868   2.321
 5191SOL    HW216473   2.965   5.900   2.393
 5192SOL     OW16474   1.593   6.010   1.262
 5192SOL    HW116475   1.558   5.953   1.187
 5192SOL    HW216476   1.611   5.953   1.341
 5193SOL     OW16477   5.478   0.479   6.765
 5193SOL    HW116478   5.408   0.410   6.783
 5193SOL    HW216479   5.478   0.546   6.839
 5194SOL     OW16480   3.593   2.040   6.742
 5194SOL    HW116481   3.558   2.133   6.727
 5194SOL    HW216482   3.638   2.036   6.831
 5195SOL     OW16483   0.655   0.558   3.628
 5195SOL    HW116484   0.755   0.571   3.625
 5195SOL    HW216485   0.617   0.573   3.536
 5196SOL     OW16486   4.568   6.658   2.833
 5196SOL    HW116487   4.492   6.600   2.803
 5196SOL    HW216488   4.585   6.644   2.930
 5197SOL     OW16489   1.252   3.783   6.168
 5197SOL    HW116490   1.271   3.720   6.092
 5197SOL    HW216491   1.330   3.783   6.231
 5198SOL     OW16492   4.743   5.903   3.263
 5198SOL    HW116493   4.646   5.914   3.243
 5198SOL    HW216494   4.797   5.932   3.184
 5199SOL     OW16495   6.798   5.451   1.043
 5199SOL    HW116496   6.820   5.548   1.041
 5199SOL    HW216497   6.842   5.405   0.966
 5200SOL     OW16498   0.531   3.893   5.273
 5200SOL    HW116499   0.560   3.890   5.177
 5200SOL    HW216500   0.489   3.981   5.293
 5201SOL     OW16501   1.063   6.221   3.887
 5201SOL    HW116502   1.118   6.142   3.916
 5201SOL    HW216503   1.104   6.305   3.923
 5202SOL     OW16504   6.776   3.067   0.022
 5202SOL    HW116505   6.677   3.075   0.013
 5202SOL    HW216506   6.803   2.972   0.007
 5203SOL     OW16507   1.095   2.749   6.870
 5203SOL    HW116508   1.014   2.806   6.884
 5203SOL    HW216509   1.079   2.688   6.793
 5204SOL     OW16510   4.140   4.964   0.615
 5204SOL    HW116511   4.155   5.048   0.668
 5204SOL    HW216512   4.228   4.919   0.598
 5205SOL     OW16513   1.451   0.245   1.748
 5205SOL    HW116514   1.516   0.193   1.692
 5205SOL    HW216515   1.358   0.232   1.713
 5206SOL     OW16516   0.169   4.468   6.795
 5206SOL    HW116517   0.217   4.451   6.710
 5206SOL    HW216518   0.235   4.488   6.868
 5207SOL     OW16519   1.463   5.368   4.565
 5207SOL    HW116520   1.390   5.301   4.558
 5207SOL    HW216521   1.428   5.459   4.540
 5208SOL     OW16522   3.817   1.243   0.367
 5208SOL    HW116523   3.748   1.315   0.376
 5208SOL    HW216524   3.774   1.161   0.330
 5209SOL     OW16525   5.953   5.826   3.451
 5209SOL    HW116526   6.031   5.887   3.455
 5209SOL    HW216527   5.980   5.735   3.484
 5210SOL     OW16528   5.124   3.404   4.742
 5210SOL    HW116529   5.039   3.405   4.796
 5210SOL    HW216530   5.193   3.352   4.792
 5211SOL     OW16531   3.413   2.966   4.259
 5211SOL    HW116532   3.331   2.955   4.315
 5211SOL    HW216533   3.389   2.948   4.163
 5212SOL     OW16534   0.161   2.496   0.429
 5212SOL    HW116535   0.136   2.402   0.453
 5212SOL    HW216536   0.093   2.559   0.467
 5213SOL     OW16537   5.083   2.268   5.989
 5213SOL    HW116538   5.095   2.343   5.924
 5213SOL    HW216539   5.047   2.188   5.941
 5214SOL     OW16540   5.356   1.725   6.037
 5214SOL    HW116541   5.453   1.741   6.058
 5214SOL    HW216542   5.308   1.812   6.029
 5215SOL     OW16543   5.457   4.667   3.367
 5215SOL    HW116544   5.495   4.672   3.275
 5215SOL    HW216545   5.508   4.727   3.428
 5216SOL     OW16546   5.002   5.333   1.190
 5216SOL    HW116547   4.994   5.244   1.144
 5216SOL    HW216548   4.987   5.406   1.123
 5217SOL     OW16549   2.925   4.822   3.586
 5217SOL    HW116550   3.025   4.817   3.584
 5217SOL    HW216551   2.892   4.865   3.502
 5218SOL     OW16552   2.075   0.264   4.145
 5218SOL    HW116553   2.006   0.193   4.159
 5218SOL    HW216554   2.079   0.323   4.226
 5219SOL     OW16555   3.914   6.963   6.268
 5219SOL    HW116556   3.948   6.988   6.177
 5219SOL    HW216557   3.852   0.013   6.301
 5220SOL     OW16558   1.229   5.179   2.103
 5220SOL    HW116559   1.153   5.200   2.164
 5220SOL    HW216560   1.198   5.119   2.030
 5221SOL     OW16561   5.334   1.929   4.432
 5221SOL    HW116562   5.368   1.871   4.506
 5221SOL    HW216563   5.294   2.012   4.471
 5222SOL     OW16564   2.602   0.182   3.995
 5222SOL    HW116565   2.672   0.186   4.066
 5222SOL    HW216566   2.512   0.178   4.038
 5223SOL     OW16567   4.664   0.300   1.039
 5223SOL    HW116568   4.678   0.207   1.006
 5223SOL    HW216569   4.701   0.309   1.132
 5224SOL     OW16570   6.541   2.470   3.053
 5224SOL    HW116571   6.500   2.386   3.089
 5224SOL    HW216572   6.557   2.459   2.955
 5225SOL     OW16573   6.853   0.462   3.145
 5225SOL    HW116574   6.832   0.560   3.138
 5225SOL    HW216575   6.952   0.449   3.143
 5226SOL     OW16576   0.436   6.408   5.127
 5226SOL    HW116577   0.367   6.360   5.073
 5226SOL    HW216578   0.401   6.498   5.153
 5227SOL     OW16579   6.831   5.074   3.492
 5227SOL    HW116580   6.770   5.088   3.569
 5227SOL    HW216581   6.779   5.075   3.407
 5228SOL     OW16582   6.685   2.578   0.095
 5228SOL    HW116583   6.602   2.534   0.129
 5228SOL    HW216584   6.753   2.508   0.073
 5229SOL     OW16585   1.623   4.297   6.595
 5229SOL    HW116586   1.634   4.231   6.520
 5229SOL    HW216587   1.622   4.390   6.558
 5230SOL     OW16588   0.292   6.884   0.627
 5230SOL    HW116589   0.249   6.902   0.716
 5230SOL    HW216590   0.231   6.915   0.554
 5231SOL     OW16591   3.347   3.041   4.632
 5231SOL    HW116592   3.396   2.973   4.687
 5231SOL    HW216593   3.306   2.996   4.552
 5232SOL     OW16594   3.215   2.535   6.181
 5232SOL    HW116595   3.144   2.464   6.179
 5232SOL    HW216596   3.173   2.625   6.182
 5233SOL     OW16597   6.709   6.500   1.376
 5233SOL    HW116598   6.779   6.481   1.445
 5233SOL    HW216599   6.729   6.447   1.294
 5234SOL     OW16600   3.399   0.377   0.126
 5234SOL    HW116601   3.388   0.359   0.029
 5234SOL    HW216602   3.445   0.299   0.170
 5235SOL     OW16603   1.413   2.937   0.957
 5235SOL    HW116604   1.425   2.844   0.992
 5235SOL    HW216605   1.365   2.934   0.870
 5236SOL     OW16606   5.307   3.197   1.779
 5236SOL    HW116607   5.233   3.263   1.780
 5236SOL    HW216608   5.390   3.238   1.816
 5237SOL     OW16609   2.868   1.875   5.192
 5237SOL    HW116610   2.920   1.800   5.154
 5237SOL    HW216611   2.898   1.962   5.151
 5238SOL     OW16612   1.091   5.325   0.267
 5238SOL    HW116613   1.074   5.310   0.364
 5238SOL    HW216614   1.186   5.303   0.246
 5239SOL     OW16615   3.613   3.966   4.482
 5239SOL    HW116616   3.605   4.046   4.541
 5239SOL    HW216617   3.709   3.954   4.455
 5240SOL     OW16618   2.929   1.861   5.507
 5240SOL    HW116619   2.944   1.889   5.413
 5240SOL    HW216620   2.850   1.908   5.545
 5241SOL     OW16621   0.878   5.831   6.521
 5241SOL    HW116622   0.904   5.923   6.493
 5241SOL    HW216623   0.924   5.764   6.461
 5242SOL     OW16624   5.743   1.137   5.519
 5242SOL    HW116625   5.706   1.075   5.450
 5242SOL    HW216626   5.677   1.149   5.593
 5243SOL     OW16627   0.715   5.909   0.875
 5243SOL    HW116628   0.796   5.906   0.934
 5243SOL    HW216629   0.741   5.885   0.781
 5244SOL     OW16630   4.395   3.785   5.547
 5244SOL    HW116631   4.420   3.807   5.453
 5244SOL    HW216632   4.387   3.686   5.557
 5245SOL     OW16633   4.588   3.911   5.695
 5245SOL    HW116634   4.615   3.998   5.653
 5245SOL    HW216635   4.525   3.863   5.635
 5246SOL     OW16636   0.296   4.327   2.460
 5246SOL    HW116637   0.364   4.277   2.407
 5246SOL    HW216638   0.217   4.348   2.403
 5247SOL     OW16639   0.919   6.105   6.846
 5247SOL    HW116640   0.961   6.143   6.929
 5247SOL    HW216641   0.838   6.159   6.822
 5248SOL     OW16642   5.489   0.457   5.603
 5248SOL    HW116643   5.512   0.455   5.506
 5248SOL    HW216644   5.564   0.416   5.656
 5249SOL     OW16645   0.982   4.892   4.831
 5249SOL    HW116646   0.927   4.907   4.749
 5249SOL    HW216647   0.922   4.867   4.907
 5250SOL     OW16648   0.248   1.341   6.033
 5250SOL    HW116649   0.328   1.282   6.028
 5250SOL    HW216650   0.193   1.316   6.113
 5251SOL     OW16651   0.285   3.114   1.143
 5251SOL    HW116652   0.295   3.192   1.205
 5251SOL    HW216653   0.195   3.074   1.155
 5252SOL     OW16654   1.760   5.364   1.192
 5252SOL    HW116655   1.694   5.409   1.132
 5252SOL    HW216656   1.731   5.376   1.287
 5253SOL     OW16657   5.766   3.551   4.540
 5253SOL    HW116658   5.819   3.475   4.504
 5253SOL    HW216659   5.754   3.621   4.469
 5254SOL     OW16660   5.153   1.332   3.472
 5254SOL    HW116661   5.078   1.330   3.539
 5254SOL    HW216662   5.125   1.281   3.391
 5255SOL     OW16663   4.222   0.251   4.287
 5255SOL    HW116664   4.279   0.169   4.291
 5255SOL    HW216665   4.278   0.332   4.306
 5256SOL     OW16666   5.059   1.198   3.242
 5256SOL    HW116667   5.023   1.214   3.151
 5256SOL    HW216668   4.987   1.161   3.301
 5257SOL     OW16669   4.356   6.926   1.921
 5257SOL    HW116670   4.376   6.989   1.845
 5257SOL    HW216671   4.387   6.966   2.007
 5258SOL     OW16672   5.085   4.349   1.940
 5258SOL    HW116673   5.063   4.359   1.843
 5258SOL    HW216674   5.074   4.437   1.985
 5259SOL     OW16675   4.522   5.937   1.692
 5259SOL    HW116676   4.430   5.976   1.694
 5259SOL    HW216677   4.583   5.992   1.750
 5260SOL     OW16678   4.781   3.405   0.730
 5260SOL    HW116679   4.802   3.467   0.654
 5260SOL    HW216680   4.693   3.361   0.714
 5261SOL     OW16681   1.259   2.259   5.240
 5261SOL    HW116682   1.301   2.168   5.230
 5261SOL    HW216683   1.270   2.310   5.155
 5262SOL     OW16684   2.583   0.047   2.453
 5262SOL    HW116685   2.508   7.002   2.457
 5262SOL    HW216686   2.547   0.139   2.439
 5263SOL     OW16687   1.363   6.974   6.112
 5263SOL    HW116688   1.382   0.036   6.166
 5263SOL    HW216689   1.340   6.899   6.173
 5264SOL     OW16690   6.372   1.189   1.303
 5264SOL    HW116691   6.469   1.168   1.297
 5264SOL    HW216692   6.329   1.129   1.371
 5265SOL     OW16693   5.463   4.025   2.428
 5265SOL    HW116694   5.458   3.926   2.415
 5265SOL    HW216695   5.403   4.052   2.503
 5266SOL     OW16696   2.819   6.111   1.627
 5266SOL    HW116697   2.859   6.162   1.704
 5266SOL    HW216698   2.719   6.118   1.632
 5267SOL     OW16699   4.836   5.138   5.659
 5267SOL    HW116700   4.762   5.100   5.714
 5267SOL    HW216701   4.799   5.169   5.571
 5268SOL     OW16702   6.424   6.018   5.272
 5268SOL    HW116703   6.384   6.050   5.358
 5268SOL    HW216704   6.359   5.961   5.224
 5269SOL     OW16705   2.188   6.508   3.923
 5269SOL    HW116706   2.243   6.576   3.876
 5269SOL    HW216707   2.103   6.493   3.873
 5270SOL     OW16708   4.809   1.837   1.485
 5270SOL    HW116709   4.870   1.799   1.554
 5270SOL    HW216710   4.778   1.928   1.513
 5271SOL     OW16711   4.391   4.973   4.238
 5271SOL    HW116712   4.344   4.886   4.224
 5271SOL    HW216713   4.413   5.014   4.150
 5272SOL     OW16714   0.546   6.348   3.897
 5272SOL    HW116715   0.630   6.359   3.844
 5272SOL    HW216716   0.563   6.376   3.992
 5273SOL     OW16717   1.187   2.944   3.724
 5273SOL    HW116718   1.217   2.850   3.743
 5273SOL    HW216719   1.095   2.943   3.686
 5274SOL     OW16720   6.261   5.053   3.021
 5274SOL    HW116721   6.162   5.063   3.026
 5274SOL    HW216722   6.296   5.104   2.943
 5275SOL     OW16723   3.197   0.362   6.460
 5275SOL    HW116724   3.282   0.393   6.417
 5275SOL    HW216725   3.128   0.435   6.453
 5276SOL     OW16726   0.204   6.300   0.350
 5276SOL    HW116727   0.303   6.287   0.358
 5276SOL    HW216728   0.184   6.362   0.274
 5277SOL     OW16729   2.273   1.687   2.982
 5277SOL    HW116730   2.176   1.688   3.005
 5277SOL    HW216731   2.323   1.630   3.048
 5278SOL     OW16732   5.545   6.860   5.533
 5278SOL    HW116733   5.483   6.783   5.515
 5278SOL    HW216734   5.556   6.871   5.632
 5279SOL     OW16735   1.100   5.598   6.700
 5279SOL    HW116736   1.033   5.657   6.745
 5279SOL    HW216737   1.186   5.647   6.688
 5280SOL     OW16738   3.978   5.809   5.146
 5280SOL    HW116739   3.984   5.721   5.193
 5280SOL    HW216740   3.919   5.870   5.198
 5281SOL     OW16741   1.001   1.304   4.061
 5281SOL    HW116742   0.991   1.286   4.159
 5281SOL    HW216743   1.095   1.284   4.034
 5282SOL     OW16744   1.956   0.342   2.651
 5282SOL    HW116745   1.988   0.288   2.729
 5282SOL    HW216746   1.935   0.435   2.681
 5283SOL     OW16747   1.538   1.015   3.421
 5283SOL    HW116748   1.447   1.012   3.461
 5283SOL    HW216749   1.593   1.084   3.469
 5284SOL     OW16750   4.659   2.479   2.687
 5284SOL    HW116751   4.705   2.519   2.766
 5284SOL    HW216752   4.648   2.381   2.701
 5285SOL     OW16753   0.920   4.270   4.197
 5285SOL    HW116754   0.987   4.212   4.245
 5285SOL    HW216755   0.836   4.276   4.250
 5286SOL     OW16756   6.261   2.978   1.066
 5286SOL    HW116757   6.242   2.881   1.057
 5286SOL    HW216758   6.214   3.029   0.994
 5287SOL     OW16759   2.980   5.122   1.744
 5287SOL    HW116760   2.901   5.068   1.717
 5287SOL    HW216761   3.035   5.071   1.810
 5288SOL     OW16762   4.775   0.723   3.040
 5288SOL    HW116763   4.806   0.815   3.015
 5288SOL    HW216764   4.681   0.728   3.075
 5289SOL     OW16765   2.618   5.055   6.640
 5289SOL    HW116766   2.561   4.973   6.630
 5289SOL    HW216767   2.578   5.130   6.588
 5290SOL     OW16768   1.384   3.644   5.633
 5290SOL    HW116769   1.367   3.578   5.560
 5290SOL    HW216770   1.481   3.645   5.655
 5291SOL     OW16771   3.145   4.394   6.148
 5291SOL    HW116772   3.127   4.492   6.162
 5291SOL    HW216773   3.238   4.383   6.112
 5292SOL     OW16774   5.673   4.754   6.296
 5292SOL    HW116775   5.765   4.784   6.270
 5292SOL    HW216776   5.680   4.670   6.350
 5293SOL     OW16777   2.055   6.423   5.162
 5293SOL    HW116778   1.986   6.368   5.115
 5293SOL    HW216779   2.061   6.513   5.118
 5294SOL     OW16780   4.633   1.885   5.516
 5294SOL    HW116781   4.570   1.857   5.589
 5294SOL    HW216782   4.670   1.803   5.472
 5295SOL     OW16783   3.615   0.445   3.061
 5295SOL    HW116784   3.627   0.490   2.972
 5295SOL    HW216785   3.596   0.515   3.131
 5296SOL     OW16786   3.668   3.661   0.226
 5296SOL    HW116787   3.658   3.661   0.325
 5296SOL    HW216788   3.751   3.712   0.201
 5297SOL     OW16789   1.729   3.324   0.570
 5297SOL    HW116790   1.818   3.364   0.592
 5297SOL    HW216791   1.730   3.289   0.476
 5298SOL     OW16792   1.721   6.014   6.303
 5298SOL    HW116793   1.679   5.957   6.232
 5298SOL    HW216794   1.821   6.008   6.295
 5299SOL     OW16795   2.991   2.810   0.880
 5299SOL    HW116796   3.087   2.788   0.866
 5299SOL    HW216797   2.940   2.727   0.903
 5300SOL     OW16798   0.777   5.285   1.019
 5300SOL    HW116799   0.839   5.359   0.995
 5300SOL    HW216800   0.815   5.232   1.095
 5301SOL     OW16801   4.041   1.095   6.392
 5301SOL    HW116802   4.001   1.172   6.342
 5301SOL    HW216803   3.982   1.015   6.383
 5302SOL     OW16804   5.717   5.978   3.452
 5302SOL    HW116805   5.802   5.930   3.470
 5302SOL    HW216806   5.654   5.917   3.404
 5303SOL     OW16807   0.104   4.998   4.957
 5303SOL    HW116808   0.186   4.978   5.010
 5303SOL    HW216809   0.115   4.965   4.863
 5304SOL     OW16810   5.949   0.874   0.512
 5304SOL    HW116811   5.968   0.789   0.464
 5304SOL    HW216812   6.032   0.907   0.556
 5305SOL     OW16813   0.821   5.491   2.635
 5305SOL    HW116814   0.841   5.521   2.542
 5305SOL    HW216815   0.744   5.543   2.671
 5306SOL     OW16816   0.857   4.530   5.508
 5306SOL    HW116817   0.822   4.440   5.534
 5306SOL    HW216818   0.903   4.571   5.586
 5307SOL     OW16819   3.683   2.142   0.365
 5307SOL    HW116820   3.773   2.103   0.348
 5307SOL    HW216821   3.622   2.071   0.400
 5308SOL     OW16822   1.511   4.541   2.167
 5308SOL    HW116823   1.434   4.535   2.104
 5308SOL    HW216824   1.539   4.636   2.177
 5309SOL     OW16825   3.866   4.888   2.174
 5309SOL    HW116826   3.796   4.852   2.113
 5309SOL    HW216827   3.954   4.846   2.152
 5310SOL     OW16828   6.178   3.561   1.650
 5310SOL    HW116829   6.253   3.622   1.678
 5310SOL    HW216830   6.091   3.608   1.663
 5311SOL     OW16831   5.608   6.833   0.100
 5311SOL    HW116832   5.597   6.784   0.014
 5311SOL    HW216833   5.659   6.918   0.085
 5312SOL     OW16834   0.883   5.408   1.725
 5312SOL    HW116835   0.819   5.478   1.692
 5312SOL    HW216836   0.831   5.331   1.761
 5313SOL     OW16837   1.483   3.449   6.082
 5313SOL    HW116838   1.525   3.365   6.117
 5313SOL    HW216839   1.436   3.428   5.996
 5314SOL     OW16840   3.770   6.825   0.414
 5314SOL    HW116841   3.706   6.849   0.487
 5314SOL    HW216842   3.720   6.810   0.329
 5315SOL     OW16843   5.171   3.350   2.294
 5315SOL    HW116844   5.134   3.442   2.308
 5315SOL    HW216845   5.096   3.284   2.299
 5316SOL     OW16846   1.162   3.166   5.114
 5316SOL    HW116847   1.172   3.265   5.106
 5316SOL    HW216848   1.121   3.144   5.203
 5317SOL     OW16849   5.844   2.017   5.543
 5317SOL    HW116850   5.864   2.088   5.611
 5317SOL    HW216851   5.916   2.016   5.474
 5318SOL     OW16852   0.774   2.777   0.562
 5318SOL    HW116853   0.732   2.702   0.613
 5318SOL    HW216854   0.706   2.848   0.545
 5319SOL     OW16855   4.543   6.065   1.051
 5319SOL    HW116856   4.551   6.146   0.994
 5319SOL    HW216857   4.583   6.083   1.141
 5320SOL     OW16858   4.286   5.191   0.704
 5320SOL    HW116859   4.213   5.245   0.746
 5320SOL    HW216860   4.290   5.212   0.606
 5321SOL     OW16861   1.993   4.317   5.179
 5321SOL    HW116862   1.975   4.294   5.275
 5321SOL    HW216863   2.016   4.234   5.129
 5322SOL     OW16864   5.312   6.133   0.578
 5322SOL    HW116865   5.386   6.098   0.521
 5322SOL    HW216866   5.275   6.216   0.538
 5323SOL     OW16867   3.024   1.787   6.311
 5323SOL    HW116868   3.085   1.737   6.373
 5323SOL    HW216869   3.027   1.885   6.334
 5324SOL     OW16870   3.323   1.999   1.010
 5324SOL    HW116871   3.367   2.078   1.053
 5324SOL    HW216872   3.371   1.975   0.926
 5325SOL     OW16873   4.231   0.554   4.216
 5325SOL    HW116874   4.324   0.546   4.253
 5325SOL    HW216875   4.232   0.615   4.136
 5326SOL     OW16876   6.664   5.627   3.400
 5326SOL    HW116877   6.700   5.696   3.462
 5326SOL    HW216878   6.709   5.539   3.419
 5327SOL     OW16879   6.134   3.276   5.362
 5327SOL    HW116880   6.078   3.345   5.406
 5327SOL    HW216881   6.086   3.188   5.363
 5328SOL     OW16882   3.597   3.925   6.153
 5328SOL    HW116883   3.580   3.921   6.252
 5328SOL    HW216884   3.542   3.856   6.107
 5329SOL     OW16885   0.490   5.205   6.644
 5329SOL    HW116886   0.522   5.116   6.678
 5329SOL    HW216887   0.501   5.208   6.544
 5330SOL     OW16888   4.750   3.799   0.057
 5330SOL    HW116889   4.764   3.847   0.143
 5330SOL    HW216890   4.699   3.857   7.014
 5331SOL     OW16891   6.169   1.460   5.796
 5331SOL    HW116892   6.200   1.404   5.873
 5331SOL    HW216893   6.174   1.557   5.821
 5332SOL     OW16894   0.879   3.276   1.792
 5332SOL    HW116895   0.942   3.306   1.864
 5332SOL    HW216896   0.799   3.337   1.791
 5333SOL     OW16897   0.942   0.879   3.084
 5333SOL    HW116898   1.038   0.852   3.077
 5333SOL    HW216899   0.936   0.969   3.128
 5334SOL     OW16900   3.479   0.263   4.455
 5334SOL    HW116901   3.437   0.352   4.440
 5334SOL    HW216902   3.503   0.222   4.366
 5335SOL     OW16903   7.015   6.023   0.771
 5335SOL    HW116904   6.948   6.052   0.704
 5335SOL    HW216905   0.011   5.925   0.761
 5336SOL     OW16906   2.191   3.139   2.710
 5336SOL    HW116907   2.194   3.063   2.775
 5336SOL    HW216908   2.127   3.209   2.742
 5337SOL     OW16909   5.118   4.711   0.897
 5337SOL    HW116910   5.080   4.649   0.829
 5337SOL    HW216911   5.197   4.668   0.941
 5338SOL     OW16912   5.998   1.588   0.544
 5338SOL    HW116913   5.935   1.640   0.487
 5338SOL    HW216914   5.992   1.620   0.638
 5339SOL     OW16915   6.744   1.698   4.093
 5339SOL    HW116916   6.780   1.784   4.131
 5339SOL    HW216917   6.801   1.669   4.017
 5340SOL     OW16918   4.971   4.700   1.153
 5340SOL    HW116919   5.047   4.731   1.209
 5340SOL    HW216920   4.990   4.719   1.056
 5341SOL     OW16921   3.700   2.703   6.536
 5341SOL    HW116922   3.696   2.751   6.449
 5341SOL    HW216923   3.611   2.662   6.556
 5342SOL     OW16924   3.715   0.017   4.438
 5342SOL    HW116925   3.796   0.071   4.416
 5342SOL    HW216926   3.647   0.028   4.365
 5343SOL     OW16927   3.334   3.918   4.732
 5343SOL    HW116928   3.260   3.971   4.691
 5343SOL    HW216929   3.422   3.944   4.691
 5344SOL     OW16930   1.871   2.510   2.239
 5344SOL    HW116931   1.957   2.468   2.209
 5344SOL    HW216932   1.879   2.610   2.233
 5345SOL     OW16933   4.165   5.776   1.454
 5345SOL    HW116934   4.148   5.688   1.499
 5345SOL    HW216935   4.078   5.824   1.441
 5346SOL     OW16936   3.176   6.103   4.197
 5346SOL    HW116937   3.168   6.186   4.251
 5346SOL    HW216938   3.091   6.052   4.201
 5347SOL     OW16939   0.758   2.440   2.070
 5347SOL    HW116940   0.810   2.437   2.156
 5347SOL    HW216941   0.670   2.395   2.084
 5348SOL     OW16942   6.950   1.403   0.997
 5348SOL    HW116943   7.003   1.340   1.054
 5348SOL    HW216944   6.856   1.370   0.990
 5349SOL     OW16945   1.075   2.418   0.135
 5349SOL    HW116946   1.149   2.454   0.078
 5349SOL    HW216947   1.017   2.359   0.079
 5350SOL     OW16948   1.407   0.273   5.782
 5350SOL    HW116949   1.313   0.246   5.761
 5350SOL    HW216950   1.469   0.228   5.718
 5351SOL     OW16951   5.603   5.555   1.722
 5351SOL    HW116952   5.585   5.551   1.623
 5351SOL    HW216953   5.697   5.587   1.737
 5352SOL     OW16954   1.860   5.381   4.457
 5352SOL    HW116955   1.787   5.375   4.525
 5352SOL    HW216956   1.828   5.342   4.370
 5353SOL     OW16957   3.649   5.912   4.500
 5353SOL    HW116958   3.611   5.929   4.590
 5353SOL    HW216959   3.639   5.815   4.477
 5354SOL     OW16960   1.808   5.227   1.825
 5354SOL    HW116961   1.866   5.186   1.755
 5354SOL    HW216962   1.747   5.295   1.783
 5355SOL     OW16963   4.787   2.364   3.938
 5355SOL    HW116964   4.693   2.335   3.954
 5355SOL    HW216965   4.806   2.447   3.990
 5356SOL     OW16966   5.952   4.358   1.189
 5356SOL    HW116967   5.924   4.322   1.278
 5356SOL    HW216968   6.052   4.362   1.186
 5357SOL     OW16969   3.423   6.860   0.237
 5357SOL    HW116970   3.458   6.832   0.147
 5357SOL    HW216971   3.363   6.789   0.273
 5358SOL     OW16972   4.320   1.461   0.683
 5358SOL    HW116973   4.415   1.471   0.714
 5358SOL    HW216974   4.305   1.367   0.652
 5359SOL     OW16975   2.010   1.769   0.066
 5359SOL    HW116976   2.019   1.669   0.065
 5359SOL    HW216977   2.006   1.801   0.160
 5360SOL     OW16978   4.494   6.321   5.348
 5360SOL    HW116979   4.402   6.335   5.385
 5360SOL    HW216980   4.488   6.305   5.250
 5361SOL     OW16981   2.106   6.908   4.827
 5361SOL    HW116982   2.119   6.813   4.856
 5361SOL    HW216983   2.094   6.911   4.728
 5362SOL     OW16984   5.186   4.726   3.564
 5362SOL    HW116985   5.174   4.818   3.603
 5362SOL    HW216986   5.190   4.732   3.465
 5363SOL     OW16987   0.757   7.019   6.377
 5363SOL    HW116988   0.731   0.054   6.298
 5363SOL    HW216989   0.675   6.991   6.426
 5364SOL     OW16990   6.794   5.746   1.598
 5364SOL    HW116991   6.846   5.815   1.547
 5364SOL    HW216992   6.755   5.789   1.679
 5365SOL     OW16993   3.516   3.284   6.999
 5365SOL    HW116994   3.514   3.227   6.917
 5365SOL    HW216995   3.423   3.315   7.020
 5366SOL     OW16996   5.067   5.926   1.546
 5366SOL    HW116997   5.022   5.838   1.562
 5366SOL    HW216998   4.998   5.999   1.548
 5367SOL     OW16999   0.027   5.827   0.460
 5367SOL    HW117000   0.123   5.801   0.461
 5367SOL    HW217001   7.006   5.806   0.548
 5368SOL     OW17002   4.930   0.706   2.564
 5368SOL    HW117003   4.979   0.628   2.604
 5368SOL    HW217004   4.834   0.682   2.553
 5369SOL     OW17005   3.591   6.891   2.638
 5369SOL    HW117006   3.570   6.794   2.626
 5369SOL    HW217007   3.595   6.912   2.736
 5370SOL     OW17008   4.528   2.596   1.126
 5370SOL    HW117009   4.604   2.639   1.173
 5370SOL    HW217010   4.513   2.640   1.037
 5371SOL     OW17011   1.778   3.520   4.426
 5371SOL    HW117012   1.790   3.516   4.327
 5371SOL    HW217013   1.794   3.429   4.465
 5372SOL     OW17014   2.207   5.909   3.970
 5372SOL    HW117015   2.183   5.982   3.906
 5372SOL    HW217016   2.236   5.828   3.918
 5373SOL     OW17017   3.097   5.405   4.259
 5373SOL    HW117018   3.006   5.417   4.300
 5373SOL    HW217019   3.155   5.352   4.322
 5374SOL     OW17020   0.970   4.222   0.368
 5374SOL    HW117021   1.025   4.297   0.407
 5374SOL    HW217022   0.956   4.238   0.271
 5375SOL     OW17023   1.704   4.170   4.610
 5375SOL    HW117024   1.677   4.245   4.671
 5375SOL    HW217025   1.802   4.174   4.593
 5376SOL     OW17026   2.022   3.159   0.874
 5376SOL    HW117027   1.950   3.201   0.930
 5376SOL    HW217028   2.055   3.077   0.919
 5377SOL     OW17029   6.797   6.999   1.755
 5377SOL    HW117030   6.816   0.072   1.783
 5377SOL    HW217031   6.840   6.981   1.666
 5378SOL     OW17032   0.198   0.421   2.262
 5378SOL    HW117033   0.121   0.391   2.317
 5378SOL    HW217034   0.194   0.376   2.172
 5379SOL     OW17035   1.128   5.433   5.107
 5379SOL    HW117036   1.193   5.418   5.182
 5379SOL    HW217037   1.145   5.522   5.065
 5380SOL     OW17038   1.713   1.199   3.493
 5380SOL    HW117039   1.808   1.182   3.520
 5380SOL    HW217040   1.710   1.227   3.397
 5381SOL     OW17041   6.506   4.272   0.800
 5381SOL    HW117042   6.488   4.330   0.720
 5381SOL    HW217043   6.457   4.186   0.790
 5382SOL     OW17044   3.414   0.730   2.279
 5382SOL    HW117045   3.383   0.712   2.373
 5382SOL    HW217046   3.398   0.825   2.256
 5383SOL     OW17047   2.660   2.393   5.599
 5383SOL    HW117048   2.629   2.324   5.665
 5383SOL    HW217049   2.583   2.419   5.541
 5384SOL     OW17050   6.430   0.272   4.095
 5384SOL    HW117051   6.408   0.175   4.100
 5384SOL    HW217052   6.492   0.288   4.018
 5385SOL     OW17053   2.938   3.314   3.768
 5385SOL    HW117054   2.880   3.344   3.843
 5385SOL    HW217055   2.977   3.224   3.789
 5386SOL     OW17056   4.445   0.082   4.332
 5386SOL    HW117057   4.468   0.177   4.311
 5386SOL    HW217058   4.524   0.037   4.373
 5387SOL     OW17059   2.791   6.023   3.958
 5387SOL    HW117060   2.714   5.960   3.951
 5387SOL    HW217061   2.790   6.068   4.047
 5388SOL     OW17062   6.229   0.503   3.430
 5388SOL    HW117063   6.165   0.531   3.359
 5388SOL    HW217064   6.277   0.420   3.401
 5389SOL     OW17065   5.214   0.554   1.597
 5389SOL    HW117066   5.243   0.577   1.504
 5389SOL    HW217067   5.114   0.557   1.602
 5390SOL     OW17068   4.662   4.382   3.392
 5390SOL    HW117069   4.667   4.423   3.301
 5390SOL    HW217070   4.614   4.444   3.454
 5391SOL     OW17071   1.743   2.590   1.325
 5391SOL    HW117072   1.829   2.568   1.372
 5391SOL    HW217073   1.699   2.504   1.297
 5392SOL     OW17074   6.171   3.330   0.821
 5392SOL    HW117075   6.159   3.239   0.860
 5392SOL    HW217076   6.224   3.386   0.884
 5393SOL     OW17077   5.708   0.127   6.228
 5393SOL    HW117078   5.684   0.088   6.140
 5393SOL    HW217079   5.630   0.122   6.290
 5394SOL     OW17080   6.550   4.204   6.738
 5394SOL    HW117081   6.592   4.206   6.828
 5394SOL    HW217082   6.610   4.154   6.675
 5395SOL     OW17083   4.709   1.257   1.856
 5395SOL    HW117084   4.636   1.326   1.853
 5395SOL    HW217085   4.736   1.233   1.763
 5396SOL     OW17086   4.973   4.331   2.862
 5396SOL    HW117087   4.880   4.325   2.825
 5396SOL    HW217088   5.026   4.252   2.831
 5397SOL     OW17089   6.640   3.193   1.922
 5397SOL    HW117090   6.551   3.165   1.957
 5397SOL    HW217091   6.659   3.287   1.950
 5398SOL     OW17092   3.523   1.520   2.673
 5398SOL    HW117093   3.588   1.475   2.734
 5398SOL    HW217094   3.547   1.617   2.665
 5399SOL     OW17095   2.514   5.716   6.825
 5399SOL    HW117096   2.460   5.765   6.894
 5399SOL    HW217097   2.558   5.782   6.764
 5400SOL     OW17098   2.669   3.742   0.852
 5400SOL    HW117099   2.750   3.735   0.911
 5400SOL    HW217100   2.626   3.652   0.842
 5401SOL     OW17101   5.671   3.742   1.772
 5401SOL    HW117102   5.633   3.835   1.777
 5401SOL    HW217103   5.610   3.684   1.720
 5402SOL     OW17104   2.329   4.718   1.590
 5402SOL    HW117105   2.357   4.728   1.685
 5402SOL    HW217106   2.391   4.656   1.543
 5403SOL     OW17107   6.324   2.598   6.255
 5403SOL    HW117108   6.376   2.621   6.173
 5403SOL    HW217109   6.228   2.585   6.231
 5404SOL     OW17110   0.932   1.475   2.750
 5404SOL    HW117111   0.996   1.407   2.713
 5404SOL    HW217112   0.959   1.566   2.722
 5405SOL     OW17113   6.011   5.654   6.905
 5405SOL    HW117114   5.912   5.665   6.903
 5405SOL    HW217115   6.040   5.641   7.000
 5406SOL     OW17116   2.307   0.549   0.254
 5406SOL    HW117117   2.226   0.605   0.266
 5406SOL    HW217118   2.389   0.604   0.275
 5407SOL     OW17119   4.449   2.836   0.962
 5407SOL    HW117120   4.541   2.804   0.983
 5407SOL    HW217121   4.407   2.874   1.044
 5408SOL     OW17122   3.230   1.328   6.727
 5408SOL    HW117123   3.257   1.375   6.811
 5408SOL    HW217124   3.190   1.239   6.750
 5409SOL     OW17125   5.883   0.805   3.624
 5409SOL    HW117126   5.895   0.707   3.635
 5409SOL    HW217127   5.785   0.827   3.621
 5410SOL     OW17128   2.832   2.393   1.199
 5410SOL    HW117129   2.769   2.411   1.123
 5410SOL    HW217130   2.918   2.355   1.163
 5411SOL     OW17131   6.464   5.602   5.266
 5411SOL    HW117132   6.507   5.514   5.288
 5411SOL    HW217133   6.492   5.630   5.174
 5412SOL     OW17134   4.530   1.245   0.017
 5412SOL    HW117135   4.472   1.260   0.097
 5412SOL    HW217136   4.626   1.248   0.044
 5413SOL     OW17137   2.352   1.710   1.199
 5413SOL    HW117138   2.432   1.755   1.159
 5413SOL    HW217139   2.368   1.692   1.296
 5414SOL     OW17140   4.770   2.089   4.950
 5414SOL    HW117141   4.776   2.038   4.864
 5414SOL    HW217142   4.717   2.173   4.936
 5415SOL     OW17143   1.624   5.588   0.767
 5415SOL    HW117144   1.586   5.495   0.766
 5415SOL    HW217145   1.622   5.623   0.861
 5416SOL     OW17146   4.538   5.334   5.940
 5416SOL    HW117147   4.627   5.361   5.903
 5416SOL    HW217148   4.488   5.282   5.870
 5417SOL     OW17149   4.005   6.572   5.313
 5417SOL    HW117150   4.029   6.652   5.368
 5417SOL    HW217151   3.908   6.574   5.291
 5418SOL     OW17152   3.477   6.549   3.592
 5418SOL    HW117153   3.407   6.491   3.633
 5418SOL    HW217154   3.455   6.645   3.610
 5419SOL     OW17155   3.112   4.905   0.375
 5419SOL    HW117156   3.112   4.878   0.472
 5419SOL    HW217157   3.177   4.980   0.362
 5420SOL     OW17158   1.352   2.598   2.317
 5420SOL    HW117159   1.347   2.530   2.244
 5420SOL    HW217160   1.448   2.627   2.329
 5421SOL     OW17161   2.351   2.696   2.800
 5421SOL    HW117162   2.290   2.617   2.814
 5421SOL    HW217163   2.347   2.725   2.705
 5422SOL     OW17164   0.276   5.687   0.154
 5422SOL    HW117165   0.347   5.658   0.090
 5422SOL    HW217166   0.189   5.645   0.129
 5423SOL     OW17167   6.312   2.715   6.936
 5423SOL    HW117168   6.237   2.658   6.901
 5423SOL    HW217169   6.323   2.698   0.013
 5424SOL     OW17170   5.333   3.303   4.067
 5424SOL    HW117171   5.370   3.267   4.153
 5424SOL    HW217172   5.405   3.352   4.018
 5425SOL     OW17173   3.854   1.098   3.918
 5425SOL    HW117174   3.797   1.155   3.858
 5425SOL    HW217175   3.813   1.092   4.008
 5426SOL     OW17176   6.559   5.361   4.015
 5426SOL    HW117177   6.508   5.447   4.009
 5426SOL    HW217178   6.532   5.301   3.940
 5427SOL     OW17179   4.523   4.784   6.774
 5427SOL    HW117180   4.483   4.701   6.734
 5427SOL    HW217181   4.471   4.864   6.744
 5428SOL     OW17182   6.866   6.766   1.581
 5428SOL    HW117183   6.897   6.723   1.665
 5428SOL    HW217184   6.874   6.702   1.505
 5429SOL     OW17185   1.786   1.963   6.910
 5429SOL    HW117186   1.868   1.975   6.854
 5429SOL    HW217187   1.757   1.868   6.906
 5430SOL     OW17188   0.444   3.069   6.194
 5430SOL    HW117189   0.398   3.147   6.237
 5430SOL    HW217190   0.510   3.103   6.127
 5431SOL     OW17191   3.315   5.788   0.357
 5431SOL    HW117192   3.361   5.863   0.309
 5431SOL    HW217193   3.267   5.731   0.290
 5432SOL     OW17194   5.196   6.598   6.792
 5432SOL    HW117195   5.216   6.686   6.835
 5432SOL    HW217196   5.274   6.569   6.736
 5433SOL     OW17197   0.388   1.809   4.400
 5433SOL    HW117198   0.437   1.721   4.403
 5433SOL    HW217199   0.324   1.808   4.323
 5434SOL     OW17200   4.112   0.745   5.436
 5434SOL    HW117201   4.026   0.795   5.420
 5434SOL    HW217202   4.119   0.670   5.370
 5435SOL     OW17203   4.951   0.967   1.471
 5435SOL    HW117204   4.922   1.038   1.407
 5435SOL    HW217205   5.037   0.994   1.514
 5436SOL     OW17206   5.288   4.069   4.083
 5436SOL    HW117207   5.298   4.147   4.021
 5436SOL    HW217208   5.335   3.989   4.043
 5437SOL     OW17209   3.138   4.663   6.174
 5437SOL    HW117210   3.224   4.663   6.123
 5437SOL    HW217211   3.155   4.688   6.269
 5438SOL     OW17212   6.638   3.619   2.684
 5438SOL    HW117213   6.684   3.565   2.754
 5438SOL    HW217214   6.556   3.662   2.722
 5439SOL     OW17215   0.842   2.306   0.356
 5439SOL    HW117216   0.936   2.304   0.390
 5439SOL    HW217217   0.815   2.401   0.339
 5440SOL     OW17218   0.682   1.038   1.818
 5440SOL    HW117219   0.628   1.114   1.782
 5440SOL    HW217220   0.776   1.068   1.832
 5441SOL     OW17221   5.173   2.438   2.958
 5441SOL    HW117222   5.179   2.490   2.873
 5441SOL    HW217223   5.265   2.406   2.984
 5442SOL     OW17224   2.971   5.830   3.865
 5442SOL    HW117225   2.913   5.894   3.915
 5442SOL    HW217226   3.064   5.866   3.859
 5443SOL     OW17227   2.670   0.648   4.051
 5443SOL    HW117228   2.753   0.677   4.099
 5443SOL    HW217229   2.644   0.719   3.985
 5444SOL     OW17230   2.100   0.629   4.757
 5444SOL    HW117231   2.044   0.565   4.704
 5444SOL    HW217232   2.044   0.672   4.827
 5445SOL     OW17233   5.903   3.797   3.576
 5445SOL    HW117234   5.871   3.738   3.502
 5445SOL    HW217235   5.825   3.839   3.622
 5446SOL     OW17236   6.778   5.085   5.122
 5446SOL    HW117237   6.732   5.000   5.095
 5446SOL    HW217238   6.845   5.110   5.052
 5447SOL     OW17239   2.476   1.586   6.712
 5447SOL    HW117240   2.399   1.648   6.696
 5447SOL    HW217241   2.481   1.520   6.637
 5448SOL     OW17242   4.659   2.759   5.243
 5448SOL    HW117243   4.749   2.786   5.277
 5448SOL    HW217244   4.594   2.758   5.319
 5449SOL     OW17245   1.678   2.828   6.422
 5449SOL    HW117246   1.640   2.889   6.492
 5449SOL    HW217247   1.626   2.838   6.337
 5450SOL     OW17248   1.538   0.216   1.987
 5450SOL    HW117249   1.569   0.122   1.999
 5450SOL    HW217250   1.510   0.230   1.892
 5451SOL     OW17251   1.415   6.334   3.226
 5451SOL    HW117252   1.417   6.424   3.269
 5451SOL    HW217253   1.509   6.304   3.207
 5452SOL     OW17254   2.168   4.491   6.884
 5452SOL    HW117255   2.140   4.446   6.799
 5452SOL    HW217256   2.211   4.578   6.862
 5453SOL     OW17257   5.787   4.689   1.554
 5453SOL    HW117258   5.733   4.641   1.485
 5453SOL    HW217259   5.757   4.660   1.645
 5454SOL     OW17260   7.017   4.222   6.712
 5454SOL    HW117261   0.049   4.285   6.769
 5454SOL    HW217262   6.973   4.273   6.638
 5455SOL     OW17263   6.268   3.350   0.573
 5455SOL    HW117264   6.241   3.342   0.669
 5455SOL    HW217265   6.186   3.358   0.517
 5456SOL     OW17266   3.717   0.291   7.007
 5456SOL    HW117267   3.721   0.221   0.057
 5456SOL    HW217268   3.806   0.297   6.961
 5457SOL     OW17269   5.786   2.365   0.436
 5457SOL    HW117270   5.853   2.427   0.476
 5457SOL    HW217271   5.796   2.364   0.336
 5458SOL     OW17272   0.542   4.852   0.078
 5458SOL    HW117273   0.606   4.823   0.149
 5458SOL    HW217274   0.548   4.790   7.021
 5459SOL     OW17275   2.357   4.155   6.837
 5459SOL    HW117276   2.264   4.119   6.835
 5459SOL    HW217277   2.369   4.223   6.765
 5460SOL     OW17278   3.201   0.124   2.701
 5460SOL    HW117279   3.202   0.177   2.616
 5460SOL    HW217280   3.283   0.146   2.754
 5461SOL     OW17281   5.646   6.810   5.171
 5461SOL    HW117282   5.658   6.887   5.108
 5461SOL    HW217283   5.719   6.812   5.240
 5462SOL     OW17284   1.176   0.397   6.511
 5462SOL    HW117285   1.148   0.350   6.594
 5462SOL    HW217286   1.268   0.435   6.524
 5463SOL     OW17287   6.573   2.263   0.147
 5463SOL    HW117288   6.617   2.234   0.232
 5463SOL    HW217289   6.476   2.279   0.163
 5464SOL     OW17290   1.533   1.399   3.974
 5464SOL    HW117291   1.490   1.486   3.997
 5464SOL    HW217292   1.569   1.403   3.881
 5465SOL     OW17293   4.096   6.365   3.142
 5465SOL    HW117294   4.173   6.402   3.194
 5465SOL    HW217295   4.108   6.386   3.045
 5466SOL     OW17296   5.537   4.178   5.405
 5466SOL    HW117297   5.495   4.266   5.429
 5466SOL    HW217298   5.630   4.194   5.373
 5467SOL     OW17299   5.134   2.850   2.824
 5467SOL    HW117300   5.227   2.813   2.817
 5467SOL    HW217301   5.139   2.947   2.848
 5468SOL     OW17302   5.289   2.159   4.551
 5468SOL    HW117303   5.254   2.247   4.517
 5468SOL    HW217304   5.363   2.176   4.616
 5469SOL     OW17305   3.768   5.303   6.247
 5469SOL    HW117306   3.764   5.321   6.346
 5469SOL    HW217307   3.761   5.205   6.231
 5470SOL     OW17308   3.061   5.805   2.539
 5470SOL    HW117309   3.138   5.842   2.591
 5470SOL    HW217310   3.070   5.706   2.532
 5471SOL     OW17311   5.080   0.134   2.596
 5471SOL    HW117312   5.036   0.224   2.597
 5471SOL    HW217313   5.022   0.070   2.545
 5472SOL     OW17314   3.885   3.614   5.843
 5472SOL    HW117315   3.950   3.540   5.826
 5472SOL    HW217316   3.928   3.702   5.822
 5473SOL     OW17317   0.096   3.509   3.317
 5473SOL    HW117318   0.053   3.457   3.244
 5473SOL    HW217319   0.183   3.466   3.342
 5474SOL     OW17320   1.631   4.338   4.801
 5474SOL    HW117321   1.628   4.437   4.789
 5474SOL    HW217322   1.706   4.314   4.863
 5475SOL     OW17323   2.373   2.346   1.256
 5475SOL    HW117324   2.426   2.379   1.334
 5475SOL    HW217325   2.365   2.418   1.188
 5476SOL     OW17326   1.925   4.325   5.491
 5476SOL    HW117327   1.975   4.284   5.567
 5476SOL    HW217328   1.953   4.421   5.481
 5477SOL     OW17329   2.125   4.573   3.435
 5477SOL    HW117330   2.190   4.505   3.468
 5477SOL    HW217331   2.035   4.556   3.478
 5478SOL     OW17332   4.454   4.904   5.311
 5478SOL    HW117333   4.361   4.895   5.278
 5478SOL    HW217334   4.454   4.905   5.411
 5479SOL     OW17335   4.909   1.251   6.227
 5479SOL    HW117336   4.822   1.221   6.264
 5479SOL    HW217337   4.967   1.285   6.301
 5480SOL     OW17338   0.321   3.878   3.466
 5480SOL    HW117339   0.318   3.803   3.400
 5480SOL    HW217340   0.342   3.964   3.418
 5481SOL     OW17341   4.285   0.955   3.934
 5481SOL    HW117342   4.272   1.021   4.007
 5481SOL    HW217343   4.311   1.003   3.850
 5482SOL     OW17344   3.712   4.597   1.641
 5482SOL    HW117345   3.805   4.629   1.659
 5482SOL    HW217346   3.653   4.624   1.717
 5483SOL     OW17347   0.101   2.361   5.831
 5483SOL    HW117348   0.035   2.400   5.767
 5483SOL    HW217349   0.194   2.372   5.795
 5484SOL     OW17350   4.779   0.829   5.114
 5484SOL    HW117351   4.730   0.902   5.066
 5484SOL    HW217352   4.836   0.869   5.185
 5485SOL     OW17353   4.359   0.136   5.281
 5485SOL    HW117354   4.308   0.200   5.338
 5485SOL    HW217355   4.329   0.145   5.186
 5486SOL     OW17356   2.865   5.785   5.784
 5486SOL    HW117357   2.810   5.769   5.865
 5486SOL    HW217358   2.812   5.838   5.717
 5487SOL     OW17359   3.662   3.533   6.612
 5487SOL    HW117360   3.721   3.458   6.642
 5487SOL    HW217361   3.692   3.564   6.522
 5488SOL     OW17362   6.392   0.506   0.910
 5488SOL    HW117363   6.361   0.601   0.912
 5488SOL    HW217364   6.352   0.459   0.832
 5489SOL     OW17365   6.486   3.561   1.382
 5489SOL    HW117366   6.414   3.629   1.399
 5489SOL    HW217367   6.478   3.487   1.449
 5490SOL     OW17368   2.112   6.963   2.443
 5490SOL    HW117369   2.039   0.010   2.448
 5490SOL    HW217370   2.146   6.958   2.349
 5491SOL     OW17371   0.411   3.154   0.330
 5491SOL    HW117372   0.365   3.240   0.307
 5491SOL    HW217373   0.464   3.165   0.414
 5492SOL     OW17374   0.959   2.969   5.804
 5492SOL    HW117375   0.951   3.069   5.803
 5492SOL    HW217376   0.918   2.932   5.720
 5493SOL     OW17377   4.042   3.767   3.085
 5493SOL    HW117378   4.064   3.679   3.126
 5493SOL    HW217379   3.955   3.801   3.121
 5494SOL     OW17380   6.731   4.069   5.249
 5494SOL    HW117381   6.674   4.021   5.183
 5494SOL    HW217382   6.805   4.116   5.202
 5495SOL     OW17383   5.544   0.682   1.187
 5495SOL    HW117384   5.634   0.650   1.158
 5495SOL    HW217385   5.476   0.657   1.118
 5496SOL     OW17386   4.244   0.598   3.596
 5496SOL    HW117387   4.197   0.640   3.674
 5496SOL    HW217388   4.334   0.567   3.625
 5497SOL     OW17389   6.973   1.423   5.609
 5497SOL    HW117390   0.003   1.508   5.596
 5497SOL    HW217391   0.016   1.347   5.621
 5498SOL     OW17392   0.195   5.175   2.159
 5498SOL    HW117393   0.156   5.098   2.209
 5498SOL    HW217394   0.248   5.142   2.081
 5499SOL     OW17395   0.786   0.967   3.568
 5499SOL    HW117396   0.707   0.906   3.557
 5499SOL    HW217397   0.779   1.042   3.502
 5500SOL     OW17398   1.618   0.121   0.351
 5500SOL    HW117399   1.662   0.038   0.318
 5500SOL    HW217400   1.604   0.184   0.275
 5501SOL     OW17401   3.978   2.026   0.860
 5501SOL    HW117402   3.973   1.935   0.817
 5501SOL    HW217403   3.893   2.044   0.910
 5502SOL     OW17404   5.420   3.585   6.432
 5502SOL    HW117405   5.453   3.502   6.386
 5502SOL    HW217406   5.397   3.562   6.527
 5503SOL     OW17407   0.047   4.527   0.992
 5503SOL    HW117408   0.120   4.479   0.943
 5503SOL    HW217409   0.017   4.606   0.939
 5504SOL     OW17410   4.411   1.169   5.530
 5504SOL    HW117411   4.471   1.185   5.453
 5504SOL    HW217412   4.368   1.079   5.521
 5505SOL     OW17413   2.173   4.815   3.516
 5505SOL    HW117414   2.242   4.836   3.448
 5505SOL    HW217415   2.146   4.719   3.509
 5506SOL     OW17416   0.058   3.440   0.289
 5506SOL    HW117417   0.046   3.348   0.250
 5506SOL    HW217418   6.994   3.468   0.334
 5507SOL     OW17419   3.872   0.775   5.777
 5507SOL    HW117420   3.847   0.863   5.737
 5507SOL    HW217421   3.863   0.780   5.877
 5508SOL     OW17422   1.162   0.401   6.953
 5508SOL    HW117423   1.198   0.348   0.009
 5508SOL    HW217424   1.063   0.415   6.965
 5509SOL     OW17425   0.286   5.608   0.700
 5509SOL    HW117426   0.382   5.593   0.720
 5509SOL    HW217427   0.276   5.635   0.604
 5510SOL     OW17428   5.193   5.077   6.503
 5510SOL    HW117429   5.144   5.099   6.587
 5510SOL    HW217430   5.277   5.131   6.499
 5511SOL     OW17431   1.116   1.093   5.070
 5511SOL    HW117432   1.125   1.112   5.168
 5511SOL    HW217433   1.207   1.090   5.029
 5512SOL     OW17434   3.191   1.107   0.677
 5512SOL    HW117435   3.122   1.178   0.683
 5512SOL    HW217436   3.187   1.049   0.759
 5513SOL     OW17437   3.156   5.177   5.817
 5513SOL    HW117438   3.252   5.190   5.792
 5513SOL    HW217439   3.122   5.093   5.775
 5514SOL     OW17440   3.524   0.217   5.516
 5514SOL    HW117441   3.614   0.260   5.504
 5514SOL    HW217442   3.516   0.139   5.454
 5515SOL     OW17443   1.607   5.739   1.919
 5515SOL    HW117444   1.638   5.690   2.001
 5515SOL    HW217445   1.509   5.755   1.925
 5516SOL     OW17446   2.372   2.795   4.850
 5516SOL    HW117447   2.386   2.877   4.905
 5516SOL    HW217448   2.406   2.811   4.757
 5517SOL     OW17449   1.960   3.567   2.040
 5517SOL    HW117450   1.941   3.568   2.138
 5517SOL    HW217451   2.044   3.517   2.023
 5518SOL     OW17452   6.370   4.663   5.703
 5518SOL    HW117453   6.288   4.720   5.712
 5518SOL    HW217454   6.352   4.589   5.639
 5519SOL     OW17455   5.386   3.050   3.558
 5519SOL    HW117456   5.323   2.985   3.515
 5519SOL    HW217457   5.480   3.021   3.542
 5520SOL     OW17458   5.418   6.201   2.488
 5520SOL    HW117459   5.400   6.273   2.555
 5520SOL    HW217460   5.383   6.230   2.398
 5521SOL     OW17461   5.493   6.005   1.539
 5521SOL    HW117462   5.437   6.083   1.511
 5521SOL    HW217463   5.547   5.973   1.461
 5522SOL     OW17464   6.558   5.135   1.652
 5522SOL    HW117465   6.518   5.194   1.582
 5522SOL    HW217466   6.646   5.100   1.620
 5523SOL     OW17467   4.625   1.061   2.514
 5523SOL    HW117468   4.626   1.160   2.529
 5523SOL    HW217469   4.688   1.017   2.578
 5524SOL     OW17470   3.672   6.821   5.121
 5524SOL    HW117471   3.615   6.876   5.059
 5524SOL    HW217472   3.744   6.879   5.159
 5525SOL     OW17473   0.368   2.621   0.193
 5525SOL    HW117474   0.300   2.576   0.250
 5525SOL    HW217475   0.369   2.580   0.102
 5526SOL     OW17476   4.471   4.496   2.668
 5526SOL    HW117477   4.381   4.513   2.710
 5526SOL    HW217478   4.528   4.577   2.677
 5527SOL     OW17479   4.911   3.636   3.748
 5527SOL    HW117480   4.952   3.674   3.665
 5527SOL    HW217481   4.897   3.538   3.737
 5528SOL     OW17482   1.441   1.356   1.491
 5528SOL    HW117483   1.391   1.414   1.556
 5528SOL    HW217484   1.530   1.332   1.531
 5529SOL     OW17485   2.825   6.929   3.589
 5529SOL    HW117486   2.768   7.007   3.567
 5529SOL    HW217487   2.793   6.849   3.539
 5530SOL     OW17488   6.784   2.544   1.857
 5530SOL    HW117489   6.788   2.444   1.868
 5530SOL    HW217490   6.705   2.580   1.907
 5531SOL     OW17491   4.039   3.814   1.476
 5531SOL    HW117492   4.124   3.836   1.523
 5531SOL    HW217493   3.965   3.807   1.543
 5532SOL     OW17494   1.911   2.582   0.771
 5532SOL    HW117495   1.983   2.640   0.732
 5532SOL    HW217496   1.926   2.571   0.869
 5533SOL     OW17497   4.912   1.753   4.021
 5533SOL    HW117498   4.982   1.696   4.064
 5533SOL    HW217499   4.881   1.710   3.936
 5534SOL     OW17500   0.854   1.319   6.046
 5534SOL    HW117501   0.857   1.354   5.952
 5534SOL    HW217502   0.815   1.227   6.046
 5535SOL     OW17503   0.755   1.409   2.517
 5535SOL    HW117504   0.804   1.424   2.602
 5535SOL    HW217505   0.819   1.414   2.440
 5536SOL     OW17506   3.783   0.650   4.652
 5536SOL    HW117507   3.767   0.748   4.665
 5536SOL    HW217508   3.780   0.629   4.554
 5537SOL     OW17509   4.146   1.422   2.446
 5537SOL    HW117510   4.196   1.412   2.360
 5537SOL    HW217511   4.063   1.366   2.442
 5538SOL     OW17512   4.274   6.127   4.596
 5538SOL    HW117513   4.320   6.175   4.672
 5538SOL    HW217514   4.267   6.189   4.518
 5539SOL     OW17515   1.871   3.458   0.995
 5539SOL    HW117516   1.876   3.364   1.030
 5539SOL    HW217517   1.914   3.520   1.061
 5540SOL     OW17518   4.718   4.672   3.688
 5540SOL    HW117519   4.798   4.611   3.692
 5540SOL    HW217520   4.702   4.712   3.778
 5541SOL     OW17521   4.152   1.432   6.338
 5541SOL    HW117522   4.206   1.504   6.381
 5541SOL    HW217523   4.206   1.348   6.331
 5542SOL     OW17524   4.096   3.502   6.365
 5542SOL    HW117525   4.075   3.457   6.279
 5542SOL    HW217526   4.064   3.446   6.442
 5543SOL     OW17527   5.513   4.025   6.817
 5543SOL    HW117528   5.424   4.000   6.781
 5543SOL    HW217529   5.531   3.973   6.901
 5544SOL     OW17530   5.328   0.787   6.097
 5544SOL    HW117531   5.397   0.776   6.169
 5544SOL    HW217532   5.342   0.718   6.027
 5545SOL     OW17533   4.132   2.223   2.522
 5545SOL    HW117534   4.094   2.183   2.439
 5545SOL    HW217535   4.219   2.268   2.501
 5546SOL     OW17536   1.594   5.420   5.607
 5546SOL    HW117537   1.545   5.490   5.556
 5546SOL    HW217538   1.578   5.330   5.565
 5547SOL     OW17539   3.297   5.798   5.103
 5547SOL    HW117540   3.303   5.894   5.131
 5547SOL    HW217541   3.278   5.793   5.005
 5548SOL     OW17542   6.182   3.425   5.810
 5548SOL    HW117543   6.204   3.385   5.899
 5548SOL    HW217544   6.263   3.472   5.774
 5549SOL     OW17545   3.232   5.191   6.717
 5549SOL    HW117546   3.176   5.253   6.662
 5549SOL    HW217547   3.321   5.233   6.735
 5550SOL     OW17548   2.314   5.848   1.636
 5550SOL    HW117549   2.271   5.801   1.713
 5550SOL    HW217550   2.257   5.837   1.554
 5551SOL     OW17551   1.625   0.612   3.318
 5551SOL    HW117552   1.612   0.700   3.273
 5551SOL    HW217553   1.611   0.622   3.417
 5552SOL     OW17554   0.371   1.369   0.828
 5552SOL    HW117555   0.355   1.301   0.900
 5552SOL    HW217556   0.366   1.460   0.867
 5553SOL     OW17557   4.434   6.574   6.897
 5553SOL    HW117558   4.488   6.638   6.842
 5553SOL    HW217559   4.390   6.624   6.972
 5554SOL     OW17560   2.970   2.425   5.315
 5554SOL    HW117561   2.960   2.522   5.336
 5554SOL    HW217562   3.056   2.410   5.266
 5555SOL     OW17563   0.279   5.409   3.571
 5555SOL    HW117564   0.365   5.447   3.535
 5555SOL    HW217565   0.279   5.415   3.670
 5556SOL     OW17566   1.099   1.926   5.000
 5556SOL    HW117567   1.062   1.834   4.988
 5556SOL    HW217568   1.036   1.981   5.054
 5557SOL     OW17569   2.159   6.239   3.968
 5557SOL    HW117570   2.069   6.195   3.975
 5557SOL    HW217571   2.148   6.338   3.966
 5558SOL     OW17572   5.106   2.969   5.270
 5558SOL    HW117573   5.050   3.045   5.301
 5558SOL    HW217574   5.168   3.000   5.197
 5559SOL     OW17575   2.459   6.828   0.965
 5559SOL    HW117576   2.399   6.875   0.901
 5559SOL    HW217577   2.554   6.847   0.942
 5560SOL     OW17578   0.572   1.041   3.139
 5560SOL    HW117579   0.565   1.001   3.230
 5560SOL    HW217580   0.482   1.046   3.097
 5561SOL     OW17581   1.612   3.390   3.436
 5561SOL    HW117582   1.576   3.316   3.380
 5561SOL    HW217583   1.554   3.471   3.426
 5562SOL     OW17584   2.331   2.986   6.045
 5562SOL    HW117585   2.269   2.977   6.123
 5562SOL    HW217586   2.278   2.999   5.961
 5563SOL     OW17587   4.434   6.086   2.328
 5563SOL    HW117588   4.449   6.185   2.333
 5563SOL    HW217589   4.339   6.068   2.301
 5564SOL     OW17590   5.033   4.426   1.651
 5564SOL    HW117591   4.955   4.435   1.590
 5564SOL    HW217592   5.105   4.490   1.623
 5565SOL     OW17593   4.006   2.217   5.593
 5565SOL    HW117594   3.929   2.177   5.542
 5565SOL    HW217595   3.971   2.265   5.673
 5566SOL     OW17596   2.091   5.299   0.662
 5566SOL    HW117597   2.025   5.280   0.735
 5566SOL    HW217598   2.141   5.383   0.684
 5567SOL     OW17599   1.895   5.678   1.160
 5567SOL    HW117600   1.883   5.666   1.258
 5567SOL    HW217601   1.948   5.602   1.123
 5568SOL     OW17602   4.392   1.009   1.099
 5568SOL    HW117603   4.307   1.052   1.067
 5568SOL    HW217604   4.370   0.934   1.161
 5569SOL     OW17605   4.270   1.475   1.395
 5569SOL    HW117606   4.272   1.559   1.341
 5569SOL    HW217607   4.314   1.401   1.343
 5570SOL     OW17608   6.547   4.562   5.155
 5570SOL    HW117609   6.585   4.488   5.098
 5570SOL    HW217610   6.538   4.529   5.249
 5571SOL     OW17611   6.755   5.861   0.408
 5571SOL    HW117612   6.735   5.939   0.350
 5571SOL    HW217613   6.699   5.867   0.491
 5572SOL     OW17614   4.199   2.447   6.150
 5572SOL    HW117615   4.137   2.377   6.115
 5572SOL    HW217616   4.194   2.528   6.092
 5573SOL     OW17617   1.229   3.652   0.696
 5573SOL    HW117618   1.219   3.715   0.773
 5573SOL    HW217619   1.144   3.648   0.645
 5574SOL     OW17620   0.430   6.167   4.825
 5574SOL    HW117621   0.416   6.188   4.729
 5574SOL    HW217622   0.496   6.093   4.835
 5575SOL     OW17623   1.144   1.159   1.013
 5575SOL    HW117624   1.237   1.193   0.997
 5575SOL    HW217625   1.147   1.060   1.030
 5576SOL     OW17626   5.565   5.654   0.505
 5576SOL    HW117627   5.507   5.693   0.434
 5576SOL    HW217628   5.593   5.726   0.569
 5577SOL     OW17629   2.164   3.717   5.409
 5577SOL    HW117630   2.177   3.704   5.311
 5577SOL    HW217631   2.097   3.651   5.443
 5578SOL     OW17632   4.203   2.762   0.455
 5578SOL    HW117633   4.135   2.695   0.486
 5578SOL    HW217634   4.294   2.731   0.482
 5579SOL     OW17635   5.290   3.650   6.910
 5579SOL    HW117636   5.358   3.603   6.967
 5579SOL    HW217637   5.247   3.723   6.964
 5580SOL     OW17638   5.371   0.763   0.437
 5580SOL    HW117639   5.394   0.848   0.484
 5580SOL    HW217640   5.370   0.778   0.339
 5581SOL     OW17641   2.258   0.557   6.399
 5581SOL    HW117642   2.200   0.497   6.455
 5581SOL    HW217643   2.352   0.523   6.401
 5582SOL     OW17644   3.684   3.171   3.566
 5582SOL    HW117645   3.624   3.222   3.628
 5582SOL    HW217646   3.773   3.157   3.610
 5583SOL     OW17647   3.372   0.042   1.683
 5583SOL    HW117648   3.350   6.995   1.612
 5583SOL    HW217649   3.412   7.016   1.762
 5584SOL     OW17650   6.782   3.926   2.848
 5584SOL    HW117651   6.790   4.005   2.909
 5584SOL    HW217652   6.740   3.850   2.897
 5585SOL     OW17653   6.381   0.576   4.116
 5585SOL    HW117654   6.448   0.507   4.088
 5585SOL    HW217655   6.409   0.666   4.081
 5586SOL     OW17656   2.346   1.051   5.805
 5586SOL    HW117657   2.442   1.067   5.830
 5586SOL    HW217658   2.330   1.082   5.711
 5587SOL     OW17659   4.070   0.180   3.344
 5587SOL    HW117660   4.122   0.117   3.286
 5587SOL    HW217661   4.125   0.262   3.360
 5588SOL     OW17662   2.325   0.144   5.482
 5588SOL    HW117663   2.394   0.103   5.543
 5588SOL    HW217664   2.304   0.081   5.408
 5589SOL     OW17665   4.800   2.806   6.136
 5589SOL    HW117666   4.811   2.870   6.212
 5589SOL    HW217667   4.803   2.712   6.170
 5590SOL     OW17668   0.021   6.084   4.927
 5590SOL    HW117669   7.012   6.005   4.873
 5590SOL    HW217670   0.079   6.053   5.002
 5591SOL     OW17671   5.386   0.434   0.040
 5591SOL    HW117672   5.442   0.442   0.122
 5591SOL    HW217673   5.321   0.510   0.036
 5592SOL     OW17674   1.759   3.571   2.593
 5592SOL    HW117675   1.706   3.504   2.645
 5592SOL    HW217676   1.720   3.580   2.501
 5593SOL     OW17677   1.710   2.472   5.957
 5593SOL    HW117678   1.777   2.408   5.995
 5593SOL    HW217679   1.618   2.441   5.981
 5594SOL     OW17680   2.274   0.069   0.566
 5594SOL    HW117681   2.353   0.115   0.527
 5594SOL    HW217682   2.296   0.035   0.657
 5595SOL     OW17683   6.732   1.633   5.960
 5595SOL    HW117684   6.785   1.578   6.025
 5595SOL    HW217685   6.729   1.586   5.872
 5596SOL     OW17686   5.351   0.533   2.648
 5596SOL    HW117687   5.333   0.550   2.745
 5596SOL    HW217688   5.413   0.456   2.639
 5597SOL     OW17689   6.364   1.206   6.478
 5597SOL    HW117690   6.324   1.152   6.552
 5597SOL    HW217691   6.441   1.259   6.514
 5598SOL     OW17692   5.938   2.108   3.862
 5598SOL    HW117693   5.947   2.025   3.917
 5598SOL    HW217694   5.994   2.181   3.902
 5599SOL     OW17695   4.851   4.167   2.301
 5599SOL    HW117696   4.895   4.107   2.234
 5599SOL    HW217697   4.808   4.244   2.254
 5600SOL     OW17698   2.691   1.444   2.739
 5600SOL    HW117699   2.681   1.462   2.641
 5600SOL    HW217700   2.646   1.517   2.791
 5601SOL     OW17701   5.385   3.026   5.779
 5601SOL    HW117702   5.344   3.049   5.691
 5601SOL    HW217703   5.394   2.927   5.787
 5602SOL     OW17704   0.495   2.566   3.113
 5602SOL    HW117705   0.556   2.575   3.192
 5602SOL    HW217706   0.405   2.602   3.137
 5603SOL     OW17707   4.084   2.223   4.387
 5603SOL    HW117708   4.134   2.302   4.423
 5603SOL    HW217709   4.141   2.141   4.395
 5604SOL     OW17710   0.399   0.125   3.518
 5604SOL    HW117711   0.493   0.106   3.489
 5604SOL    HW217712   0.395   0.212   3.567
 5605SOL     OW17713   2.591   5.858   4.595
 5605SOL    HW117714   2.492   5.866   4.602
 5605SOL    HW217715   2.626   5.806   4.674
 5606SOL     OW17716   4.649   2.136   0.513
 5606SOL    HW117717   4.689   2.059   0.464
 5606SOL    HW217718   4.664   2.220   0.460
 5607SOL     OW17719   5.941   2.670   2.191
 5607SOL    HW117720   6.023   2.625   2.224
 5607SOL    HW217721   5.906   2.621   2.111
 5608SOL     OW17722   4.398   1.093   3.715
 5608SOL    HW117723   4.381   1.185   3.681
 5608SOL    HW217724   4.496   1.078   3.726
 5609SOL     OW17725   6.333   6.743   0.900
 5609SOL    HW117726   6.359   6.667   0.959
 5609SOL    HW217727   6.237   6.733   0.873
 5610SOL     OW17728   5.133   4.508   0.076
 5610SOL    HW117729   5.106   4.519   7.001
 5610SOL    HW217730   5.219   4.456   0.080
 5611SOL     OW17731   6.991   5.260   1.779
 5611SOL    HW117732   7.010   5.241   1.876
 5611SOL    HW217733   6.976   5.358   1.767
 5612SOL     OW17734   2.746   0.746   0.906
 5612SOL    HW117735   2.697   0.664   0.936
 5612SOL    HW217736   2.845   0.728   0.910
 5613SOL     OW17737   6.605   5.289   5.130
 5613SOL    HW117738   6.585   5.316   5.224
 5613SOL    HW217739   6.682   5.225   5.130
 5614SOL     OW17740   5.742   2.341   4.412
 5614SOL    HW117741   5.813   2.316   4.347
 5614SOL    HW217742   5.671   2.271   4.413
 5615SOL     OW17743   6.842   3.093   2.835
 5615SOL    HW117744   6.808   3.063   2.925
 5615SOL    HW217745   6.941   3.077   2.830
 5616SOL     OW17746   1.547   3.181   3.219
 5616SOL    HW117747   1.629   3.224   3.180
 5616SOL    HW217748   1.521   3.103   3.162
 5617SOL     OW17749   2.026   5.021   6.512
 5617SOL    HW117750   2.112   4.989   6.550
 5617SOL    HW217751   1.966   5.051   6.586
 5618SOL     OW17752   6.454   5.941   3.880
 5618SOL    HW117753   6.534   5.949   3.939
 5618SOL    HW217754   6.372   5.926   3.935
 5619SOL     OW17755   3.630   3.276   4.750
 5619SOL    HW117756   3.563   3.287   4.677
 5619SOL    HW217757   3.623   3.353   4.814
 5620SOL     OW17758   4.808   4.416   5.687
 5620SOL    HW117759   4.718   4.418   5.642
 5620SOL    HW217760   4.824   4.325   5.724
 5621SOL     OW17761   2.034   2.498   5.163
 5621SOL    HW117762   1.993   2.589   5.161
 5621SOL    HW217763   1.998   2.446   5.240
 5622SOL     OW17764   4.913   5.507   4.580
 5622SOL    HW117765   4.974   5.565   4.634
 5622SOL    HW217766   4.924   5.529   4.483
 5623SOL     OW17767   5.214   6.156   4.220
 5623SOL    HW117768   5.182   6.245   4.252
 5623SOL    HW217769   5.166   6.084   4.268
 5624SOL     OW17770   6.940   5.050   4.442
 5624SOL    HW117771   6.948   5.076   4.538
 5624SOL    HW217772   6.848   5.015   4.424
 5625SOL     OW17773   0.919   5.634   4.790
 5625SOL    HW117774   0.939   5.537   4.796
 5625SOL    HW217775   0.938   5.678   4.877
 5626SOL     OW17776   1.924   3.960   4.392
 5626SOL    HW117777   1.873   3.887   4.438
 5626SOL    HW217778   1.943   4.034   4.457
 5627SOL     OW17779   1.007   5.246   6.954
 5627SOL    HW117780   0.954   5.265   0.017
 5627SOL    HW217781   1.096   5.207   6.980
 5628SOL     OW17782   2.402   3.221   1.047
 5628SOL    HW117783   2.404   3.133   1.093
 5628SOL    HW217784   2.310   3.261   1.056
 5629SOL     OW17785   5.059   4.009   1.400
 5629SOL    HW117786   5.041   3.917   1.433
 5629SOL    HW217787   5.133   4.050   1.452
 5630SOL     OW17788   2.253   3.814   6.667
 5630SOL    HW117789   2.186   3.760   6.617
 5630SOL    HW217790   2.209   3.862   6.743
 5631SOL     OW17791   4.065   0.730   2.049
 5631SOL    HW117792   4.021   0.640   2.059
 5631SOL    HW217793   4.152   0.719   2.001
 5632SOL     OW17794   5.811   6.981   5.646
 5632SOL    HW117795   5.880   0.011   5.595
 5632SOL    HW217796   5.725   0.011   5.646
 5633SOL     OW17797   0.019   4.814   5.727
 5633SOL    HW117798   6.973   4.757   5.775
 5633SOL    HW217799   0.096   4.835   5.789
 5634SOL     OW17800   3.226   6.351   6.658
 5634SOL    HW117801   3.226   6.446   6.690
 5634SOL    HW217802   3.134   6.314   6.662
 5635SOL     OW17803   2.521   6.956   6.626
 5635SOL    HW117804   2.558   6.968   6.718
 5635SOL    HW217805   2.446   7.020   6.611
 5636SOL     OW17806   6.528   1.310   5.837
 5636SOL    HW117807   6.520   1.374   5.761
 5636SOL    HW217808   6.625   1.291   5.855
 5637SOL     OW17809   5.228   6.624   4.427
 5637SOL    HW117810   5.190   6.533   4.414
 5637SOL    HW217811   5.235   6.644   4.525
 5638SOL     OW17812   5.113   5.257   0.896
 5638SOL    HW117813   5.076   5.344   0.863
 5638SOL    HW217814   5.212   5.267   0.913
 5639SOL     OW17815   0.688   0.359   1.447
 5639SOL    HW117816   0.743   0.279   1.423
 5639SOL    HW217817   0.594   0.330   1.467
 5640SOL     OW17818   3.068   5.847   3.585
 5640SOL    HW117819   3.063   5.788   3.666
 5640SOL    HW217820   3.009   5.927   3.598
 5641SOL     OW17821   0.953   5.031   4.204
 5641SOL    HW117822   1.010   4.958   4.166
 5641SOL    HW217823   0.993   5.064   4.289
 5642SOL     OW17824   1.586   4.509   0.200
 5642SOL    HW117825   1.544   4.546   0.118
 5642SOL    HW217826   1.612   4.585   0.261
 5643SOL     OW17827   4.263   2.396   4.539
 5643SOL    HW117828   4.279   2.399   4.637
 5643SOL    HW217829   4.328   2.456   4.493
 5644SOL     OW17830   4.995   1.527   5.281
 5644SOL    HW117831   5.048   1.605   5.249
 5644SOL    HW217832   4.968   1.542   5.376
 5645SOL     OW17833   5.724   5.625   3.329
 5645SOL    HW117834   5.641   5.594   3.283
 5645SOL    HW217835   5.741   5.721   3.305
 5646SOL     OW17836   0.035   6.119   3.789
 5646SOL    HW117837   0.123   6.141   3.830
 5646SOL    HW217838   0.034   6.024   3.759
 5647SOL     OW17839   5.806   5.884   6.975
 5647SOL    HW117840   5.771   5.919   6.888
 5647SOL    HW217841   5.743   5.817   7.013
 5648SOL     OW17842   1.697   1.643   3.522
 5648SOL    HW117843   1.707   1.567   3.587
 5648SOL    HW217844   1.754   1.719   3.551
 5649SOL     OW17845   1.052   0.709   4.510
 5649SOL    HW117846   1.107   0.626   4.523
 5649SOL    HW217847   0.956   0.683   4.496
 5650SOL     OW17848   6.687   4.833   6.616
 5650SOL    HW117849   6.618   4.858   6.685
 5650SOL    HW217850   6.662   4.872   6.528
 5651SOL     OW17851   0.189   1.638   2.035
 5651SOL    HW117852   0.162   1.589   2.118
 5651SOL    HW217853   0.127   1.715   2.020
 5652SOL     OW17854   4.781   5.661   1.859
 5652SOL    HW117855   4.740   5.729   1.920
 5652SOL    HW217856   4.750   5.570   1.885
 5653SOL     OW17857   0.241   5.327   5.374
 5653SOL    HW117858   0.282   5.284   5.294
 5653SOL    HW217859   0.147   5.354   5.352
 5654SOL     OW17860   0.100   0.467   5.322
 5654SOL    HW117861   0.163   0.469   5.244
 5654SOL    HW217862   0.065   0.560   5.338
 5655SOL     OW17863   1.023   3.627   3.829
 5655SOL    HW117864   1.101   3.611   3.889
 5655SOL    HW217865   0.939   3.633   3.883
 5656SOL     OW17866   3.264   3.145   0.844
 5656SOL    HW117867   3.220   3.179   0.927
 5656SOL    HW217868   3.355   3.186   0.835
 5657SOL     OW17869   4.073   0.182   1.938
 5657SOL    HW117870   4.053   0.170   1.841
 5657SOL    HW217871   3.987   0.176   1.990
 5658SOL     OW17872   3.636   6.926   5.654
 5658SOL    HW117873   3.562   6.950   5.590
 5658SOL    HW217874   3.604   6.853   5.714
 5659SOL     OW17875   2.959   3.825   2.959
 5659SOL    HW117876   2.928   3.762   3.031
 5659SOL    HW217877   2.952   3.781   2.870
 5660SOL     OW17878   4.837   0.448   6.955
 5660SOL    HW117879   4.784   0.464   6.871
 5660SOL    HW217880   4.883   0.532   6.982
 5661SOL     OW17881   0.232   5.974   5.068
 5661SOL    HW117882   0.291   6.050   5.039
 5661SOL    HW217883   0.263   5.890   5.023
 5662SOL     OW17884   2.439   4.450   3.704
 5662SOL    HW117885   2.405   4.436   3.611
 5662SOL    HW217886   2.515   4.515   3.703
 5663SOL     OW17887   0.949   3.936   0.827
 5663SOL    HW117888   1.039   3.897   0.850
 5663SOL    HW217889   0.885   3.861   0.810
 5664SOL     OW17890   0.216   4.698   2.348
 5664SOL    HW117891   0.177   4.686   2.440
 5664SOL    HW217892   0.294   4.760   2.354
 5665SOL     OW17893   2.106   2.553   6.433
 5665SOL    HW117894   2.193   2.584   6.470
 5665SOL    HW217895   2.053   2.508   6.505
 5666SOL     OW17896   4.599   5.744   0.452
 5666SOL    HW117897   4.568   5.731   0.359
 5666SOL    HW217898   4.521   5.748   0.514
 5667SOL     OW17899   6.941   4.821   2.814
 5667SOL    HW117900   6.985   4.776   2.891
 5667SOL    HW217901   6.996   4.899   2.786
 5668SOL     OW17902   4.471   2.081   6.101
 5668SOL    HW117903   4.484   1.984   6.120
 5668SOL    HW217904   4.378   2.108   6.123
 5669SOL     OW17905   0.532   4.965   5.920
 5669SOL    HW117906   0.497   4.915   5.999
 5669SOL    HW217907   0.456   5.007   5.870
 5670SOL     OW17908   0.307   3.429   4.062
 5670SOL    HW117909   0.294   3.456   3.967
 5670SOL    HW217910   0.391   3.377   4.071
 5671SOL     OW17911   2.102   6.984   6.363
 5671SOL    HW117912   2.042   0.042   6.379
 5671SOL    HW217913   2.054   6.900   6.389
 5672SOL     OW17914   5.160   3.763   5.891
 5672SOL    HW117915   5.094   3.810   5.833
 5672SOL    HW217916   5.194   3.826   5.961
 5673SOL     OW17917   0.371   0.464   2.459
 5673SOL    HW117918   0.316   0.464   2.376
 5673SOL    HW217919   0.464   0.495   2.438
 5674SOL     OW17920   6.901   3.481   1.664
 5674SOL    HW117921   6.822   3.426   1.638
 5674SOL    HW217922   6.870   3.568   1.703
 5675SOL     OW17923   4.533   2.481   5.385
 5675SOL    HW117924   4.460   2.519   5.441
 5675SOL    HW217925   4.569   2.398   5.428
 5676SOL     OW17926   1.688   0.384   1.417
 5676SOL    HW117927   1.676   0.357   1.513
 5676SOL    HW217928   1.602   0.367   1.367
 5677SOL     OW17929   6.313   1.540   3.523
 5677SOL    HW117930   6.243   1.502   3.462
 5677SOL    HW217931   6.332   1.474   3.596
 5678SOL     OW17932   4.064   6.462   2.862
 5678SOL    HW117933   4.029   6.506   2.779
 5678SOL    HW217934   4.091   6.533   2.927
 5679SOL     OW17935   1.634   6.747   5.071
 5679SOL    HW117936   1.635   6.668   5.009
 5679SOL    HW217937   1.723   6.792   5.068
 5680SOL     OW17938   1.237   5.383   6.391
 5680SOL    HW117939   1.195   5.344   6.309
 5680SOL    HW217940   1.334   5.401   6.373
 5681SOL     OW17941   1.120   2.220   6.349
 5681SOL    HW117942   1.215   2.190   6.344
 5681SOL    HW217943   1.074   2.174   6.424
 5682SOL     OW17944   1.402   2.347   5.949
 5682SOL    HW117945   1.400   2.421   5.882
 5682SOL    HW217946   1.360   2.377   6.034
 5683SOL     OW17947   3.683   2.857   6.295
 5683SOL    HW117948   3.613   2.890   6.232
 5683SOL    HW217949   3.774   2.871   6.255
 5684SOL     OW17950   3.820   3.584   4.301
 5684SOL    HW117951   3.774   3.651   4.244
 5684SOL    HW217952   3.761   3.559   4.378
 5685SOL     OW17953   0.618   5.048   2.524
 5685SOL    HW117954   0.530   5.094   2.509
 5685SOL    HW217955   0.616   5.000   2.611
 5686SOL     OW17956   3.872   0.266   0.871
 5686SOL    HW117957   3.857   0.355   0.828
 5686SOL    HW217958   3.887   0.278   0.969
 5687SOL     OW17959   6.104   4.588   5.037
 5687SOL    HW117960   6.158   4.554   4.961
 5687SOL    HW217961   6.046   4.663   5.006
 5688SOL     OW17962   5.603   2.516   1.706
 5688SOL    HW117963   5.670   2.447   1.678
 5688SOL    HW217964   5.528   2.519   1.640
 5689SOL     OW17965   4.905   1.353   0.771
 5689SOL    HW117966   4.917   1.422   0.700
 5689SOL    HW217967   4.808   1.343   0.793
 5690SOL     OW17968   4.349   6.074   0.248
 5690SOL    HW117969   4.351   6.160   0.196
 5690SOL    HW217970   4.434   6.066   0.301
 5691SOL     OW17971   2.749   6.536   2.175
 5691SOL    HW117972   2.718   6.482   2.097
 5691SOL    HW217973   2.805   6.479   2.235
 5692SOL     OW17974   6.533   1.834   5.681
 5692SOL    HW117975   6.620   1.812   5.726
 5692SOL    HW217976   6.522   1.933   5.678
 5693SOL     OW17977   5.119   2.765   2.427
 5693SOL    HW117978   5.196   2.788   2.487
 5693SOL    HW217979   5.139   2.794   2.333
 5694SOL     OW17980   0.302   1.204   3.616
 5694SOL    HW117981   0.330   1.297   3.639
 5694SOL    HW217982   0.337   1.140   3.685
 5695SOL     OW17983   1.020   2.408   3.730
 5695SOL    HW117984   1.065   2.401   3.819
 5695SOL    HW217985   1.072   2.356   3.663
 5696SOL     OW17986   2.494   1.641   5.064
 5696SOL    HW117987   2.426   1.653   5.136
 5696SOL    HW217988   2.542   1.727   5.047
 5697SOL     OW17989   6.968   2.329   0.720
 5697SOL    HW117990   6.988   2.273   0.639
 5697SOL    HW217991   0.023   2.392   0.736
 5698SOL     OW17992   0.812   2.755   1.945
 5698SOL    HW117993   0.909   2.733   1.933
 5698SOL    HW217994   0.777   2.711   2.028
 5699SOL     OW17995   6.194   0.921   4.151
 5699SOL    HW117996   6.283   0.965   4.161
 5699SOL    HW217997   6.148   0.956   4.069
 5700SOL     OW17998   1.441   6.354   5.029
 5700SOL    HW117999   1.498   6.274   5.010
 5700SOL    HW218000   1.437   6.370   5.128
 5701SOL     OW18001   0.372   6.215   2.464
 5701SOL    HW118002   0.286   6.254   2.495
 5701SOL    HW218003   0.384   6.123   2.503
 5702SOL     OW18004   1.670   6.891   5.604
 5702SOL    HW118005   1.748   6.936   5.648
 5702SOL    HW218006   1.637   6.818   5.664
 5703SOL     OW18007   4.375   4.970   6.658
 5703SOL    HW118008   4.287   4.927   6.678
 5703SOL    HW218009   4.363   5.042   6.590
 5704SOL     OW18010   4.634   5.407   3.268
 5704SOL    HW118011   4.651   5.379   3.174
 5704SOL    HW218012   4.694   5.484   3.292
 5705SOL     OW18013   5.748   0.354   1.085
 5705SOL    HW118014   5.740   0.262   1.123
 5705SOL    HW218015   5.844   0.376   1.069
 5706SOL     OW18016   1.908   1.596   0.735
 5706SOL    HW118017   1.947   1.680   0.696
 5706SOL    HW218018   1.814   1.586   0.705
 5707SOL     OW18019   1.620   0.320   6.575
 5707SOL    HW118020   1.694   0.342   6.637
 5707SOL    HW218021   1.654   0.260   6.502
 5708SOL     OW18022   5.083   6.841   2.455
 5708SOL    HW118023   5.052   6.776   2.524
 5708SOL    HW218024   5.009   6.905   2.434
 5709SOL     OW18025   0.778   6.724   3.416
 5709SOL    HW118026   0.772   6.726   3.316
 5709SOL    HW218027   0.686   6.732   3.455
 5710SOL     OW18028   3.072   3.446   5.894
 5710SOL    HW118029   3.072   3.364   5.952
 5710SOL    HW218030   3.018   3.428   5.812
 5711SOL     OW18031   4.664   1.048   3.734
 5711SOL    HW118032   4.762   1.067   3.740
 5711SOL    HW218033   4.648   0.951   3.749
 5712SOL     OW18034   6.675   0.169   5.407
 5712SOL    HW118035   6.743   0.097   5.422
 5712SOL    HW218036   6.704   0.227   5.331
 5713SOL     OW18037   0.560   2.344   1.838
 5713SOL    HW118038   0.482   2.313   1.785
 5713SOL    HW218039   0.569   2.444   1.830
 5714SOL     OW18040   1.519   0.001   6.918
 5714SOL    HW118041   1.516   0.006   6.819
 5714SOL    HW218042   1.453   6.953   6.950
 5715SOL     OW18043   1.358   6.404   2.603
 5715SOL    HW118044   1.270   6.370   2.638
 5715SOL    HW218045   1.422   6.328   2.596
 5716SOL     OW18046   1.678   3.478   5.700
 5716SOL    HW118047   1.739   3.404   5.725
 5716SOL    HW218048   1.728   3.564   5.698
 5717SOL     OW18049   0.929   4.504   1.209
 5717SOL    HW118050   0.900   4.453   1.290
 5717SOL    HW218051   0.910   4.449   1.127
 5718SOL     OW18052   1.557   4.596   6.712
 5718SOL    HW118053   1.570   4.681   6.661
 5718SOL    HW218054   1.473   4.552   6.683
 5719SOL     OW18055   3.681   1.070   6.207
 5719SOL    HW118056   3.742   1.055   6.130
 5719SOL    HW218057   3.618   0.992   6.216
 5720SOL     OW18058   0.568   5.141   4.862
 5720SOL    HW118059   0.646   5.159   4.801
 5720SOL    HW218060   0.577   5.049   4.900
 5721SOL     OW18061   0.790   3.036   0.053
 5721SOL    HW118062   0.697   3.019   0.088
 5721SOL    HW218063   0.857   2.998   0.117
 5722SOL     OW18064   5.282   1.002   5.260
 5722SOL    HW118065   5.299   1.049   5.346
 5722SOL    HW218066   5.198   0.947   5.268
 5723SOL     OW18067   3.776   5.422   0.338
 5723SOL    HW118068   3.835   5.344   0.359
 5723SOL    HW218069   3.681   5.391   0.329
 5724SOL     OW18070   4.858   2.027   6.417
 5724SOL    HW118071   4.761   2.049   6.415
 5724SOL    HW218072   4.880   1.979   6.501
 5725SOL     OW18073   5.180   5.437   4.159
 5725SOL    HW118074   5.182   5.371   4.234
 5725SOL    HW218075   5.247   5.410   4.089
 5726SOL     OW18076   6.129   3.544   5.164
 5726SOL    HW118077   6.146   3.559   5.262
 5726SOL    HW218078   6.069   3.465   5.153
 5727SOL     OW18079   5.984   2.371   3.053
 5727SOL    HW118080   6.021   2.443   3.111
 5727SOL    HW218081   5.885   2.366   3.065
 5728SOL     OW18082   6.189   1.011   5.847
 5728SOL    HW118083   6.280   1.006   5.807
 5728SOL    HW218084   6.150   0.920   5.853
 5729SOL     OW18085   0.077   1.899   6.974
 5729SOL    HW118086   0.144   1.878   6.903
 5729SOL    HW218087   7.013   1.933   6.931
 5730SOL     OW18088   3.805   5.949   4.812
 5730SOL    HW118089   3.852   5.861   4.815
 5730SOL    HW218090   3.843   6.005   4.738
 5731SOL     OW18091   1.715   6.810   4.124
 5731SOL    HW118092   1.807   6.794   4.159
 5731SOL    HW218093   1.648   6.783   4.193
 5732SOL     OW18094   6.141   4.881   4.332
 5732SOL    HW118095   6.046   4.905   4.352
 5732SOL    HW218096   6.150   4.855   4.236
 5733SOL     OW18097   3.418   0.698   0.035
 5733SOL    HW118098   3.467   0.782   0.059
 5733SOL    HW218099   3.449   0.666   6.966
 5734SOL     OW18100   1.469   6.909   5.369
 5734SOL    HW118101   1.535   6.965   5.320
 5734SOL    HW218102   1.504   6.890   5.461
 5735SOL     OW18103   3.700   0.732   2.671
 5735SOL    HW118104   3.681   0.723   2.769
 5735SOL    HW218105   3.796   0.756   2.658
 5736SOL     OW18106   5.056   4.667   6.158
 5736SOL    HW118107   5.020   4.713   6.239
 5736SOL    HW218108   5.094   4.735   6.095
 5737SOL     OW18109   5.403   6.147   1.214
 5737SOL    HW118110   5.423   6.158   1.117
 5737SOL    HW218111   5.478   6.188   1.267
 5738SOL     OW18112   3.581   1.401   6.651
 5738SOL    HW118113   3.613   1.487   6.689
 5738SOL    HW218114   3.639   1.374   6.574
 5739SOL     OW18115   1.863   6.920   5.936
 5739SOL    HW118116   1.777   6.870   5.926
 5739SOL    HW218117   1.881   6.973   5.853
 5740SOL     OW18118   5.037   3.362   0.834
 5740SOL    HW118119   5.069   3.456   0.823
 5740SOL    HW218120   4.937   3.361   0.835
 5741SOL     OW18121   0.672   4.014   4.309
 5741SOL    HW118122   0.611   4.075   4.258
 5741SOL    HW218123   0.619   3.943   4.354
 5742SOL     OW18124   3.894   6.801   3.894
 5742SOL    HW118125   3.919   6.896   3.914
 5742SOL    HW218126   3.937   6.774   3.807
 5743SOL     OW18127   3.865   4.477   5.907
 5743SOL    HW118128   3.959   4.452   5.882
 5743SOL    HW218129   3.801   4.421   5.855
 5744SOL     OW18130   6.052   0.511   3.213
 5744SOL    HW118131   6.068   0.444   3.141
 5744SOL    HW218132   6.121   0.584   3.207
 5745SOL     OW18133   2.479   2.599   3.736
 5745SOL    HW118134   2.496   2.694   3.711
 5745SOL    HW218135   2.540   2.539   3.685
 5746SOL     OW18136   3.830   0.088   3.359
 5746SOL    HW118137   3.913   0.144   3.364
 5746SOL    HW218138   3.752   0.143   3.387
 5747SOL     OW18139   1.065   5.907   1.836
 5747SOL    HW118140   0.997   5.971   1.874
 5747SOL    HW218141   1.116   5.951   1.762
 5748SOL     OW18142   0.499   6.304   0.290
 5748SOL    HW118143   0.534   6.319   0.383
 5748SOL    HW218144   0.506   6.208   0.266
 5749SOL     OW18145   1.876   6.885   5.059
 5749SOL    HW118146   1.896   6.946   5.136
 5749SOL    HW218147   1.953   6.885   4.995
 5750SOL     OW18148   6.652   4.160   4.571
 5750SOL    HW118149   6.618   4.069   4.546
 5750SOL    HW218150   6.615   4.228   4.507
 5751SOL     OW18151   2.162   3.838   4.361
 5751SOL    HW118152   2.151   3.752   4.412
 5751SOL    HW218153   2.078   3.892   4.368
 5752SOL     OW18154   5.356   0.128   0.991
 5752SOL    HW118155   5.382   0.053   1.053
 5752SOL    HW218156   5.275   0.173   1.025
 5753SOL     OW18157   2.795   3.822   5.149
 5753SOL    HW118158   2.887   3.858   5.164
 5753SOL    HW218159   2.772   3.828   5.052
 5754SOL     OW18160   1.409   6.486   1.702
 5754SOL    HW118161   1.450   6.523   1.785
 5754SOL    HW218162   1.428   6.388   1.695
 5755SOL     OW18163   2.121   2.031   0.010
 5755SOL    HW118164   2.205   1.980   0.030
 5755SOL    HW218165   2.044   1.968   0.008
 5756SOL     OW18166   6.584   0.135   2.161
 5756SOL    HW118167   6.608   0.226   2.126
 5756SOL    HW218168   6.504   0.142   2.221
 5757SOL     OW18169   6.788   5.808   3.864
 5757SOL    HW118170   6.774   5.897   3.906
 5757SOL    HW218171   6.798   5.738   3.935
 5758SOL     OW18172   1.924   7.012   3.129
 5758SOL    HW118173   1.899   0.084   3.156
 5758SOL    HW218174   1.878   6.946   3.189
 5759SOL     OW18175   4.575   6.681   1.636
 5759SOL    HW118176   4.565   6.641   1.545
 5759SOL    HW218177   4.485   6.708   1.670
 5760SOL     OW18178   6.704   3.496   2.026
 5760SOL    HW118179   6.641   3.556   2.074
 5760SOL    HW218180   6.749   3.547   1.952
 5761SOL     OW18181   5.120   5.719   4.897
 5761SOL    HW118182   5.066   5.791   4.940
 5761SOL    HW218183   5.079   5.630   4.918
 5762SOL     OW18184   5.358   4.148   0.798
 5762SOL    HW118185   5.426   4.222   0.799
 5762SOL    HW218186   5.280   4.175   0.742
 5763SOL     OW18187   4.966   6.818   0.192
 5763SOL    HW118188   5.057   6.799   0.156
 5763SOL    HW218189   4.958   6.781   0.285
 5764SOL     OW18190   4.127   5.304   3.307
 5764SOL    HW118191   4.048   5.291   3.248
 5764SOL    HW218192   4.211   5.302   3.253
 5765SOL     OW18193   6.411   4.435   0.560
 5765SOL    HW118194   6.416   4.530   0.530
 5765SOL    HW218195   6.402   4.375   0.481
 5766SOL     OW18196   1.293   1.776   4.743
 5766SOL    HW118197   1.204   1.731   4.736
 5766SOL    HW218198   1.303   1.840   4.667
 5767SOL     OW18199   2.110   0.293   0.543
 5767SOL    HW118200   2.099   0.331   0.635
 5767SOL    HW218201   2.153   0.203   0.549
 5768SOL     OW18202   6.979   0.160   3.528
 5768SOL    HW118203   7.008   0.148   3.623
 5768SOL    HW218204   6.981   0.071   3.481
 5769SOL     OW18205   2.283   5.195   6.368
 5769SOL    HW118206   2.205   5.254   6.388
 5769SOL    HW218207   2.267   5.147   6.281
 5770SOL     OW18208   1.065   6.208   0.020
 5770SOL    HW118209   1.134   6.263   6.992
 5770SOL    HW218210   1.003   6.268   0.069
 5771SOL     OW18211   2.209   6.671   3.628
 5771SOL    HW118212   2.169   6.712   3.546
 5771SOL    HW218213   2.262   6.740   3.677
 5772SOL     OW18214   4.328   1.076   1.812
 5772SOL    HW118215   4.236   1.061   1.778
 5772SOL    HW218216   4.382   0.993   1.800
 5773SOL     OW18217   4.371   1.674   2.241
 5773SOL    HW118218   4.357   1.625   2.154
 5773SOL    HW218219   4.440   1.745   2.228
 5774SOL     OW18220   2.069   0.549   5.321
 5774SOL    HW118221   2.151   0.587   5.280
 5774SOL    HW218222   2.075   0.449   5.322
 5775SOL     OW18223   0.895   6.423   2.609
 5775SOL    HW118224   0.936   6.492   2.669
 5775SOL    HW218225   0.844   6.468   2.536
 5776SOL     OW18226   1.251   0.393   3.349
 5776SOL    HW118227   1.339   0.387   3.301
 5776SOL    HW218228   1.180   0.422   3.285
 5777SOL     OW18229   1.336   0.512   3.697
 5777SOL    HW118230   1.395   0.553   3.628
 5777SOL    HW218231   1.263   0.577   3.721
 5778SOL     OW18232   1.050   0.960   0.757
 5778SOL    HW118233   0.989   1.020   0.809
 5778SOL    HW218234   1.026   0.864   0.774
 5779SOL     OW18235   4.941   2.845   6.589
 5779SOL    HW118236   5.031   2.865   6.627
 5779SOL    HW218237   4.938   2.749   6.560
 5780SOL     OW18238   5.820   5.779   4.806
 5780SOL    HW118239   5.728   5.815   4.789
 5780SOL    HW218240   5.848   5.802   4.900
 5781SOL     OW18241   6.453   4.997   5.235
 5781SOL    HW118242   6.482   5.086   5.270
 5781SOL    HW218243   6.534   4.944   5.209
 5782SOL     OW18244   1.184   1.419   0.594
 5782SOL    HW118245   1.172   1.351   0.667
 5782SOL    HW218246   1.125   1.498   0.612
 5783SOL     OW18247   1.183   1.021   2.218
 5783SOL    HW118248   1.253   1.069   2.272
 5783SOL    HW218249   1.227   0.955   2.158
 5784SOL     OW18250   0.533   6.078   6.615
 5784SOL    HW118251   0.589   6.062   6.696
 5784SOL    HW218252   0.438   6.054   6.635
 5785SOL     OW18253   2.466   1.564   0.288
 5785SOL    HW118254   2.458   1.663   0.299
 5785SOL    HW218255   2.394   1.519   0.340
 5786SOL     OW18256   6.360   4.224   0.391
 5786SOL    HW118257   6.410   4.148   0.433
 5786SOL    HW218258   6.288   4.188   0.332
 5787SOL     OW18259   2.098   1.686   5.829
 5787SOL    HW118260   2.106   1.695   5.730
 5787SOL    HW218261   2.156   1.754   5.874
 5788SOL     OW18262   2.768   1.401   2.998
 5788SOL    HW118263   2.728   1.398   2.907
 5788SOL    HW218264   2.732   1.325   3.052
 5789SOL     OW18265   3.473   5.347   6.436
 5789SOL    HW118266   3.569   5.354   6.464
 5789SOL    HW218267   3.453   5.418   6.369
 5790SOL     OW18268   1.003   3.672   4.442
 5790SOL    HW118269   1.011   3.667   4.542
 5790SOL    HW218270   0.971   3.763   4.416
 5791SOL     OW18271   3.827   0.084   2.112
 5791SOL    HW118272   3.772   0.105   2.031
 5791SOL    HW218273   3.776   0.108   2.195
 5792SOL     OW18274   0.109   2.428   2.980
 5792SOL    HW118275   0.123   2.485   2.900
 5792SOL    HW218276   0.196   2.411   3.025
 5793SOL     OW18277   5.337   1.477   3.121
 5793SOL    HW118278   5.334   1.500   3.218
 5793SOL    HW218279   5.248   1.494   3.079
 5794SOL     OW18280   3.690   2.086   0.751
 5794SOL    HW118281   3.749   2.160   0.720
 5794SOL    HW218282   3.648   2.041   0.672
 5795SOL     OW18283   6.027   5.687   5.539
 5795SOL    HW118284   6.022   5.619   5.612
 5795SOL    HW218285   6.079   5.650   5.462
 5796SOL     OW18286   3.974   1.096   0.005
 5796SOL    HW118287   4.008   1.003   0.014
 5796SOL    HW218288   3.928   1.123   0.090
 5797SOL     OW18289   4.004   1.789   4.765
 5797SOL    HW118290   4.095   1.754   4.744
 5797SOL    HW218291   3.959   1.819   4.681
 5798SOL     OW18292   0.864   4.298   5.680
 5798SOL    HW118293   0.927   4.326   5.753
 5798SOL    HW218294   0.878   4.202   5.659
 5799SOL     OW18295   5.318   1.288   3.673
 5799SOL    HW118296   5.284   1.353   3.741
 5799SOL    HW218297   5.270   1.302   3.586
 5800SOL     OW18298   5.371   6.254   0.838
 5800SOL    HW118299   5.408   6.187   0.902
 5800SOL    HW218300   5.354   6.210   0.749
 5801SOL     OW18301   1.103   2.483   4.615
 5801SOL    HW118302   1.200   2.463   4.599
 5801SOL    HW218303   1.068   2.541   4.541
 5802SOL     OW18304   0.904   4.613   0.445
 5802SOL    HW118305   0.825   4.595   0.503
 5802SOL    HW218306   0.986   4.617   0.502
 5803SOL     OW18307   1.110   4.350   2.072
 5803SOL    HW118308   1.077   4.258   2.091
 5803SOL    HW218309   1.114   4.403   2.157
 5804SOL     OW18310   6.434   4.247   3.516
 5804SOL    HW118311   6.454   4.334   3.562
 5804SOL    HW218312   6.490   4.175   3.556
 5805SOL     OW18313   3.581   4.663   6.951
 5805SOL    HW118314   3.575   4.691   0.026
 5805SOL    HW218315   3.537   4.574   6.940
 5806SOL     OW18316   0.175   6.562   6.406
 5806SOL    HW118317   0.219   6.473   6.398
 5806SOL    HW218318   0.211   6.611   6.485
 5807SOL     OW18319   1.663   4.074   1.630
 5807SOL    HW118320   1.719   4.146   1.589
 5807SOL    HW218321   1.582   4.115   1.672
 5808SOL     OW18322   6.033   4.129   2.993
 5808SOL    HW118323   6.034   4.159   3.088
 5808SOL    HW218324   6.004   4.033   2.989
 5809SOL     OW18325   0.185   2.389   5.234
 5809SOL    HW118326   0.271   2.427   5.198
 5809SOL    HW218327   0.108   2.429   5.184
 5810SOL     OW18328   3.154   0.918   3.876
 5810SOL    HW118329   3.251   0.912   3.851
 5810SOL    HW218330   3.098   0.902   3.795
 5811SOL     OW18331   3.036   6.869   4.793
 5811SOL    HW118332   3.118   6.926   4.793
 5811SOL    HW218333   3.062   6.774   4.809
 5812SOL     OW18334   5.571   0.579   4.047
 5812SOL    HW118335   5.582   0.582   4.146
 5812SOL    HW218336   5.474   0.576   4.024
 5813SOL     OW18337   1.364   0.920   0.310
 5813SOL    HW118338   1.355   0.951   0.404
 5813SOL    HW218339   1.356   0.998   0.248
 5814SOL     OW18340   5.926   4.549   0.854
 5814SOL    HW118341   5.925   4.594   0.943
 5814SOL    HW218342   6.000   4.586   0.798
 5815SOL     OW18343   4.413   2.460   4.054
 5815SOL    HW118344   4.408   2.417   4.144
 5815SOL    HW218345   4.330   2.440   4.002
 5816SOL     OW18346   4.692   5.817   0.043
 5816SOL    HW118347   4.625   5.825   0.118
 5816SOL    HW218348   4.712   5.908   0.007
 5817SOL     OW18349   5.275   3.061   5.533
 5817SOL    HW118350   5.226   2.998   5.473
 5817SOL    HW218351   5.265   3.155   5.498
 5818SOL     OW18352   6.827   6.470   5.164
 5818SOL    HW118353   6.857   6.563   5.140
 5818SOL    HW218354   6.823   6.414   5.081
 5819SOL     OW18355   4.518   0.471   0.185
 5819SOL    HW118356   4.471   0.548   0.230
 5819SOL    HW218357   4.558   0.412   0.255
 5820SOL     OW18358   4.622   6.773   4.043
 5820SOL    HW118359   4.621   6.790   3.945
 5820SOL    HW218360   4.684   6.838   4.087
 5821SOL     OW18361   0.880   0.214   2.095
 5821SOL    HW118362   0.829   0.281   2.040
 5821SOL    HW218363   0.852   0.220   2.190
 5822SOL     OW18364   0.436   2.313   2.367
 5822SOL    HW118365   0.426   2.367   2.451
 5822SOL    HW218366   0.458   2.219   2.391
 5823SOL     OW18367   0.821   1.037   6.085
 5823SOL    HW118368   0.753   1.013   6.154
 5823SOL    HW218369   0.815   0.974   6.008
 5824SOL     OW18370   6.622   5.919   2.805
 5824SOL    HW118371   6.537   5.972   2.811
 5824SOL    HW218372   6.695   5.966   2.855
 5825SOL     OW18373   2.126   1.672   5.334
 5825SOL    HW118374   2.062   1.677   5.258
 5825SOL    HW218375   2.214   1.709   5.307
 5826SOL     OW18376   6.993   5.358   5.236
 5826SOL    HW118377   6.934   5.437   5.224
 5826SOL    HW218378   7.005   5.311   5.149
 5827SOL     OW18379   1.909   4.899   5.036
 5827SOL    HW118380   1.954   4.847   5.108
 5827SOL    HW218381   1.946   4.872   4.947
 5828SOL     OW18382   6.825   3.054   1.408
 5828SOL    HW118383   6.793   2.978   1.353
 5828SOL    HW218384   6.899   3.101   1.360
 5829SOL     OW18385   2.917   1.899   2.958
 5829SOL    HW118386   2.958   1.809   2.947
 5829SOL    HW218387   2.935   1.933   3.050
 5830SOL     OW18388   4.177   0.271   5.427
 5830SOL    HW118389   4.148   0.211   5.501
 5830SOL    HW218390   4.101   0.288   5.365
 5831SOL     OW18391   6.789   0.703   3.999
 5831SOL    HW118392   6.726   0.626   4.007
 5831SOL    HW218393   6.741   0.782   3.961
 5832SOL     OW18394   3.820   4.312   5.217
 5832SOL    HW118395   3.737   4.281   5.263
 5832SOL    HW218396   3.899   4.266   5.259
 5833SOL     OW18397   3.892   3.170   4.792
 5833SOL    HW118398   3.812   3.204   4.742
 5833SOL    HW218399   3.869   3.084   4.837
 5834SOL     OW18400   5.985   2.461   0.589
 5834SOL    HW118401   6.044   2.397   0.639
 5834SOL    HW218402   6.005   2.554   0.618
 5835SOL     OW18403   4.864   3.261   2.629
 5835SOL    HW118404   4.898   3.211   2.709
 5835SOL    HW218405   4.799   3.330   2.658
 5836SOL     OW18406   3.078   6.760   2.976
 5836SOL    HW118407   3.027   6.690   2.927
 5836SOL    HW218408   3.148   6.716   3.033
 5837SOL     OW18409   4.568   4.898   6.006
 5837SOL    HW118410   4.639   4.843   6.048
 5837SOL    HW218411   4.557   4.983   6.057
 5838SOL     OW18412   2.494   1.345   6.055
 5838SOL    HW118413   2.480   1.430   6.106
 5838SOL    HW218414   2.406   1.312   6.021
 5839SOL     OW18415   0.323   2.766   2.760
 5839SOL    HW118416   0.401   2.712   2.792
 5839SOL    HW218417   0.274   2.803   2.839
 5840SOL     OW18418   1.478   5.235   6.931
 5840SOL    HW118419   1.516   5.251   6.840
 5840SOL    HW218420   1.520   5.154   6.972
 5841SOL     OW18421   5.834   2.120   2.169
 5841SOL    HW118422   5.873   2.162   2.086
 5841SOL    HW218423   5.881   2.157   2.249
 5842SOL     OW18424   4.290   3.291   1.679
 5842SOL    HW118425   4.225   3.364   1.661
 5842SOL    HW218426   4.381   3.330   1.694
 5843SOL     OW18427   2.185   3.832   2.267
 5843SOL    HW118428   2.267   3.784   2.237
 5843SOL    HW218429   2.148   3.887   2.191
 5844SOL     OW18430   0.220   0.252   5.971
 5844SOL    HW118431   0.278   0.178   5.937
 5844SOL    HW218432   0.275   0.316   6.024
 5845SOL     OW18433   1.247   0.374   2.966
 5845SOL    HW118434   1.248   0.276   2.988
 5845SOL    HW218435   1.341   0.407   2.957
 5846SOL     OW18436   6.198   3.017   4.238
 5846SOL    HW118437   6.209   3.037   4.140
 5846SOL    HW218438   6.185   3.103   4.288
 5847SOL     OW18439   2.022   2.013   2.184
 5847SOL    HW118440   2.093   2.080   2.208
 5847SOL    HW218441   2.058   1.947   2.119
 5848SOL     OW18442   2.108   5.402   2.827
 5848SOL    HW118443   2.141   5.308   2.832
 5848SOL    HW218444   2.091   5.437   2.919
 5849SOL     OW18445   6.544   0.707   6.293
 5849SOL    HW118446   6.531   0.755   6.380
 5849SOL    HW218447   6.521   0.769   6.218
 5850SOL     OW18448   0.665   3.433   2.447
 5850SOL    HW118449   0.694   3.424   2.542
 5850SOL    HW218450   0.745   3.442   2.388
 5851SOL     OW18451   5.006   3.389   3.072
 5851SOL    HW118452   5.002   3.436   3.159
 5851SOL    HW218453   4.975   3.450   2.999
 5852SOL     OW18454   4.938   6.706   3.100
 5852SOL    HW118455   4.850   6.713   3.146
 5852SOL    HW218456   4.925   6.712   3.001
 5853SOL     OW18457   2.840   5.707   5.456
 5853SOL    HW118458   2.773   5.750   5.517
 5853SOL    HW218459   2.799   5.696   5.365
 5854SOL     OW18460   6.139   3.608   5.538
 5854SOL    HW118461   6.074   3.683   5.524
 5854SOL    HW218462   6.223   3.645   5.578
 5855SOL     OW18463   0.488   0.637   4.327
 5855SOL    HW118464   0.576   0.657   4.285
 5855SOL    HW218465   0.492   0.550   4.375
 5856SOL     OW18466   2.171   6.096   3.689
 5856SOL    HW118467   2.186   6.159   3.765
 5856SOL    HW218468   2.255   6.046   3.671
 5857SOL     OW18469   6.247   2.494   5.439
 5857SOL    HW118470   6.184   2.546   5.381
 5857SOL    HW218471   6.333   2.480   5.389
 5858SOL     OW18472   2.687   2.278   2.187
 5858SOL    HW118473   2.647   2.368   2.205
 5858SOL    HW218474   2.766   2.289   2.126
 5859SOL     OW18475   5.135   6.891   0.978
 5859SOL    HW118476   5.138   6.840   1.064
 5859SOL    HW218477   5.217   6.871   0.925
 5860SOL     OW18478   2.168   3.739   1.887
 5860SOL    HW118479   2.135   3.801   1.959
 5860SOL    HW218480   2.181   3.648   1.926
 5861SOL     OW18481   5.021   1.428   4.070
 5861SOL    HW118482   4.975   1.344   4.099
 5861SOL    HW218483   5.017   1.496   4.143
 5862SOL     OW18484   4.889   4.711   3.399
 5862SOL    HW118485   4.861   4.679   3.489
 5862SOL    HW218486   4.987   4.733   3.400
 5863SOL     OW18487   3.334   0.701   4.913
 5863SOL    HW118488   3.266   0.699   4.985
 5863SOL    HW218489   3.413   0.755   4.942
 5864SOL     OW18490   4.266   3.788   1.611
 5864SOL    HW118491   4.346   3.749   1.565
 5864SOL    HW218492   4.241   3.730   1.689
 5865SOL     OW18493   5.799   0.139   3.804
 5865SOL    HW118494   5.791   0.193   3.721
 5865SOL    HW218495   5.783   0.197   3.884
 5866SOL     OW18496   3.645   5.977   6.358
 5866SOL    HW118497   3.726   5.923   6.336
 5866SOL    HW218498   3.647   6.063   6.306
 5867SOL     OW18499   0.446   3.525   0.802
 5867SOL    HW118500   0.429   3.566   0.712
 5867SOL    HW218501   0.373   3.551   0.865
 5868SOL     OW18502   6.799   0.757   5.047
 5868SOL    HW118503   6.790   0.828   4.978
 5868SOL    HW218504   6.895   0.746   5.072
 5869SOL     OW18505   1.917   5.579   3.314
 5869SOL    HW118506   1.989   5.559   3.380
 5869SOL    HW218507   1.851   5.642   3.354
 5870SOL     OW18508   4.364   5.418   4.599
 5870SOL    HW118509   4.384   5.510   4.632
 5870SOL    HW218510   4.325   5.364   4.674
 5871SOL     OW18511   4.354   3.603   0.159
 5871SOL    HW118512   4.355   3.512   0.118
 5871SOL    HW218513   4.347   3.672   0.087
 5872SOL     OW18514   3.888   4.962   6.772
 5872SOL    HW118515   3.861   4.889   6.834
 5872SOL    HW218516   3.809   5.021   6.753
 5873SOL     OW18517   2.205   2.789   0.929
 5873SOL    HW118518   2.155   2.770   0.845
 5873SOL    HW218519   2.152   2.757   1.008
 5874SOL     OW18520   2.752   2.656   1.276
 5874SOL    HW118521   2.775   2.563   1.248
 5874SOL    HW218522   2.836   2.708   1.292
 5875SOL     OW18523   3.557   1.474   0.990
 5875SOL    HW118524   3.549   1.375   0.979
 5875SOL    HW218525   3.653   1.498   1.006
 5876SOL     OW18526   2.961   2.986   0.081
 5876SOL    HW118527   3.004   2.936   0.156
 5876SOL    HW218528   2.866   3.005   0.104
 5877SOL     OW18529   6.268   7.004   1.003
 5877SOL    HW118530   6.255   0.054   0.933
 5877SOL    HW218531   6.318   6.927   0.963
 5878SOL     OW18532   5.256   5.199   2.848
 5878SOL    HW118533   5.170   5.250   2.845
 5878SOL    HW218534   5.302   5.216   2.936
 5879SOL     OW18535   2.801   3.228   5.988
 5879SOL    HW118536   2.812   3.319   6.027
 5879SOL    HW218537   2.730   3.179   6.039
 5880SOL     OW18538   4.426   4.418   6.253
 5880SOL    HW118539   4.475   4.330   6.255
 5880SOL    HW218540   4.486   4.488   6.216
 5881SOL     OW18541   1.098   6.757   2.619
 5881SOL    HW118542   1.044   6.744   2.702
 5881SOL    HW218543   1.193   6.731   2.637
 5882SOL     OW18544   0.386   0.034   5.851
 5882SOL    HW118545   0.481   0.042   5.882
 5882SOL    HW218546   0.384   0.039   5.751
 5883SOL     OW18547   0.446   1.634   0.556
 5883SOL    HW118548   0.414   1.540   0.559
 5883SOL    HW218549   0.423   1.675   0.468
 5884SOL     OW18550   6.415   0.766   4.786
 5884SOL    HW118551   6.384   0.847   4.738
 5884SOL    HW218552   6.424   0.785   4.884
 5885SOL     OW18553   0.561   5.611   0.731
 5885SOL    HW118554   0.548   5.625   0.829
 5885SOL    HW218555   0.622   5.682   0.694
 5886SOL     OW18556   1.400   3.560   3.374
 5886SOL    HW118557   1.358   3.579   3.463
 5886SOL    HW218558   1.329   3.554   3.304
 5887SOL     OW18559   2.888   2.003   1.879
 5887SOL    HW118560   2.903   2.038   1.971
 5887SOL    HW218561   2.828   2.066   1.830
 5888SOL     OW18562   3.014   6.814   1.006
 5888SOL    HW118563   2.985   6.841   0.914
 5888SOL    HW218564   2.937   6.825   1.069
 5889SOL     OW18565   6.573   1.208   1.011
 5889SOL    HW118566   6.617   1.157   0.938
 5889SOL    HW218567   6.529   1.290   0.974
 5890SOL     OW18568   1.810   6.936   2.674
 5890SOL    HW118569   1.885   6.908   2.732
 5890SOL    HW218570   1.846   6.978   2.590
 5891SOL     OW18571   2.603   3.771   0.227
 5891SOL    HW118572   2.596   3.736   0.133
 5891SOL    HW218573   2.644   3.701   0.286
 5892SOL     OW18574   0.073   5.120   1.371
 5892SOL    HW118575   0.013   5.178   1.317
 5892SOL    HW218576   0.024   5.036   1.397
 5893SOL     OW18577   1.396   4.864   1.305
 5893SOL    HW118578   1.401   4.778   1.356
 5893SOL    HW218579   1.386   4.844   1.208
 5894SOL     OW18580   1.063   5.769   5.315
 5894SOL    HW118581   0.974   5.743   5.278
 5894SOL    HW218582   1.114   5.687   5.339
 5895SOL     OW18583   6.346   3.422   4.202
 5895SOL    HW118584   6.397   3.369   4.134
 5895SOL    HW218585   6.394   3.418   4.290
 5896SOL     OW18586   5.000   1.517   1.672
 5896SOL    HW118587   4.964   1.444   1.615
 5896SOL    HW218588   5.054   1.478   1.746
 5897SOL     OW18589   3.818   1.208   1.835
 5897SOL    HW118590   3.726   1.173   1.817
 5897SOL    HW218591   3.836   1.207   1.933
 5898SOL     OW18592   2.617   1.148   5.883
 5898SOL    HW118593   2.624   1.206   5.965
 5898SOL    HW218594   2.691   1.172   5.820
 5899SOL     OW18595   0.322   5.109   5.800
 5899SOL    HW118596   0.333   5.204   5.830
 5899SOL    HW218597   0.298   5.107   5.703
 5900SOL     OW18598   0.078   5.317   3.415
 5900SOL    HW118599   0.047   5.391   3.355
 5900SOL    HW218600   0.150   5.350   3.476
 5901SOL     OW18601   1.166   0.903   1.063
 5901SOL    HW118602   1.098   0.837   1.031
 5901SOL    HW218603   1.200   0.874   1.153
 5902SOL     OW18604   5.627   3.393   4.935
 5902SOL    HW118605   5.666   3.482   4.912
 5902SOL    HW218606   5.603   3.345   4.851
 5903SOL     OW18607   5.426   2.790   6.763
 5903SOL    HW118608   5.397   2.716   6.824
 5903SOL    HW218609   5.526   2.793   6.759
 5904SOL     OW18610   1.562   4.555   1.196
 5904SOL    HW118611   1.609   4.569   1.283
 5904SOL    HW218612   1.514   4.468   1.197
 5905SOL     OW18613   5.672   1.028   3.583
 5905SOL    HW118614   5.654   1.119   3.546
 5905SOL    HW218615   5.599   1.003   3.647
 5906SOL     OW18616   5.534   1.693   5.246
 5906SOL    HW118617   5.623   1.681   5.290
 5906SOL    HW218618   5.521   1.622   5.176
 5907SOL     OW18619   1.741   6.835   0.496
 5907SOL    HW118620   1.687   6.792   0.569
 5907SOL    HW218621   1.722   6.791   0.409
 5908SOL     OW18622   5.114   3.579   0.234
 5908SOL    HW118623   5.183   3.507   0.237
 5908SOL    HW218624   5.093   3.610   0.326
 5909SOL     OW18625   0.633   4.078   5.764
 5909SOL    HW118626   0.546   4.042   5.729
 5909SOL    HW218627   0.621   4.175   5.789
 5910SOL     OW18628   1.100   4.690   0.923
 5910SOL    HW118629   1.035   4.730   0.988
 5910SOL    HW218630   1.116   4.594   0.946
 5911SOL     OW18631   0.302   5.913   5.958
 5911SOL    HW118632   0.239   5.979   5.999
 5911SOL    HW218633   0.283   5.907   5.860
 5912SOL     OW18634   5.956   3.204   6.791
 5912SOL    HW118635   6.048   3.166   6.786
 5912SOL    HW218636   5.960   3.304   6.794
 5913SOL     OW18637   2.185   3.012   5.826
 5913SOL    HW118638   2.173   3.024   5.728
 5913SOL    HW218639   2.121   2.943   5.860
 5914SOL     OW18640   2.567   5.391   0.418
 5914SOL    HW118641   2.654   5.439   0.428
 5914SOL    HW218642   2.493   5.458   0.406
 5915SOL     OW18643   5.654   3.407   2.418
 5915SOL    HW118644   5.581   3.340   2.407
 5915SOL    HW218645   5.642   3.480   2.350
 5916SOL     OW18646   4.693   0.424   5.773
 5916SOL    HW118647   4.662   0.458   5.684
 5916SOL    HW218648   4.749   0.494   5.817
 5917SOL     OW18649   3.643   3.159   3.290
 5917SOL    HW118650   3.654   3.171   3.388
 5917SOL    HW218651   3.582   3.081   3.272
 5918SOL     OW18652   2.138   3.550   4.711
 5918SOL    HW118653   2.197   3.470   4.712
 5918SOL    HW218654   2.116   3.574   4.616
 5919SOL     OW18655   3.011   1.652   0.424
 5919SOL    HW118656   3.097   1.600   0.424
 5919SOL    HW218657   3.023   1.736   0.476
 5920SOL     OW18658   3.833   7.000   6.842
 5920SOL    HW118659   3.864   0.015   6.930
 5920SOL    HW218660   3.733   6.996   6.841
 5921SOL     OW18661   3.530   5.246   5.216
 5921SOL    HW118662   3.518   5.202   5.127
 5921SOL    HW218663   3.516   5.179   5.289
 5922SOL     OW18664   6.499   5.238   3.429
 5922SOL    HW118665   6.496   5.164   3.497
 5922SOL    HW218666   6.448   5.317   3.462
 5923SOL     OW18667   6.860   1.177   3.145
 5923SOL    HW118668   6.856   1.259   3.088
 5923SOL    HW218669   6.849   1.096   3.088
 5924SOL     OW18670   5.422   2.427   4.961
 5924SOL    HW118671   5.501   2.489   4.969
 5924SOL    HW218672   5.431   2.353   5.027
 5925SOL     OW18673   4.667   6.184   2.970
 5925SOL    HW118674   4.691   6.244   3.046
 5925SOL    HW218675   4.572   6.153   2.980
 5926SOL     OW18676   3.275   5.027   1.639
 5926SOL    HW118677   3.228   4.946   1.673
 5926SOL    HW218678   3.280   5.096   1.712
 5927SOL     OW18679   2.057   4.683   1.689
 5927SOL    HW118680   2.151   4.655   1.672
 5927SOL    HW218681   2.015   4.621   1.755
 5928SOL     OW18682   2.481   0.306   2.399
 5928SOL    HW118683   2.566   0.354   2.380
 5928SOL    HW218684   2.442   0.270   2.314
 5929SOL     OW18685   0.632   6.499   5.755
 5929SOL    HW118686   0.661   6.588   5.721
 5929SOL    HW218687   0.711   6.449   5.789
 5930SOL     OW18688   6.006   1.222   4.034
 5930SOL    HW118689   5.932   1.218   4.101
 5930SOL    HW218690   6.073   1.291   4.062
 5931SOL     OW18691   5.823   4.977   2.413
 5931SOL    HW118692   5.861   5.014   2.329
 5931SOL    HW218693   5.735   5.021   2.433
 5932SOL     OW18694   2.215   6.700   0.833
 5932SOL    HW118695   2.136   6.761   0.841
 5932SOL    HW218696   2.232   6.656   0.921
 5933SOL     OW18697   6.968   4.469   1.829
 5933SOL    HW118698   7.017   4.418   1.900
 5933SOL    HW218699   0.013   4.519   1.773
 5934SOL     OW18700   3.603   3.802   3.734
 5934SOL    HW118701   3.655   3.748   3.800
 5934SOL    HW218702   3.581   3.891   3.773
 5935SOL     OW18703   3.995   3.852   4.611
 5935SOL    HW118704   4.046   3.799   4.543
 5935SOL    HW218705   3.948   3.790   4.674
 5936SOL     OW18706   4.031   3.789   6.441
 5936SOL    HW118707   4.055   3.694   6.420
 5936SOL    HW218708   3.998   3.833   6.358
 5937SOL     OW18709   0.581   3.787   2.085
 5937SOL    HW118710   0.538   3.794   1.995
 5937SOL    HW218711   0.614   3.694   2.099
 5938SOL     OW18712   1.647   4.841   4.459
 5938SOL    HW118713   1.627   4.769   4.393
 5938SOL    HW218714   1.674   4.800   4.546
 5939SOL     OW18715   3.205   0.533   3.298
 5939SOL    HW118716   3.231   0.480   3.217
 5939SOL    HW218717   3.265   0.509   3.374
 5940SOL     OW18718   4.238   6.708   2.046
 5940SOL    HW118719   4.297   6.778   2.006
 5940SOL    HW218720   4.143   6.739   2.044
 5941SOL     OW18721   6.279   4.600   1.920
 5941SOL    HW118722   6.189   4.642   1.914
 5941SOL    HW218723   6.270   4.500   1.918
 5942SOL     OW18724   4.314   2.891   6.493
 5942SOL    HW118725   4.325   2.948   6.574
 5942SOL    HW218726   4.217   2.884   6.470
 5943SOL     OW18727   2.558   6.047   0.222
 5943SOL    HW118728   2.547   6.110   0.299
 5943SOL    HW218729   2.475   6.045   0.168
 5944SOL     OW18730   5.558   1.385   1.643
 5944SOL    HW118731   5.490   1.453   1.615
 5944SOL    HW218732   5.521   1.330   1.717
 5945SOL     OW18733   6.577   4.866   5.477
 5945SOL    HW118734   6.503   4.853   5.411
 5945SOL    HW218735   6.538   4.895   5.565
 5946SOL     OW18736   3.465   4.020   5.745
 5946SOL    HW118737   3.446   4.028   5.842
 5946SOL    HW218738   3.418   4.093   5.695
 5947SOL     OW18739   3.935   3.172   1.923
 5947SOL    HW118740   3.964   3.211   2.010
 5947SOL    HW218741   3.956   3.236   1.849
 5948SOL     OW18742   3.893   5.198   3.204
 5948SOL    HW118743   3.827   5.189   3.278
 5948SOL    HW218744   3.891   5.117   3.146
 5949SOL     OW18745   3.928   4.306   1.396
 5949SOL    HW118746   3.985   4.270   1.470
 5949SOL    HW218747   3.965   4.276   1.308
 5950SOL     OW18748   5.674   2.506   4.974
 5950SOL    HW118749   5.717   2.592   4.947
 5950SOL    HW218750   5.693   2.487   5.070
 5951SOL     OW18751   0.625   6.413   4.963
 5951SOL    HW118752   0.567   6.425   5.043
 5951SOL    HW218753   0.593   6.334   4.910
 5952SOL     OW18754   6.491   6.557   3.663
 5952SOL    HW118755   6.428   6.479   3.665
 5952SOL    HW218756   6.446   6.637   3.704
 5953SOL     OW18757   7.015   3.399   5.108
 5953SOL    HW118758   6.917   3.389   5.121
 5953SOL    HW218759   0.030   3.466   5.174
 5954SOL     OW18760   6.760   4.673   5.493
 5954SOL    HW118761   6.823   4.681   5.570
 5954SOL    HW218762   6.697   4.750   5.493
 5955SOL     OW18763   5.980   5.998   2.233
 5955SOL    HW118764   5.983   6.059   2.312
 5955SOL    HW218765   6.008   6.049   2.151
 5956SOL     OW18766   3.581   1.856   0.908
 5956SOL    HW118767   3.616   1.937   0.862
 5956SOL    HW218768   3.548   1.791   0.840
 5957SOL     OW18769   4.818   6.905   5.726
 5957SOL    HW118770   4.883   6.895   5.651
 5957SOL    HW218771   4.785   6.815   5.754
 5958SOL     OW18772   6.195   6.333   2.699
 5958SOL    HW118773   6.196   6.390   2.616
 5958SOL    HW218774   6.288   6.321   2.732
 5959SOL     OW18775   3.212   1.697   5.376
 5959SOL    HW118776   3.118   1.709   5.406
 5959SOL    HW218777   3.213   1.673   5.279
 5960SOL     OW18778   3.491   0.126   3.874
 5960SOL    HW118779   3.573   0.127   3.817
 5960SOL    HW218780   3.487   0.040   3.926
 5961SOL     OW18781   4.006   1.207   3.535
 5961SOL    HW118782   4.090   1.153   3.522
 5961SOL    HW218783   4.017   1.266   3.615
 5962SOL     OW18784   5.163   5.348   2.256
 5962SOL    HW118785   5.210   5.265   2.225
 5962SOL    HW218786   5.227   5.425   2.256
 5963SOL     OW18787   3.681   3.179   3.931
 5963SOL    HW118788   3.597   3.168   3.879
 5963SOL    HW218789   3.670   3.252   3.998
 5964SOL     OW18790   6.980   5.209   6.038
 5964SOL    HW118791   0.031   5.138   6.041
 5964SOL    HW218792   6.956   5.235   6.131
 5965SOL     OW18793   1.797   2.027   6.467
 5965SOL    HW118794   1.839   2.111   6.432
 5965SOL    HW218795   1.708   2.049   6.508
 5966SOL     OW18796   2.757   5.715   5.183
 5966SOL    HW118797   2.748   5.757   5.093
 5966SOL    HW218798   2.824   5.641   5.179
 5967SOL     OW18799   3.940   6.513   2.411
 5967SOL    HW118800   4.006   6.499   2.338
 5967SOL    HW218801   3.882   6.431   2.420
 5968SOL     OW18802   5.905   1.825   3.231
 5968SOL    HW118803   5.919   1.838   3.329
 5968SOL    HW218804   5.959   1.892   3.180
 5969SOL     OW18805   6.324   2.204   5.003
 5969SOL    HW118806   6.306   2.298   4.974
 5969SOL    HW218807   6.255   2.176   5.070
 5970SOL     OW18808   0.598   4.364   2.357
 5970SOL    HW118809   0.554   4.279   2.327
 5970SOL    HW218810   0.673   4.386   2.294
 5971SOL     OW18811   1.893   0.252   2.902
 5971SOL    HW118812   1.802   0.223   2.932
 5971SOL    HW218813   1.907   0.348   2.928
 5972SOL     OW18814   4.107   6.555   0.334
 5972SOL    HW118815   4.054   6.597   0.261
 5972SOL    HW218816   4.204   6.576   0.321
 5973SOL     OW18817   1.726   5.339   2.515
 5973SOL    HW118818   1.777   5.253   2.520
 5973SOL    HW218819   1.779   5.411   2.560
 5974SOL     OW18820   6.058   4.140   5.906
 5974SOL    HW118821   6.124   4.065   5.910
 5974SOL    HW218822   5.979   4.119   5.965
 5975SOL     OW18823   4.135   2.278   1.123
 5975SOL    HW118824   4.042   2.312   1.107
 5975SOL    HW218825   4.196   2.356   1.141
 5976SOL     OW18826   2.984   3.222   4.947
 5976SOL    HW118827   2.969   3.217   5.046
 5976SOL    HW218828   2.908   3.179   4.899
 5977SOL     OW18829   1.282   4.604   1.436
 5977SOL    HW118830   1.198   4.658   1.448
 5977SOL    HW218831   1.258   4.513   1.401
 5978SOL     OW18832   5.492   4.686   2.658
 5978SOL    HW118833   5.407   4.640   2.633
 5978SOL    HW218834   5.547   4.626   2.717
 5979SOL     OW18835   6.659   0.839   3.507
 5979SOL    HW118836   6.718   0.896   3.450
 5979SOL    HW218837   6.668   0.743   3.478
 5980SOL     OW18838   4.065   4.580   6.694
 5980SOL    HW118839   4.106   4.671   6.683
 5980SOL    HW218840   4.118   4.528   6.761
 5981SOL     OW18841   6.989   1.819   1.858
 5981SOL    HW118842   7.008   1.893   1.922
 5981SOL    HW218843   6.970   1.857   1.767
 5982SOL     OW18844   5.987   1.568   6.667
 5982SOL    HW118845   5.937   1.622   6.598
 5982SOL    HW218846   5.969   1.471   6.652
 5983SOL     OW18847   2.251   1.644   4.215
 5983SOL    HW118848   2.271   1.707   4.290
 5983SOL    HW218849   2.302   1.559   4.229
 5984SOL     OW18850   0.277   0.271   4.801
 5984SOL    HW118851   0.362   0.241   4.758
 5984SOL    HW218852   0.223   0.322   4.734
 5985SOL     OW18853   5.286   2.597   4.013
 5985SOL    HW118854   5.340   2.599   3.928
 5985SOL    HW218855   5.328   2.534   4.078
 5986SOL     OW18856   3.126   3.096   4.145
 5986SOL    HW118857   3.078   3.161   4.204
 5986SOL    HW218858   3.197   3.144   4.093
 5987SOL     OW18859   4.079   0.735   4.940
 5987SOL    HW118860   4.130   0.766   5.020
 5987SOL    HW218861   4.010   0.668   4.968
 5988SOL     OW18862   3.998   6.894   4.687
 5988SOL    HW118863   3.982   6.795   4.692
 5988SOL    HW218864   4.060   6.914   4.611
 5989SOL     OW18865   2.308   6.430   6.709
 5989SOL    HW118866   2.373   6.459   6.639
 5989SOL    HW218867   2.261   6.347   6.679
 5990SOL     OW18868   3.826   4.123   0.829
 5990SOL    HW118869   3.905   4.114   0.768
 5990SOL    HW218870   3.804   4.220   0.841
 5991SOL     OW18871   3.935   5.039   4.909
 5991SOL    HW118872   3.907   5.001   4.820
 5991SOL    HW218873   3.895   5.130   4.920
 5992SOL     OW18874   3.651   0.691   4.293
 5992SOL    HW118875   3.614   0.752   4.363
 5992SOL    HW218876   3.647   0.596   4.325
 5993SOL     OW18877   3.834   6.586   5.944
 5993SOL    HW118878   3.801   6.564   6.036
 5993SOL    HW218879   3.765   6.558   5.877
 5994SOL     OW18880   6.123   2.111   1.811
 5994SOL    HW118881   6.074   2.029   1.844
 5994SOL    HW218882   6.220   2.104   1.835
 5995SOL     OW18883   0.086   5.363   1.493
 5995SOL    HW118884   0.020   5.289   1.510
 5995SOL    HW218885   0.113   5.404   1.580
 5996SOL     OW18886   0.585   5.941   6.381
 5996SOL    HW118887   0.582   5.982   6.472
 5996SOL    HW218888   0.496   5.901   6.360
 5997SOL     OW18889   0.507   6.718   2.275
 5997SOL    HW118890   0.486   6.752   2.184
 5997SOL    HW218891   0.501   6.618   2.276
 5998SOL     OW18892   5.750   2.236   2.704
 5998SOL    HW118893   5.686   2.306   2.675
 5998SOL    HW218894   5.837   2.248   2.656
 5999SOL     OW18895   1.080   2.171   2.919
 5999SOL    HW118896   1.031   2.223   2.849
 5999SOL    HW218897   1.107   2.082   2.882
 6000SOL     OW18898   3.928   5.410   2.138
 6000SOL    HW118899   3.838   5.417   2.096
 6000SOL    HW218900   3.927   5.457   2.226
 6001SOL     OW18901   0.321   3.818   6.689
 6001SOL    HW118902   0.402   3.877   6.687
 6001SOL    HW218903   0.248   3.863   6.740
 6002SOL     OW18904   6.986   6.602   1.410
 6002SOL    HW118905   7.006   6.509   1.440
 6002SOL    HW218906   0.048   6.642   1.369
 6003SOL     OW18907   5.974   3.341   5.031
 6003SOL    HW118908   5.887   3.299   5.006
 6003SOL    HW218909   6.015   3.384   4.951
 6004SOL     OW18910   0.583   3.984   3.678
 6004SOL    HW118911   0.562   3.891   3.647
 6004SOL    HW218912   0.575   4.048   3.601
 6005SOL     OW18913   4.039   5.116   3.975
 6005SOL    HW118914   4.106   5.191   3.977
 6005SOL    HW218915   4.033   5.080   3.882
 6006SOL     OW18916   3.699   0.273   6.636
 6006SOL    HW118917   3.627   0.205   6.654
 6006SOL    HW218918   3.771   0.264   6.705
 6007SOL     OW18919   4.958   2.702   3.443
 6007SOL    HW118920   4.960   2.763   3.522
 6007SOL    HW218921   4.965   2.607   3.473
 6008SOL     OW18922   3.101   5.430   5.850
 6008SOL    HW118923   3.127   5.457   5.943
 6008SOL    HW218924   3.119   5.332   5.838
 6009SOL     OW18925   2.725   1.524   4.886
 6009SOL    HW118926   2.766   1.568   4.807
 6009SOL    HW218927   2.653   1.582   4.923
 6010SOL     OW18928   2.129   4.497   1.926
 6010SOL    HW118929   2.108   4.547   2.010
 6010SOL    HW218930   2.226   4.508   1.905
 6011SOL     OW18931   5.397   2.369   1.962
 6011SOL    HW118932   5.351   2.307   2.026
 6011SOL    HW218933   5.449   2.316   1.895
 6012SOL     OW18934   6.995   1.885   0.280
 6012SOL    HW118935   0.052   1.852   0.225
 6012SOL    HW218936   6.909   1.856   0.237
 6013SOL     OW18937   6.007   1.495   2.212
 6013SOL    HW118938   5.961   1.487   2.301
 6013SOL    HW218939   5.950   1.453   2.141
 6014SOL     OW18940   5.008   1.727   0.791
 6014SOL    HW118941   5.043   1.701   0.882
 6014SOL    HW218942   5.085   1.748   0.731
 6015SOL     OW18943   6.039   2.515   5.916
 6015SOL    HW118944   6.099   2.545   5.842
 6015SOL    HW218945   6.013   2.594   5.972
 6016SOL     OW18946   0.825   0.822   5.641
 6016SOL    HW118947   0.828   0.797   5.738
 6016SOL    HW218948   0.861   0.915   5.630
 6017SOL     OW18949   5.846   5.480   2.569
 6017SOL    HW118950   5.757   5.468   2.613
 6017SOL    HW218951   5.914   5.508   2.638
 6018SOL     OW18952   3.557   2.795   0.055
 6018SOL    HW118953   3.601   2.862   0.116
 6018SOL    HW218954   3.497   2.842   7.012
 6019SOL     OW18955   4.431   1.709   3.912
 6019SOL    HW118956   4.488   1.782   3.875
 6019SOL    HW218957   4.428   1.634   3.846
 6020SOL     OW18958   2.178   6.746   1.799
 6020SOL    HW118959   2.096   6.729   1.853
 6020SOL    HW218960   2.172   6.837   1.757
 6021SOL     OW18961   4.578   0.247   2.785
 6021SOL    HW118962   4.548   0.342   2.776
 6021SOL    HW218963   4.513   0.197   2.842
 6022SOL     OW18964   4.485   0.876   4.475
 6022SOL    HW118965   4.386   0.870   4.465
 6022SOL    HW218966   4.508   0.930   4.556
 6023SOL     OW18967   6.690   1.565   3.370
 6023SOL    HW118968   6.667   1.524   3.282
 6023SOL    HW218969   6.612   1.617   3.405
 6024SOL     OW18970   0.489   4.830   2.423
 6024SOL    HW118971   0.553   4.892   2.468
 6024SOL    HW218972   0.513   4.735   2.445
 6025SOL     OW18973   4.567   0.465   1.864
 6025SOL    HW118974   4.528   0.470   1.956
 6025SOL    HW218975   4.573   0.556   1.825
 6026SOL     OW18976   0.596   4.570   4.644
 6026SOL    HW118977   0.496   4.573   4.647
 6026SOL    HW218978   0.626   4.580   4.549
 6027SOL     OW18979   1.770   3.845   6.064
 6027SOL    HW118980   1.700   3.861   5.995
 6027SOL    HW218981   1.820   3.761   6.043
 6028SOL     OW18982   0.895   3.825   0.280
 6028SOL    HW118983   0.795   3.830   0.272
 6028SOL    HW218984   0.923   3.871   0.364
 6029SOL     OW18985   2.143   6.798   6.915
 6029SOL    HW118986   2.105   6.739   6.843
 6029SOL    HW218987   2.242   6.801   6.906
 6030SOL     OW18988   2.450   0.886   3.029
 6030SOL    HW118989   2.464   0.985   3.031
 6030SOL    HW218990   2.353   0.867   3.010
 6031SOL     OW18991   4.213   5.082   4.973
 6031SOL    HW118992   4.188   5.123   5.061
 6031SOL    HW218993   4.131   5.048   4.928
 6032SOL     OW18994   1.548   3.371   2.304
 6032SOL    HW118995   1.597   3.458   2.313
 6032SOL    HW218996   1.499   3.369   2.217
 6033SOL     OW18997   2.005   2.630   3.050
 6033SOL    HW118998   1.938   2.598   3.116
 6033SOL    HW218999   1.971   2.714   3.006
 6034SOL     OW19000   2.245   4.752   4.521
 6034SOL    HW119001   2.276   4.833   4.471
 6034SOL    HW219002   2.161   4.718   4.480
 6035SOL     OW19003   5.803   0.654   3.966
 6035SOL    HW119004   5.772   0.691   3.878
 6035SOL    HW219005   5.724   0.623   4.018
 6036SOL     OW19006   0.320   0.115   5.040
 6036SOL    HW119007   0.337   0.165   4.955
 6036SOL    HW219008   0.244   0.051   5.027
 6037SOL     OW19009   4.852   5.357   6.360
 6037SOL    HW119010   4.822   5.450   6.378
 6037SOL    HW219011   4.921   5.331   6.427
 6038SOL     OW19012   0.606   3.148   5.999
 6038SOL    HW119013   0.703   3.157   6.024
 6038SOL    HW219014   0.567   3.239   5.984
 6039SOL     OW19015   3.395   3.826   3.068
 6039SOL    HW119016   3.461   3.883   3.117
 6039SOL    HW219017   3.302   3.848   3.097
 6040SOL     OW19018   0.523   1.362   6.608
 6040SOL    HW119019   0.541   1.368   6.707
 6040SOL    HW219020   0.452   1.295   6.591
 6041SOL     OW19021   1.472   1.467   6.412
 6041SOL    HW119022   1.468   1.523   6.495
 6041SOL    HW219023   1.536   1.508   6.348
 6042SOL     OW19024   5.844   5.198   2.153
 6042SOL    HW119025   5.916   5.129   2.163
 6042SOL    HW219026   5.822   5.210   2.057
 6043SOL     OW19027   1.164   4.531   5.091
 6043SOL    HW119028   1.142   4.564   4.999
 6043SOL    HW219029   1.262   4.543   5.107
 6044SOL     OW19030   0.013   1.843   1.202
 6044SOL    HW119031   6.999   1.916   1.143
 6044SOL    HW219032   0.043   1.767   1.145
 6045SOL     OW19033   5.091   5.773   0.771
 6045SOL    HW119034   5.112   5.815   0.859
 6045SOL    HW219035   5.170   5.720   0.740
 6046SOL     OW19036   3.303   2.332   0.898
 6046SOL    HW119037   3.388   2.366   0.859
 6046SOL    HW219038   3.273   2.250   0.849
 6047SOL     OW19039   6.671   1.277   3.840
 6047SOL    HW119040   6.628   1.289   3.750
 6047SOL    HW219041   6.652   1.357   3.897
 6048SOL     OW19042   4.461   7.018   3.312
 6048SOL    HW119043   4.397   0.028   3.241
 6048SOL    HW219044   4.499   0.077   3.359
 6049SOL     OW19045   4.911   2.957   6.347
 6049SOL    HW119046   4.921   2.936   6.444
 6049SOL    HW219047   4.999   2.943   6.301
 6050SOL     OW19048   4.183   4.147   5.880
 6050SOL    HW119049   4.230   4.127   5.794
 6050SOL    HW219050   4.184   4.245   5.896
 6051SOL     OW19051   2.327   2.158   3.148
 6051SOL    HW119052   2.391   2.089   3.113
 6051SOL    HW219053   2.290   2.210   3.071
 6052SOL     OW19054   6.635   0.136   0.311
 6052SOL    HW119055   6.599   0.117   0.403
 6052SOL    HW219056   6.662   0.051   0.268
 6053SOL     OW19057   3.485   0.302   6.884
 6053SOL    HW119058   3.571   0.302   6.936
 6053SOL    HW219059   3.450   0.209   6.876
 6054SOL     OW19060   2.299   4.074   1.000
 6054SOL    HW119061   2.394   4.047   1.011
 6054SOL    HW219062   2.258   4.023   0.924
 6055SOL     OW19063   5.482   0.760   5.598
 6055SOL    HW119064   5.506   0.665   5.620
 6055SOL    HW219065   5.388   0.777   5.624
 6056SOL     OW19066   4.277   1.638   5.367
 6056SOL    HW119067   4.194   1.694   5.378
 6056SOL    HW219068   4.281   1.603   5.273
 6057SOL     OW19069   4.206   1.564   4.841
 6057SOL    HW119070   4.187   1.466   4.844
 6057SOL    HW219071   4.261   1.585   4.760
 6058SOL     OW19072   5.462   2.942   3.166
 6058SOL    HW119073   5.516   2.938   3.249
 6058SOL    HW219074   5.507   2.888   3.094
 6059SOL     OW19075   4.537   5.742   5.680
 6059SOL    HW119076   4.473   5.780   5.747
 6059SOL    HW219077   4.522   5.786   5.592
 6060SOL     OW19078   3.623   3.801   5.713
 6060SOL    HW119079   3.544   3.861   5.725
 6060SOL    HW219080   3.663   3.815   5.623
 6061SOL     OW19081   3.137   2.931   0.325
 6061SOL    HW119082   3.077   2.911   0.403
 6061SOL    HW219083   3.198   2.853   0.309
 6062SOL     OW19084   2.258   1.364   4.759
 6062SOL    HW119085   2.311   1.440   4.798
 6062SOL    HW219086   2.235   1.384   4.664
 6063SOL     OW19087   3.836   1.520   6.452
 6063SOL    HW119088   3.916   1.509   6.510
 6063SOL    HW219089   3.844   1.458   6.373
 6064SOL     OW19090   2.068   5.530   2.305
 6064SOL    HW119091   2.092   5.452   2.363
 6064SOL    HW219092   1.986   5.508   2.252
 6065SOL     OW19093   6.251   6.520   1.247
 6065SOL    HW119094   6.301   6.545   1.330
 6065SOL    HW219095   6.317   6.493   1.176
 6066SOL     OW19096   4.646   1.455   1.197
 6066SOL    HW119097   4.660   1.552   1.218
 6066SOL    HW219098   4.552   1.429   1.221
 6067SOL     OW19099   6.625   2.056   6.676
 6067SOL    HW119100   6.620   2.153   6.651
 6067SOL    HW219101   6.543   2.031   6.728
 6068SOL     OW19102   5.554   3.335   4.656
 6068SOL    HW119103   5.457   3.319   4.636
 6068SOL    HW219104   5.579   3.426   4.625
 6069SOL     OW19105   6.461   3.624   6.281
 6069SOL    HW119106   6.539   3.574   6.318
 6069SOL    HW219107   6.477   3.643   6.184
 6070SOL     OW19108   2.963   2.046   6.382
 6070SOL    HW119109   3.015   2.030   6.467
 6070SOL    HW219110   2.875   1.999   6.387
 6071SOL     OW19111   4.409   6.178   5.730
 6071SOL    HW119112   4.430   6.131   5.816
 6071SOL    HW219113   4.464   6.139   5.656
 6072SOL     OW19114   0.934   1.131   1.862
 6072SOL    HW119115   0.967   1.207   1.806
 6072SOL    HW219116   0.933   1.159   1.958
 6073SOL     OW19117   6.366   3.073   0.654
 6073SOL    HW119118   6.440   3.100   0.715
 6073SOL    HW219119   6.351   3.144   0.585
 6074SOL     OW19120   1.095   6.604   4.535
 6074SOL    HW119121   1.038   6.569   4.461
 6074SOL    HW219122   1.137   6.528   4.584
 6075SOL     OW19123   6.741   2.856   6.750
 6075SOL    HW119124   6.745   2.796   6.670
 6075SOL    HW219125   6.681   2.816   6.819
 6076SOL     OW19126   2.212   0.143   5.104
 6076SOL    HW119127   2.180   0.204   5.032
 6076SOL    HW219128   2.312   0.143   5.106
 6077SOL     OW19129   5.014   5.726   2.660
 6077SOL    HW119130   5.019   5.730   2.561
 6077SOL    HW219131   5.097   5.767   2.700
 6078SOL     OW19132   3.466   4.867   2.592
 6078SOL    HW119133   3.522   4.938   2.549
 6078SOL    HW219134   3.525   4.792   2.622
 6079SOL     OW19135   3.291   3.842   6.555
 6079SOL    HW119136   3.351   3.914   6.591
 6079SOL    HW219137   3.336   3.753   6.567
 6080SOL     OW19138   0.100   1.761   0.742
 6080SOL    HW119139   0.087   1.859   0.757
 6080SOL    HW219140   0.121   1.716   0.829
 6081SOL     OW19141   6.499   3.874   4.306
 6081SOL    HW119142   6.591   3.837   4.319
 6081SOL    HW219143   6.437   3.801   4.276
 6082SOL     OW19144   3.460   0.258   3.187
 6082SOL    HW119145   3.511   0.315   3.123
 6082SOL    HW219146   3.362   0.276   3.177
 6083SOL     OW19147   0.947   5.600   6.100
 6083SOL    HW119148   0.976   5.632   6.190
 6083SOL    HW219149   0.847   5.596   6.097
 6084SOL     OW19150   6.841   5.452   4.494
 6084SOL    HW119151   6.755   5.409   4.466
 6084SOL    HW219152   6.844   5.460   4.594
 6085SOL     OW19153   6.454   3.940   0.106
 6085SOL    HW119154   6.406   4.013   0.059
 6085SOL    HW219155   6.524   3.901   0.046
 6086SOL     OW19156   3.594   1.296   4.730
 6086SOL    HW119157   3.648   1.229   4.781
 6086SOL    HW219158   3.578   1.376   4.789
 6087SOL     OW19159   5.009   0.031   6.590
 6087SOL    HW119160   4.977   6.958   6.605
 6087SOL    HW219161   5.045   0.040   6.497
 6088SOL     OW19162   0.134   6.390   4.519
 6088SOL    HW119163   0.141   6.416   4.422
 6088SOL    HW219164   0.214   6.336   4.544
 6089SOL     OW19165   0.506   3.783   1.828
 6089SOL    HW119166   0.508   3.844   1.749
 6089SOL    HW219167   0.418   3.737   1.833
 6090SOL     OW19168   0.498   6.139   6.226
 6090SOL    HW119169   0.504   6.104   6.132
 6090SOL    HW219170   0.542   6.075   6.289
 6091SOL     OW19171   0.676   1.417   2.074
 6091SOL    HW119172   0.674   1.321   2.103
 6091SOL    HW219173   0.755   1.462   2.116
 6092SOL     OW19174   2.802   0.537   3.139
 6092SOL    HW119175   2.784   0.441   3.117
 6092SOL    HW219176   2.872   0.573   3.078
 6093SOL     OW19177   1.775   2.895   2.102
 6093SOL    HW119178   1.764   2.948   2.018
 6093SOL    HW219179   1.688   2.852   2.126
 6094SOL     OW19180   2.227   1.610   1.687
 6094SOL    HW119181   2.130   1.615   1.665
 6094SOL    HW219182   2.262   1.519   1.662
 6095SOL     OW19183   4.819   3.138   6.935
 6095SOL    HW119184   4.893   3.085   6.976
 6095SOL    HW219185   4.857   3.203   6.868
 6096SOL     OW19186   6.091   0.589   4.119
 6096SOL    HW119187   6.187   0.601   4.095
 6096SOL    HW219188   6.038   0.667   4.085
 6097SOL     OW19189   2.196   0.499   2.932
 6097SOL    HW119190   2.206   0.400   2.944
 6097SOL    HW219191   2.255   0.529   2.857
 6098SOL     OW19192   1.439   2.176   5.691
 6098SOL    HW119193   1.431   2.257   5.749
 6098SOL    HW219194   1.524   2.181   5.638
 6099SOL     OW19195   5.397   5.928   5.462
 6099SOL    HW119196   5.394   5.886   5.553
 6099SOL    HW219197   5.351   5.868   5.396
 6100SOL     OW19198   5.887   3.356   6.281
 6100SOL    HW119199   5.928   3.437   6.239
 6100SOL    HW219200   5.810   3.325   6.225
 6101SOL     OW19201   6.627   1.895   5.980
 6101SOL    HW119202   6.640   1.897   6.079
 6101SOL    HW219203   6.643   1.802   5.947
 6102SOL     OW19204   3.239   1.216   4.553
 6102SOL    HW119205   3.254   1.120   4.528
 6102SOL    HW219206   3.256   1.228   4.651
 6103SOL     OW19207   0.277   0.529   3.965
 6103SOL    HW119208   0.329   0.453   3.927
 6103SOL    HW219209   0.181   0.519   3.941
 6104SOL     OW19210   6.310   2.172   6.733
 6104SOL    HW119211   6.230   2.153   6.788
 6104SOL    HW219212   6.369   2.238   6.780
 6105SOL     OW19213   3.495   6.491   5.580
 6105SOL    HW119214   3.576   6.537   5.544
 6105SOL    HW219215   3.506   6.475   5.678
 6106SOL     OW19216   2.525   4.794   6.509
 6106SOL    HW119217   2.605   4.819   6.454
 6106SOL    HW219218   2.553   4.731   6.581
 6107SOL     OW19219   2.245   4.859   4.096
 6107SOL    HW119220   2.297   4.809   4.027
 6107SOL    HW219221   2.150   4.870   4.066
 6108SOL     OW19222   0.608   1.920   3.250
 6108SOL    HW119223   0.706   1.907   3.236
 6108SOL    HW219224   0.561   1.833   3.238
 6109SOL     OW19225   5.351   2.689   7.006
 6109SOL    HW119226   5.266   2.740   6.996
 6109SOL    HW219227   5.339   2.615   0.051
 6110SOL     OW19228   2.448   2.531   6.429
 6110SOL    HW119229   2.428   2.457   6.365
 6110SOL    HW219230   2.432   2.619   6.385
 6111SOL     OW19231   1.226   4.907   2.827
 6111SOL    HW119232   1.190   4.904   2.920
 6111SOL    HW219233   1.242   4.814   2.794
 6112SOL     OW19234   2.082   2.097   2.833
 6112SOL    HW119235   2.097   2.001   2.810
 6112SOL    HW219236   2.058   2.148   2.751
 6113SOL     OW19237   0.787   0.814   5.904
 6113SOL    HW119238   0.704   0.760   5.916
 6113SOL    HW219239   0.865   0.765   5.943
 6114SOL     OW19240   4.952   5.373   0.255
 6114SOL    HW119241   4.958   5.430   0.337
 6114SOL    HW219242   4.908   5.425   0.182
 6115SOL     OW19243   4.759   5.132   3.514
 6115SOL    HW119244   4.730   5.037   3.529
 6115SOL    HW219245   4.852   5.144   3.548
 6116SOL     OW19246   3.239   1.217   1.141
 6116SOL    HW119247   3.151   1.176   1.163
 6116SOL    HW219248   3.239   1.313   1.169
 6117SOL     OW19249   6.089   0.018   4.766
 6117SOL    HW119250   6.014   0.055   4.821
 6117SOL    HW219251   6.169   0.078   4.775
 6118SOL     OW19252   0.017   2.242   1.820
 6118SOL    HW119253   0.034   2.159   1.874
 6118SOL    HW219254   0.060   2.320   1.865
 6119SOL     OW19255   0.385   4.520   4.978
 6119SOL    HW119256   0.459   4.524   5.045
 6119SOL    HW219257   0.303   4.564   5.015
 6120SOL     OW19258   3.002   6.961   3.787
 6120SOL    HW119259   2.918   6.962   3.733
 6120SOL    HW219260   3.023   0.033   3.819
 6121SOL     OW19261   0.054   2.848   4.272
 6121SOL    HW119262   0.094   2.938   4.288
 6121SOL    HW219263   6.975   2.855   4.281
 6122SOL     OW19264   3.615   6.358   2.491
 6122SOL    HW119265   3.668   6.276   2.468
 6122SOL    HW219266   3.646   6.393   2.579
 6123SOL     OW19267   6.915   0.921   1.588
 6123SOL    HW119268   6.956   0.831   1.605
 6123SOL    HW219269   6.918   0.976   1.671
 6124SOL     OW19270   3.673   6.560   5.252
 6124SOL    HW119271   3.684   6.566   5.351
 6124SOL    HW219272   3.662   6.652   5.214
 6125SOL     OW19273   2.394   5.523   1.074
 6125SOL    HW119274   2.429   5.439   1.114
 6125SOL    HW219275   2.464   5.595   1.080
 6126SOL     OW19276   5.054   5.943   4.247
 6126SOL    HW119277   5.115   5.868   4.220
 6126SOL    HW219278   5.010   5.921   4.334
 6127SOL     OW19279   2.513   6.920   1.373
 6127SOL    HW119280   2.607   6.884   1.370
 6127SOL    HW219281   2.478   6.913   1.467
 6128SOL     OW19282   6.866   3.447   0.477
 6128SOL    HW119283   6.846   3.395   0.560
 6128SOL    HW219284   6.828   3.539   0.486
 6129SOL     OW19285   6.405   3.921   3.131
 6129SOL    HW119286   6.434   3.847   3.069
 6129SOL    HW219287   6.480   3.942   3.194
 6130SOL     OW19288   6.578   3.309   4.658
 6130SOL    HW119289   6.647   3.327   4.728
 6130SOL    HW219290   6.598   3.222   4.612
 6131SOL     OW19291   6.732   1.435   5.411
 6131SOL    HW119292   6.706   1.367   5.342
 6131SOL    HW219293   6.822   1.413   5.447
 6132SOL     OW19294   3.812   1.138   1.045
 6132SOL    HW119295   3.763   1.077   1.107
 6132SOL    HW219296   3.782   1.121   0.951
 6133SOL     OW19297   0.354   3.044   2.373
 6133SOL    HW119298   0.438   3.087   2.404
 6133SOL    HW219299   0.340   3.064   2.276
 6134SOL     OW19300   3.751   3.128   6.583
 6134SOL    HW119301   3.823   3.059   6.583
 6134SOL    HW219302   3.679   3.102   6.519
 6135SOL     OW19303   6.868   0.208   1.907
 6135SOL    HW119304   6.883   0.185   2.004
 6135SOL    HW219305   6.909   0.298   1.888
 6136SOL     OW19306   0.477   1.291   2.570
 6136SOL    HW119307   0.511   1.237   2.647
 6136SOL    HW219308   0.550   1.352   2.537
 6137SOL     OW19309   3.905   1.163   5.951
 6137SOL    HW119310   3.921   1.243   6.008
 6137SOL    HW219311   3.850   1.189   5.872
 6138SOL     OW19312   3.530   6.640   2.548
 6138SOL    HW119313   3.430   6.634   2.544
 6138SOL    HW219314   3.569   6.551   2.526
 6139SOL     OW19315   2.013   3.172   5.369
 6139SOL    HW119316   1.939   3.137   5.312
 6139SOL    HW219317   2.084   3.211   5.311
 6140SOL     OW19318   0.555   6.981   1.903
 6140SOL    HW119319   0.488   6.932   1.958
 6140SOL    HW219320   0.647   6.965   1.939
 6141SOL     OW19321   6.516   6.369   4.598
 6141SOL    HW119322   6.485   6.451   4.550
 6141SOL    HW219323   6.446   6.338   4.661
 6142SOL     OW19324   7.006   5.050   0.602
 6142SOL    HW119325   6.935   4.999   0.651
 6142SOL    HW219326   6.966   5.090   0.519
 6143SOL     OW19327   5.938   4.753   6.166
 6143SOL    HW119328   6.003   4.680   6.145
 6143SOL    HW219329   5.937   4.819   6.091
 6144SOL     OW19330   7.010   4.205   2.691
 6144SOL    HW119331   6.968   4.187   2.780
 6144SOL    HW219332   0.083   4.237   2.704
 6145SOL     OW19333   4.974   5.565   3.714
 6145SOL    HW119334   4.892   5.623   3.712
 6145SOL    HW219335   5.023   5.580   3.800
 6146SOL     OW19336   4.376   1.381   3.617
 6146SOL    HW119337   4.402   1.333   3.533
 6146SOL    HW219338   4.444   1.452   3.637
 6147SOL     OW19339   1.819   5.050   2.930
 6147SOL    HW119340   1.853   5.092   3.014
 6147SOL    HW219341   1.724   5.021   2.943
 6148SOL     OW19342   6.812   6.540   4.538
 6148SOL    HW119343   6.863   6.552   4.452
 6148SOL    HW219344   6.742   6.611   4.545
 6149SOL     OW19345   3.726   5.006   3.508
 6149SOL    HW119346   3.795   4.960   3.452
 6149SOL    HW219347   3.771   5.076   3.564
 6150SOL     OW19348   4.518   5.252   6.632
 6150SOL    HW119349   4.436   5.280   6.681
 6150SOL    HW219350   4.581   5.206   6.695
 6151SOL     OW19351   5.884   3.129   5.253
 6151SOL    HW119352   5.948   3.199   5.220
 6151SOL    HW219353   5.793   3.169   5.262
 6152SOL     OW19354   5.298   5.048   6.066
 6152SOL    HW119355   5.223   4.999   6.021
 6152SOL    HW219356   5.336   4.991   6.139
 6153SOL     OW19357   4.581   4.071   1.406
 6153SOL    HW119358   4.496   4.121   1.423
 6153SOL    HW219359   4.563   3.996   1.342
 6154SOL     OW19360   5.368   1.507   1.921
 6154SOL    HW119361   5.376   1.565   2.003
 6154SOL    HW219362   5.276   1.470   1.915
 6155SOL     OW19363   0.955   3.411   4.379
 6155SOL    HW119364   0.990   3.503   4.396
 6155SOL    HW219365   1.031   3.346   4.376
 6156SOL     OW19366   4.757   6.284   2.728
 6156SOL    HW119367   4.839   6.335   2.757
 6156SOL    HW219368   4.717   6.238   2.807
 6157SOL     OW19369   1.620   2.720   3.626
 6157SOL    HW119370   1.550   2.649   3.624
 6157SOL    HW219371   1.604   2.782   3.703
 6158SOL     OW19372   4.389   0.878   6.829
 6158SOL    HW119373   4.368   0.970   6.862
 6158SOL    HW219374   4.444   0.884   6.745
 6159SOL     OW19375   5.177   1.543   0.309
 6159SOL    HW119376   5.199   1.489   0.390
 6159SOL    HW219377   5.197   1.640   0.328
 6160SOL     OW19378   5.275   5.595   0.639
 6160SOL    HW119379   5.350   5.651   0.603
 6160SOL    HW219380   5.311   5.505   0.667
 6161SOL     OW19381   5.978   1.240   5.418
 6161SOL    HW119382   5.892   1.260   5.465
 6161SOL    HW219383   6.053   1.249   5.483
 6162SOL     OW19384   0.979   4.680   4.540
 6162SOL    HW119385   0.965   4.776   4.567
 6162SOL    HW219386   0.890   4.636   4.529
 6163SOL     OW19387   5.346   5.037   1.057
 6163SOL    HW119388   5.350   5.130   1.021
 6163SOL    HW219389   5.307   5.039   1.149
 6164SOL     OW19390   2.131   2.357   1.615
 6164SOL    HW119391   2.171   2.296   1.546
 6164SOL    HW219392   2.203   2.385   1.679
 6165SOL     OW19393   3.984   6.066   6.947
 6165SOL    HW119394   3.983   6.028   0.019
 6165SOL    HW219395   3.959   6.162   6.950
 6166SOL     OW19396   3.046   1.126   5.935
 6166SOL    HW119397   2.988   1.136   5.854
 6166SOL    HW219398   3.042   1.210   5.989
 6167SOL     OW19399   0.974   4.818   2.539
 6167SOL    HW119400   1.054   4.874   2.518
 6167SOL    HW219401   0.981   4.783   2.632
 6168SOL     OW19402   0.532   3.479   1.520
 6168SOL    HW119403   0.615   3.448   1.473
 6168SOL    HW219404   0.515   3.575   1.498
 6169SOL     OW19405   2.071   3.527   1.671
 6169SOL    HW119406   2.084   3.552   1.575
 6169SOL    HW219407   2.152   3.554   1.723
 6170SOL     OW19408   0.467   3.452   5.230
 6170SOL    HW119409   0.413   3.475   5.149
 6170SOL    HW219410   0.444   3.359   5.260
 6171SOL     OW19411   0.846   0.739   0.621
 6171SOL    HW119412   0.854   0.795   0.539
 6171SOL    HW219413   0.758   0.693   0.621
 6172SOL     OW19414   1.216   2.405   3.026
 6172SOL    HW119415   1.159   2.328   2.997
 6172SOL    HW219416   1.206   2.419   3.124
 6173SOL     OW19417   6.950   5.873   3.122
 6173SOL    HW119418   6.978   5.801   3.058
 6173SOL    HW219419   6.967   5.842   3.216
 6174SOL     OW19420   4.980   4.809   3.086
 6174SOL    HW119421   5.031   4.797   3.001
 6174SOL    HW219422   4.884   4.824   3.066
 6175SOL     OW19423   3.637   0.367   4.924
 6175SOL    HW119424   3.558   0.412   4.967
 6175SOL    HW219425   3.619   0.355   4.826
 6176SOL     OW19426   4.479   3.493   5.351
 6176SOL    HW119427   4.557   3.483   5.289
 6176SOL    HW219428   4.409   3.548   5.306
 6177SOL     OW19429   6.099   1.828   1.630
 6177SOL    HW119430   6.186   1.803   1.670
 6177SOL    HW219431   6.026   1.815   1.697
 6178SOL     OW19432   4.795   3.605   1.822
 6178SOL    HW119433   4.777   3.511   1.794
 6178SOL    HW219434   4.736   3.667   1.770
 6179SOL     OW19435   6.637   4.772   1.658
 6179SOL    HW119436   6.558   4.809   1.705
 6179SOL    HW219437   6.701   4.734   1.724
 6180SOL     OW19438   3.132   4.825   0.645
 6180SOL    HW119439   3.230   4.838   0.637
 6180SOL    HW219440   3.093   4.898   0.701
 6181SOL     OW19441   4.981   5.334   6.096
 6181SOL    HW119442   4.920   5.356   6.020
 6181SOL    HW219443   4.938   5.363   6.182
 6182SOL     OW19444   3.596   3.092   0.190
 6182SOL    HW119445   3.615   3.176   0.139
 6182SOL    HW219446   3.673   3.072   0.251
 6183SOL     OW19447   1.423   2.376   0.975
 6183SOL    HW119448   1.390   2.282   0.983
 6183SOL    HW219449   1.497   2.379   0.908
 6184SOL     OW19450   2.933   0.785   5.840
 6184SOL    HW119451   2.939   0.689   5.867
 6184SOL    HW219452   2.837   0.813   5.835
 6185SOL     OW19453   3.218   2.903   5.544
 6185SOL    HW119454   3.309   2.927   5.510
 6185SOL    HW219455   3.203   2.946   5.633
 6186SOL     OW19456   6.937   1.976   1.638
 6186SOL    HW119457   6.863   2.043   1.630
 6186SOL    HW219458   7.017   2.008   1.589
 6187SOL     OW19459   4.851   2.203   5.189
 6187SOL    HW119460   4.935   2.169   5.231
 6187SOL    HW219461   4.829   2.150   5.107
 6188SOL     OW19462   1.929   1.407   5.596
 6188SOL    HW119463   1.846   1.407   5.652
 6188SOL    HW219464   1.904   1.395   5.500
 6189SOL     OW19465   3.955   5.534   2.380
 6189SOL    HW119466   3.864   5.567   2.406
 6189SOL    HW219467   4.015   5.538   2.459
 6190SOL     OW19468   6.269   3.305   6.045
 6190SOL    HW119469   6.206   3.227   6.047
 6190SOL    HW219470   6.232   3.379   6.102
 6191SOL     OW19471   2.486   3.470   5.950
 6191SOL    HW119472   2.582   3.479   5.924
 6191SOL    HW219473   2.457   3.375   5.935
 6192SOL     OW19474   2.462   1.404   6.915
 6192SOL    HW119475   2.401   1.348   6.857
 6192SOL    HW219476   2.498   1.480   6.861
 6193SOL     OW19477   5.242   4.819   0.091
 6193SOL    HW119478   5.293   4.733   0.088
 6193SOL    HW219479   5.144   4.801   0.086
 6194SOL     OW19480   6.643   0.861   0.133
 6194SOL    HW119481   6.563   0.860   0.194
 6194SOL    HW219482   6.677   0.768   0.122
 6195SOL     OW19483   5.744   0.621   4.813
 6195SOL    HW119484   5.805   0.600   4.737
 6195SOL    HW219485   5.789   0.598   4.900
 6196SOL     OW19486   5.257   4.546   2.600
 6196SOL    HW119487   5.299   4.465   2.639
 6196SOL    HW219488   5.244   4.533   2.502
 6197SOL     OW19489   2.638   5.419   1.962
 6197SOL    HW119490   2.683   5.454   1.879
 6197SOL    HW219491   2.637   5.319   1.960
 6198SOL     OW19492   5.610   6.469   5.965
 6198SOL    HW119493   5.524   6.419   5.963
 6198SOL    HW219494   5.600   6.551   6.022
 6199SOL     OW19495   0.386   0.325   0.578
 6199SOL    HW119496   0.478   0.300   0.607
 6199SOL    HW219497   0.383   0.334   0.478
 6200SOL     OW19498   1.568   0.899   2.377
 6200SOL    HW119499   1.561   0.971   2.307
 6200SOL    HW219500   1.662   0.868   2.383
 6201SOL     OW19501   6.986   4.218   4.002
 6201SOL    HW119502   0.001   4.289   4.062
 6201SOL    HW219503   0.035   4.191   3.936
 6202SOL     OW19504   5.913   1.896   3.503
 6202SOL    HW119505   5.975   1.958   3.552
 6202SOL    HW219506   5.884   1.823   3.564
 6203SOL     OW19507   6.653   5.827   1.845
 6203SOL    HW119508   6.587   5.758   1.873
 6203SOL    HW219509   6.697   5.865   1.927
 6204SOL     OW19510   1.183   6.246   5.025
 6204SOL    HW119511   1.192   6.165   4.968
 6204SOL    HW219512   1.270   6.295   5.026
 6205SOL     OW19513   4.719   4.802   2.327
 6205SOL    HW119514   4.754   4.721   2.375
 6205SOL    HW219515   4.700   4.778   2.232
 6206SOL     OW19516   4.868   1.677   3.765
 6206SOL    HW119517   4.904   1.758   3.718
 6206SOL    HW219518   4.885   1.596   3.709
 6207SOL     OW19519   1.470   5.672   4.539
 6207SOL    HW119520   1.438   5.702   4.449
 6207SOL    HW219521   1.563   5.704   4.554
 6208SOL     OW19522   3.816   2.782   5.893
 6208SOL    HW119523   3.716   2.781   5.889
 6208SOL    HW219524   3.852   2.831   5.813
 6209SOL     OW19525   3.506   4.124   1.196
 6209SOL    HW119526   3.523   4.209   1.245
 6209SOL    HW219527   3.593   4.088   1.160
 6210SOL     OW19528   4.895   3.501   3.303
 6210SOL    HW119529   4.917   3.563   3.378
 6210SOL    HW219530   4.799   3.474   3.308
 6211SOL     OW19531   4.629   5.399   4.877
 6211SOL    HW119532   4.672   5.395   4.967
 6211SOL    HW219533   4.535   5.432   4.887
 6212SOL     OW19534   2.750   5.028   5.414
 6212SOL    HW119535   2.771   5.099   5.480
 6212SOL    HW219536   2.777   4.939   5.451
 6213SOL     OW19537   4.954   6.640   0.410
 6213SOL    HW119538   4.937   6.547   0.377
 6213SOL    HW219539   4.944   6.643   0.509
 6214SOL     OW19540   5.909   5.900   5.054
 6214SOL    HW119541   6.006   5.881   5.047
 6214SOL    HW219542   5.889   5.938   5.145
 6215SOL     OW19543   5.186   3.335   6.119
 6215SOL    HW119544   5.138   3.335   6.207
 6215SOL    HW219545   5.120   3.326   6.044
 6216SOL     OW19546   5.705   2.733   3.407
 6216SOL    HW119547   5.735   2.824   3.435
 6216SOL    HW219548   5.759   2.664   3.456
 6217SOL     OW19549   1.019   5.319   2.702
 6217SOL    HW119550   0.953   5.245   2.714
 6217SOL    HW219551   0.971   5.406   2.690
 6218SOL     OW19552   4.983   5.815   0.201
 6218SOL    HW119553   4.912   5.875   0.163
 6218SOL    HW219554   5.064   5.870   0.222
 6219SOL     OW19555   1.038   0.878   4.920
 6219SOL    HW119556   1.049   0.914   4.827
 6219SOL    HW219557   1.059   0.949   4.987
 6220SOL     OW19558   3.675   0.307   0.461
 6220SOL    HW119559   3.674   0.407   0.458
 6220SOL    HW219560   3.643   0.276   0.551
 6221SOL     OW19561   6.865   6.290   6.351
 6221SOL    HW119562   6.807   6.324   6.425
 6221SOL    HW219563   6.899   6.367   6.297
 6222SOL     OW19564   5.758   1.044   1.957
 6222SOL    HW119565   5.765   1.066   1.860
 6222SOL    HW219566   5.836   0.988   1.984
 6223SOL     OW19567   0.623   4.923   3.893
 6223SOL    HW119568   0.575   4.838   3.914
 6223SOL    HW219569   0.720   4.904   3.877
 6224SOL     OW19570   4.202   1.465   6.631
 6224SOL    HW119571   4.107   1.493   6.647
 6224SOL    HW219572   4.204   1.371   6.598
 6225SOL     OW19573   3.816   0.832   6.929
 6225SOL    HW119574   3.806   0.830   0.007
 6225SOL    HW219575   3.911   0.853   6.905
 6226SOL     OW19576   1.362   1.638   4.056
 6226SOL    HW119577   1.318   1.643   3.967
 6226SOL    HW219578   1.304   1.682   4.125
 6227SOL     OW19579   3.043   4.660   5.770
 6227SOL    HW119580   2.952   4.651   5.810
 6227SOL    HW219581   3.041   4.626   5.676
 6228SOL     OW19582   2.213   2.328   3.526
 6228SOL    HW119583   2.157   2.410   3.525
 6228SOL    HW219584   2.156   2.248   3.511
 6229SOL     OW19585   0.011   3.342   4.801
 6229SOL    HW119586   6.974   3.418   4.769
 6229SOL    HW219587   0.004   3.333   4.900
 6230SOL     OW19588   0.049   1.645   2.533
 6230SOL    HW119589   0.065   1.729   2.480
 6230SOL    HW219590   6.976   1.613   2.517
 6231SOL     OW19591   5.473   4.503   0.976
 6231SOL    HW119592   5.388   4.507   1.028
 6231SOL    HW219593   5.528   4.584   0.994
 6232SOL     OW19594   5.530   0.425   0.296
 6232SOL    HW119595   5.598   0.495   0.318
 6232SOL    HW219596   5.484   0.396   0.380
 6233SOL     OW19597   0.404   3.564   2.418
 6233SOL    HW119598   0.419   3.661   2.437
 6233SOL    HW219599   0.493   3.517   2.416
 6234SOL     OW19600   0.262   0.141   4.498
 6234SOL    HW119601   0.295   0.047   4.510
 6234SOL    HW219602   0.318   0.187   4.429
 6235SOL     OW19603   6.658   1.047   2.494
 6235SOL    HW119604   6.755   1.060   2.512
 6235SOL    HW219605   6.634   0.951   2.503
 6236SOL     OW19606   0.517   4.539   1.053
 6236SOL    HW119607   0.596   4.478   1.045
 6236SOL    HW219608   0.506   4.566   1.149
 6237SOL     OW19609   3.627   0.007   0.562
 6237SOL    HW119610   3.550   6.986   0.514
 6237SOL    HW219611   3.604   0.102   0.585
 6238SOL     OW19612   2.824   6.556   4.002
 6238SOL    HW119613   2.749   6.536   4.066
 6238SOL    HW219614   2.892   6.483   4.006
 6239SOL     OW19615   4.836   0.346   2.251
 6239SOL    HW119616   4.807   0.421   2.192
 6239SOL    HW219617   4.821   0.371   2.347
 6240SOL     OW19618   3.201   3.056   4.918
 6240SOL    HW119619   3.113   3.104   4.923
 6240SOL    HW219620   3.237   3.062   4.825
 6241SOL     OW19621   3.030   6.723   3.924
 6241SOL    HW119622   2.950   6.664   3.933
 6241SOL    HW219623   3.010   6.798   3.861
 6242SOL     OW19624   3.023   1.925   2.692
 6242SOL    HW119625   3.014   2.025   2.690
 6242SOL    HW219626   3.016   1.893   2.786
 6243SOL     OW19627   5.878   1.145   6.243
 6243SOL    HW119628   5.821   1.112   6.168
 6243SOL    HW219629   5.941   1.073   6.273
 6244SOL     OW19630   4.427   4.990   3.164
 6244SOL    HW119631   4.415   5.001   3.066
 6244SOL    HW219632   4.524   4.998   3.187
 6245SOL     OW19633   1.327   4.679   2.733
 6245SOL    HW119634   1.422   4.709   2.724
 6245SOL    HW219635   1.324   4.582   2.754
 6246SOL     OW19636   1.252   6.750   4.699
 6246SOL    HW119637   1.176   6.702   4.656
 6246SOL    HW219638   1.333   6.744   4.642
 6247SOL     OW19639   7.008   5.429   3.652
 6247SOL    HW119640   7.008   5.391   3.560
 6247SOL    HW219641   0.026   5.522   3.651
 6248SOL     OW19642   4.201   2.503   6.478
 6248SOL    HW119643   4.123   2.564   6.493
 6248SOL    HW219644   4.198   2.470   6.383
 6249SOL     OW19645   0.232   2.945   1.385
 6249SOL    HW119646   0.276   3.012   1.326
 6249SOL    HW219647   0.268   2.953   1.478
 6250SOL     OW19648   6.682   6.822   0.832
 6250SOL    HW119649   6.608   6.888   0.820
 6250SOL    HW219650   6.670   6.746   0.768
 6251SOL     OW19651   3.122   0.099   4.377
 6251SOL    HW119652   3.041   0.069   4.326
 6251SOL    HW219653   3.200   0.106   4.315
 6252SOL     OW19654   2.776   5.669   6.923
 6252SOL    HW119655   2.782   5.606   7.001
 6252SOL    HW219656   2.680   5.684   6.900
 6253SOL     OW19657   3.084   5.114   4.654
 6253SOL    HW119658   2.997   5.077   4.686
 6253SOL    HW219659   3.155   5.045   4.664
 6254SOL     OW19660   0.070   5.370   0.657
 6254SOL    HW119661   0.158   5.414   0.676
 6254SOL    HW219662   0.048   5.381   0.560
 6255SOL     OW19663   1.563   1.878   1.191
 6255SOL    HW119664   1.483   1.937   1.173
 6255SOL    HW219665   1.543   1.786   1.159
 6256SOL     OW19666   4.687   5.621   3.004
 6256SOL    HW119667   4.717   5.634   3.098
 6256SOL    HW219668   4.589   5.599   3.003
 6257SOL     OW19669   4.261   3.997   0.700
 6257SOL    HW119670   4.204   3.915   0.697
 6257SOL    HW219671   4.353   3.972   0.731
 6258SOL     OW19672   4.511   0.212   5.863
 6258SOL    HW119673   4.586   0.276   5.882
 6258SOL    HW219674   4.479   0.226   5.769
 6259SOL     OW19675   2.291   6.688   5.567
 6259SOL    HW119676   2.350   6.768   5.570
 6259SOL    HW219677   2.272   6.663   5.472
 6260SOL     OW19678   1.744   0.355   0.556
 6260SOL    HW119679   1.822   0.293   0.549
 6260SOL    HW219680   1.693   0.353   0.470
 6261SOL     OW19681   4.736   6.794   1.049
 6261SOL    HW119682   4.703   6.778   0.956
 6261SOL    HW219683   4.771   6.708   1.086
 6262SOL     OW19684   6.243   6.591   2.308
 6262SOL    HW119685   6.215   6.499   2.332
 6262SOL    HW219686   6.332   6.588   2.262
 6263SOL     OW19687   0.292   6.898   4.562
 6263SOL    HW119688   0.292   6.850   4.474
 6263SOL    HW219689   0.373   6.871   4.615
 6264SOL     OW19690   0.351   6.845   1.044
 6264SOL    HW119691   0.445   6.812   1.050
 6264SOL    HW219692   0.298   6.807   1.119
 6265SOL     OW19693   4.005   2.581   0.584
 6265SOL    HW119694   3.908   2.602   0.597
 6265SOL    HW219695   4.051   2.583   0.673
 6266SOL     OW19696   3.299   5.292   3.292
 6266SOL    HW119697   3.389   5.257   3.318
 6266SOL    HW219698   3.244   5.218   3.255
 6267SOL     OW19699   1.110   6.399   5.655
 6267SOL    HW119700   1.133   6.460   5.578
 6267SOL    HW219701   1.097   6.454   5.738
 6268SOL     OW19702   3.446   0.382   1.729
 6268SOL    HW119703   3.510   0.311   1.700
 6268SOL    HW219704   3.352   0.352   1.711
 6269SOL     OW19705   5.760   6.588   1.221
 6269SOL    HW119706   5.809   6.658   1.273
 6269SOL    HW219707   5.671   6.571   1.264
 6270SOL     OW19708   1.397   6.133   6.914
 6270SOL    HW119709   1.476   6.149   6.856
 6270SOL    HW219710   1.322   6.096   6.858
 6271SOL     OW19711   5.921   3.460   0.029
 6271SOL    HW119712   5.939   3.548   0.074
 6271SOL    HW219713   5.919   3.473   6.951
 6272SOL     OW19714   5.529   0.046   6.848
 6272SOL    HW119715   5.446   0.101   6.838
 6272SOL    HW219716   5.527   6.990   6.784
 6273SOL     OW19717   7.020   6.786   2.362
 6273SOL    HW119718   0.093   6.754   2.347
 6273SOL    HW219719   6.986   6.749   2.449
 6274SOL     OW19720   3.257   6.279   4.726
 6274SOL    HW119721   3.174   6.321   4.688
 6274SOL    HW219722   3.337   6.324   4.688
 6275SOL     OW19723   2.130   6.020   0.770
 6275SOL    HW119724   2.153   5.966   0.850
 6275SOL    HW219725   2.049   6.075   0.789
 6276SOL     OW19726   2.103   5.582   3.529
 6276SOL    HW119727   2.123   5.484   3.531
 6276SOL    HW219728   2.152   5.624   3.452
 6277SOL     OW19729   5.262   2.731   1.494
 6277SOL    HW119730   5.259   2.647   1.547
 6277SOL    HW219731   5.253   2.710   1.397
 6278SOL     OW19732   3.215   0.081   5.379
 6278SOL    HW119733   3.187   0.077   5.475
 6278SOL    HW219734   3.186   7.019   5.332
 6279SOL     OW19735   3.571   5.924   1.269
 6279SOL    HW119736   3.648   5.888   1.217
 6279SOL    HW219737   3.506   5.967   1.206
 6280SOL     OW19738   6.383   1.771   6.753
 6280SOL    HW119739   6.358   1.688   6.803
 6280SOL    HW219740   6.435   1.831   6.814
 6281SOL     OW19741   6.005   4.185   4.699
 6281SOL    HW119742   6.060   4.266   4.718
 6281SOL    HW219743   6.008   4.124   4.778
 6282SOL     OW19744   0.195   3.491   6.447
 6282SOL    HW119745   0.250   3.573   6.430
 6282SOL    HW219746   0.124   3.511   6.514
 6283SOL     OW19747   1.118   5.915   5.104
 6283SOL    HW119748   1.117   5.873   5.195
 6283SOL    HW219749   1.025   5.942   5.079
 6284SOL     OW19750   2.006   3.986   6.786
 6284SOL    HW119751   2.002   4.017   6.691
 6284SOL    HW219752   2.004   4.066   6.847
 6285SOL     OW19753   1.781   3.395   2.855
 6285SOL    HW119754   1.706   3.330   2.843
 6285SOL    HW219755   1.865   3.354   2.818
 6286SOL     OW19756   0.961   3.322   4.868
 6286SOL    HW119757   0.904   3.242   4.885
 6286SOL    HW219758   1.044   3.316   4.923
 6287SOL     OW19759   4.218   4.810   5.137
 6287SOL    HW119760   4.211   4.853   5.046
 6287SOL    HW219761   4.126   4.798   5.175
 6288SOL     OW19762   3.856   3.149   6.121
 6288SOL    HW119763   3.880   3.052   6.126
 6288SOL    HW219764   3.837   3.183   6.213
 6289SOL     OW19765   2.554   4.491   6.563
 6289SOL    HW119766   2.580   4.521   6.655
 6289SOL    HW219767   2.637   4.470   6.511
 6290SOL     OW19768   6.022   5.512   5.762
 6290SOL    HW119769   6.105   5.513   5.818
 6290SOL    HW219770   5.992   5.418   5.749
 6291SOL     OW19771   3.650   3.250   3.015
 6291SOL    HW119772   3.735   3.297   2.996
 6291SOL    HW219773   3.663   3.187   3.092
 6292SOL     OW19774   2.234   3.059   4.297
 6292SOL    HW119775   2.286   2.997   4.238
 6292SOL    HW219776   2.137   3.035   4.294
 6293SOL     OW19777   5.394   1.075   6.743
 6293SOL    HW119778   5.392   1.114   6.651
 6293SOL    HW219779   5.483   1.032   6.759
 6294SOL     OW19780   2.993   1.109   4.091
 6294SOL    HW119781   2.989   1.065   4.001
 6294SOL    HW219782   2.921   1.179   4.096
 6295SOL     OW19783   5.534   4.625   5.364
 6295SOL    HW119784   5.496   4.709   5.325
 6295SOL    HW219785   5.581   4.573   5.293
 6296SOL     OW19786   0.443   3.157   6.497
 6296SOL    HW119787   0.427   3.060   6.476
 6296SOL    HW219788   0.402   3.213   6.424
 6297SOL     OW19789   6.455   0.348   4.596
 6297SOL    HW119790   6.425   0.329   4.503
 6297SOL    HW219791   6.539   0.296   4.615
 6298SOL     OW19792   5.434   4.491   6.824
 6298SOL    HW119793   5.351   4.436   6.832
 6298SOL    HW219794   5.512   4.431   6.809
 6299SOL     OW19795   4.644   2.760   3.076
 6299SOL    HW119796   4.662   2.710   2.992
 6299SOL    HW219797   4.670   2.856   3.064
 6300SOL     OW19798   3.815   1.301   6.268
 6300SOL    HW119799   3.845   1.341   6.182
 6300SOL    HW219800   3.770   1.213   6.250
 6301SOL     OW19801   3.295   6.793   6.760
 6301SOL    HW119802   3.395   6.789   6.756
 6301SOL    HW219803   3.259   6.812   6.669
 6302SOL     OW19804   2.717   0.425   5.607
 6302SOL    HW119805   2.793   0.359   5.604
 6302SOL    HW219806   2.635   0.382   5.569
 6303SOL     OW19807   0.777   6.234   6.128
 6303SOL    HW119808   0.708   6.186   6.074
 6303SOL    HW219809   0.851   6.171   6.150
 6304SOL     OW19810   4.272   1.100   3.037
 6304SOL    HW119811   4.370   1.082   3.024
 6304SOL    HW219812   4.230   1.024   3.085
 6305SOL     OW19813   0.431   5.737   5.268
 6305SOL    HW119814   0.468   5.669   5.331
 6305SOL    HW219815   0.339   5.763   5.297
 6306SOL     OW19816   6.974   4.798   4.080
 6306SOL    HW119817   7.003   4.739   4.156
 6306SOL    HW219818   0.019   4.791   4.005
 6307SOL     OW19819   4.044   3.641   3.498
 6307SOL    HW119820   4.091   3.674   3.580
 6307SOL    HW219821   4.002   3.718   3.450
 6308SOL     OW19822   0.142   2.696   6.484
 6308SOL    HW119823   0.213   2.633   6.451
 6308SOL    HW219824   0.099   2.741   6.406
 6309SOL     OW19825   1.221   6.803   4.985
 6309SOL    HW119826   1.222   6.785   4.887
 6309SOL    HW219827   1.132   6.842   5.011
 6310SOL     OW19828   1.803   6.750   3.460
 6310SOL    HW119829   1.830   6.835   3.505
 6310SOL    HW219830   1.796   6.677   3.528
 6311SOL     OW19831   5.515   1.450   5.984
 6311SOL    HW119832   5.597   1.507   5.992
 6311SOL    HW219833   5.479   1.430   6.075
 6312SOL     OW19834   3.513   6.492   6.662
 6312SOL    HW119835   3.569   6.561   6.618
 6312SOL    HW219836   3.528   6.404   6.617
 6313SOL     OW19837   4.878   6.525   3.284
 6313SOL    HW119838   4.955   6.498   3.342
 6313SOL    HW219839   4.913   6.570   3.202
 6314SOL     OW19840   2.953   0.168   1.686
 6314SOL    HW119841   2.889   0.092   1.697
 6314SOL    HW219842   2.912   0.238   1.628
 6315SOL     OW19843   1.755   3.173   4.154
 6315SOL    HW119844   1.848   3.162   4.119
 6315SOL    HW219845   1.749   3.136   4.247
 6316SOL     OW19846   5.245   2.067   5.174
 6316SOL    HW119847   5.159   2.069   5.225
 6316SOL    HW219848   5.287   2.158   5.177
 6317SOL     OW19849   5.073   4.628   1.976
 6317SOL    HW119850   5.006   4.586   2.037
 6317SOL    HW219851   5.107   4.713   2.017
 6318SOL     OW19852   6.337   0.510   6.414
 6318SOL    HW119853   6.336   0.500   6.314
 6318SOL    HW219854   6.424   0.552   6.442
 6319SOL     OW19855   5.487   2.884   4.569
 6319SOL    HW119856   5.547   2.959   4.595
 6319SOL    HW219857   5.394   2.904   4.597
 6320SOL     OW19858   0.280   1.085   3.988
 6320SOL    HW119859   0.304   1.173   3.947
 6320SOL    HW219860   0.333   1.073   4.072
 6321SOL     OW19861   5.438   2.080   0.697
 6321SOL    HW119862   5.477   2.067   0.788
 6321SOL    HW219863   5.488   2.023   0.632
 6322SOL     OW19864   2.000   0.642   0.883
 6322SOL    HW119865   1.933   0.687   0.823
 6322SOL    HW219866   2.019   0.700   0.961
 6323SOL     OW19867   2.848   3.033   1.029
 6323SOL    HW119868   2.930   2.976   1.035
 6323SOL    HW219869   2.767   2.979   1.050
 6324SOL     OW19870   4.642   1.341   0.949
 6324SOL    HW119871   4.579   1.388   0.886
 6324SOL    HW219872   4.649   1.394   1.034
 6325SOL     OW19873   1.601   2.329   2.457
 6325SOL    HW119874   1.555   2.261   2.514
 6325SOL    HW219875   1.667   2.380   2.512
 6326SOL     OW19876   5.084   5.320   5.749
 6326SOL    HW119877   5.022   5.244   5.733
 6326SOL    HW219878   5.157   5.292   5.812
 6327SOL     OW19879   0.074   2.207   3.774
 6327SOL    HW119880   7.012   2.163   3.810
 6327SOL    HW219881   0.049   2.270   3.701
 6328SOL     OW19882   4.607   3.404   6.054
 6328SOL    HW119883   4.621   3.488   6.107
 6328SOL    HW219884   4.509   3.385   6.048
 6329SOL     OW19885   1.691   2.715   5.590
 6329SOL    HW119886   1.705   2.701   5.492
 6329SOL    HW219887   1.776   2.693   5.639
 6330SOL     OW19888   6.510   1.108   3.435
 6330SOL    HW119889   6.431   1.080   3.490
 6330SOL    HW219890   6.573   1.031   3.426
 6331SOL     OW19891   6.579   3.069   4.528
 6331SOL    HW119892   6.553   2.994   4.589
 6331SOL    HW219893   6.584   3.035   4.434
 6332SOL     OW19894   1.959   1.694   1.331
 6332SOL    HW119895   1.971   1.611   1.278
 6332SOL    HW219896   1.918   1.765   1.274
 6333SOL     OW19897   5.064   0.400   0.543
 6333SOL    HW119898   5.030   0.485   0.582
 6333SOL    HW219899   5.104   0.343   0.616
 6334SOL     OW19900   3.003   1.654   2.325
 6334SOL    HW119901   3.032   1.570   2.370
 6334SOL    HW219902   2.987   1.725   2.393
 6335SOL     OW19903   5.716   0.648   0.380
 6335SOL    HW119904   5.787   0.715   0.363
 6335SOL    HW219905   5.680   0.659   0.473
 6336SOL     OW19906   0.313   3.786   5.898
 6336SOL    HW119907   0.323   3.758   5.803
 6336SOL    HW219908   0.342   3.711   5.958
 6337SOL     OW19909   4.314   5.314   4.862
 6337SOL    HW119910   4.249   5.377   4.906
 6337SOL    HW219911   4.274   5.222   4.859
 6338SOL     OW19912   3.242   1.837   3.984
 6338SOL    HW119913   3.245   1.764   4.052
 6338SOL    HW219914   3.246   1.926   4.030
 6339SOL     OW19915   1.122   4.114   2.767
 6339SOL    HW119916   1.105   4.182   2.838
 6339SOL    HW219917   1.181   4.042   2.804
 6340SOL     OW19918   2.300   3.804   1.332
 6340SOL    HW119919   2.229   3.776   1.397
 6340SOL    HW219920   2.290   3.752   1.247
 6341SOL     OW19921   1.207   4.481   4.352
 6341SOL    HW119922   1.281   4.528   4.400
 6341SOL    HW219923   1.134   4.460   4.416
 6342SOL     OW19924   1.658   0.909   1.942
 6342SOL    HW119925   1.629   1.002   1.964
 6342SOL    HW219926   1.589   0.844   1.973
 6343SOL     OW19927   2.837   5.892   0.517
 6343SOL    HW119928   2.883   5.841   0.589
 6343SOL    HW219929   2.870   5.987   0.516
 6344SOL     OW19930   5.862   2.578   3.569
 6344SOL    HW119931   5.877   2.560   3.666
 6344SOL    HW219932   5.950   2.595   3.524
 6345SOL     OW19933   5.504   3.358   1.838
 6345SOL    HW119934   5.490   3.425   1.766
 6345SOL    HW219935   5.602   3.351   1.859
 6346SOL     OW19936   0.643   4.353   5.837
 6346SOL    HW119937   0.651   4.397   5.927
 6346SOL    HW219938   0.730   4.360   5.788
 6347SOL     OW19939   2.709   2.386   2.731
 6347SOL    HW119940   2.797   2.346   2.755
 6347SOL    HW219941   2.684   2.357   2.638
 6348SOL     OW19942   0.227   1.575   5.856
 6348SOL    HW119943   0.290   1.544   5.785
 6348SOL    HW219944   0.192   1.496   5.906
 6349SOL     OW19945   0.640   0.337   0.610
 6349SOL    HW119946   0.653   0.434   0.630
 6349SOL    HW219947   0.670   0.319   0.516
 6350SOL     OW19948   0.760   4.382   2.125
 6350SOL    HW119949   0.733   4.462   2.071
 6350SOL    HW219950   0.826   4.328   2.073
 6351SOL     OW19951   6.453   3.627   3.634
 6351SOL    HW119952   6.353   3.629   3.629
 6351SOL    HW219953   6.481   3.619   3.730
 6352SOL     OW19954   2.415   0.192   4.294
 6352SOL    HW119955   2.385   0.221   4.203
 6352SOL    HW219956   2.510   0.161   4.290
 6353SOL     OW19957   2.113   6.175   6.596
 6353SOL    HW119958   2.067   6.088   6.609
 6353SOL    HW219959   2.156   6.177   6.506
 6354SOL     OW19960   5.137   4.367   3.132
 6354SOL    HW119961   5.174   4.289   3.083
 6354SOL    HW219962   5.101   4.337   3.221
 6355SOL     OW19963   2.583   4.510   0.569
 6355SOL    HW119964   2.627   4.447   0.504
 6355SOL    HW219965   2.654   4.554   0.625
 6356SOL     OW19966   4.782   5.104   6.305
 6356SOL    HW119967   4.875   5.081   6.279
 6356SOL    HW219968   4.776   5.203   6.324
 6357SOL     OW19969   6.019   2.195   1.543
 6357SOL    HW119970   6.019   2.294   1.557
 6357SOL    HW219971   6.064   2.150   1.620
 6358SOL     OW19972   1.510   2.033   6.825
 6358SOL    HW119973   1.601   2.017   6.863
 6358SOL    HW219974   1.513   2.024   6.725
 6359SOL     OW19975   5.755   6.495   0.735
 6359SOL    HW119976   5.748   6.576   0.793
 6359SOL    HW219977   5.670   6.485   0.682
 6360SOL     OW19978   0.172   2.592   3.606
 6360SOL    HW119979   0.148   2.583   3.510
 6360SOL    HW219980   0.238   2.666   3.617
 6361SOL     OW19981   0.180   0.465   0.040
 6361SOL    HW119982   0.247   0.526   7.017
 6361SOL    HW219983   0.109   0.521   0.084
 6362SOL     OW19984   0.857   5.428   6.669
 6362SOL    HW119985   0.900   5.509   6.630
 6362SOL    HW219986   0.866   5.431   6.769
 6363SOL     OW19987   2.582   4.966   3.491
 6363SOL    HW119988   2.499   4.943   3.440
 6363SOL    HW219989   2.561   4.975   3.588
 6364SOL     OW19990   2.450   2.120   5.192
 6364SOL    HW119991   2.423   2.104   5.097
 6364SOL    HW219992   2.541   2.082   5.207
 6365SOL     OW19993   5.961   6.178   4.069
 6365SOL    HW119994   5.970   6.277   4.078
 6365SOL    HW219995   5.891   6.145   4.132
 6366SOL     OW19996   5.994   6.414   4.877
 6366SOL    HW119997   5.903   6.455   4.874
 6366SOL    HW219998   5.986   6.316   4.898
 6367SOL     OW19999   3.330   2.128   3.343
 6367SOL    HW120000   3.244   2.147   3.390
 6367SOL    HW220001   3.406   2.135   3.407
 6368SOL     OW20002   4.888   3.895   3.801
 6368SOL    HW120003   4.835   3.928   3.880
 6368SOL    HW220004   4.892   3.795   3.804
 6369SOL     OW20005   3.444   6.549   6.161
 6369SOL    HW120006   3.431   6.584   6.254
 6369SOL    HW220007   3.423   6.452   6.158
 6370SOL     OW20008   5.127   3.904   3.710
 6370SOL    HW120009   5.172   3.992   3.694
 6370SOL    HW220010   5.043   3.918   3.761
 6371SOL     OW20011   5.209   4.218   1.566
 6371SOL    HW120012   5.133   4.268   1.608
 6371SOL    HW220013   5.267   4.180   1.638
 6372SOL     OW20014   0.343   0.984   3.001
 6372SOL    HW120015   0.250   1.019   2.999
 6372SOL    HW220016   0.364   0.942   2.912
 6373SOL     OW20017   5.746   4.554   1.207
 6373SOL    HW120018   5.802   4.633   1.184
 6373SOL    HW220019   5.804   4.472   1.209
 6374SOL     OW20020   4.708   2.841   0.191
 6374SOL    HW120021   4.671   2.870   0.102
 6374SOL    HW220022   4.766   2.913   0.228
 6375SOL     OW20023   6.828   2.814   2.543
 6375SOL    HW120024   6.754   2.813   2.610
 6375SOL    HW220025   6.824   2.898   2.489
 6376SOL     OW20026   3.741   1.191   5.377
 6376SOL    HW120027   3.668   1.123   5.366
 6376SOL    HW220028   3.707   1.270   5.427
 6377SOL     OW20029   7.000   0.039   6.812
 6377SOL    HW120030   6.994   0.009   6.907
 6377SOL    HW220031   7.016   0.138   6.810
 6378SOL     OW20032   5.809   5.635   3.024
 6378SOL    HW120033   5.723   5.686   3.025
 6378SOL    HW220034   5.791   5.540   2.999
 6379SOL     OW20035   2.250   5.780   6.233
 6379SOL    HW120036   2.290   5.822   6.151
 6379SOL    HW220037   2.260   5.681   6.228
 6380SOL     OW20038   1.284   2.996   4.935
 6380SOL    HW120039   1.244   3.042   5.014
 6380SOL    HW220040   1.246   3.033   4.851
 6381SOL     OW20041   4.406   3.286   0.270
 6381SOL    HW120042   4.323   3.283   0.326
 6381SOL    HW220043   4.454   3.199   0.278
 6382SOL     OW20044   2.645   1.871   1.314
 6382SOL    HW120045   2.653   1.856   1.413
 6382SOL    HW220046   2.727   1.917   1.281
 6383SOL     OW20047   2.117   2.521   2.801
 6383SOL    HW120048   2.088   2.566   2.716
 6383SOL    HW220049   2.060   2.553   2.877
 6384SOL     OW20050   6.469   2.454   2.005
 6384SOL    HW120051   6.475   2.396   1.924
 6384SOL    HW220052   6.535   2.529   1.997
 6385SOL     OW20053   0.473   3.438   1.154
 6385SOL    HW120054   0.438   3.435   1.060
 6385SOL    HW220055   0.569   3.465   1.152
 6386SOL     OW20056   1.945   3.525   0.584
 6386SOL    HW120057   1.940   3.593   0.657
 6386SOL    HW220058   1.977   3.569   0.500
 6387SOL     OW20059   6.179   1.072   0.207
 6387SOL    HW120060   6.235   1.070   0.290
 6387SOL    HW220061   6.083   1.060   0.231
 6388SOL     OW20062   6.192   5.272   2.551
 6388SOL    HW120063   6.107   5.221   2.544
 6388SOL    HW220064   6.190   5.349   2.487
 6389SOL     OW20065   1.690   6.871   0.188
 6389SOL    HW120066   1.723   6.918   0.106
 6389SOL    HW220067   1.646   6.785   0.162
 6390SOL     OW20068   5.977   0.681   0.112
 6390SOL    HW120069   5.988   0.750   0.040
 6390SOL    HW220070   5.900   0.621   0.090
 6391SOL     OW20071   1.032   0.639   5.079
 6391SOL    HW120072   1.027   0.708   5.006
 6391SOL    HW220073   0.986   0.556   5.049
 6392SOL     OW20074   2.934   5.516   3.312
 6392SOL    HW120075   2.929   5.615   3.301
 6392SOL    HW220076   2.905   5.472   3.227
 6393SOL     OW20077   5.777   6.723   1.582
 6393SOL    HW120078   5.794   6.757   1.490
 6393SOL    HW220079   5.846   6.759   1.645
 6394SOL     OW20080   0.708   5.061   0.848
 6394SOL    HW120081   0.716   5.143   0.905
 6394SOL    HW220082   0.722   4.980   0.904
 6395SOL     OW20083   1.120   4.331   3.018
 6395SOL    HW120084   1.093   4.410   2.963
 6395SOL    HW220085   1.190   4.359   3.084
 6396SOL     OW20086   6.339   3.607   0.566
 6396SOL    HW120087   6.265   3.670   0.540
 6396SOL    HW220088   6.306   3.513   0.559
 6397SOL     OW20089   5.436   2.393   3.020
 6397SOL    HW120090   5.528   2.378   2.982
 6397SOL    HW220091   5.410   2.314   3.075
 6398SOL     OW20092   0.778   6.122   1.116
 6398SOL    HW120093   0.857   6.118   1.054
 6398SOL    HW220094   0.796   6.186   1.190
 6399SOL     OW20095   2.343   0.002   6.219
 6399SOL    HW120096   2.337   0.096   6.186
 6399SOL    HW220097   2.251   6.986   6.236
 6400SOL     OW20098   1.544   5.758   2.663
 6400SOL    HW120099   1.479   5.834   2.668
 6400SOL    HW220100   1.627   5.788   2.616
 6401SOL     OW20101   3.853   4.979   3.005
 6401SOL    HW120102   3.888   4.909   2.943
 6401SOL    HW220103   3.805   5.049   2.951
 6402SOL     OW20104   2.032   4.653   4.387
 6402SOL    HW120105   2.081   4.597   4.319
 6402SOL    HW220106   1.973   4.718   4.339
 6403SOL     OW20107   5.249   6.357   4.712
 6403SOL    HW120108   5.333   6.371   4.764
 6403SOL    HW220109   5.184   6.430   4.733
 6404SOL     OW20110   3.458   0.767   2.570
 6404SOL    HW120111   3.537   0.771   2.631
 6404SOL    HW220112   3.396   0.695   2.600
 6405SOL     OW20113   5.334   1.201   2.956
 6405SOL    HW120114   5.420   1.249   2.940
 6405SOL    HW220115   5.258   1.256   2.921
 6406SOL     OW20116   1.217   2.744   2.705
 6406SOL    HW120117   1.236   2.819   2.643
 6406SOL    HW220118   1.208   2.778   2.798
 6407SOL     OW20119   2.425   6.359   3.684
 6407SOL    HW120120   2.485   6.332   3.609
 6407SOL    HW220121   2.449   6.452   3.714
 6408SOL     OW20122   0.041   0.613   0.560
 6408SOL    HW120123   6.974   0.631   0.606
 6408SOL    HW220124   0.038   0.522   0.517
 6409SOL     OW20125   6.481   4.835   3.598
 6409SOL    HW120126   6.486   4.935   3.602
 6409SOL    HW220127   6.440   4.800   3.681
 6410SOL     OW20128   2.980   1.356   5.559
 6410SOL    HW120129   2.935   1.418   5.494
 6410SOL    HW220130   3.056   1.310   5.513
 6411SOL     OW20131   0.367   2.610   2.535
 6411SOL    HW120132   0.431   2.552   2.585
 6411SOL    HW220133   0.328   2.678   2.597
 6412SOL     OW20134   3.488   0.566   6.818
 6412SOL    HW120135   3.497   0.564   6.718
 6412SOL    HW220136   3.523   0.481   6.857
 6413SOL     OW20137   4.012   4.876   4.138
 6413SOL    HW120138   4.033   4.955   4.081
 6413SOL    HW220139   4.097   4.834   4.170
 6414SOL     OW20140   0.810   0.044   6.843
 6414SOL    HW120141   0.807   0.019   6.940
 6414SOL    HW220142   0.768   0.134   6.831
 6415SOL     OW20143   1.322   2.932   3.485
 6415SOL    HW120144   1.299   2.957   3.579
 6415SOL    HW220145   1.316   3.013   3.427
 6416SOL     OW20146   2.884   0.280   6.320
 6416SOL    HW120147   2.804   0.272   6.380
 6416SOL    HW220148   2.938   0.360   6.347
 6417SOL     OW20149   4.814   1.817   0.999
 6417SOL    HW120150   4.725   1.824   0.954
 6417SOL    HW220151   4.883   1.788   0.932
 6418SOL     OW20152   4.226   4.759   1.417
 6418SOL    HW120153   4.139   4.716   1.392
 6418SOL    HW220154   4.287   4.758   1.337
 6419SOL     OW20155   0.785   6.637   6.719
 6419SOL    HW120156   0.704   6.609   6.666
 6419SOL    HW220157   0.864   6.643   6.658
 6420SOL     OW20158   1.593   3.453   3.762
 6420SOL    HW120159   1.646   3.514   3.704
 6420SOL    HW220160   1.496   3.459   3.737
 6421SOL     OW20161   5.021   0.041   1.488
 6421SOL    HW120162   5.094   0.014   1.425
 6421SOL    HW220163   5.060   0.062   1.578
 6422SOL     OW20164   0.135   2.944   4.666
 6422SOL    HW120165   0.170   3.019   4.722
 6422SOL    HW220166   0.039   2.929   4.687
 6423SOL     OW20167   2.377   4.961   4.378
 6423SOL    HW120168   2.320   4.955   4.295
 6423SOL    HW220169   2.472   4.941   4.354
 6424SOL     OW20170   0.561   3.397   4.819
 6424SOL    HW120171   0.649   3.378   4.775
 6424SOL    HW220172   0.570   3.388   4.918
 6425SOL     OW20173   0.040   6.024   2.756
 6425SOL    HW120174   0.069   6.118   2.736
 6425SOL    HW220175   0.095   5.988   2.831
 6426SOL     OW20176   4.557   4.467   4.900
 6426SOL    HW120177   4.540   4.485   4.803
 6426SOL    HW220178   4.471   4.473   4.951
 6427SOL     OW20179   3.196   3.291   3.636
 6427SOL    HW120180   3.208   3.241   3.550
 6427SOL    HW220181   3.100   3.317   3.646
 6428SOL     OW20182   4.900   2.478   0.200
 6428SOL    HW120183   4.840   2.484   0.121
 6428SOL    HW220184   4.866   2.538   0.273
 6429SOL     OW20185   2.529   0.721   5.070
 6429SOL    HW120186   2.580   0.800   5.104
 6429SOL    HW220187   2.506   0.736   4.973
 6430SOL     OW20188   0.022   0.711   5.394
 6430SOL    HW120189   6.945   0.690   5.393
 6430SOL    HW220190   0.047   0.752   5.481
 6431SOL     OW20191   4.427   5.314   2.779
 6431SOL    HW120192   4.473   5.225   2.771
 6431SOL    HW220193   4.328   5.302   2.768
 6432SOL     OW20194   3.324   4.600   6.662
 6432SOL    HW120195   3.411   4.582   6.708
 6432SOL    HW220196   3.280   4.513   6.639
 6433SOL     OW20197   2.671   5.409   6.752
 6433SOL    HW120198   2.763   5.383   6.722
 6433SOL    HW220199   2.667   5.408   6.852
 6434SOL     OW20200   3.091   5.868   6.195
 6434SOL    HW120201   3.023   5.815   6.246
 6434SOL    HW220202   3.116   5.819   6.112
 6435SOL     OW20203   5.504   0.146   0.699
 6435SOL    HW120204   5.504   0.161   0.798
 6435SOL    HW220205   5.429   0.084   0.674
 6436SOL     OW20206   0.632   4.364   3.866
 6436SOL    HW120207   0.548   4.366   3.811
 6436SOL    HW220208   0.664   4.457   3.882
 6437SOL     OW20209   0.915   1.069   5.623
 6437SOL    HW120210   1.004   1.065   5.578
 6437SOL    HW220211   0.915   1.144   5.690
 6438SOL     OW20212   0.576   5.930   6.907
 6438SOL    HW120213   0.622   5.913   6.994
 6438SOL    HW220214   0.632   5.896   6.832
 6439SOL     OW20215   5.908   1.123   3.449
 6439SOL    HW120216   5.915   1.217   3.483
 6439SOL    HW220217   5.857   1.067   3.514
 6440SOL     OW20218   2.211   0.708   5.940
 6440SOL    HW120219   2.185   0.661   6.025
 6440SOL    HW220220   2.147   0.783   5.924
 6441SOL     OW20221   0.353   0.473   3.235
 6441SOL    HW120222   0.386   0.479   3.141
 6441SOL    HW220223   0.319   0.381   3.253
 6442SOL     OW20224   2.432   2.173   5.591
 6442SOL    HW120225   2.436   2.074   5.601
 6442SOL    HW220226   2.378   2.196   5.510
 6443SOL     OW20227   4.233   2.019   0.666
 6443SOL    HW120228   4.197   2.000   0.757
 6443SOL    HW220229   4.308   2.086   0.673
 6444SOL     OW20230   0.425   2.635   5.663
 6444SOL    HW120231   0.369   2.711   5.697
 6444SOL    HW220232   0.442   2.646   5.565
 6445SOL     OW20233   2.918   3.638   3.130
 6445SOL    HW120234   3.017   3.646   3.146
 6445SOL    HW220235   2.898   3.550   3.087
 6446SOL     OW20236   1.878   1.351   6.817
 6446SOL    HW120237   1.896   1.424   6.751
 6446SOL    HW220238   1.879   1.263   6.771
 6447SOL     OW20239   6.464   4.321   1.073
 6447SOL    HW120240   6.480   4.314   0.975
 6447SOL    HW220241   6.552   4.312   1.122
 6448SOL     OW20242   4.551   5.451   2.125
 6448SOL    HW120243   4.588   5.470   2.216
 6448SOL    HW220244   4.626   5.445   2.059
 6449SOL     OW20245   2.803   5.512   1.755
 6449SOL    HW120246   2.793   5.460   1.670
 6449SOL    HW220247   2.857   5.594   1.736
 6450SOL     OW20248   0.529   4.033   1.258
 6450SOL    HW120249   0.498   4.103   1.195
 6450SOL    HW220250   0.459   4.018   1.329
 6451SOL     OW20251   3.547   2.454   0.865
 6451SOL    HW120252   3.635   2.441   0.819
 6451SOL    HW220253   3.561   2.449   0.964
 6452SOL     OW20254   5.540   3.603   3.468
 6452SOL    HW120255   5.574   3.629   3.378
 6452SOL    HW220256   5.617   3.588   3.530
 6453SOL     OW20257   3.640   6.960   1.375
 6453SOL    HW120258   3.611   6.916   1.290
 6453SOL    HW220259   3.726   6.919   1.406
 6454SOL     OW20260   6.473   2.435   2.773
 6454SOL    HW120261   6.425   2.413   2.688
 6454SOL    HW220262   6.520   2.353   2.806
 6455SOL     OW20263   6.891   4.166   2.974
 6455SOL    HW120264   6.932   4.092   3.027
 6455SOL    HW220265   6.866   4.241   3.036
 6456SOL     OW20266   0.323   1.597   2.954
 6456SOL    HW120267   0.407   1.586   3.008
 6456SOL    HW220268   0.300   1.510   2.911
 6457SOL     OW20269   4.815   6.877   1.434
 6457SOL    HW120270   4.858   6.787   1.441
 6457SOL    HW220271   4.881   6.948   1.460
 6458SOL     OW20272   1.093   4.919   3.604
 6458SOL    HW120273   1.168   4.973   3.641
 6458SOL    HW220274   1.102   4.824   3.635
 6459SOL     OW20275   6.320   2.529   3.272
 6459SOL    HW120276   6.343   2.597   3.202
 6459SOL    HW220277   6.345   2.438   3.239
 6460SOL     OW20278   6.855   6.111   5.320
 6460SOL    HW120279   6.929   6.173   5.295
 6460SOL    HW220280   6.769   6.145   5.281
 6461SOL     OW20281   2.962   4.256   0.505
 6461SOL    HW120282   3.035   4.317   0.474
 6461SOL    HW220283   2.883   4.266   0.444
 6462SOL     OW20284   1.640   3.736   5.027
 6462SOL    HW120285   1.651   3.677   4.947
 6462SOL    HW220286   1.559   3.792   5.016
 6463SOL     OW20287   4.621   1.065   0.972
 6463SOL    HW120288   4.626   1.164   0.979
 6463SOL    HW220289   4.534   1.033   1.010
 6464SOL     OW20290   0.898   6.293   4.096
 6464SOL    HW120291   0.930   6.277   4.189
 6464SOL    HW220292   0.967   6.262   4.030
 6465SOL     OW20293   5.355   2.844   2.556
 6465SOL    HW120294   5.392   2.937   2.559
 6465SOL    HW220295   5.354   2.806   2.649
 6466SOL     OW20296   6.669   3.774   6.717
 6466SOL    HW120297   6.715   3.686   6.720
 6466SOL    HW220298   6.571   3.760   6.709
 6467SOL     OW20299   3.303   0.579   0.659
 6467SOL    HW120300   3.309   0.670   0.616
 6467SOL    HW220301   3.283   0.511   0.590
 6468SOL     OW20302   3.691   0.019   0.087
 6468SOL    HW120303   3.788   0.005   0.105
 6468SOL    HW220304   3.649   6.952   0.061
 6469SOL     OW20305   3.317   1.762   3.557
 6469SOL    HW120306   3.315   1.722   3.649
 6469SOL    HW220307   3.409   1.796   3.538
 6470SOL     OW20308   0.031   2.550   6.695
 6470SOL    HW120309   0.068   2.571   6.785
 6470SOL    HW220310   0.066   2.616   6.628
 6471SOL     OW20311   0.236   6.272   4.990
 6471SOL    HW120312   0.294   6.248   4.913
 6471SOL    HW220313   0.140   6.256   4.967
 6472SOL     OW20314   0.085   6.189   2.295
 6472SOL    HW120315   7.017   6.187   2.248
 6472SOL    HW220316   0.153   6.140   2.240
 6473SOL     OW20317   1.954   1.270   3.832
 6473SOL    HW120318   2.034   1.218   3.860
 6473SOL    HW220319   1.975   1.368   3.836
 6474SOL     OW20320   3.515   5.347   4.802
 6474SOL    HW120321   3.435   5.312   4.754
 6474SOL    HW220322   3.527   5.444   4.781
 6475SOL     OW20323   5.615   5.333   3.161
 6475SOL    HW120324   5.652   5.292   3.078
 6475SOL    HW220325   5.663   5.294   3.241
 6476SOL     OW20326   3.827   2.336   6.661
 6476SOL    HW120327   3.779   2.305   6.744
 6476SOL    HW220328   3.917   2.292   6.657
 6477SOL     OW20329   0.050   6.004   1.049
 6477SOL    HW120330   0.027   5.975   0.957
 6477SOL    HW220331   0.149   5.999   1.062
 6478SOL     OW20332   2.925   5.743   1.675
 6478SOL    HW120333   3.021   5.762   1.693
 6478SOL    HW220334   2.900   5.782   1.586
 6479SOL     OW20335   3.259   5.671   4.221
 6479SOL    HW120336   3.165   5.698   4.240
 6479SOL    HW220337   3.263   5.573   4.202
 6480SOL     OW20338   3.072   1.016   6.510
 6480SOL    HW120339   3.140   1.070   6.460
 6480SOL    HW220340   3.073   1.042   6.606
 6481SOL     OW20341   3.133   2.373   1.677
 6481SOL    HW120342   3.075   2.390   1.757
 6481SOL    HW220343   3.160   2.460   1.636
 6482SOL     OW20344   6.703   3.117   5.128
 6482SOL    HW120345   6.713   3.216   5.125
 6482SOL    HW220346   6.683   3.088   5.221
 6483SOL     OW20347   1.689   5.311   4.674
 6483SOL    HW120348   1.679   5.212   4.679
 6483SOL    HW220349   1.610   5.351   4.628
 6484SOL     OW20350   2.829   0.932   3.899
 6484SOL    HW120351   2.730   0.919   3.888
 6484SOL    HW220352   2.874   0.915   3.812
 6485SOL     OW20353   1.878   6.568   4.868
 6485SOL    HW120354   1.952   6.590   4.932
 6485SOL    HW220355   1.854   6.471   4.878
 6486SOL     OW20356   1.517   5.283   3.406
 6486SOL    HW120357   1.596   5.294   3.346
 6486SOL    HW220358   1.516   5.190   3.443
 6487SOL     OW20359   0.528   5.290   4.455
 6487SOL    HW120360   0.459   5.326   4.391
 6487SOL    HW220361   0.503   5.317   4.548
 6488SOL     OW20362   5.123   5.181   4.696
 6488SOL    HW120363   5.083   5.107   4.641
 6488SOL    HW220364   5.051   5.243   4.726
 6489SOL     OW20365   4.007   3.327   6.567
 6489SOL    HW120366   3.962   3.338   6.656
 6489SOL    HW220367   4.085   3.266   6.577
 6490SOL     OW20368   1.586   1.311   6.904
 6490SOL    HW120369   1.584   1.350   6.996
 6490SOL    HW220370   1.674   1.329   6.861
 6491SOL     OW20371   1.485   6.866   1.377
 6491SOL    HW120372   1.495   6.771   1.347
 6491SOL    HW220373   1.571   6.897   1.416
 6492SOL     OW20374   3.013   3.924   4.626
 6492SOL    HW120375   2.990   4.014   4.661
 6492SOL    HW220376   3.023   3.859   4.702
 6493SOL     OW20377   2.002   4.323   6.039
 6493SOL    HW120378   1.935   4.308   6.112
 6493SOL    HW220379   2.080   4.372   6.077
 6494SOL     OW20380   5.989   6.561   2.049
 6494SOL    HW120381   5.989   6.461   2.044
 6494SOL    HW220382   5.905   6.592   2.093
 6495SOL     OW20383   0.150   0.076   4.086
 6495SOL    HW120384   0.167   6.998   4.085
 6495SOL    HW220385   0.224   0.123   4.038
 6496SOL     OW20386   4.751   6.673   2.470
 6496SOL    HW120387   4.782   6.752   2.416
 6496SOL    HW220388   4.795   6.590   2.435
 6497SOL     OW20389   0.800   1.350   0.761
 6497SOL    HW120390   0.764   1.339   0.668
 6497SOL    HW220391   0.732   1.395   0.818
 6498SOL     OW20392   0.722   4.607   4.399
 6498SOL    HW120393   0.740   4.705   4.404
 6498SOL    HW220394   0.741   4.574   4.307
 6499SOL     OW20395   6.088   4.231   4.015
 6499SOL    HW120396   6.076   4.220   3.917
 6499SOL    HW220397   6.037   4.160   4.064
 6500SOL     OW20398   0.909   3.439   2.322
 6500SOL    HW120399   0.944   3.385   2.398
 6500SOL    HW220400   0.986   3.476   2.269
 6501SOL     OW20401   6.708   2.034   1.131
 6501SOL    HW120402   6.658   2.120   1.125
 6501SOL    HW220403   6.800   2.045   1.093
 6502SOL     OW20404   6.174   3.950   1.163
 6502SOL    HW120405   6.182   3.864   1.213
 6502SOL    HW220406   6.135   3.932   1.073
 6503SOL     OW20407   6.523   3.187   5.839
 6503SOL    HW120408   6.448   3.152   5.783
 6503SOL    HW220409   6.485   3.234   5.919
 6504SOL     OW20410   4.416   6.734   6.654
 6504SOL    HW120411   4.459   6.824   6.659
 6504SOL    HW220412   4.328   6.737   6.701
 6505SOL     OW20413   5.632   6.270   0.046
 6505SOL    HW120414   5.632   6.264   6.966
 6505SOL    HW220415   5.618   6.365   0.074
 6506SOL     OW20416   0.190   3.061   3.500
 6506SOL    HW120417   0.157   3.086   3.591
 6506SOL    HW220418   0.134   2.987   3.463
 6507SOL     OW20419   3.092   5.731   6.470
 6507SOL    HW120420   3.139   5.682   6.397
 6507SOL    HW220421   2.996   5.704   6.473
 6508SOL     OW20422   1.062   6.993   1.778
 6508SOL    HW120423   0.978   6.991   1.725
 6508SOL    HW220424   1.139   6.967   1.720
 6509SOL     OW20425   3.488   1.501   5.780
 6509SOL    HW120426   3.575   1.514   5.827
 6509SOL    HW220427   3.485   1.410   5.740
 6510SOL     OW20428   4.396   5.873   5.402
 6510SOL    HW120429   4.466   5.927   5.448
 6510SOL    HW220430   4.435   5.831   5.320
 6511SOL     OW20431   3.978   1.719   6.588
 6511SOL    HW120432   3.925   1.804   6.589
 6511SOL    HW220433   3.946   1.659   6.661
 6512SOL     OW20434   2.819   0.992   1.785
 6512SOL    HW120435   2.910   0.962   1.758
 6512SOL    HW220436   2.826   1.064   1.854
 6513SOL     OW20437   2.838   5.762   4.921
 6513SOL    HW120438   2.880   5.846   4.885
 6513SOL    HW220439   2.881   5.682   4.878
 6514SOL     OW20440   5.574   0.530   5.103
 6514SOL    HW120441   5.561   0.458   5.035
 6514SOL    HW220442   5.491   0.585   5.110
 6515SOL     OW20443   2.256   5.031   2.067
 6515SOL    HW120444   2.173   5.079   2.094
 6515SOL    HW220445   2.274   5.048   1.970
 6516SOL     OW20446   0.443   3.231   1.570
 6516SOL    HW120447   0.483   3.313   1.530
 6516SOL    HW220448   0.411   3.252   1.663
 6517SOL     OW20449   6.825   2.446   6.819
 6517SOL    HW120450   6.858   2.397   6.900
 6517SOL    HW220451   6.903   2.479   6.766
 6518SOL     OW20452   0.605   1.168   2.798
 6518SOL    HW120453   0.603   1.189   2.895
 6518SOL    HW220454   0.569   1.076   2.783
 6519SOL     OW20455   0.910   1.119   3.212
 6519SOL    HW120456   0.895   1.202   3.158
 6519SOL    HW220457   0.869   1.130   3.302
 6520SOL     OW20458   6.823   5.683   6.851
 6520SOL    HW120459   6.874   5.719   6.774
 6520SOL    HW220460   6.795   5.589   6.832
 6521SOL     OW20461   1.515   3.071   3.765
 6521SOL    HW120462   1.515   3.015   3.848
 6521SOL    HW220463   1.440   3.137   3.769
 6522SOL     OW20464   2.982   3.754   5.385
 6522SOL    HW120465   2.987   3.687   5.310
 6522SOL    HW220466   3.006   3.845   5.350
 6523SOL     OW20467   5.988   0.644   0.392
 6523SOL    HW120468   5.937   0.563   0.419
 6523SOL    HW220469   6.010   0.640   0.295
 6524SOL     OW20470   2.748   2.277   1.792
 6524SOL    HW120471   2.794   2.292   1.879
 6524SOL    HW220472   2.811   2.300   1.717
 6525SOL     OW20473   1.540   5.357   3.841
 6525SOL    HW120474   1.562   5.269   3.883
 6525SOL    HW220475   1.443   5.359   3.817
 6526SOL     OW20476   6.941   6.948   1.031
 6526SOL    HW120477   6.892   7.018   1.084
 6526SOL    HW220478   6.937   6.861   1.080
 6527SOL     OW20479   0.407   2.875   0.723
 6527SOL    HW120480   0.399   2.784   0.681
 6527SOL    HW220481   0.483   2.875   0.788
 6528SOL     OW20482   5.914   1.069   5.771
 6528SOL    HW120483   5.972   0.988   5.782
 6528SOL    HW220484   5.917   1.099   5.675
 6529SOL     OW20485   0.186   1.532   2.325
 6529SOL    HW120486   0.143   1.573   2.405
 6529SOL    HW220487   0.251   1.462   2.354
 6530SOL     OW20488   0.877   2.844   2.314
 6530SOL    HW120489   0.957   2.814   2.263
 6530SOL    HW220490   0.798   2.789   2.288
 6531SOL     OW20491   4.338   3.236   5.925
 6531SOL    HW120492   4.395   3.177   5.982
 6531SOL    HW220493   4.338   3.202   5.831
 6532SOL     OW20494   1.626   0.782   1.040
 6532SOL    HW120495   1.555   0.824   1.097
 6532SOL    HW220496   1.624   0.683   1.051
 6533SOL     OW20497   4.529   4.156   7.013
 6533SOL    HW120498   4.561   4.198   6.928
 6533SOL    HW220499   4.608   4.130   0.049
 6534SOL     OW20500   5.794   4.732   2.018
 6534SOL    HW120501   5.715   4.672   2.016
 6534SOL    HW220502   5.823   4.746   2.112
 6535SOL     OW20503   5.779   3.572   4.819
 6535SOL    HW120504   5.785   3.565   4.719
 6535SOL    HW220505   5.868   3.598   4.856
 6536SOL     OW20506   0.342   2.251   5.597
 6536SOL    HW120507   0.328   2.334   5.544
 6536SOL    HW220508   0.268   2.186   5.579
 6537SOL     OW20509   6.192   4.397   5.241
 6537SOL    HW120510   6.223   4.454   5.317
 6537SOL    HW220511   6.153   4.454   5.170
 6538SOL     OW20512   2.246   3.709   5.151
 6538SOL    HW120513   2.220   3.692   5.056
 6538SOL    HW220514   2.301   3.792   5.156
 6539SOL     OW20515   5.720   0.677   6.585
 6539SOL    HW120516   5.804   0.625   6.599
 6539SOL    HW220517   5.718   0.713   6.492
 6540SOL     OW20518   3.775   2.562   5.384
 6540SOL    HW120519   3.760   2.573   5.482
 6540SOL    HW220520   3.842   2.490   5.368
 6541SOL     OW20521   5.559   1.991   5.485
 6541SOL    HW120522   5.657   1.973   5.494
 6541SOL    HW220523   5.513   1.967   5.571
 6542SOL     OW20524   1.339   3.292   4.517
 6542SOL    HW120525   1.428   3.328   4.546
 6542SOL    HW220526   1.284   3.366   4.479
 6543SOL     OW20527   3.322   2.123   5.192
 6543SOL    HW120528   3.309   2.160   5.284
 6543SOL    HW220529   3.261   2.170   5.128
 6544SOL     OW20530   0.235   6.893   1.787
 6544SOL    HW120531   0.248   6.886   1.886
 6544SOL    HW220532   0.216   6.988   1.763
 6545SOL     OW20533   4.412   6.562   0.997
 6545SOL    HW120534   4.408   6.479   1.053
 6545SOL    HW220535   4.324   6.610   1.003
 6546SOL     OW20536   4.942   4.825   6.349
 6546SOL    HW120537   4.898   4.808   6.437
 6546SOL    HW220538   4.978   4.918   6.348
 6547SOL     OW20539   5.339   6.492   6.282
 6547SOL    HW120540   5.297   6.565   6.337
 6547SOL    HW220541   5.269   6.425   6.257
 6548SOL     OW20542   0.937   2.597   6.237
 6548SOL    HW120543   0.875   2.622   6.311
 6548SOL    HW220544   0.969   2.680   6.191
 6549SOL     OW20545   4.789   6.797   1.754
 6549SOL    HW120546   4.868   6.739   1.731
 6549SOL    HW220547   4.707   6.760   1.711
 6550SOL     OW20548   6.582   0.126   3.152
 6550SOL    HW120549   6.508   0.071   3.190
 6550SOL    HW220550   6.640   0.159   3.226
 6551SOL     OW20551   3.116   3.371   1.749
 6551SOL    HW120552   3.069   3.318   1.679
 6551SOL    HW220553   3.175   3.439   1.705
 6552SOL     OW20554   1.822   6.575   0.231
 6552SOL    HW120555   1.877   6.558   0.312
 6552SOL    HW220556   1.833   6.670   0.202
 6553SOL     OW20557   6.889   2.141   2.680
 6553SOL    HW120558   6.846   2.193   2.607
 6553SOL    HW220559   6.959   2.080   2.641
 6554SOL     OW20560   2.959   1.176   4.619
 6554SOL    HW120561   2.910   1.212   4.539
 6554SOL    HW220562   3.053   1.153   4.594
 6555SOL     OW20563   6.522   1.940   4.502
 6555SOL    HW120564   6.427   1.955   4.475
 6555SOL    HW220565   6.543   1.997   4.581
 6556SOL     OW20566   5.648   3.288   3.233
 6556SOL    HW120567   5.571   3.306   3.294
 6556SOL    HW220568   5.733   3.316   3.278
 6557SOL     OW20569   1.433   6.954   2.405
 6557SOL    HW120570   1.345   6.990   2.374
 6557SOL    HW220571   1.426   6.928   2.502
 6558SOL     OW20572   5.955   5.253   0.163
 6558SOL    HW120573   6.041   5.296   0.189
 6558SOL    HW220574   5.920   5.200   0.240
 6559SOL     OW20575   6.943   3.816   6.631
 6559SOL    HW120576   6.992   3.888   6.680
 6559SOL    HW220577   6.852   3.805   6.670
 6560SOL     OW20578   4.078   4.683   0.163
 6560SOL    HW120579   4.116   4.775   0.152
 6560SOL    HW220580   4.141   4.616   0.124
 6561SOL     OW20581   3.860   4.791   6.976
 6561SOL    HW120582   3.928   4.745   0.012
 6561SOL    HW220583   3.771   4.746   6.988
 6562SOL     OW20584   5.741   2.536   0.812
 6562SOL    HW120585   5.825   2.588   0.795
 6562SOL    HW220586   5.662   2.590   0.783
 6563SOL     OW20587   5.268   0.288   5.593
 6563SOL    HW120588   5.347   0.348   5.604
 6563SOL    HW220589   5.196   0.314   5.657
 6564SOL     OW20590   6.655   4.143   2.386
 6564SOL    HW120591   6.643   4.103   2.476
 6564SOL    HW220592   6.572   4.193   2.360
 6565SOL     OW20593   6.092   0.073   2.370
 6565SOL    HW120594   6.033   0.001   2.334
 6565SOL    HW220595   6.075   0.083   2.468
 6566SOL     OW20596   3.555   5.602   2.206
 6566SOL    HW120597   3.642   5.621   2.251
 6566SOL    HW220598   3.569   5.539   2.130
 6567SOL     OW20599   4.523   0.604   1.471
 6567SOL    HW120600   4.426   0.589   1.493
 6567SOL    HW220601   4.578   0.535   1.518
 6568SOL     OW20602   3.782   1.283   2.110
 6568SOL    HW120603   3.691   1.260   2.146
 6568SOL    HW220604   3.851   1.224   2.152
 6569SOL     OW20605   0.938   2.862   6.068
 6569SOL    HW120606   0.856   2.884   6.121
 6569SOL    HW220607   0.923   2.884   5.972
 6570SOL     OW20608   4.219   0.435   2.528
 6570SOL    HW120609   4.307   0.393   2.506
 6570SOL    HW220610   4.154   0.420   2.453
 6571SOL     OW20611   2.166   5.107   3.143
 6571SOL    HW120612   2.184   5.108   3.045
 6571SOL    HW220613   2.222   5.177   3.188
 6572SOL     OW20614   0.445   4.655   3.998
 6572SOL    HW120615   0.419   4.706   4.080
 6572SOL    HW220616   0.448   4.557   4.019
 6573SOL     OW20617   1.561   0.863   3.181
 6573SOL    HW120618   1.531   0.932   3.114
 6573SOL    HW220619   1.564   0.903   3.272
 6574SOL     OW20620   2.594   6.384   3.440
 6574SOL    HW120621   2.653   6.443   3.385
 6574SOL    HW220622   2.507   6.372   3.393
 6575SOL     OW20623   0.166   6.933   2.614
 6575SOL    HW120624   0.176   6.956   2.711
 6575SOL    HW220625   0.159   6.834   2.604
 6576SOL     OW20626   3.385   5.005   0.272
 6576SOL    HW120627   3.361   5.070   0.344
 6576SOL    HW220628   3.418   4.921   0.313
 6577SOL     OW20629   2.069   2.577   3.622
 6577SOL    HW120630   2.079   2.596   3.524
 6577SOL    HW220631   2.046   2.661   3.670
 6578SOL     OW20632   1.116   5.422   1.236
 6578SOL    HW120633   1.050   5.356   1.272
 6578SOL    HW220634   1.201   5.374   1.213
 6579SOL     OW20635   0.006   1.670   4.352
 6579SOL    HW120636   0.076   1.723   4.305
 6579SOL    HW220637   6.975   1.729   4.414
 6580SOL     OW20638   1.095   0.290   0.382
 6580SOL    HW120639   1.166   0.347   0.422
 6580SOL    HW220640   1.137   0.215   0.331
 6581SOL     OW20641   1.307   0.960   0.607
 6581SOL    HW120642   1.227   0.964   0.667
 6581SOL    HW220643   1.381   1.014   0.646
 6582SOL     OW20644   0.092   0.498   3.116
 6582SOL    HW120645   0.057   0.588   3.090
 6582SOL    HW220646   0.140   0.504   3.203
 6583SOL     OW20647   4.638   7.008   5.908
 6583SOL    HW120648   4.719   7.007   5.849
 6583SOL    HW220649   4.585   0.071   5.890
 6584SOL     OW20650   3.901   2.387   1.024
 6584SOL    HW120651   3.930   2.377   0.929
 6584SOL    HW220652   3.831   2.318   1.044
 6585SOL     OW20653   6.612   0.103   0.576
 6585SOL    HW120654   6.598   0.007   0.602
 6585SOL    HW220655   6.652   0.152   0.653
 6586SOL     OW20656   6.596   2.271   6.376
 6586SOL    HW120657   6.550   2.341   6.430
 6586SOL    HW220658   6.530   2.204   6.343
 6587SOL     OW20659   1.944   4.275   5.788
 6587SOL    HW120660   1.944   4.276   5.888
 6587SOL    HW220661   1.949   4.181   5.755
 6588SOL     OW20662   0.349   3.351   0.581
 6588SOL    HW120663   0.322   3.256   0.599
 6588SOL    HW220664   0.449   3.356   0.576
 6589SOL     OW20665   5.969   0.757   1.352
 6589SOL    HW120666   5.985   0.788   1.446
 6589SOL    HW220667   5.874   0.774   1.327
 6590SOL     OW20668   0.754   0.635   4.522
 6590SOL    HW120669   0.680   0.570   4.540
 6590SOL    HW220670   0.730   0.693   4.444
 6591SOL     OW20671   4.952   5.597   4.344
 6591SOL    HW120672   5.033   5.651   4.366
 6591SOL    HW220673   4.922   5.619   4.251
 6592SOL     OW20674   4.772   0.445   3.040
 6592SOL    HW120675   4.708   0.405   3.105
 6592SOL    HW220676   4.746   0.540   3.023
 6593SOL     OW20677   2.896   2.231   2.391
 6593SOL    HW120678   2.803   2.235   2.355
 6593SOL    HW220679   2.961   2.222   2.316
 6594SOL     OW20680   3.860   1.872   6.217
 6594SOL    HW120681   3.783   1.836   6.271
 6594SOL    HW220682   3.824   1.930   6.143
 6595SOL     OW20683   2.022   2.538   4.462
 6595SOL    HW120684   2.055   2.631   4.475
 6595SOL    HW220685   2.031   2.487   4.548
 6596SOL     OW20686   4.860   5.972   3.013
 6596SOL    HW120687   4.803   6.054   3.010
 6596SOL    HW220688   4.828   5.907   2.943
 6597SOL     OW20689   1.400   5.052   1.654
 6597SOL    HW120690   1.322   5.034   1.713
 6597SOL    HW220691   1.369   5.093   1.568
 6598SOL     OW20692   1.889   4.603   3.827
 6598SOL    HW120693   1.859   4.640   3.739
 6598SOL    HW220694   1.982   4.566   3.817
 6599SOL     OW20695   5.859   5.716   6.575
 6599SOL    HW120696   5.913   5.721   6.491
 6599SOL    HW220697   5.856   5.806   6.618
 6600SOL     OW20698   4.748   0.609   4.902
 6600SOL    HW120699   4.783   0.674   4.970
 6600SOL    HW220700   4.800   0.621   4.816
 6601SOL     OW20701   0.878   2.637   3.048
 6601SOL    HW120702   0.858   2.734   3.030
 6601SOL    HW220703   0.824   2.606   3.126
 6602SOL     OW20704   2.637   0.143   1.323
 6602SOL    HW120705   2.588   0.058   1.345
 6602SOL    HW220706   2.671   0.138   1.229
 6603SOL     OW20707   0.569   3.263   3.946
 6603SOL    HW120708   0.581   3.310   4.033
 6603SOL    HW220709   0.639   3.294   3.881
 6604SOL     OW20710   2.569   0.189   2.014
 6604SOL    HW120711   2.501   0.186   2.088
 6604SOL    HW220712   2.621   0.273   2.020
 6605SOL     OW20713   5.835   5.660   2.113
 6605SOL    HW120714   5.914   5.707   2.074
 6605SOL    HW220715   5.866   5.583   2.169
 6606SOL     OW20716   1.205   3.623   2.926
 6606SOL    HW120717   1.150   3.702   2.952
 6606SOL    HW220718   1.237   3.634   2.832
 6607SOL     OW20719   6.193   4.966   4.027
 6607SOL    HW120720   6.216   5.043   4.086
 6607SOL    HW220721   6.152   5.001   3.942
 6608SOL     OW20722   6.616   6.880   0.215
 6608SOL    HW120723   6.682   6.808   0.234
 6608SOL    HW220724   6.597   6.882   0.117
 6609SOL     OW20725   4.527   1.763   6.496
 6609SOL    HW120726   4.513   1.839   6.560
 6609SOL    HW220727   4.612   1.715   6.520
 6610SOL     OW20728   2.249   6.092   0.519
 6610SOL    HW120729   2.204   6.076   0.607
 6610SOL    HW220730   2.187   6.143   0.460
 6611SOL     OW20731   5.278   2.392   3.711
 6611SOL    HW120732   5.269   2.309   3.657
 6611SOL    HW220733   5.208   2.394   3.782
 6612SOL     OW20734   6.232   2.086   6.465
 6612SOL    HW120735   6.251   2.111   6.560
 6612SOL    HW220736   6.310   2.039   6.426
 6613SOL     OW20737   5.553   0.494   6.406
 6613SOL    HW120738   5.456   0.496   6.381
 6613SOL    HW220739   5.574   0.572   6.464
 6614SOL     OW20740   4.749   6.073   1.287
 6614SOL    HW120741   4.807   6.093   1.367
 6614SOL    HW220742   4.775   6.133   1.212
 6615SOL     OW20743   3.111   5.414   0.326
 6615SOL    HW120744   3.201   5.453   0.309
 6615SOL    HW220745   3.106   5.322   0.286
 6616SOL     OW20746   4.292   0.177   6.349
 6616SOL    HW120747   4.307   0.195   6.252
 6616SOL    HW220748   4.250   0.257   6.392
 6617SOL     OW20749   4.211   6.883   3.439
 6617SOL    HW120750   4.307   6.864   3.417
 6617SOL    HW220751   4.152   6.830   3.379
 6618SOL     OW20752   0.897   1.297   2.953
 6618SOL    HW120753   0.948   1.373   2.913
 6618SOL    HW220754   0.951   1.213   2.946
 6619SOL     OW20755   4.571   0.065   3.986
 6619SOL    HW120756   4.548   0.027   3.897
 6619SOL    HW220757   4.641   0.007   4.030
 6620SOL     OW20758   1.598   3.868   3.447
 6620SOL    HW120759   1.618   3.959   3.411
 6620SOL    HW220760   1.602   3.801   3.373
 6621SOL     OW20761   3.616   3.155   5.071
 6621SOL    HW120762   3.580   3.160   4.978
 6621SOL    HW220763   3.682   3.080   5.077
 6622SOL     OW20764   6.007   5.846   1.207
 6622SOL    HW120765   5.951   5.799   1.139
 6622SOL    HW220766   6.030   5.783   1.281
 6623SOL     OW20767   3.605   4.065   4.770
 6623SOL    HW120768   3.694   4.081   4.727
 6623SOL    HW220769   3.584   4.142   4.831
 6624SOL     OW20770   1.049   2.787   4.843
 6624SOL    HW120771   1.123   2.748   4.789
 6624SOL    HW220772   1.065   2.885   4.855
 6625SOL     OW20773   6.226   2.566   5.706
 6625SOL    HW120774   6.244   2.519   5.619
 6625SOL    HW220775   6.253   2.662   5.696
 6626SOL     OW20776   3.240   0.027   4.858
 6626SOL    HW120777   3.225   0.092   4.933
 6626SOL    HW220778   3.238   0.076   4.771
 6627SOL     OW20779   1.418   6.205   4.560
 6627SOL    HW120780   1.375   6.205   4.470
 6627SOL    HW220781   1.515   6.229   4.551
 6628SOL     OW20782   5.209   5.765   4.054
 6628SOL    HW120783   5.237   5.804   3.966
 6628SOL    HW220784   5.147   5.688   4.038
 6629SOL     OW20785   4.963   5.356   6.877
 6629SOL    HW120786   5.056   5.388   6.857
 6629SOL    HW220787   4.918   5.419   6.939
 6630SOL     OW20788   3.397   1.424   2.057
 6630SOL    HW120789   3.309   1.468   2.039
 6630SOL    HW220790   3.381   1.337   2.104
 6631SOL     OW20791   1.356   5.434   5.267
 6631SOL    HW120792   1.402   5.505   5.320
 6631SOL    HW220793   1.424   5.370   5.232
 6632SOL     OW20794   1.264   0.827   1.316
 6632SOL    HW120795   1.195   0.871   1.374
 6632SOL    HW220796   1.303   0.749   1.364
 6633SOL     OW20797   2.885   5.161   6.235
 6633SOL    HW120798   2.936   5.137   6.153
 6633SOL    HW220799   2.935   5.129   6.316
 6634SOL     OW20800   5.153   2.039   5.748
 6634SOL    HW120801   5.054   2.042   5.744
 6634SOL    HW220802   5.191   2.055   5.656
 6635SOL     OW20803   4.590   4.395   2.423
 6635SOL    HW120804   4.518   4.459   2.448
 6635SOL    HW220805   4.564   4.302   2.451
 6636SOL     OW20806   2.868   0.812   2.229
 6636SOL    HW120807   2.932   0.809   2.152
 6636SOL    HW220808   2.891   0.740   2.294
 6637SOL     OW20809   2.028   0.381   0.806
 6637SOL    HW120810   1.949   0.327   0.835
 6637SOL    HW220811   2.028   0.469   0.852
 6638SOL     OW20812   2.922   3.309   3.480
 6638SOL    HW120813   2.900   3.318   3.577
 6638SOL    HW220814   2.849   3.258   3.434
 6639SOL     OW20815   3.848   2.825   0.241
 6639SOL    HW120816   3.861   2.831   0.142
 6639SOL    HW220817   3.866   2.731   0.271
 6640SOL     OW20818   0.093   2.732   5.396
 6640SOL    HW120819   0.127   2.806   5.339
 6640SOL    HW220820   0.033   2.672   5.342
 6641SOL     OW20821   3.785   1.886   1.133
 6641SOL    HW120822   3.693   1.851   1.113
 6641SOL    HW220823   3.853   1.830   1.085
 6642SOL     OW20824   1.657   5.014   7.018
 6642SOL    HW120825   1.698   4.952   6.952
 6642SOL    HW220826   1.729   5.071   0.039
 6643SOL     OW20827   5.717   6.737   0.314
 6643SOL    HW120828   5.660   6.772   0.240
 6643SOL    HW220829   5.695   6.785   0.399
 6644SOL     OW20830   1.914   6.659   2.806
 6644SOL    HW120831   1.946   6.744   2.847
 6644SOL    HW220832   1.828   6.675   2.758
 6645SOL     OW20833   6.035   2.578   1.143
 6645SOL    HW120834   6.000   2.511   1.207
 6645SOL    HW220835   5.969   2.652   1.132
 6646SOL     OW20836   4.092   0.841   6.886
 6646SOL    HW120837   4.186   0.840   6.920
 6646SOL    HW220838   4.092   0.866   6.789
 6647SOL     OW20839   4.550   5.306   1.208
 6647SOL    HW120840   4.608   5.362   1.267
 6647SOL    HW220841   4.465   5.284   1.256
 6648SOL     OW20842   3.577   6.232   4.702
 6648SOL    HW120843   3.526   6.147   4.717
 6648SOL    HW220844   3.603   6.239   4.606
 6649SOL     OW20845   5.911   2.882   6.404
 6649SOL    HW120846   5.900   2.979   6.426
 6649SOL    HW220847   5.822   2.836   6.414
 6650SOL     OW20848   3.804   0.683   5.105
 6650SOL    HW120849   3.817   0.631   5.189
 6650SOL    HW220850   3.827   0.626   5.026
 6651SOL     OW20851   1.529   1.701   0.056
 6651SOL    HW120852   1.433   1.686   0.033
 6651SOL    HW220853   1.581   1.617   0.038
 6652SOL     OW20854   1.007   4.617   0.130
 6652SOL    HW120855   0.935   4.673   0.089
 6652SOL    HW220856   0.985   4.600   0.226
 6653SOL     OW20857   5.361   2.853   0.325
 6653SOL    HW120858   5.271   2.892   0.307
 6653SOL    HW220859   5.425   2.879   0.252
 6654SOL     OW20860   0.310   5.039   2.689
 6654SOL    HW120861   0.211   5.034   2.673
 6654SOL    HW220862   0.327   5.065   2.784
 6655SOL     OW20863   0.267   6.049   2.152
 6655SOL    HW120864   0.361   6.040   2.119
 6655SOL    HW220865   0.205   6.005   2.087
 6656SOL     OW20866   4.509   1.915   2.587
 6656SOL    HW120867   4.419   1.889   2.620
 6656SOL    HW220868   4.500   1.955   2.495
 6657SOL     OW20869   5.459   2.051   4.774
 6657SOL    HW120870   5.520   2.128   4.795
 6657SOL    HW220871   5.415   2.019   4.857
 6658SOL     OW20872   6.758   0.712   5.420
 6658SOL    HW120873   6.752   0.675   5.513
 6658SOL    HW220874   6.699   0.658   5.359
 6659SOL     OW20875   1.492   4.572   1.612
 6659SOL    HW120876   1.426   4.553   1.540
 6659SOL    HW220877   1.488   4.668   1.636
 6660SOL     OW20878   1.677   5.140   2.071
 6660SOL    HW120879   1.721   5.150   1.981
 6660SOL    HW220880   1.614   5.216   2.085
 6661SOL     OW20881   2.797   6.813   4.676
 6661SOL    HW120882   2.878   6.854   4.719
 6661SOL    HW220883   2.756   6.748   4.739
 6662SOL     OW20884   1.720   0.142   1.677
 6662SOL    HW120885   1.735   0.096   1.764
 6662SOL    HW220886   1.756   0.235   1.681
 6663SOL     OW20887   0.772   5.972   5.710
 6663SOL    HW120888   0.738   6.051   5.659
 6663SOL    HW220889   0.821   6.002   5.791
 6664SOL     OW20890   2.267   0.471   1.696
 6664SOL    HW120891   2.245   0.432   1.607
 6664SOL    HW220892   2.362   0.502   1.696
 6665SOL     OW20893   2.537   6.715   5.774
 6665SOL    HW120894   2.517   6.754   5.684
 6665SOL    HW220895   2.544   6.788   5.841
 6666SOL     OW20896   6.648   5.857   5.140
 6666SOL    HW120897   6.731   5.834   5.191
 6666SOL    HW220898   6.577   5.886   5.203
 6667SOL     OW20899   0.061   6.640   5.980
 6667SOL    HW120900   0.133   6.674   5.919
 6667SOL    HW220901   7.002   6.700   5.974
 6668SOL     OW20902   6.657   5.992   1.325
 6668SOL    HW120903   6.752   6.004   1.298
 6668SOL    HW220904   6.647   6.009   1.423
 6669SOL     OW20905   3.266   1.751   1.825
 6669SOL    HW120906   3.308   1.833   1.786
 6669SOL    HW220907   3.171   1.770   1.847
 6670SOL     OW20908   3.047   1.513   6.980
 6670SOL    HW120909   3.077   1.604   6.953
 6670SOL    HW220910   2.957   1.517   0.002
 6671SOL     OW20911   4.775   6.471   0.914
 6671SOL    HW120912   4.739   6.557   0.878
 6671SOL    HW220913   4.852   6.490   0.975
 6672SOL     OW20914   1.592   2.338   0.417
 6672SOL    HW120915   1.605   2.437   0.425
 6672SOL    HW220916   1.587   2.297   0.508
 6673SOL     OW20917   5.331   3.824   4.509
 6673SOL    HW120918   5.305   3.866   4.596
 6673SOL    HW220919   5.273   3.744   4.491
 6674SOL     OW20920   0.352   2.911   6.412
 6674SOL    HW120921   0.272   2.861   6.445
 6674SOL    HW220922   0.404   2.852   6.350
 6675SOL     OW20923   4.301   2.264   0.184
 6675SOL    HW120924   4.308   2.350   0.235
 6675SOL    HW220925   4.262   2.282   0.094
 6676SOL     OW20926   1.505   4.050   2.534
 6676SOL    HW120927   1.446   3.984   2.486
 6676SOL    HW220928   1.528   4.125   2.473
 6677SOL     OW20929   0.618   0.779   6.888
 6677SOL    HW120930   0.668   0.736   6.963
 6677SOL    HW220931   0.677   0.844   6.841
 6678SOL     OW20932   1.675   3.743   0.606
 6678SOL    HW120933   1.618   3.670   0.643
 6678SOL    HW220934   1.734   3.707   0.534
 6679SOL     OW20935   3.411   0.833   3.836
 6679SOL    HW120936   3.489   0.872   3.786
 6679SOL    HW220937   3.434   0.825   3.933
 6680SOL     OW20938   4.824   6.421   0.157
 6680SOL    HW120939   4.763   6.445   0.081
 6680SOL    HW220940   4.772   6.370   0.226
 6681SOL     OW20941   4.723   5.400   1.852
 6681SOL    HW120942   4.800   5.335   1.854
 6681SOL    HW220943   4.688   5.406   1.758
 6682SOL     OW20944   2.594   4.637   6.781
 6682SOL    HW120945   2.550   4.707   6.838
 6682SOL    HW220946   2.681   4.611   6.821
 6683SOL     OW20947   6.111   3.065   6.079
 6683SOL    HW120948   6.085   2.979   6.036
 6683SOL    HW220949   6.040   3.134   6.062
 6684SOL     OW20950   3.598   6.844   2.102
 6684SOL    HW120951   3.662   6.816   2.174
 6684SOL    HW220952   3.524   6.777   2.094
 6685SOL     OW20953   4.215   3.158   6.615
 6685SOL    HW120954   4.287   3.106   6.660
 6685SOL    HW220955   4.245   3.186   6.524
 6686SOL     OW20956   6.258   5.494   3.049
 6686SOL    HW120957   6.213   5.405   3.048
 6686SOL    HW220958   6.277   5.520   3.143
 6687SOL     OW20959   7.014   2.280   1.174
 6687SOL    HW120960   0.046   2.263   1.257
 6687SOL    HW220961   0.029   2.361   1.128
 6688SOL     OW20962   4.065   4.191   0.648
 6688SOL    HW120963   4.087   4.262   0.715
 6688SOL    HW220964   4.132   4.118   0.654
 6689SOL     OW20965   4.272   4.035   5.637
 6689SOL    HW120966   4.289   3.936   5.641
 6689SOL    HW220967   4.359   4.083   5.625
 6690SOL     OW20968   1.385   7.010   6.423
 6690SOL    HW120969   1.406   0.073   6.372
 6690SOL    HW220970   1.288   7.012   6.450
 6691SOL     OW20971   1.329   0.476   2.359
 6691SOL    HW120972   1.332   0.575   2.377
 6691SOL    HW220973   1.236   0.449   2.336
 6692SOL     OW20974   4.052   4.139   1.614
 6692SOL    HW120975   3.988   4.064   1.632
 6692SOL    HW220976   4.139   4.121   1.659
 6693SOL     OW20977   4.610   1.661   4.522
 6693SOL    HW120978   4.704   1.663   4.489
 6693SOL    HW220979   4.554   1.723   4.466
 6694SOL     OW20980   3.573   5.203   1.409
 6694SOL    HW120981   3.598   5.171   1.500
 6694SOL    HW220982   3.649   5.255   1.369
 6695SOL     OW20983   2.639   1.973   0.022
 6695SOL    HW120984   2.713   2.002   0.082
 6695SOL    HW220985   2.647   1.875   0.003
 6696SOL     OW20986   4.118   3.724   3.785
 6696SOL    HW120987   4.057   3.800   3.762
 6696SOL    HW220988   4.068   3.656   3.839
 6697SOL     OW20989   5.291   2.322   2.689
 6697SOL    HW120990   5.241   2.315   2.602
 6697SOL    HW220991   5.360   2.394   2.682
 6698SOL     OW20992   2.980   3.177   1.609
 6698SOL    HW120993   2.930   3.094   1.635
 6698SOL    HW220994   2.956   3.202   1.515
 6699SOL     OW20995   1.831   5.618   6.021
 6699SOL    HW120996   1.793   5.558   5.950
 6699SOL    HW220997   1.927   5.594   6.036
 6700SOL     OW20998   5.822   0.476   0.631
 6700SOL    HW120999   5.766   0.557   0.653
 6700SOL    HW221000   5.771   0.393   0.655
 6701SOL     OW21001   5.886   0.201   1.742
 6701SOL    HW121002   5.950   0.255   1.687
 6701SOL    HW221003   5.800   0.191   1.691
 6702SOL     OW21004   2.216   2.193   1.408
 6702SOL    HW121005   2.290   2.227   1.350
 6702SOL    HW221006   2.190   2.100   1.379
 6703SOL     OW21007   1.013   0.998   6.589
 6703SOL    HW121008   1.038   0.908   6.625
 6703SOL    HW221009   1.017   0.996   6.489
 6704SOL     OW21010   3.584   1.220   4.459
 6704SOL    HW121011   3.657   1.277   4.421
 6704SOL    HW221012   3.575   1.239   4.557
 6705SOL     OW21013   6.095   3.052   0.874
 6705SOL    HW121014   6.014   3.007   0.912
 6705SOL    HW221015   6.140   2.989   0.811
 6706SOL     OW21016   1.468   5.860   1.023
 6706SOL    HW121017   1.423   5.948   1.009
 6706SOL    HW221018   1.406   5.786   0.996
 6707SOL     OW21019   5.193   0.375   2.118
 6707SOL    HW121020   5.165   0.310   2.048
 6707SOL    HW221021   5.280   0.346   2.158
 6708SOL     OW21022   6.174   4.913   1.718
 6708SOL    HW121023   6.140   5.002   1.749
 6708SOL    HW221024   6.130   4.889   1.632
 6709SOL     OW21025   1.105   4.487   2.573
 6709SOL    HW121026   1.187   4.534   2.542
 6709SOL    HW221027   1.044   4.470   2.496
 6710SOL     OW21028   4.720   1.542   1.990
 6710SOL    HW121029   4.787   1.482   1.947
 6710SOL    HW221030   4.684   1.499   2.073
 6711SOL     OW21031   4.839   6.582   5.990
 6711SOL    HW121032   4.808   6.488   5.974
 6711SOL    HW221033   4.850   6.629   5.903
 6712SOL     OW21034   5.990   3.539   0.736
 6712SOL    HW121035   6.077   3.504   0.770
 6712SOL    HW221036   5.998   3.638   0.719
 6713SOL     OW21037   1.128   1.299   3.161
 6713SOL    HW121038   1.214   1.313   3.210
 6713SOL    HW221039   1.051   1.323   3.221
 6714SOL     OW21040   5.891   1.166   0.854
 6714SOL    HW121041   5.858   1.226   0.927
 6714SOL    HW221042   5.969   1.113   0.887
 6715SOL     OW21043   1.615   0.853   1.502
 6715SOL    HW121044   1.569   0.939   1.479
 6715SOL    HW221045   1.675   0.867   1.580
 6716SOL     OW21046   6.349   5.631   2.508
 6716SOL    HW121047   6.439   5.588   2.512
 6716SOL    HW221048   6.297   5.591   2.432
 6717SOL     OW21049   2.584   2.234   6.434
 6717SOL    HW121050   2.684   2.238   6.438
 6717SOL    HW221051   2.554   2.251   6.340
 6718SOL     OW21052   4.592   1.486   0.700
 6718SOL    HW121053   4.599   1.427   0.620
 6718SOL    HW221054   4.682   1.521   0.725
 6719SOL     OW21055   2.108   6.719   0.179
 6719SOL    HW121056   2.126   6.740   0.083
 6719SOL    HW221057   2.176   6.654   0.213
 6720SOL     OW21058   2.812   0.805   5.156
 6720SOL    HW121059   2.744   0.849   5.215
 6720SOL    HW221060   2.904   0.832   5.184
 6721SOL     OW21061   6.909   0.178   0.587
 6721SOL    HW121062   6.852   0.110   0.540
 6721SOL    HW221063   6.874   0.193   0.680
 6722SOL     OW21064   0.504   2.524   0.396
 6722SOL    HW121065   0.437   2.565   0.333
 6722SOL    HW221066   0.596   2.549   0.367
 6723SOL     OW21067   1.987   0.457   6.907
 6723SOL    HW121068   2.085   0.438   6.909
 6723SOL    HW221069   1.957   0.489   6.996
 6724SOL     OW21070   2.442   2.355   6.221
 6724SOL    HW121071   2.470   2.422   6.153
 6724SOL    HW221072   2.342   2.349   6.222
 6725SOL     OW21073   5.748   3.157   2.970
 6725SOL    HW121074   5.840   3.180   2.938
 6725SOL    HW221075   5.725   3.214   3.049
 6726SOL     OW21076   0.320   1.925   4.739
 6726SOL    HW121077   0.392   1.944   4.672
 6726SOL    HW221078   0.243   1.880   4.693
 6727SOL     OW21079   1.076   4.116   5.695
 6727SOL    HW121080   1.071   4.129   5.794
 6727SOL    HW221081   1.055   4.020   5.673
 6728SOL     OW21082   3.866   1.613   3.316
 6728SOL    HW121083   3.854   1.681   3.243
 6728SOL    HW221084   3.959   1.619   3.352
 6729SOL     OW21085   6.663   2.175   6.936
 6729SOL    HW121086   6.678   2.224   0.001
 6729SOL    HW221087   6.646   2.241   6.862
 6730SOL     OW21088   1.454   0.644   1.443
 6730SOL    HW121089   1.519   0.709   1.483
 6730SOL    HW221090   1.407   0.595   1.517
 6731SOL     OW21091   1.792   6.456   1.089
 6731SOL    HW121092   1.763   6.365   1.120
 6731SOL    HW221093   1.876   6.448   1.035
 6732SOL     OW21094   5.375   4.268   4.569
 6732SOL    HW121095   5.444   4.243   4.637
 6732SOL    HW221096   5.370   4.197   4.499
 6733SOL     OW21097   3.724   5.285   6.535
 6733SOL    HW121098   3.737   5.372   6.581
 6733SOL    HW221099   3.721   5.211   6.603
 6734SOL     OW21100   5.298   2.123   5.529
 6734SOL    HW121101   5.370   2.073   5.480
 6734SOL    HW221102   5.253   2.186   5.465
 6735SOL     OW21103   5.869   4.074   4.141
 6735SOL    HW121104   5.776   4.100   4.168
 6735SOL    HW221105   5.928   4.077   4.222
 6736SOL     OW21106   3.131   4.077   6.940
 6736SOL    HW121107   3.149   3.988   6.982
 6736SOL    HW221108   3.062   4.068   6.868
 6737SOL     OW21109   0.631   2.808   0.917
 6737SOL    HW121110   0.712   2.867   0.909
 6737SOL    HW221111   0.585   2.827   1.004
 6738SOL     OW21112   1.474   5.867   3.779
 6738SOL    HW121113   1.568   5.833   3.783
 6738SOL    HW221114   1.457   5.908   3.689
 6739SOL     OW21115   6.572   6.136   3.701
 6739SOL    HW121116   6.502   6.208   3.693
 6739SOL    HW221117   6.563   6.091   3.790
 6740SOL     OW21118   6.395   6.606   4.533
 6740SOL    HW121119   6.441   6.677   4.586
 6740SOL    HW221120   6.296   6.615   4.544
 6741SOL     OW21121   4.003   2.242   6.087
 6741SOL    HW121122   3.914   2.244   6.132
 6741SOL    HW221123   4.070   2.197   6.145
 6742SOL     OW21124   5.800   5.371   3.581
 6742SOL    HW121125   5.775   5.312   3.657
 6742SOL    HW221126   5.758   5.461   3.593
 6743SOL     OW21127   3.785   4.017   6.707
 6743SOL    HW121128   3.700   3.965   6.707
 6743SOL    HW221129   3.861   3.958   6.680
 6744SOL     OW21130   0.122   6.106   6.026
 6744SOL    HW121131   0.057   6.099   5.951
 6744SOL    HW221132   0.129   6.202   6.055
 6745SOL     OW21133   6.845   6.306   3.819
 6745SOL    HW121134   6.915   6.237   3.804
 6745SOL    HW221135   6.793   6.321   3.735
 6746SOL     OW21136   1.809   0.907   2.575
 6746SOL    HW121137   1.825   0.914   2.674
 6746SOL    HW221138   1.847   0.988   2.530
 6747SOL     OW21139   6.063   6.601   6.327
 6747SOL    HW121140   6.151   6.602   6.279
 6747SOL    HW221141   6.059   6.676   6.392
 6748SOL     OW21142   2.760   1.790   3.762
 6748SOL    HW121143   2.774   1.692   3.746
 6748SOL    HW221144   2.849   1.835   3.774
 6749SOL     OW21145   3.789   4.400   0.839
 6749SOL    HW121146   3.881   4.424   0.807
 6749SOL    HW221147   3.757   4.470   0.903
 6750SOL     OW21148   2.894   1.576   4.198
 6750SOL    HW121149   2.946   1.662   4.199
 6750SOL    HW221150   2.819   1.582   4.264
 6751SOL     OW21151   4.900   0.674   3.332
 6751SOL    HW121152   4.968   0.746   3.317
 6751SOL    HW221153   4.849   0.658   3.247
 6752SOL     OW21154   1.826   0.170   3.847
 6752SOL    HW121155   1.921   0.162   3.879
 6752SOL    HW221156   1.806   0.266   3.829
 6753SOL     OW21157   3.389   2.143   5.954
 6753SOL    HW121158   3.447   2.146   6.036
 6753SOL    HW221159   3.445   2.119   5.875
 6754SOL     OW21160   6.182   0.863   1.222
 6754SOL    HW121161   6.100   0.822   1.262
 6754SOL    HW221162   6.155   0.930   1.153
 6755SOL     OW21163   3.552   4.348   1.326
 6755SOL    HW121164   3.613   4.348   1.406
 6755SOL    HW221165   3.471   4.403   1.346
 6756SOL     OW21166   3.841   0.525   5.637
 6756SOL    HW121167   3.838   0.611   5.688
 6756SOL    HW221168   3.908   0.464   5.680
 6757SOL     OW21169   4.050   1.311   1.468
 6757SOL    HW121170   3.977   1.364   1.512
 6757SOL    HW221171   4.127   1.371   1.447
 6758SOL     OW21172   6.023   3.102   1.831
 6758SOL    HW121173   6.046   3.033   1.900
 6758SOL    HW221174   6.091   3.099   1.757
 6759SOL     OW21175   6.966   3.145   3.235
 6759SOL    HW121176   6.886   3.100   3.194
 6759SOL    HW221177   7.020   3.078   3.286
 6760SOL     OW21178   6.278   3.850   2.378
 6760SOL    HW121179   6.372   3.822   2.397
 6760SOL    HW221180   6.271   3.883   2.284
 6761SOL     OW21181   5.246   2.819   4.976
 6761SOL    HW121182   5.267   2.769   4.892
 6761SOL    HW221183   5.186   2.896   4.956
 6762SOL     OW21184   0.339   4.553   4.699
 6762SOL    HW121185   0.356   4.528   4.794
 6762SOL    HW221186   0.241   4.542   4.678
 6763SOL     OW21187   4.891   5.138   4.905
 6763SOL    HW121188   4.890   5.038   4.893
 6763SOL    HW221189   4.858   5.182   4.822
 6764SOL     OW21190   2.315   5.667   2.279
 6764SOL    HW121191   2.217   5.652   2.282
 6764SOL    HW221192   2.358   5.596   2.222
 6765SOL     OW21193   6.511   4.375   3.262
 6765SOL    HW121194   6.474   4.323   3.339
 6765SOL    HW221195   6.522   4.315   3.183
 6766SOL     OW21196   4.914   6.082   5.792
 6766SOL    HW121197   4.896   6.155   5.726
 6766SOL    HW221198   4.830   6.061   5.842
 6767SOL     OW21199   3.236   0.309   1.305
 6767SOL    HW121200   3.209   0.348   1.217
 6767SOL    HW221201   3.228   0.379   1.376
 6768SOL     OW21202   2.061   0.287   5.937
 6768SOL    HW121203   2.063   0.222   5.861
 6768SOL    HW221204   2.133   0.264   6.002
 6769SOL     OW21205   3.082   1.938   1.093
 6769SOL    HW121206   3.022   1.999   1.042
 6769SOL    HW221207   3.177   1.952   1.065
 6770SOL     OW21208   6.638   1.077   1.753
 6770SOL    HW121209   6.690   1.033   1.827
 6770SOL    HW221210   6.700   1.131   1.696
 6771SOL     OW21211   4.710   2.554   3.590
 6771SOL    HW121212   4.703   2.633   3.529
 6771SOL    HW221213   4.805   2.521   3.591
 6772SOL     OW21214   3.477   0.645   3.293
 6772SOL    HW121215   3.532   0.627   3.374
 6772SOL    HW221216   3.383   0.668   3.320
 6773SOL     OW21217   6.864   5.492   1.707
 6773SOL    HW121218   6.831   5.579   1.669
 6773SOL    HW221219   6.786   5.439   1.741
 6774SOL     OW21220   0.649   2.663   6.073
 6774SOL    HW121221   0.747   2.676   6.086
 6774SOL    HW221222   0.620   2.707   5.987
 6775SOL     OW21223   2.606   3.170   1.656
 6775SOL    HW121224   2.693   3.129   1.681
 6775SOL    HW221225   2.612   3.270   1.665
 6776SOL     OW21226   4.400   4.343   6.616
 6776SOL    HW121227   4.495   4.340   6.583
 6776SOL    HW221228   4.398   4.312   6.712
 6777SOL     OW21229   3.943   3.770   6.739
 6777SOL    HW121230   3.920   3.709   6.815
 6777SOL    HW221231   3.991   3.719   6.668
 6778SOL     OW21232   6.413   4.980   2.195
 6778SOL    HW121233   6.435   4.904   2.134
 6778SOL    HW221234   6.335   4.955   2.252
 6779SOL     OW21235   6.677   4.960   5.741
 6779SOL    HW121236   6.774   4.957   5.716
 6779SOL    HW221237   6.660   4.893   5.813
 6780SOL     OW21238   1.423   2.124   2.569
 6780SOL    HW121239   1.404   2.083   2.658
 6780SOL    HW221240   1.338   2.159   2.530
 6781SOL     OW21241   5.561   0.325   4.886
 6781SOL    HW121242   5.658   0.334   4.864
 6781SOL    HW221243   5.509   0.316   4.801
 6782SOL     OW21244   0.275   0.221   3.266
 6782SOL    HW121245   0.345   0.149   3.267
 6782SOL    HW221246   0.193   0.186   3.220
 6783SOL     OW21247   6.451   0.910   6.460
 6783SOL    HW121248   6.365   0.950   6.493
 6783SOL    HW221249   6.527   0.945   6.514
 6784SOL     OW21250   3.163   3.535   0.346
 6784SOL    HW121251   3.162   3.501   0.440
 6784SOL    HW221252   3.250   3.513   0.303
 6785SOL     OW21253   5.057   4.781   2.831
 6785SOL    HW121254   5.004   4.861   2.803
 6785SOL    HW221255   5.029   4.701   2.779
 6786SOL     OW21256   1.581   1.931   0.222
 6786SOL    HW121257   1.540   1.858   0.167
 6786SOL    HW221258   1.530   1.940   0.308
 6787SOL     OW21259   1.715   2.781   1.112
 6787SOL    HW121260   1.742   2.865   1.066
 6787SOL    HW221261   1.722   2.794   1.211
 6788SOL     OW21262   2.560   3.441   1.694
 6788SOL    HW121263   2.594   3.531   1.667
 6788SOL    HW221264   2.487   3.452   1.762
 6789SOL     OW21265   0.055   6.431   3.078
 6789SOL    HW121266   0.143   6.386   3.062
 6789SOL    HW221267   7.005   6.383   3.026
 6790SOL     OW21268   1.512   3.869   0.969
 6790SOL    HW121269   1.544   3.904   0.881
 6790SOL    HW221270   1.547   3.777   0.983
 6791SOL     OW21271   4.383   2.821   1.425
 6791SOL    HW121272   4.320   2.761   1.473
 6791SOL    HW221273   4.385   2.910   1.469
 6792SOL     OW21274   6.582   6.101   6.103
 6792SOL    HW121275   6.680   6.116   6.088
 6792SOL    HW221276   6.533   6.110   6.017
 6793SOL     OW21277   0.932   1.988   0.198
 6793SOL    HW121278   0.973   1.900   0.223
 6793SOL    HW221279   0.838   1.992   0.231
 6794SOL     OW21280   4.840   1.700   5.801
 6794SOL    HW121281   4.844   1.790   5.846
 6794SOL    HW221282   4.890   1.633   5.856
 6795SOL     OW21283   2.602   6.391   0.873
 6795SOL    HW121284   2.672   6.329   0.836
 6795SOL    HW221285   2.516   6.376   0.825
 6796SOL     OW21286   6.099   0.732   2.160
 6796SOL    HW121287   6.005   0.702   2.176
 6796SOL    HW221288   6.162   0.658   2.185
 6797SOL     OW21289   5.497   3.583   1.641
 6797SOL    HW121290   5.404   3.592   1.607
 6797SOL    HW221291   5.545   3.514   1.587
 6798SOL     OW21292   5.476   6.126   2.792
 6798SOL    HW121293   5.513   6.194   2.855
 6798SOL    HW221294   5.424   6.171   2.720
 6799SOL     OW21295   6.534   5.734   6.812
 6799SOL    HW121296   6.513   5.681   6.729
 6799SOL    HW221297   6.631   5.728   6.831
 6800SOL     OW21298   2.201   4.071   1.253
 6800SOL    HW121299   2.245   3.992   1.295
 6800SOL    HW221300   2.241   4.088   1.163
 6801SOL     OW21301   1.068   0.688   2.759
 6801SOL    HW121302   1.091   0.593   2.736
 6801SOL    HW221303   1.137   0.725   2.821
 6802SOL     OW21304   3.275   5.596   0.162
 6802SOL    HW121305   3.357   5.555   0.123
 6802SOL    HW221306   3.195   5.564   0.112
 6803SOL     OW21307   5.181   2.810   6.337
 6803SOL    HW121308   5.240   2.879   6.380
 6803SOL    HW221309   5.131   2.851   6.261
 6804SOL     OW21310   2.680   5.397   3.392
 6804SOL    HW121311   2.702   5.341   3.471
 6804SOL    HW221312   2.763   5.414   3.339
 6805SOL     OW21313   5.679   5.740   5.088
 6805SOL    HW121314   5.750   5.811   5.091
 6805SOL    HW221315   5.638   5.729   5.178
 6806SOL     OW21316   5.574   0.998   3.304
 6806SOL    HW121317   5.593   1.002   3.402
 6806SOL    HW221318   5.659   1.011   3.253
 6807SOL     OW21319   3.140   2.593   0.626
 6807SOL    HW121320   3.231   2.609   0.587
 6807SOL    HW221321   3.148   2.579   0.724
 6808SOL     OW21322   0.140   2.046   5.562
 6808SOL    HW121323   0.045   2.060   5.589
 6808SOL    HW221324   0.143   1.992   5.478
 6809SOL     OW21325   1.385   3.535   1.338
 6809SOL    HW121326   1.401   3.527   1.436
 6809SOL    HW221327   1.288   3.526   1.319
 6810SOL     OW21328   2.065   0.182   1.911
 6810SOL    HW121329   2.060   0.172   2.010
 6810SOL    HW221330   2.071   0.279   1.887
 6811SOL     OW21331   4.993   3.937   0.361
 6811SOL    HW121332   4.940   4.003   0.308
 6811SOL    HW221333   4.943   3.851   0.367
 6812SOL     OW21334   3.335   3.510   3.527
 6812SOL    HW121335   3.283   3.429   3.555
 6812SOL    HW221336   3.297   3.591   3.570
 6813SOL     OW21337   4.998   2.024   2.233
 6813SOL    HW121338   4.954   1.935   2.226
 6813SOL    HW221339   4.932   2.096   2.210
 6814SOL     OW21340   3.205   2.149   0.715
 6814SOL    HW121341   3.243   2.057   0.723
 6814SOL    HW221342   3.179   2.166   0.620
 6815SOL     OW21343   3.000   6.875   1.546
 6815SOL    HW121344   3.024   6.956   1.492
 6815SOL    HW221345   3.068   6.862   1.619
 6816SOL     OW21346   0.220   6.948   6.705
 6816SOL    HW121347   0.310   6.903   6.700
 6816SOL    HW221348   0.221   7.016   6.778
 6817SOL     OW21349   0.627   2.248   4.883
 6817SOL    HW121350   0.690   2.172   4.870
 6817SOL    HW221351   0.612   2.262   4.981
 6818SOL     OW21352   3.048   5.393   1.828
 6818SOL    HW121353   3.031   5.299   1.799
 6818SOL    HW221354   2.979   5.453   1.789
 6819SOL     OW21355   4.946   1.118   4.457
 6819SOL    HW121356   4.923   1.206   4.415
 6819SOL    HW221357   4.934   1.124   4.556
 6820SOL     OW21358   1.113   5.510   2.928
 6820SOL    HW121359   1.194   5.451   2.926
 6820SOL    HW221360   1.079   5.522   2.835
 6821SOL     OW21361   3.174   1.019   5.441
 6821SOL    HW121362   3.138   0.962   5.367
 6821SOL    HW221363   3.148   0.980   5.529
 6822SOL     OW21364   6.371   2.238   6.037
 6822SOL    HW121365   6.318   2.233   6.122
 6822SOL    HW221366   6.463   2.272   6.057
 6823SOL     OW21367   3.646   3.360   4.129
 6823SOL    HW121368   3.599   3.443   4.158
 6823SOL    HW221369   3.720   3.339   4.193
 6824SOL     OW21370   1.200   3.399   6.172
 6824SOL    HW121371   1.298   3.385   6.186
 6824SOL    HW221372   1.156   3.415   6.260
 6825SOL     OW21373   5.043   6.152   2.445
 6825SOL    HW121374   5.084   6.166   2.535
 6825SOL    HW221375   4.945   6.170   2.450
 6826SOL     OW21376   2.286   4.301   2.788
 6826SOL    HW121377   2.263   4.347   2.702
 6826SOL    HW221378   2.279   4.202   2.776
 6827SOL     OW21379   4.597   5.747   6.814
 6827SOL    HW121380   4.627   5.754   6.909
 6827SOL    HW221381   4.662   5.689   6.763
 6828SOL     OW21382   2.747   1.581   2.112
 6828SOL    HW121383   2.826   1.521   2.128
 6828SOL    HW221384   2.723   1.627   2.197
 6829SOL     OW21385   4.801   6.973   4.128
 6829SOL    HW121386   4.883   6.918   4.143
 6829SOL    HW221387   4.816   0.044   4.164
 6830SOL     OW21388   5.148   1.450   3.804
 6830SOL    HW121389   5.107   1.442   3.895
 6830SOL    HW221390   5.169   1.546   3.786
 6831SOL     OW21391   1.250   0.431   5.991
 6831SOL    HW121392   1.247   0.397   6.085
 6831SOL    HW221393   1.335   0.401   5.947
 6832SOL     OW21394   2.871   3.940   1.334
 6832SOL    HW121395   2.829   3.851   1.321
 6832SOL    HW221396   2.928   3.939   1.416
 6833SOL     OW21397   4.472   4.594   6.579
 6833SOL    HW121398   4.425   4.510   6.609
 6833SOL    HW221399   4.427   4.629   6.497
 6834SOL     OW21400   5.196   0.064   1.708
 6834SOL    HW121401   5.153   0.046   1.797
 6834SOL    HW221402   5.295   0.076   1.721
 6835SOL     OW21403   4.015   0.306   5.206
 6835SOL    HW121404   4.108   0.277   5.184
 6835SOL    HW221405   3.956   0.291   5.126
 6836SOL     OW21406   3.334   5.248   0.089
 6836SOL    HW121407   3.291   5.300   0.015
 6836SOL    HW221408   3.286   5.161   0.101
 6837SOL     OW21409   1.583   1.990   2.044
 6837SOL    HW121410   1.673   2.015   2.008
 6837SOL    HW221411   1.585   1.991   2.144
 6838SOL     OW21412   2.409   6.103   0.954
 6838SOL    HW121413   2.322   6.091   1.002
 6838SOL    HW221414   2.480   6.129   1.020
 6839SOL     OW21415   5.023   0.785   6.649
 6839SOL    HW121416   5.071   0.697   6.645
 6839SOL    HW221417   5.048   0.832   6.734
 6840SOL     OW21418   2.694   2.111   4.958
 6840SOL    HW121419   2.784   2.099   4.998
 6840SOL    HW221420   2.660   2.202   4.979
 6841SOL     OW21421   5.275   3.812   6.149
 6841SOL    HW121422   5.192   3.763   6.175
 6841SOL    HW221423   5.318   3.851   6.231
 6842SOL     OW21424   2.890   4.290   1.031
 6842SOL    HW121425   2.836   4.205   1.034
 6842SOL    HW221426   2.829   4.368   1.019
 6843SOL     OW21427   5.419   6.545   0.402
 6843SOL    HW121428   5.458   6.538   0.494
 6843SOL    HW221429   5.368   6.630   0.393
 6844SOL     OW21430   5.276   0.991   4.017
 6844SOL    HW121431   5.334   0.933   4.075
 6844SOL    HW221432   5.262   1.079   4.061
 6845SOL     OW21433   5.934   3.373   3.299
 6845SOL    HW121434   5.944   3.343   3.394
 6845SOL    HW221435   5.985   3.311   3.239
 6846SOL     OW21436   3.892   4.116   0.125
 6846SOL    HW121437   3.868   4.022   0.147
 6846SOL    HW221438   3.939   4.119   0.036
 6847SOL     OW21439   0.086   3.966   5.181
 6847SOL    HW121440   0.080   3.891   5.114
 6847SOL    HW221441   0.085   3.929   5.273
 6848SOL     OW21442   5.145   4.230   3.422
 6848SOL    HW121443   5.219   4.297   3.430
 6848SOL    HW221444   5.073   4.253   3.488
 6849SOL     OW21445   4.000   3.859   5.739
 6849SOL    HW121446   4.036   3.799   5.668
 6849SOL    HW221447   4.076   3.905   5.785
 6850SOL     OW21448   5.167   3.111   2.803
 6850SOL    HW121449   5.234   3.133   2.875
 6850SOL    HW221450   5.213   3.112   2.714
 6851SOL     OW21451   1.187   2.229   2.481
 6851SOL    HW121452   1.092   2.221   2.511
 6851SOL    HW221453   1.207   2.324   2.456
 6852SOL     OW21454   2.939   4.878   0.927
 6852SOL    HW121455   2.896   4.803   0.877
 6852SOL    HW221456   2.947   4.958   0.867
 6853SOL     OW21457   4.943   4.003   6.210
 6853SOL    HW121458   4.980   3.917   6.173
 6853SOL    HW221459   4.927   3.992   6.308
 6854SOL     OW21460   5.780   0.393   5.761
 6854SOL    HW121461   5.756   0.313   5.706
 6854SOL    HW221462   5.877   0.414   5.746
 6855SOL     OW21463   4.269   5.951   3.666
 6855SOL    HW121464   4.193   5.886   3.660
 6855SOL    HW221465   4.238   6.034   3.713
 6856SOL     OW21466   0.608   2.098   5.357
 6856SOL    HW121467   0.561   2.011   5.370
 6856SOL    HW221468   0.652   2.125   5.442
 6857SOL     OW21469   0.837   3.310   6.727
 6857SOL    HW121470   0.905   3.249   6.687
 6857SOL    HW221471   0.747   3.268   6.720
 6858SOL     OW21472   3.611   4.046   1.797
 6858SOL    HW121473   3.581   4.048   1.892
 6858SOL    HW221474   3.562   4.116   1.745
 6859SOL     OW21475   0.134   0.778   1.388
 6859SOL    HW121476   0.198   0.762   1.313
 6859SOL    HW221477   0.174   0.746   1.474
 6860SOL     OW21478   6.766   4.586   1.440
 6860SOL    HW121479   6.708   4.651   1.488
 6860SOL    HW221480   6.848   4.567   1.494
 6861SOL     OW21481   4.707   4.147   6.056
 6861SOL    HW121482   4.692   4.182   5.963
 6861SOL    HW221483   4.779   4.078   6.055
 6862SOL     OW21484   0.201   4.828   5.519
 6862SOL    HW121485   0.133   4.799   5.586
 6862SOL    HW221486   0.188   4.926   5.500
 6863SOL     OW21487   6.554   6.279   5.667
 6863SOL    HW121488   6.610   6.358   5.692
 6863SOL    HW221489   6.469   6.310   5.625
 6864SOL     OW21490   2.229   4.462   5.245
 6864SOL    HW121491   2.316   4.417   5.225
 6864SOL    HW221492   2.156   4.417   5.194
 6865SOL     OW21493   1.323   0.209   5.260
 6865SOL    HW121494   1.332   0.122   5.211
 6865SOL    HW221495   1.390   0.274   5.224
 6866SOL     OW21496   6.048   4.597   2.429
 6866SOL    HW121497   6.086   4.628   2.516
 6866SOL    HW221498   5.998   4.512   2.442
 6867SOL     OW21499   1.983   3.664   1.125
 6867SOL    HW121500   1.953   3.759   1.133
 6867SOL    HW221501   2.073   3.661   1.081
 6868SOL     OW21502   2.359   6.694   5.178
 6868SOL    HW121503   2.434   6.750   5.142
 6868SOL    HW221504   2.396   6.609   5.216
 6869SOL     OW21505   4.849   1.129   5.939
 6869SOL    HW121506   4.760   1.120   5.984
 6869SOL    HW221507   4.883   1.222   5.949
 6870SOL     OW21508   0.033   3.948   1.070
 6870SOL    HW121509   0.110   3.977   1.015
 6870SOL    HW221510   0.036   3.994   1.159
 6871SOL     OW21511   6.665   4.071   2.654
 6871SOL    HW121512   6.670   4.163   2.694
 6871SOL    HW221513   6.711   4.006   2.714
 6872SOL     OW21514   0.456   2.960   1.866
 6872SOL    HW121515   0.515   2.894   1.820
 6872SOL    HW221516   0.512   3.033   1.907
 6873SOL     OW21517   0.871   4.273   3.925
 6873SOL    HW121518   0.776   4.300   3.907
 6873SOL    HW221519   0.883   4.256   4.022
 6874SOL     OW21520   6.420   5.878   3.571
 6874SOL    HW121521   6.406   5.868   3.670
 6874SOL    HW221522   6.517   5.863   3.550
 6875SOL     OW21523   2.196   2.152   2.328
 6875SOL    HW121524   2.282   2.167   2.279
 6875SOL    HW221525   2.215   2.124   2.422
 6876SOL     OW21526   3.352   6.961   3.455
 6876SOL    HW121527   3.261   6.954   3.414
 6876SOL    HW221528   3.356   6.904   3.537
 6877SOL     OW21529   3.278   4.318   1.675
 6877SOL    HW121530   3.179   4.334   1.671
 6877SOL    HW221531   3.297   4.242   1.738
 6878SOL     OW21532   2.786   1.832   3.389
 6878SOL    HW121533   2.710   1.855   3.450
 6878SOL    HW221534   2.758   1.757   3.329
 6879SOL     OW21535   2.269   2.561   0.506
 6879SOL    HW121536   2.186   2.519   0.469
 6879SOL    HW221537   2.348   2.504   0.483
 6880SOL     OW21538   0.857   6.434   5.944
 6880SOL    HW121539   0.833   6.529   5.964
 6880SOL    HW221540   0.806   6.374   6.007
 6881SOL     OW21541   1.599   3.295   1.597
 6881SOL    HW121542   1.649   3.210   1.583
 6881SOL    HW221543   1.602   3.319   1.694
 6882SOL     OW21544   2.992   0.838   0.457
 6882SOL    HW121545   2.951   0.750   0.479
 6882SOL    HW221546   2.976   0.901   0.533
 6883SOL     OW21547   5.139   1.296   6.045
 6883SOL    HW121548   5.212   1.246   6.093
 6883SOL    HW221549   5.051   1.265   6.079
 6884SOL     OW21550   1.526   4.082   3.057
 6884SOL    HW121551   1.597   4.059   3.123
 6884SOL    HW221552   1.484   4.170   3.082
 6885SOL     OW21553   4.864   4.981   3.794
 6885SOL    HW121554   4.825   4.901   3.839
 6885SOL    HW221555   4.803   5.060   3.808
 6886SOL     OW21556   6.871   1.348   4.913
 6886SOL    HW121557   6.808   1.272   4.930
 6886SOL    HW221558   6.836   1.431   4.956
 6887SOL     OW21559   4.389   5.853   0.089
 6887SOL    HW121560   4.379   5.937   0.141
 6887SOL    HW221561   4.310   5.793   0.106
 6888SOL     OW21562   5.325   4.504   6.254
 6888SOL    HW121563   5.366   4.506   6.163
 6888SOL    HW221564   5.300   4.597   6.282
 6889SOL     OW21565   1.829   2.364   5.725
 6889SOL    HW121566   1.902   2.431   5.713
 6889SOL    HW221567   1.767   2.394   5.797
 6890SOL     OW21568   3.822   5.720   3.028
 6890SOL    HW121569   3.779   5.691   2.943
 6890SOL    HW221570   3.806   5.652   3.099
 6891SOL     OW21571   2.032   3.229   1.548
 6891SOL    HW121572   2.045   3.289   1.627
 6891SOL    HW221573   2.108   3.241   1.484
 6892SOL     OW21574   3.053   1.123   3.701
 6892SOL    HW121575   3.057   1.128   3.601
 6892SOL    HW221576   3.144   1.105   3.738
 6893SOL     OW21577   5.792   3.337   0.489
 6893SOL    HW121578   5.847   3.254   0.500
 6893SOL    HW221579   5.799   3.393   0.572
 6894SOL     OW21580   5.767   5.118   1.303
 6894SOL    HW121581   5.675   5.087   1.280
 6894SOL    HW221582   5.793   5.194   1.244
 6895SOL     OW21583   2.079   5.457   1.090
 6895SOL    HW121584   2.108   5.363   1.073
 6895SOL    HW221585   2.154   5.507   1.134
 6896SOL     OW21586   2.702   1.670   4.027
 6896SOL    HW121587   2.720   1.719   3.942
 6896SOL    HW221588   2.789   1.652   4.074
 6897SOL     OW21589   4.837   3.849   5.200
 6897SOL    HW121590   4.830   3.750   5.188
 6897SOL    HW221591   4.791   3.896   5.125
 6898SOL     OW21592   3.497   1.491   1.514
 6898SOL    HW121593   3.422   1.492   1.447
 6898SOL    HW221594   3.577   1.448   1.474
 6899SOL     OW21595   4.882   6.474   2.323
 6899SOL    HW121596   4.834   6.395   2.359
 6899SOL    HW221597   4.978   6.452   2.308
 6900SOL     OW21598   6.545   4.457   5.432
 6900SOL    HW121599   6.605   4.377   5.427
 6900SOL    HW221600   6.594   4.531   5.478
 6901SOL     OW21601   5.043   5.843   6.092
 6901SOL    HW121602   5.131   5.819   6.132
 6901SOL    HW221603   4.969   5.805   6.149
 6902SOL     OW21604   6.655   6.461   5.380
 6902SOL    HW121605   6.625   6.368   5.357
 6902SOL    HW221606   6.725   6.490   5.314
 6903SOL     OW21607   3.060   4.807   5.202
 6903SOL    HW121608   3.024   4.790   5.110
 6903SOL    HW221609   3.118   4.888   5.200
 6904SOL     OW21610   6.539   6.852   6.026
 6904SOL    HW121611   6.440   6.862   6.028
 6904SOL    HW221612   6.566   6.777   6.087
 6905SOL     OW21613   5.239   5.408   6.787
 6905SOL    HW121614   5.318   5.444   6.736
 6905SOL    HW221615   5.258   5.413   6.885
 6906SOL     OW21616   3.339   1.279   3.292
 6906SOL    HW121617   3.418   1.250   3.237
 6906SOL    HW221618   3.371   1.320   3.377
 6907SOL     OW21619   6.616   2.710   1.980
 6907SOL    HW121620   6.662   2.760   2.054
 6907SOL    HW221621   6.628   2.760   1.894
 6908SOL     OW21622   2.218   4.735   6.786
 6908SOL    HW121623   2.298   4.784   6.823
 6908SOL    HW221624   2.234   4.716   6.689
 6909SOL     OW21625   5.432   4.867   1.773
 6909SOL    HW121626   5.440   4.848   1.675
 6909SOL    HW221627   5.403   4.785   1.821
 6910SOL     OW21628   1.488   2.347   2.915
 6910SOL    HW121629   1.388   2.344   2.910
 6910SOL    HW221630   1.520   2.440   2.897
 6911SOL     OW21631   4.312   0.246   4.628
 6911SOL    HW121632   4.290   0.174   4.562
 6911SOL    HW221633   4.359   0.206   4.707
 6912SOL     OW21634   2.469   3.232   6.354
 6912SOL    HW121635   2.512   3.267   6.437
 6912SOL    HW221636   2.390   3.175   6.378
 6913SOL     OW21637   5.158   6.624   4.724
 6913SOL    HW121638   5.238   6.639   4.783
 6913SOL    HW221639   5.079   6.670   4.763
 6914SOL     OW21640   6.066   4.375   2.787
 6914SOL    HW121641   6.076   4.318   2.869
 6914SOL    HW221642   6.152   4.378   2.737
 6915SOL     OW21643   0.759   2.407   2.381
 6915SOL    HW121644   0.684   2.389   2.444
 6915SOL    HW221645   0.811   2.487   2.412
 6916SOL     OW21646   5.491   1.408   6.252
 6916SOL    HW121647   5.431   1.482   6.284
 6916SOL    HW221648   5.584   1.424   6.286
 6917SOL     OW21649   3.872   5.876   2.143
 6917SOL    HW121650   3.901   5.858   2.237
 6917SOL    HW221651   3.941   5.842   2.079
 6918SOL     OW21652   6.944   2.665   3.682
 6918SOL    HW121653   0.020   2.642   3.671
 6918SOL    HW221654   6.905   2.610   3.756
 6919SOL     OW21655   6.414   5.817   3.155
 6919SOL    HW121656   6.318   5.790   3.158
 6919SOL    HW221657   6.421   5.916   3.146
 6920SOL     OW21658   5.379   0.092   5.723
 6920SOL    HW121659   5.342   0.002   5.698
 6920SOL    HW221660   5.336   0.163   5.667
 6921SOL     OW21661   4.060   0.014   3.863
 6921SOL    HW121662   4.093   0.023   3.769
 6921SOL    HW221663   4.129   0.048   3.926
 6922SOL     OW21664   1.798   6.613   5.308
 6922SOL    HW121665   1.847   6.669   5.241
 6922SOL    HW221666   1.846   6.618   5.396
 6923SOL     OW21667   5.716   6.798   2.462
 6923SOL    HW121668   5.799   6.812   2.408
 6923SOL    HW221669   5.692   6.882   2.510
 6924SOL     OW21670   2.822   4.757   0.332
 6924SOL    HW121671   2.845   4.851   0.357
 6924SOL    HW221672   2.724   4.751   0.313
 6925SOL     OW21673   4.325   5.339   5.435
 6925SOL    HW121674   4.355   5.339   5.339
 6925SOL    HW221675   4.260   5.265   5.450
 6926SOL     OW21676   2.258   1.917   0.760
 6926SOL    HW121677   2.332   1.867   0.713
 6926SOL    HW221678   2.233   1.868   0.843
 6927SOL     OW21679   3.348   1.651   6.845
 6927SOL    HW121680   3.303   1.740   6.852
 6927SOL    HW221681   3.353   1.624   6.749
 6928SOL     OW21682   5.120   6.067   0.876
 6928SOL    HW121683   5.185   6.144   0.875
 6928SOL    HW221684   5.030   6.100   0.846
 6929SOL     OW21685   5.315   6.072   1.984
 6929SOL    HW121686   5.350   6.005   1.919
 6929SOL    HW221687   5.256   6.137   1.937
 6930SOL     OW21688   0.505   0.627   0.942
 6930SOL    HW121689   0.483   0.594   1.033
 6930SOL    HW221690   0.425   0.616   0.882
 6931SOL     OW21691   1.701   1.513   1.708
 6931SOL    HW121692   1.691   1.413   1.705
 6931SOL    HW221693   1.722   1.541   1.802
 6932SOL     OW21694   4.659   5.853   0.939
 6932SOL    HW121695   4.622   5.927   0.995
 6932SOL    HW221696   4.743   5.884   0.894
 6933SOL     OW21697   3.462   6.764   5.825
 6933SOL    HW121698   3.466   6.835   5.895
 6933SOL    HW221699   3.367   6.749   5.798
 6934SOL     OW21700   5.079   3.231   5.889
 6934SOL    HW121701   5.000   3.291   5.891
 6934SOL    HW221702   5.053   3.144   5.847
 6935SOL     OW21703   4.082   5.818   2.882
 6935SOL    HW121704   4.017   5.895   2.880
 6935SOL    HW221705   4.090   5.784   2.976
 6936SOL     OW21706   0.060   2.575   4.276
 6936SOL    HW121707   0.073   2.674   4.283
 6936SOL    HW221708   0.146   2.532   4.247
 6937SOL     OW21709   5.652   6.403   0.971
 6937SOL    HW121710   5.705   6.455   1.038
 6937SOL    HW221711   5.698   6.407   0.883
 6938SOL     OW21712   0.659   2.153   4.395
 6938SOL    HW121713   0.634   2.075   4.453
 6938SOL    HW221714   0.704   2.222   4.451
 6939SOL     OW21715   6.861   5.150   2.800
 6939SOL    HW121716   6.798   5.078   2.772
 6939SOL    HW221717   6.825   5.197   2.881
 6940SOL     OW21718   4.425   6.689   0.345
 6940SOL    HW121719   4.383   6.776   0.371
 6940SOL    HW221720   4.521   6.706   0.320
 6941SOL     OW21721   3.080   3.863   2.113
 6941SOL    HW121722   3.020   3.864   2.033
 6941SOL    HW221723   3.122   3.773   2.123
 6942SOL     OW21724   5.877   0.080   2.007
 6942SOL    HW121725   5.786   0.096   2.044
 6942SOL    HW221726   5.887   0.129   1.920
 6943SOL     OW21727   3.933   4.674   0.389
 6943SOL    HW121728   3.871   4.596   0.394
 6943SOL    HW221729   3.983   4.672   0.302
 6944SOL     OW21730   0.803   4.976   6.391
 6944SOL    HW121731   0.852   5.027   6.462
 6944SOL    HW221732   0.822   5.018   6.302
 6945SOL     OW21733   6.898   2.684   1.252
 6945SOL    HW121734   6.866   2.762   1.198
 6945SOL    HW221735   6.997   2.675   1.242
 6946SOL     OW21736   4.038   6.207   1.586
 6946SOL    HW121737   4.120   6.165   1.625
 6946SOL    HW221738   4.052   6.306   1.580
 6947SOL     OW21739   4.248   5.164   6.094
 6947SOL    HW121740   4.179   5.218   6.142
 6947SOL    HW221741   4.257   5.197   6.000
 6948SOL     OW21742   0.512   5.841   1.040
 6948SOL    HW121743   0.477   5.748   1.037
 6948SOL    HW221744   0.589   5.850   0.977
 6949SOL     OW21745   2.712   1.812   3.100
 6949SOL    HW121746   2.647   1.886   3.079
 6949SOL    HW221747   2.783   1.810   3.029
 6950SOL     OW21748   1.920   0.568   4.532
 6950SOL    HW121749   1.892   0.664   4.528
 6950SOL    HW221750   1.851   0.515   4.581
 6951SOL     OW21751   6.489   6.238   6.640
 6951SOL    HW121752   6.500   6.286   6.553
 6951SOL    HW221753   6.560   6.269   6.704
 6952SOL     OW21754   1.870   5.508   2.658
 6952SOL    HW121755   1.938   5.454   2.707
 6952SOL    HW221756   1.818   5.563   2.723
 6953SOL     OW21757   5.227   6.913   6.877
 6953SOL    HW121758   5.267   6.905   6.786
 6953SOL    HW221759   5.140   6.963   6.871
 6954SOL     OW21760   0.116   3.987   1.666
 6954SOL    HW121761   0.037   4.011   1.610
 6954SOL    HW221762   0.171   3.917   1.620
 6955SOL     OW21763   4.341   0.930   2.457
 6955SOL    HW121764   4.314   0.969   2.545
 6955SOL    HW221765   4.264   0.937   2.393
 6956SOL     OW21766   5.472   5.534   3.254
 6956SOL    HW121767   5.421   5.518   3.338
 6956SOL    HW221768   5.526   5.453   3.231
 6957SOL     OW21769   5.814   6.023   0.412
 6957SOL    HW121770   5.863   5.943   0.447
 6957SOL    HW221771   5.821   6.025   0.313
 6958SOL     OW21772   3.474   3.755   4.372
 6958SOL    HW121773   3.547   3.819   4.396
 6958SOL    HW221774   3.407   3.752   4.446
 6959SOL     OW21775   1.926   3.849   2.829
 6959SOL    HW121776   1.851   3.797   2.870
 6959SOL    HW221777   1.979   3.790   2.769
 6960SOL     OW21778   2.590   3.996   0.960
 6960SOL    HW121779   2.686   4.011   0.985
 6960SOL    HW221780   2.584   3.913   0.903
 6961SOL     OW21781   5.419   1.378   4.764
 6961SOL    HW121782   5.487   1.305   4.759
 6961SOL    HW221783   5.332   1.346   4.726
 6962SOL     OW21784   4.290   5.685   0.835
 6962SOL    HW121785   4.290   5.768   0.891
 6962SOL    HW221786   4.247   5.610   0.886
 6963SOL     OW21787   5.329   4.759   0.667
 6963SOL    HW121788   5.338   4.851   0.703
 6963SOL    HW221789   5.232   4.735   0.659
 6964SOL     OW21790   4.005   0.283   6.030
 6964SOL    HW121791   3.995   0.301   5.932
 6964SOL    HW221792   4.100   0.295   6.057
 6965SOL     OW21793   1.501   1.251   0.355
 6965SOL    HW121794   1.403   1.230   0.360
 6965SOL    HW221795   1.553   1.165   0.351
 6966SOL     OW21796   0.726   0.524   2.589
 6966SOL    HW121797   0.667   0.544   2.511
 6966SOL    HW221798   0.819   0.558   2.571
 6967SOL     OW21799   3.386   1.517   6.126
 6967SOL    HW121800   3.335   1.432   6.112
 6967SOL    HW221801   3.385   1.570   6.042
 6968SOL     OW21802   2.228   0.996   3.613
 6968SOL    HW121803   2.260   1.087   3.590
 6968SOL    HW221804   2.136   1.001   3.651
 6969SOL     OW21805   3.419   1.821   1.196
 6969SOL    HW121806   3.441   1.904   1.248
 6969SOL    HW221807   3.366   1.845   1.116
 6970SOL     OW21808   4.105   3.649   5.552
 6970SOL    HW121809   4.194   3.604   5.555
 6970SOL    HW221810   4.074   3.655   5.457
 6971SOL     OW21811   5.629   5.197   1.021
 6971SOL    HW121812   5.707   5.259   1.024
 6971SOL    HW221813   5.661   5.103   1.032
 6972SOL     OW21814   5.558   3.610   2.226
 6972SOL    HW121815   5.578   3.703   2.195
 6972SOL    HW221816   5.496   3.565   2.161
 6973SOL     OW21817   0.818   2.780   3.451
 6973SOL    HW121818   0.809   2.732   3.539
 6973SOL    HW221819   0.914   2.799   3.433
 6974SOL     OW21820   2.964   3.697   2.715
 6974SOL    HW121821   2.936   3.713   2.621
 6974SOL    HW221822   2.985   3.600   2.728
 6975SOL     OW21823   1.852   6.715   4.657
 6975SOL    HW121824   1.820   6.810   4.657
 6975SOL    HW221825   1.861   6.683   4.752
 6976SOL     OW21826   5.958   3.864   5.880
 6976SOL    HW121827   5.922   3.955   5.861
 6976SOL    HW221828   5.928   3.801   5.809
 6977SOL     OW21829   3.660   3.559   1.042
 6977SOL    HW121830   3.747   3.539   0.997
 6977SOL    HW221831   3.602   3.477   1.040
 6978SOL     OW21832   5.140   2.975   1.349
 6978SOL    HW121833   5.237   2.950   1.345
 6978SOL    HW221834   5.089   2.922   1.281
 6979SOL     OW21835   1.195   3.252   1.026
 6979SOL    HW121836   1.279   3.207   0.993
 6979SOL    HW221837   1.147   3.294   0.950
 6980SOL     OW21838   1.929   0.995   3.677
 6980SOL    HW121839   1.955   1.047   3.759
 6980SOL    HW221840   1.934   1.055   3.597
 6981SOL     OW21841   3.815   3.309   5.898
 6981SOL    HW121842   3.900   3.349   5.865
 6981SOL    HW221843   3.834   3.249   5.976
 6982SOL     OW21844   1.312   1.269   4.075
 6982SOL    HW121845   1.273   1.313   4.156
 6982SOL    HW221846   1.390   1.323   4.043
 6983SOL     OW21847   5.038   1.331   4.915
 6983SOL    HW121848   4.956   1.374   4.952
 6983SOL    HW221849   5.109   1.330   4.985
 6984SOL     OW21850   1.264   1.389   2.791
 6984SOL    HW121851   1.194   1.338   2.742
 6984SOL    HW221852   1.333   1.421   2.727
 6985SOL     OW21853   6.525   5.135   0.070
 6985SOL    HW121854   6.610   5.165   0.028
 6985SOL    HW221855   6.502   5.196   0.145
 6986SOL     OW21856   3.670   6.707   6.535
 6986SOL    HW121857   3.761   6.666   6.532
 6986SOL    HW221858   3.639   6.728   6.442
 6987SOL     OW21859   6.810   1.311   5.835
 6987SOL    HW121860   6.840   1.363   5.914
 6987SOL    HW221861   6.849   1.350   5.752
 6988SOL     OW21862   1.715   6.882   6.261
 6988SOL    HW121863   1.809   6.893   6.295
 6988SOL    HW221864   1.687   6.787   6.268
 6989SOL     OW21865   6.718   4.562   2.697
 6989SOL    HW121866   6.621   4.583   2.683
 6989SOL    HW221867   6.772   4.602   2.623
 6990SOL     OW21868   4.051   2.761   1.308
 6990SOL    HW121869   4.005   2.789   1.392
 6990SOL    HW221870   4.079   2.666   1.316
 6991SOL     OW21871   5.342   4.478   2.957
 6991SOL    HW121872   5.352   4.553   3.023
 6991SOL    HW221873   5.246   4.455   2.947
 6992SOL     OW21874   6.403   5.981   0.375
 6992SOL    HW121875   6.465   5.989   0.453
 6992SOL    HW221876   6.394   5.885   0.349
 6993SOL     OW21877   6.630   0.462   1.309
 6993SOL    HW121878   6.574   0.543   1.324
 6993SOL    HW221879   6.581   0.397   1.252
 6994SOL     OW21880   1.665   1.064   4.370
 6994SOL    HW121881   1.678   1.148   4.317
 6994SOL    HW221882   1.585   1.074   4.429
 6995SOL     OW21883   0.164   4.267   0.303
 6995SOL    HW121884   0.235   4.292   0.368
 6995SOL    HW221885   0.120   4.183   0.332
 6996SOL     OW21886   1.378   0.419   0.936
 6996SOL    HW121887   1.376   0.430   0.837
 6996SOL    HW221888   1.315   0.483   0.979
 6997SOL     OW21889   0.177   4.860   4.726
 6997SOL    HW121890   0.130   4.773   4.710
 6997SOL    HW221891   0.273   4.852   4.698
 6998SOL     OW21892   0.875   1.316   1.456
 6998SOL    HW121893   0.780   1.285   1.458
 6998SOL    HW221894   0.878   1.412   1.426
 6999SOL     OW21895   1.382   2.558   6.690
 6999SOL    HW121896   1.388   2.489   6.618
 6999SOL    HW221897   1.377   2.513   6.779
 7000SOL     OW21898   5.753   0.829   1.694
 7000SOL    HW121899   5.760   0.923   1.661
 7000SOL    HW221900   5.845   0.794   1.712
 7001SOL     OW21901   0.875   2.053   5.146
 7001SOL    HW121902   0.777   2.046   5.168
 7001SOL    HW221903   0.919   2.117   5.209
 7002SOL     OW21904   1.644   5.157   4.116
 7002SOL    HW121905   1.544   5.167   4.123
 7002SOL    HW221906   1.687   5.245   4.138
 7003SOL     OW21907   4.608   5.371   1.600
 7003SOL    HW121908   4.665   5.374   1.518
 7003SOL    HW221909   4.570   5.461   1.619
 7004SOL     OW21910   0.791   5.631   0.302
 7004SOL    HW121911   0.744   5.544   0.294
 7004SOL    HW221912   0.865   5.635   0.234
 7005SOL     OW21913   0.603   0.158   0.338
 7005SOL    HW121914   0.621   0.085   0.404
 7005SOL    HW221915   0.690   0.196   0.306
 7006SOL     OW21916   6.481   6.404   3.205
 7006SOL    HW121917   6.423   6.430   3.282
 7006SOL    HW221918   6.564   6.360   3.240
 7007SOL     OW21919   4.318   0.427   5.109
 7007SOL    HW121920   4.386   0.496   5.083
 7007SOL    HW221921   4.247   0.422   5.038
 7008SOL     OW21922   0.188   4.447   3.957
 7008SOL    HW121923   0.165   4.483   4.047
 7008SOL    HW221924   0.208   4.522   3.895
 7009SOL     OW21925   4.552   6.725   1.991
 7009SOL    HW121926   4.623   6.690   1.930
 7009SOL    HW221927   4.508   6.804   1.949
 7010SOL     OW21928   5.937   4.417   3.384
 7010SOL    HW121929   5.883   4.479   3.441
 7010SOL    HW221930   5.977   4.345   3.442
 7011SOL     OW21931   3.638   6.732   0.819
 7011SOL    HW121932   3.698   6.805   0.788
 7011SOL    HW221933   3.549   6.771   0.844
 7012SOL     OW21934   1.510   2.143   1.349
 7012SOL    HW121935   1.422   2.096   1.342
 7012SOL    HW221936   1.571   2.091   1.409
 7013SOL     OW21937   2.289   0.065   6.560
 7013SOL    HW121938   2.234   0.045   6.480
 7013SOL    HW221939   2.313   0.163   6.561
 7014SOL     OW21940   5.350   3.447   1.180
 7014SOL    HW121941   5.333   3.543   1.199
 7014SOL    HW221942   5.264   3.396   1.180
 7015SOL     OW21943   5.576   4.576   2.042
 7015SOL    HW121944   5.646   4.513   2.076
 7015SOL    HW221945   5.488   4.528   2.037
 7016SOL     OW21946   3.673   5.038   1.099
 7016SOL    HW121947   3.614   4.982   1.156
 7016SOL    HW221948   3.756   4.987   1.077
 7017SOL     OW21949   2.546   5.232   2.909
 7017SOL    HW121950   2.575   5.142   2.943
 7017SOL    HW221951   2.614   5.268   2.846
 7018SOL     OW21952   5.308   4.059   4.365
 7018SOL    HW121953   5.327   3.972   4.410
 7018SOL    HW221954   5.288   4.044   4.268
 7019SOL     OW21955   4.378   5.491   2.402
 7019SOL    HW121956   4.379   5.391   2.409
 7019SOL    HW221957   4.471   5.526   2.412
 7020SOL     OW21958   0.770   3.849   6.649
 7020SOL    HW121959   0.720   3.763   6.638
 7020SOL    HW221960   0.832   3.861   6.572
 7021SOL     OW21961   1.593   3.103   4.387
 7021SOL    HW121962   1.594   3.067   4.480
 7021SOL    HW221963   1.588   3.203   4.391
 7022SOL     OW21964   4.796   0.605   0.225
 7022SOL    HW121965   4.802   0.576   0.320
 7022SOL    HW221966   4.773   0.526   0.167
 7023SOL     OW21967   0.453   2.526   1.247
 7023SOL    HW121968   0.460   2.601   1.181
 7023SOL    HW221969   0.410   2.560   1.331
 7024SOL     OW21970   3.793   3.560   3.556
 7024SOL    HW121971   3.765   3.523   3.645
 7024SOL    HW221972   3.893   3.561   3.552
 7025SOL     OW21973   3.545   0.177   0.242
 7025SOL    HW121974   3.598   0.116   0.183
 7025SOL    HW221975   3.601   0.203   0.321
 7026SOL     OW21976   4.181   1.956   2.101
 7026SOL    HW121977   4.133   1.872   2.124
 7026SOL    HW221978   4.133   2.002   2.026
 7027SOL     OW21979   2.411   6.189   3.893
 7027SOL    HW121980   2.325   6.201   3.943
 7027SOL    HW221981   2.429   6.270   3.837
 7028SOL     OW21982   2.679   0.111   4.308
 7028SOL    HW121983   2.677   0.122   4.407
 7028SOL    HW221984   2.752   0.047   4.283
 7029SOL     OW21985   3.864   4.074   5.593
 7029SOL    HW121986   3.921   4.001   5.632
 7029SOL    HW221987   3.814   4.120   5.666
 7030SOL     OW21988   0.582   1.848   4.868
 7030SOL    HW121989   0.634   1.926   4.903
 7030SOL    HW221990   0.491   1.878   4.839
 7031SOL     OW21991   3.868   6.276   0.523
 7031SOL    HW121992   3.911   6.344   0.582
 7031SOL    HW221993   3.930   6.252   0.449
 7032SOL     OW21994   4.308   0.819   3.402
 7032SOL    HW121995   4.250   0.752   3.447
 7032SOL    HW221996   4.301   0.808   3.302
 7033SOL     OW21997   1.802   2.689   3.980
 7033SOL    HW121998   1.764   2.755   4.044
 7033SOL    HW221999   1.873   2.734   3.925
 7034SOL     OW22000   6.742   3.034   3.124
 7034SOL    HW122001   6.714   3.058   3.217
 7034SOL    HW222002   6.739   2.935   3.113
 7035SOL     OW22003   2.349   0.223   1.266
 7035SOL    HW122004   2.432   0.205   1.213
 7035SOL    HW222005   2.371   0.218   1.363
 7036SOL     OW22006   6.972   2.168   2.249
 7036SOL    HW122007   0.012   2.247   2.253
 7036SOL    HW222008   6.907   2.180   2.174
 7037SOL     OW22009   0.604   1.311   5.799
 7037SOL    HW122010   0.631   1.220   5.770
 7037SOL    HW222011   0.685   1.370   5.804
 7038SOL     OW22012   2.018   4.580   5.509
 7038SOL    HW122013   2.115   4.556   5.513
 7038SOL    HW222014   1.994   4.635   5.590
 7039SOL     OW22015   0.441   5.735   3.682
 7039SOL    HW122016   0.477   5.654   3.635
 7039SOL    HW222017   0.482   5.817   3.643
 7040SOL     OW22018   4.632   1.952   5.141
 7040SOL    HW122019   4.664   1.994   5.056
 7040SOL    HW222020   4.532   1.955   5.144
 7041SOL     OW22021   0.737   1.875   3.516
 7041SOL    HW122022   0.667   1.897   3.583
 7041SOL    HW222023   0.696   1.867   3.426
 7042SOL     OW22024   4.078   5.654   4.511
 7042SOL    HW122025   4.111   5.568   4.471
 7042SOL    HW222026   4.155   5.717   4.522
 7043SOL     OW22027   2.532   4.537   3.400
 7043SOL    HW122028   2.509   4.622   3.352
 7043SOL    HW222029   2.582   4.559   3.483
 7044SOL     OW22030   4.666   0.425   4.547
 7044SOL    HW122031   4.659   0.326   4.546
 7044SOL    HW222032   4.760   0.452   4.569
 7045SOL     OW22033   5.601   5.659   2.331
 7045SOL    HW122034   5.648   5.572   2.316
 7045SOL    HW222035   5.632   5.699   2.418
 7046SOL     OW22036   2.981   2.137   4.021
 7046SOL    HW122037   2.904   2.200   4.014
 7046SOL    HW222038   3.066   2.186   4.000
 7047SOL     OW22039   6.990   1.062   1.353
 7047SOL    HW122040   6.955   0.991   1.414
 7047SOL    HW222041   6.985   1.030   1.258
 7048SOL     OW22042   5.762   6.530   4.933
 7048SOL    HW122043   5.722   6.569   4.850
 7048SOL    HW222044   5.700   6.545   5.010
 7049SOL     OW22045   3.435   1.044   1.927
 7049SOL    HW122046   3.448   1.043   1.827
 7049SOL    HW222047   3.339   1.026   1.948
 7050SOL     OW22048   4.106   4.386   0.828
 7050SOL    HW122049   4.096   4.458   0.759
 7050SOL    HW222050   4.117   4.427   0.918
 7051SOL     OW22051   6.412   6.405   1.064
 7051SOL    HW122052   6.478   6.447   1.002
 7051SOL    HW222053   6.444   6.314   1.090
 7052SOL     OW22054   6.008   0.329   3.631
 7052SOL    HW122055   6.059   0.244   3.621
 7052SOL    HW222056   5.955   0.347   3.548
 7053SOL     OW22057   2.019   3.774   3.632
 7053SOL    HW122058   2.051   3.865   3.604
 7053SOL    HW222059   2.019   3.768   3.732
 7054SOL     OW22060   0.016   6.947   1.420
 7054SOL    HW122061   6.986   0.010   1.402
 7054SOL    HW222062   6.981   6.885   1.476
 7055SOL     OW22063   2.906   0.301   0.344
 7055SOL    HW122064   2.832   0.349   0.297
 7055SOL    HW222065   2.968   0.261   0.277
 7056SOL     OW22066   6.918   5.706   1.036
 7056SOL    HW122067   6.867   5.772   0.981
 7056SOL    HW222068   6.946   5.749   1.121
 7057SOL     OW22069   3.216   5.987   4.462
 7057SOL    HW122070   3.205   6.058   4.531
 7057SOL    HW222071   3.223   6.029   4.371
 7058SOL     OW22072   5.516   2.050   6.412
 7058SOL    HW122073   5.485   2.117   6.480
 7058SOL    HW222074   5.608   2.074   6.382
 7059SOL     OW22075   1.613   1.391   5.176
 7059SOL    HW122076   1.651   1.302   5.200
 7059SOL    HW222077   1.679   1.463   5.198
 7060SOL     OW22078   3.834   6.198   1.845
 7060SOL    HW122079   3.901   6.161   1.781
 7060SOL    HW222080   3.751   6.224   1.795
 7061SOL     OW22081   0.574   2.426   2.620
 7061SOL    HW122082   0.648   2.489   2.644
 7061SOL    HW222083   0.508   2.422   2.695
 7062SOL     OW22084   4.296   2.196   4.169
 7062SOL    HW122085   4.239   2.192   4.251
 7062SOL    HW222086   4.393   2.192   4.196
 7063SOL     OW22087   0.511   6.516   1.839
 7063SOL    HW122088   0.582   6.580   1.869
 7063SOL    HW222089   0.430   6.567   1.809
 7064SOL     OW22090   4.237   2.126   6.235
 7064SOL    HW122091   4.215   2.037   6.273
 7064SOL    HW222092   4.286   2.180   6.303
 7065SOL     OW22093   3.357   4.674   5.465
 7065SOL    HW122094   3.268   4.629   5.452
 7065SOL    HW222095   3.362   4.712   5.557
 7066SOL     OW22096   4.487   1.266   6.546
 7066SOL    HW122097   4.389   1.250   6.545
 7066SOL    HW222098   4.506   1.362   6.525
 7067SOL     OW22099   1.303   3.521   6.641
 7067SOL    HW122100   1.235   3.464   6.686
 7067SOL    HW222101   1.263   3.561   6.558
 7068SOL     OW22102   5.945   4.137   4.437
 7068SOL    HW122103   5.959   4.229   4.398
 7068SOL    HW222104   5.958   4.141   4.536
 7069SOL     OW22105   5.890   1.699   5.791
 7069SOL    HW122106   5.799   1.741   5.787
 7069SOL    HW222107   5.891   1.628   5.862
 7070SOL     OW22108   0.946   6.841   5.106
 7070SOL    HW122109   0.922   6.924   5.056
 7070SOL    HW222110   0.897   6.763   5.067
 7071SOL     OW22111   4.951   6.210   6.780
 7071SOL    HW122112   4.930   6.188   6.685
 7071SOL    HW222113   4.957   6.309   6.790
 7072SOL     OW22114   1.806   4.693   0.037
 7072SOL    HW122115   1.717   4.648   0.050
 7072SOL    HW222116   1.820   4.712   6.961
 7073SOL     OW22117   3.996   6.996   3.130
 7073SOL    HW122118   3.929   6.976   3.058
 7073SOL    HW222119   3.950   6.995   3.219
 7074SOL     OW22120   0.048   3.436   4.172
 7074SOL    HW122121   0.140   3.420   4.136
 7074SOL    HW222122   7.007   3.458   4.096
 7075SOL     OW22123   2.949   4.831   4.858
 7075SOL    HW122124   2.887   4.909   4.868
 7075SOL    HW222125   2.914   4.755   4.912
 7076SOL     OW22126   6.083   3.385   1.187
 7076SOL    HW122127   6.089   3.370   1.285
 7076SOL    HW222128   6.013   3.325   1.148
 7077SOL     OW22129   2.357   4.828   2.604
 7077SOL    HW122130   2.416   4.788   2.674
 7077SOL    HW222131   2.410   4.891   2.548
 7078SOL     OW22132   5.483   6.487   0.683
 7078SOL    HW122133   5.411   6.556   0.695
 7078SOL    HW222134   5.480   6.422   0.758
 7079SOL     OW22135   0.911   6.520   4.348
 7079SOL    HW122136   0.863   6.435   4.370
 7079SOL    HW222137   0.845   6.588   4.315
 7080SOL     OW22138   3.920   1.905   3.970
 7080SOL    HW122139   3.863   1.965   3.914
 7080SOL    HW222140   4.013   1.904   3.933
 7081SOL     OW22141   1.766   6.222   0.326
 7081SOL    HW122142   1.747   6.221   0.228
 7081SOL    HW222143   1.684   6.249   0.376
 7082SOL     OW22144   6.856   3.826   1.558
 7082SOL    HW122145   6.881   3.780   1.643
 7082SOL    HW222146   6.820   3.759   1.493
 7083SOL     OW22147   6.828   1.899   2.372
 7083SOL    HW122148   6.784   1.910   2.283
 7083SOL    HW222149   6.779   1.954   2.440
 7084SOL     OW22150   0.565   5.982   5.209
 7084SOL    HW122151   0.465   5.977   5.212
 7084SOL    HW222152   0.603   5.908   5.264
 7085SOL     OW22153   6.404   2.162   2.755
 7085SOL    HW122154   6.381   2.200   2.666
 7085SOL    HW222155   6.440   2.070   2.744
 7086SOL     OW22156   5.793   0.117   6.770
 7086SOL    HW122157   5.709   0.075   6.802
 7086SOL    HW222158   5.795   0.214   6.797
 7087SOL     OW22159   5.344   3.565   2.652
 7087SOL    HW122160   5.396   3.484   2.678
 7087SOL    HW222161   5.247   3.542   2.641
 7088SOL     OW22162   5.641   2.358   5.280
 7088SOL    HW122163   5.586   2.306   5.214
 7088SOL    HW222164   5.585   2.380   5.359
 7089SOL     OW22165   2.967   4.772   2.583
 7089SOL    HW122166   3.065   4.782   2.569
 7089SOL    HW222167   2.920   4.772   2.495
 7090SOL     OW22168   2.892   0.966   0.671
 7090SOL    HW122169   2.824   1.027   0.712
 7090SOL    HW222170   2.970   0.957   0.732
 7091SOL     OW22171   1.025   0.935   1.446
 7091SOL    HW122172   0.930   0.903   1.455
 7091SOL    HW222173   1.028   1.010   1.380
 7092SOL     OW22174   4.116   2.760   6.338
 7092SOL    HW122175   4.045   2.699   6.303
 7092SOL    HW222176   4.205   2.715   6.330
 7093SOL     OW22177   3.385   3.556   1.179
 7093SOL    HW122178   3.417   3.582   1.271
 7093SOL    HW222179   3.356   3.461   1.180
 7094SOL     OW22180   1.524   6.583   5.424
 7094SOL    HW122181   1.541   6.543   5.514
 7094SOL    HW222182   1.610   6.594   5.375
 7095SOL     OW22183   3.410   4.788   5.719
 7095SOL    HW122184   3.346   4.744   5.782
 7095SOL    HW222185   3.503   4.759   5.741
 7096SOL     OW22186   6.418   0.957   1.669
 7096SOL    HW122187   6.432   0.862   1.644
 7096SOL    HW222188   6.500   0.993   1.713
 7097SOL     OW22189   4.955   0.685   2.293
 7097SOL    HW122190   4.946   0.670   2.392
 7097SOL    HW222191   4.986   0.778   2.276
 7098SOL     OW22192   1.964   6.629   5.536
 7098SOL    HW122193   2.007   6.719   5.525
 7098SOL    HW222194   1.882   6.638   5.593
 7099SOL     OW22195   3.605   2.110   3.971
 7099SOL    HW122196   3.676   2.109   3.901
 7099SOL    HW222197   3.637   2.063   4.053
 7100SOL     OW22198   0.300   4.290   0.559
 7100SOL    HW122199   0.383   4.244   0.589
 7100SOL    HW222200   0.244   4.315   0.638
 7101SOL     OW22201   2.399   6.478   5.376
 7101SOL    HW122202   2.434   6.487   5.469
 7101SOL    HW222203   2.317   6.421   5.377
 7102SOL     OW22204   5.355   0.586   1.002
 7102SOL    HW122205   5.273   0.569   0.947
 7102SOL    HW222206   5.431   0.532   0.965
 7103SOL     OW22207   5.331   5.334   1.966
 7103SOL    HW122208   5.321   5.237   1.941
 7103SOL    HW222209   5.417   5.346   2.015
 7104SOL     OW22210   5.508   3.327   2.762
 7104SOL    HW122211   5.607   3.332   2.749
 7104SOL    HW222212   5.484   3.371   2.848
 7105SOL     OW22213   3.906   4.064   4.415
 7105SOL    HW122214   3.905   4.152   4.462
 7105SOL    HW222215   3.966   4.001   4.466
 7106SOL     OW22216   3.093   2.651   1.153
 7106SOL    HW122217   3.085   2.552   1.169
 7106SOL    HW222218   3.186   2.680   1.174
 7107SOL     OW22219   3.936   0.372   6.885
 7107SOL    HW122220   3.997   0.311   6.834
 7107SOL    HW222221   3.911   0.451   6.827
 7108SOL     OW22222   2.402   6.348   2.373
 7108SOL    HW122223   2.501   6.332   2.373
 7108SOL    HW222224   2.377   6.405   2.452
 7109SOL     OW22225   1.606   0.457   6.909
 7109SOL    HW122226   1.592   0.367   6.948
 7109SOL    HW222227   1.637   0.448   6.814
 7110SOL     OW22228   3.244   6.563   4.008
 7110SOL    HW122229   3.181   6.621   3.957
 7110SOL    HW222230   3.302   6.512   3.945
 7111SOL     OW22231   1.276   1.487   3.668
 7111SOL    HW122232   1.341   1.467   3.594
 7111SOL    HW222233   1.185   1.457   3.641
 7112SOL     OW22234   2.249   4.267   4.871
 7112SOL    HW122235   2.319   4.334   4.895
 7112SOL    HW222236   2.264   4.183   4.923
 7113SOL     OW22237   2.910   5.477   5.227
 7113SOL    HW122238   2.930   5.488   5.325
 7113SOL    HW222239   2.987   5.433   5.182
 7114SOL     OW22240   4.334   5.209   1.342
 7114SOL    HW122241   4.332   5.179   1.438
 7114SOL    HW222242   4.249   5.257   1.321
 7115SOL     OW22243   5.153   4.593   6.689
 7115SOL    HW122244   5.184   4.501   6.709
 7115SOL    HW222245   5.123   4.599   6.594
 7116SOL     OW22246   5.647   3.968   3.199
 7116SOL    HW122247   5.639   4.019   3.113
 7116SOL    HW222248   5.741   3.973   3.232
 7117SOL     OW22249   6.299   0.326   4.376
 7117SOL    HW122250   6.219   0.329   4.436
 7117SOL    HW222251   6.268   0.324   4.281
 7118SOL     OW22252   3.907   4.561   5.343
 7118SOL    HW122253   3.862   4.483   5.299
 7118SOL    HW222254   4.006   4.549   5.339
 7119SOL     OW22255   4.976   0.933   5.312
 7119SOL    HW122256   4.976   0.899   5.406
 7119SOL    HW222257   4.964   1.033   5.313
 7120SOL     OW22258   5.908   1.354   1.068
 7120SOL    HW122259   6.002   1.345   1.100
 7120SOL    HW222260   5.848   1.298   1.125
 7121SOL     OW22261   0.641   6.328   3.568
 7121SOL    HW122262   0.642   6.369   3.477
 7121SOL    HW222263   0.707   6.376   3.626
 7122SOL     OW22264   2.430   6.860   6.010
 7122SOL    HW122265   2.408   6.919   6.087
 7122SOL    HW222266   2.346   6.836   5.961
 7123SOL     OW22267   6.251   5.030   4.531
 7123SOL    HW122268   6.227   4.963   4.461
 7123SOL    HW222269   6.226   4.995   4.621
 7124SOL     OW22270   1.302   2.037   1.871
 7124SOL    HW122271   1.242   2.117   1.872
 7124SOL    HW222272   1.350   2.033   1.783
 7125SOL     OW22273   1.152   0.603   2.033
 7125SOL    HW122274   1.126   0.545   1.956
 7125SOL    HW222275   1.113   0.694   2.021
 7126SOL     OW22276   4.024   6.236   0.823
 7126SOL    HW122277   4.059   6.143   0.816
 7126SOL    HW222278   4.064   6.293   0.751
 7127SOL     OW22279   3.037   6.066   5.793
 7127SOL    HW122280   3.021   5.968   5.785
 7127SOL    HW222281   3.021   6.110   5.705
 7128SOL     OW22282   4.019   4.213   6.840
 7128SOL    HW122283   4.009   4.113   6.842
 7128SOL    HW222284   3.979   4.249   6.756
 7129SOL     OW22285   0.428   1.275   0.561
 7129SOL    HW122286   0.357   1.230   0.507
 7129SOL    HW222287   0.392   1.295   0.652
 7130SOL     OW22288   3.968   0.297   4.529
 7130SOL    HW122289   4.004   0.389   4.512
 7130SOL    HW222290   3.993   0.238   4.452
 7131SOL     OW22291   3.327   1.012   2.245
 7131SOL    HW122292   3.271   0.989   2.165
 7131SOL    HW222293   3.304   1.104   2.276
 7132SOL     OW22294   4.878   4.062   6.903
 7132SOL    HW122295   4.809   3.992   6.884
 7132SOL    HW222296   4.969   4.023   6.892
 7133SOL     OW22297   3.771   5.254   3.850
 7133SOL    HW122298   3.758   5.338   3.797
 7133SOL    HW222299   3.706   5.252   3.926
 7134SOL     OW22300   5.055   6.233   1.997
 7134SOL    HW122301   5.111   6.266   2.072
 7134SOL    HW222302   4.976   6.294   1.985
 7135SOL     OW22303   1.969   3.153   1.998
 7135SOL    HW122304   2.018   3.076   1.958
 7135SOL    HW222305   1.903   3.189   1.932
 7136SOL     OW22306   2.397   1.731   1.461
 7136SOL    HW122307   2.468   1.790   1.498
 7136SOL    HW222308   2.329   1.712   1.531
 7137SOL     OW22309   2.854   1.404   1.124
 7137SOL    HW122310   2.935   1.433   1.073
 7137SOL    HW222311   2.780   1.469   1.107
 7138SOL     OW22312   2.424   0.974   1.382
 7138SOL    HW122313   2.328   0.979   1.408
 7138SOL    HW222314   2.463   1.066   1.380
 7139SOL     OW22315   5.048   5.714   1.840
 7139SOL    HW122316   5.064   5.813   1.847
 7139SOL    HW222317   4.949   5.697   1.843
 7140SOL     OW22318   6.181   4.260   0.665
 7140SOL    HW122319   6.235   4.343   0.647
 7140SOL    HW222320   6.124   4.274   0.746
 7141SOL     OW22321   4.126   6.317   1.073
 7141SOL    HW122322   4.104   6.282   0.982
 7141SOL    HW222323   4.050   6.298   1.136
 7142SOL     OW22324   3.287   0.466   4.487
 7142SOL    HW122325   3.333   0.497   4.404
 7142SOL    HW222326   3.198   0.428   4.464
 7143SOL     OW22327   2.010   4.172   6.999
 7143SOL    HW122328   1.957   4.157   0.062
 7143SOL    HW222329   2.066   4.254   7.009
 7144SOL     OW22330   7.002   1.203   4.235
 7144SOL    HW122331   0.005   1.110   4.210
 7144SOL    HW222332   6.993   1.259   4.153
 7145SOL     OW22333   4.445   1.695   6.903
 7145SOL    HW122334   4.464   1.599   6.888
 7145SOL    HW222335   4.361   1.705   6.956
 7146SOL     OW22336   2.122   1.440   5.015
 7146SOL    HW122337   2.206   1.461   5.063
 7146SOL    HW222338   2.144   1.397   4.927
 7147SOL     OW22339   5.854   5.240   3.356
 7147SOL    HW122340   5.828   5.300   3.431
 7147SOL    HW222341   5.918   5.288   3.295
 7148SOL     OW22342   6.184   6.437   0.904
 7148SOL    HW122343   6.116   6.364   0.899
 7148SOL    HW222344   6.270   6.401   0.940
 7149SOL     OW22345   6.888   4.854   3.138
 7149SOL    HW122346   6.809   4.873   3.196
 7149SOL    HW222347   6.929   4.940   3.109
 7150SOL     OW22348   4.430   3.378   0.003
 7150SOL    HW122349   4.500   3.349   6.959
 7150SOL    HW222350   4.448   3.337   0.092
 7151SOL     OW22351   3.404   6.844   0.918
 7151SOL    HW122352   3.335   6.811   0.854
 7151SOL    HW222353   3.358   6.883   0.998
 7152SOL     OW22354   6.673   0.921   6.615
 7152SOL    HW122355   6.641   0.875   6.698
 7152SOL    HW222356   6.773   0.925   6.615
 7153SOL     OW22357   4.139   5.278   1.558
 7153SOL    HW122358   4.154   5.186   1.521
 7153SOL    HW222359   4.072   5.274   1.631
 7154SOL     OW22360   3.991   1.072   2.684
 7154SOL    HW122361   3.966   1.118   2.598
 7154SOL    HW222362   3.991   1.139   2.758
 7155SOL     OW22363   3.257   2.249   1.443
 7155SOL    HW122364   3.167   2.248   1.487
 7155SOL    HW222365   3.296   2.157   1.445
 7156SOL     OW22366   5.327   3.501   2.090
 7156SOL    HW122367   5.334   3.447   2.007
 7156SOL    HW222368   5.283   3.447   2.162
 7157SOL     OW22369   5.893   4.268   0.483
 7157SOL    HW122370   5.826   4.301   0.549
 7157SOL    HW222371   5.979   4.246   0.530
 7158SOL     OW22372   6.178   0.324   4.129
 7158SOL    HW122373   6.275   0.322   4.105
 7158SOL    HW222374   6.149   0.419   4.144
 7159SOL     OW22375   0.108   4.879   4.352
 7159SOL    HW122376   0.042   4.952   4.371
 7159SOL    HW222377   0.194   4.897   4.399
 7160SOL     OW22378   5.777   6.818   2.982
 7160SOL    HW122379   5.846   6.817   3.055
 7160SOL    HW222380   5.782   6.732   2.931
 7161SOL     OW22381   3.276   3.755   3.376
 7161SOL    HW122382   3.226   3.700   3.309
 7161SOL    HW222383   3.374   3.740   3.365
 7162SOL     OW22384   6.721   4.694   1.108
 7162SOL    HW122385   6.649   4.691   1.177
 7162SOL    HW222386   6.799   4.746   1.142
 7163SOL     OW22387   1.080   1.299   2.609
 7163SOL    HW122388   1.086   1.200   2.596
 7163SOL    HW222389   1.080   1.344   2.520
 7164SOL     OW22390   1.805   0.852   6.068
 7164SOL    HW122391   1.760   0.782   6.013
 7164SOL    HW222392   1.890   0.881   6.024
 7165SOL     OW22393   5.298   7.005   0.628
 7165SOL    HW122394   5.262   6.994   0.536
 7165SOL    HW222395   5.305   6.915   0.672
 7166SOL     OW22396   5.226   0.659   5.693
 7166SOL    HW122397   5.166   0.584   5.722
 7166SOL    HW222398   5.203   0.742   5.745
 7167SOL     OW22399   5.878   2.310   6.070
 7167SOL    HW122400   5.934   2.382   6.030
 7167SOL    HW222401   5.918   2.221   6.047
 7168SOL     OW22402   3.078   0.564   2.966
 7168SOL    HW122403   3.149   0.617   2.919
 7168SOL    HW222404   3.022   0.517   2.898
 7169SOL     OW22405   1.604   3.702   5.402
 7169SOL    HW122406   1.648   3.636   5.341
 7169SOL    HW222407   1.535   3.753   5.351
 7170SOL     OW22408   4.383   0.446   2.079
 7170SOL    HW122409   4.450   0.467   2.151
 7170SOL    HW222410   4.334   0.362   2.103
 7171SOL     OW22411   5.931   4.969   0.909
 7171SOL    HW122412   6.004   5.036   0.897
 7171SOL    HW222413   5.966   4.892   0.964
 7172SOL     OW22414   1.749   1.538   4.905
 7172SOL    HW122415   1.791   1.507   4.990
 7172SOL    HW222416   1.685   1.612   4.924
 7173SOL     OW22417   5.962   5.846   6.339
 7173SOL    HW122418   5.961   5.820   6.242
 7173SOL    HW222419   5.946   5.944   6.347
 7174SOL     OW22420   6.300   4.726   1.333
 7174SOL    HW122421   6.293   4.629   1.356
 7174SOL    HW222422   6.396   4.752   1.325
 7175SOL     OW22423   6.305   3.756   5.155
 7175SOL    HW122424   6.241   3.679   5.162
 7175SOL    HW222425   6.347   3.756   5.064
 7176SOL     OW22426   0.755   1.468   3.680
 7176SOL    HW122427   0.676   1.512   3.637
 7176SOL    HW222428   0.822   1.537   3.706
 7177SOL     OW22429   1.719   5.710   5.746
 7177SOL    HW122430   1.660   5.768   5.802
 7177SOL    HW222431   1.714   5.616   5.778
 7178SOL     OW22432   0.418   0.825   5.366
 7178SOL    HW122433   0.420   0.725   5.368
 7178SOL    HW222434   0.470   0.861   5.444
 7179SOL     OW22435   2.036   4.613   5.822
 7179SOL    HW122436   1.951   4.560   5.820
 7179SOL    HW222437   2.021   4.702   5.779
 7180SOL     OW22438   2.072   4.572   0.788
 7180SOL    HW122439   2.113   4.482   0.772
 7180SOL    HW222440   2.065   4.588   0.887
 7181SOL     OW22441   2.099   0.802   6.439
 7181SOL    HW122442   2.146   0.719   6.410
 7181SOL    HW222443   2.090   0.802   6.539
 7182SOL     OW22444   0.586   3.429   4.178
 7182SOL    HW122445   0.684   3.429   4.159
 7182SOL    HW222446   0.572   3.438   4.277
 7183SOL     OW22447   1.766   6.419   1.455
 7183SOL    HW122448   1.719   6.493   1.504
 7183SOL    HW222449   1.834   6.377   1.515
 7184SOL     OW22450   5.744   1.409   3.204
 7184SOL    HW122451   5.750   1.509   3.195
 7184SOL    HW222452   5.650   1.383   3.225
 7185SOL     OW22453   4.980   1.214   5.598
 7185SOL    HW122454   5.066   1.235   5.645
 7185SOL    HW222455   4.943   1.128   5.634
 7186SOL     OW22456   0.122   6.935   0.416
 7186SOL    HW122457   0.025   6.951   0.430
 7186SOL    HW222458   0.135   6.856   0.356
 7187SOL     OW22459   2.991   3.479   4.624
 7187SOL    HW122460   2.962   3.566   4.584
 7187SOL    HW222461   3.023   3.494   4.718
 7188SOL     OW22462   4.659   3.905   6.810
 7188SOL    HW122463   4.592   3.962   6.763
 7188SOL    HW222464   4.675   3.821   6.757
 7189SOL     OW22465   6.353   3.087   5.225
 7189SOL    HW122466   6.291   3.041   5.288
 7189SOL    HW222467   6.301   3.145   5.162
 7190SOL     OW22468   5.962   5.503   0.829
 7190SOL    HW122469   6.049   5.552   0.838
 7190SOL    HW222470   5.905   5.548   0.760
 7191SOL     OW22471   0.945   4.128   3.407
 7191SOL    HW122472   0.888   4.149   3.487
 7191SOL    HW222473   0.975   4.214   3.365
 7192SOL     OW22474   2.033   3.758   6.464
 7192SOL    HW122475   2.062   3.687   6.400
 7192SOL    HW222476   1.957   3.810   6.425
 7193SOL     OW22477   2.682   1.876   2.768
 7193SOL    HW122478   2.752   1.916   2.828
 7193SOL    HW222479   2.659   1.941   2.697
 7194SOL     OW22480   2.250   2.271   0.322
 7194SOL    HW122481   2.230   2.291   0.226
 7194SOL    HW222482   2.174   2.220   0.361
 7195SOL     OW22483   6.713   3.919   6.948
 7195SOL    HW122484   6.672   3.905   6.858
 7195SOL    HW222485   6.761   4.007   6.950
 7196SOL     OW22486   3.266   3.802   2.644
 7196SOL    HW122487   3.253   3.817   2.546
 7196SOL    HW222488   3.191   3.844   2.695
 7197SOL     OW22489   1.084   3.599   5.531
 7197SOL    HW122490   1.033   3.524   5.572
 7197SOL    HW222491   1.159   3.562   5.475
 7198SOL     OW22492   0.593   0.621   0.597
 7198SOL    HW122493   0.521   0.640   0.664
 7198SOL    HW222494   0.553   0.618   0.505
 7199SOL     OW22495   0.585   0.337   2.140
 7199SOL    HW122496   0.602   0.411   2.205
 7199SOL    HW222497   0.654   0.338   2.069
 7200SOL     OW22498   1.990   2.599   1.036
 7200SOL    HW122499   1.904   2.630   1.077
 7200SOL    HW222500   2.043   2.548   1.104
 7201SOL     OW22501   0.221   5.237   4.078
 7201SOL    HW122502   0.167   5.305   4.028
 7201SOL    HW222503   0.199   5.145   4.044
 7202SOL     OW22504   5.133   6.850   5.930
 7202SOL    HW122505   5.105   6.860   6.025
 7202SOL    HW222506   5.074   6.906   5.871
 7203SOL     OW22507   0.305   0.927   1.710
 7203SOL    HW122508   0.285   0.829   1.707
 7203SOL    HW222509   0.276   0.969   1.625
 7204SOL     OW22510   6.399   1.850   0.546
 7204SOL    HW122511   6.389   1.861   0.645
 7204SOL    HW222512   6.445   1.763   0.527
 7205SOL     OW22513   1.289   2.730   4.734
 7205SOL    HW122514   1.362   2.757   4.797
 7205SOL    HW222515   1.294   2.788   4.652
 7206SOL     OW22516   1.654   1.537   1.304
 7206SOL    HW122517   1.593   1.567   1.231
 7206SOL    HW222518   1.711   1.462   1.271
 7207SOL     OW22519   2.279   1.972   4.106
 7207SOL    HW122520   2.268   1.875   4.124
 7207SOL    HW222521   2.230   1.996   4.022
 7208SOL     OW22522   4.076   0.603   3.841
 7208SOL    HW122523   4.018   0.523   3.854
 7208SOL    HW222524   4.022   0.686   3.856
 7209SOL     OW22525   2.268   2.574   2.379
 7209SOL    HW122526   2.283   2.483   2.417
 7209SOL    HW222527   2.241   2.566   2.283
 7210SOL     OW22528   3.662   1.663   3.030
 7210SOL    HW122529   3.710   1.739   2.985
 7210SOL    HW222530   3.720   1.582   3.030
 7211SOL     OW22531   3.026   6.223   5.548
 7211SOL    HW122532   2.954   6.214   5.479
 7211SOL    HW222533   3.083   6.302   5.525
 7212SOL     OW22534   5.876   6.113   6.389
 7212SOL    HW122535   5.855   6.203   6.350
 7212SOL    HW222536   5.926   6.125   6.474
 7213SOL     OW22537   3.717   6.626   7.003
 7213SOL    HW122538   3.768   6.662   6.925
 7213SOL    HW222539   3.745   6.531   7.020
 7214SOL     OW22540   0.174   0.752   5.909
 7214SOL    HW122541   0.205   0.657   5.916
 7214SOL    HW222542   0.131   0.779   5.995
 7215SOL     OW22543   6.442   2.671   4.059
 7215SOL    HW122544   6.419   2.731   4.136
 7215SOL    HW222545   6.530   2.698   4.021
 7216SOL     OW22546   2.908   6.273   2.226
 7216SOL    HW122547   2.979   6.338   2.200
 7216SOL    HW222548   2.909   6.195   2.163
 7217SOL     OW22549   1.725   4.332   3.844
 7217SOL    HW122550   1.797   4.391   3.808
 7217SOL    HW222551   1.738   4.320   3.943
 7218SOL     OW22552   0.079   3.335   3.586
 7218SOL    HW122553   0.107   3.261   3.647
 7218SOL    HW222554   0.142   3.340   3.509
 7219SOL     OW22555   3.200   6.423   1.464
 7219SOL    HW122556   3.221   6.508   1.512
 7219SOL    HW222557   3.235   6.428   1.371
 7220SOL     OW22558   6.586   4.498   4.607
 7220SOL    HW122559   6.664   4.502   4.545
 7220SOL    HW222560   6.609   4.442   4.687
 7221SOL     OW22561   3.169   6.073   4.911
 7221SOL    HW122562   3.221   6.134   4.851
 7221SOL    HW222563   3.182   6.101   5.006
 7222SOL     OW22564   5.617   6.962   2.796
 7222SOL    HW122565   5.673   6.907   2.858
 7222SOL    HW222566   5.524   6.926   2.794
 7223SOL     OW22567   2.671   1.558   0.773
 7223SOL    HW122568   2.693   1.627   0.841
 7223SOL    HW222569   2.705   1.587   0.683
 7224SOL     OW22570   4.754   2.787   4.255
 7224SOL    HW122571   4.749   2.713   4.187
 7224SOL    HW222572   4.733   2.751   4.345
 7225SOL     OW22573   2.140   6.460   0.746
 7225SOL    HW122574   2.113   6.476   0.651
 7225SOL    HW222575   2.185   6.542   0.782
 7226SOL     OW22576   6.079   0.607   0.917
 7226SOL    HW122577   6.108   0.555   0.836
 7226SOL    HW222578   6.017   0.551   0.972
 7227SOL     OW22579   2.844   1.187   2.015
 7227SOL    HW122580   2.769   1.205   1.951
 7227SOL    HW222581   2.878   1.274   2.051
 7228SOL     OW22582   0.582   1.722   2.718
 7228SOL    HW122583   0.609   1.637   2.764
 7228SOL    HW222584   0.659   1.786   2.718
 7229SOL     OW22585   0.069   6.855   4.706
 7229SOL    HW122586   0.137   6.895   4.645
 7229SOL    HW222587   0.080   6.755   4.707
 7230SOL     OW22588   2.701   5.246   3.620
 7230SOL    HW122589   2.609   5.207   3.631
 7230SOL    HW222590   2.724   5.300   3.701
 7231SOL     OW22591   3.877   6.888   1.013
 7231SOL    HW122592   3.855   6.947   0.936
 7231SOL    HW222593   3.925   6.942   1.083
 7232SOL     OW22594   5.005   6.670   2.690
 7232SOL    HW122595   5.090   6.666   2.743
 7232SOL    HW222596   4.939   6.729   2.738
 7233SOL     OW22597   0.097   1.655   5.551
 7233SOL    HW122598   0.165   1.663   5.478
 7233SOL    HW222599   0.072   1.746   5.585
 7234SOL     OW22600   5.112   4.087   2.804
 7234SOL    HW122601   5.108   3.988   2.820
 7234SOL    HW222602   5.172   4.105   2.726
 7235SOL     OW22603   6.292   5.346   1.675
 7235SOL    HW122604   6.351   5.357   1.595
 7235SOL    HW222605   6.333   5.392   1.754
 7236SOL     OW22606   1.743   2.542   2.561
 7236SOL    HW122607   1.835   2.581   2.568
 7236SOL    HW222608   1.688   2.575   2.638
 7237SOL     OW22609   4.455   6.985   6.810
 7237SOL    HW122610   4.529   7.015   6.869
 7237SOL    HW222611   4.446   0.027   6.733
 7238SOL     OW22612   4.864   2.781   6.849
 7238SOL    HW122613   4.786   2.810   6.905
 7238SOL    HW222614   4.871   2.840   6.769
 7239SOL     OW22615   0.194   2.963   2.571
 7239SOL    HW122616   0.236   2.916   2.649
 7239SOL    HW222617   0.263   2.980   2.501
 7240SOL     OW22618   6.800   1.529   0.231
 7240SOL    HW122619   6.899   1.517   0.239
 7240SOL    HW222620   6.776   1.548   0.136
 7241SOL     OW22621   2.196   6.956   0.289
 7241SOL    HW122622   2.151   6.869   0.272
 7241SOL    HW222623   2.281   6.941   0.340
 7242SOL     OW22624   0.117   5.805   5.270
 7242SOL    HW122625   0.020   5.821   5.288
 7242SOL    HW222626   0.145   5.859   5.191
 7243SOL     OW22627   6.746   4.126   6.492
 7243SOL    HW122628   6.827   4.184   6.499
 7243SOL    HW222629   6.770   4.040   6.447
 7244SOL     OW22630   6.924   6.834   0.693
 7244SOL    HW122631   7.007   6.843   0.747
 7244SOL    HW222632   6.844   6.831   0.753
 7245SOL     OW22633   1.697   2.180   5.565
 7245SOL    HW122634   1.730   2.248   5.631
 7245SOL    HW222635   1.740   2.092   5.584
 7246SOL     OW22636   2.088   0.451   4.351
 7246SOL    HW122637   2.025   0.488   4.419
 7246SOL    HW222638   2.181   0.448   4.389
 7247SOL     OW22639   3.139   2.133   5.489
 7247SOL    HW122640   3.054   2.154   5.442
 7247SOL    HW222641   3.208   2.203   5.469
 7248SOL     OW22642   3.324   0.442   3.745
 7248SOL    HW122643   3.258   0.515   3.728
 7248SOL    HW222644   3.279   0.353   3.737
 7249SOL     OW22645   4.592   4.864   1.793
 7249SOL    HW122646   4.686   4.874   1.825
 7249SOL    HW222647   4.583   4.778   1.743
 7250SOL     OW22648   5.310   4.956   5.702
 7250SOL    HW122649   5.214   4.970   5.678
 7250SOL    HW222650   5.360   5.043   5.692
 7251SOL     OW22651   0.788   0.321   5.562
 7251SOL    HW122652   0.770   0.223   5.572
 7251SOL    HW222653   0.854   0.335   5.488
 7252SOL     OW22654   2.964   3.847   1.871
 7252SOL    HW122655   2.960   3.908   1.791
 7252SOL    HW222656   2.965   3.752   1.840
 7253SOL     OW22657   1.680   6.176   6.514
 7253SOL    HW122658   1.697   6.118   6.434
 7253SOL    HW222659   1.625   6.254   6.486
 7254SOL     OW22660   5.938   5.321   4.289
 7254SOL    HW122661   5.865   5.364   4.342
 7254SOL    HW222662   6.024   5.368   4.304
 7255SOL     OW22663   4.868   3.597   6.768
 7255SOL    HW122664   4.770   3.607   6.748
 7255SOL    HW222665   4.905   3.684   6.798
 7256SOL     OW22666   3.872   6.335   5.634
 7256SOL    HW122667   3.903   6.313   5.727
 7256SOL    HW222668   3.926   6.283   5.568
 7257SOL     OW22669   0.558   1.962   4.544
 7257SOL    HW122670   0.509   1.894   4.490
 7257SOL    HW222671   0.599   1.918   4.625
 7258SOL     OW22672   5.683   1.772   2.663
 7258SOL    HW122673   5.635   1.684   2.657
 7258SOL    HW222674   5.749   1.780   2.589
 7259SOL     OW22675   1.068   3.038   2.387
 7259SOL    HW122676   1.017   2.970   2.335
 7259SOL    HW222677   1.094   3.114   2.327
 7260SOL     OW22678   5.502   2.322   1.195
 7260SOL    HW122679   5.507   2.392   1.123
 7260SOL    HW222680   5.424   2.262   1.177
 7261SOL     OW22681   0.393   4.856   1.210
 7261SOL    HW122682   0.381   4.955   1.214
 7261SOL    HW222683   0.405   4.819   1.302
 7262SOL     OW22684   5.587   1.361   6.748
 7262SOL    HW122685   5.500   1.329   6.710
 7262SOL    HW222686   5.602   1.457   6.724
 7263SOL     OW22687   0.182   6.303   6.804
 7263SOL    HW122688   0.182   6.206   6.780
 7263SOL    HW222689   0.137   6.316   6.892
 7264SOL     OW22690   5.452   0.926   0.844
 7264SOL    HW122691   5.541   0.911   0.800
 7264SOL    HW222692   5.460   0.999   0.912
 7265SOL     OW22693   5.743   5.033   5.057
 7265SOL    HW122694   5.715   5.123   5.091
 7265SOL    HW222695   5.738   4.967   5.131
 7266SOL     OW22696   6.658   1.323   3.547
 7266SOL    HW122697   6.695   1.367   3.466
 7266SOL    HW222698   6.615   1.236   3.522
 7267SOL     OW22699   6.633   6.730   4.675
 7267SOL    HW122700   6.557   6.785   4.711
 7267SOL    HW222701   6.707   6.728   4.743
 7268SOL     OW22702   0.055   6.004   4.336
 7268SOL    HW122703   0.081   6.052   4.252
 7268SOL    HW222704   0.015   6.070   4.401
 7269SOL     OW22705   1.771   6.149   5.808
 7269SOL    HW122706   1.861   6.109   5.825
 7269SOL    HW222707   1.700   6.081   5.827
 7270SOL     OW22708   0.444   2.582   4.832
 7270SOL    HW122709   0.511   2.508   4.831
 7270SOL    HW222710   0.489   2.668   4.857
 7271SOL     OW22711   1.380   4.683   4.422
 7271SOL    HW122712   1.435   4.684   4.338
 7271SOL    HW222713   1.373   4.776   4.458
 7272SOL     OW22714   6.047   5.742   1.916
 7272SOL    HW122715   5.998   5.829   1.902
 7272SOL    HW222716   6.136   5.746   1.870
 7273SOL     OW22717   5.416   3.818   0.285
 7273SOL    HW122718   5.405   3.745   0.218
 7273SOL    HW222719   5.473   3.786   0.361
 7274SOL     OW22720   0.478   4.781   6.851
 7274SOL    HW122721   0.554   4.751   6.793
 7274SOL    HW222722   0.393   4.779   6.799
 7275SOL     OW22723   0.134   5.880   2.334
 7275SOL    HW122724   0.195   5.922   2.267
 7275SOL    HW222725   0.074   5.949   2.374
 7276SOL     OW22726   5.392   0.562   3.249
 7276SOL    HW122727   5.486   0.552   3.285
 7276SOL    HW222728   5.327   0.546   3.323
 7277SOL     OW22729   4.919   0.527   4.582
 7277SOL    HW122730   4.976   0.538   4.664
 7277SOL    HW222731   4.911   0.615   4.535
 7278SOL     OW22732   3.747   3.695   1.311
 7278SOL    HW122733   3.773   3.616   1.366
 7278SOL    HW222734   3.700   3.664   1.229
 7279SOL     OW22735   4.362   5.630   6.838
 7279SOL    HW122736   4.308   5.673   6.909
 7279SOL    HW222737   4.451   5.676   6.830
 7280SOL     OW22738   0.463   0.762   3.737
 7280SOL    HW122739   0.414   0.713   3.809
 7280SOL    HW222740   0.520   0.697   3.686
 7281SOL     OW22741   3.021   1.877   0.056
 7281SOL    HW122742   2.991   1.956   0.003
 7281SOL    HW222743   2.947   1.810   0.062
 7282SOL     OW22744   5.575   5.078   2.457
 7282SOL    HW122745   5.540   5.051   2.547
 7282SOL    HW222746   5.498   5.106   2.399
 7283SOL     OW22747   3.545   1.171   3.144
 7283SOL    HW122748   3.571   1.076   3.127
 7283SOL    HW222749   3.479   1.201   3.075
 7284SOL     OW22750   0.648   3.464   6.161
 7284SOL    HW122751   0.679   3.467   6.066
 7284SOL    HW222752   0.726   3.477   6.222
 7285SOL     OW22753   5.019   3.831   2.132
 7285SOL    HW122754   4.991   3.912   2.080
 7285SOL    HW222755   4.992   3.749   2.083
 7286SOL     OW22756   2.616   1.324   0.500
 7286SOL    HW122757   2.578   1.234   0.524
 7286SOL    HW222758   2.553   1.395   0.531
 7287SOL     OW22759   6.597   2.356   6.712
 7287SOL    HW122760   6.553   2.412   6.642
 7287SOL    HW222761   6.679   2.402   6.746
 7288SOL     OW22762   2.682   0.866   0.120
 7288SOL    HW122763   2.586   0.841   0.113
 7288SOL    HW222764   2.691   0.955   0.163
 7289SOL     OW22765   5.645   1.603   3.777
 7289SOL    HW122766   5.577   1.578   3.708
 7289SOL    HW222767   5.602   1.609   3.867
 7290SOL     OW22768   3.382   0.006   5.670
 7290SOL    HW122769   3.383   0.086   5.610
 7290SOL    HW222770   3.289   6.989   5.674
 7291SOL     OW22771   1.121   6.587   0.851
 7291SOL    HW122772   1.127   6.685   0.832
 7291SOL    HW222773   1.151   6.569   0.945
 7292SOL     OW22774   2.516   1.199   3.899
 7292SOL    HW122775   2.588   1.219   3.833
 7292SOL    HW222776   2.552   1.142   3.972
 7293SOL     OW22777   1.785   1.711   5.455
 7293SOL    HW122778   1.837   1.692   5.538
 7293SOL    HW222779   1.803   1.805   5.425
 7294SOL     OW22780   1.958   5.312   6.908
 7294SOL    HW122781   2.052   5.299   6.876
 7294SOL    HW222782   1.915   5.386   6.855
 7295SOL     OW22783   0.776   2.193   0.911
 7295SOL    HW122784   0.694   2.209   0.966
 7295SOL    HW222785   0.758   2.123   0.842
 7296SOL     OW22786   2.297   4.880   1.166
 7296SOL    HW122787   2.212   4.917   1.203
 7296SOL    HW222788   2.346   4.832   1.238
 7297SOL     OW22789   3.810   5.858   1.030
 7297SOL    HW122790   3.837   5.931   0.967
 7297SOL    HW222791   3.719   5.826   1.005
 7298SOL     OW22792   4.752   4.098   5.557
 7298SOL    HW122793   4.807   4.072   5.636
 7298SOL    HW222794   4.809   4.100   5.475
 7299SOL     OW22795   0.902   1.585   0.563
 7299SOL    HW122796   0.920   1.534   0.647
 7299SOL    HW222797   0.833   1.655   0.579
 7300SOL     OW22798   5.938   6.197   2.422
 7300SOL    HW122799   5.855   6.252   2.414
 7300SOL    HW222800   5.931   6.138   2.503
 7301SOL     OW22801   6.386   1.194   4.847
 7301SOL    HW122802   6.308   1.131   4.841
 7301SOL    HW222803   6.407   1.228   4.756
 7302SOL     OW22804   0.924   2.128   5.933
 7302SOL    HW122805   0.911   2.079   6.020
 7302SOL    HW222806   0.987   2.076   5.875
 7303SOL     OW22807   4.828   0.197   6.426
 7303SOL    HW122808   4.787   0.110   6.449
 7303SOL    HW222809   4.914   0.182   6.377
 7304SOL     OW22810   4.157   4.850   6.711
 7304SOL    HW122811   4.174   4.855   6.810
 7304SOL    HW222812   4.063   4.876   6.692
 7305SOL     OW22813   4.524   1.103   0.504
 7305SOL    HW122814   4.544   1.191   0.461
 7305SOL    HW222815   4.607   1.066   0.545
 7306SOL     OW22816   5.249   2.504   1.690
 7306SOL    HW122817   5.311   2.465   1.759
 7306SOL    HW222818   5.160   2.520   1.733
 7307SOL     OW22819   2.274   0.100   2.709
 7307SOL    HW122820   2.365   0.063   2.725
 7307SOL    HW222821   2.223   0.040   2.648
 7308SOL     OW22822   6.895   4.086   5.717
 7308SOL    HW122823   6.820   4.075   5.781
 7308SOL    HW222824   6.887   4.018   5.644
 7309SOL     OW22825   4.749   5.595   0.710
 7309SOL    HW122826   4.737   5.662   0.638
 7309SOL    HW222827   4.717   5.633   0.797
 7310SOL     OW22828   2.601   3.441   1.388
 7310SOL    HW122829   2.573   3.512   1.323
 7310SOL    HW222830   2.538   3.440   1.466
 7311SOL     OW22831   3.492   2.001   1.975
 7311SOL    HW122832   3.546   2.084   1.988
 7311SOL    HW222833   3.553   1.924   1.962
 7312SOL     OW22834   6.998   3.473   6.007
 7312SOL    HW122835   0.040   3.511   6.075
 7312SOL    HW222836   6.924   3.423   6.053
 7313SOL     OW22837   3.139   2.309   6.368
 7313SOL    HW122838   3.172   2.317   6.462
 7313SOL    HW222839   3.118   2.214   6.347
 7314SOL     OW22840   6.799   4.214   4.999
 7314SOL    HW122841   6.823   4.116   5.001
 7314SOL    HW222842   6.878   4.267   4.972
 7315SOL     OW22843   6.771   0.452   2.874
 7315SOL    HW122844   6.678   0.448   2.838
 7315SOL    HW222845   6.768   0.441   2.974
 7316SOL     OW22846   2.983   4.189   5.884
 7316SOL    HW122847   3.010   4.285   5.875
 7316SOL    HW222848   2.888   4.183   5.912
 7317SOL     OW22849   4.291   1.033   2.706
 7317SOL    HW122850   4.196   1.053   2.731
 7317SOL    HW222851   4.352   1.097   2.753
 7318SOL     OW22852   1.160   0.555   1.020
 7318SOL    HW122853   1.122   0.470   0.982
 7318SOL    HW222854   1.102   0.632   0.994
 7319SOL     OW22855   6.158   3.779   6.009
 7319SOL    HW122856   6.067   3.810   5.981
 7319SOL    HW222857   6.222   3.790   5.933
 7320SOL     OW22858   6.315   3.819   1.720
 7320SOL    HW122859   6.243   3.849   1.783
 7320SOL    HW222860   6.345   3.897   1.665
 7321SOL     OW22861   2.718   6.565   5.358
 7321SOL    HW122862   2.786   6.529   5.293
 7321SOL    HW222863   2.644   6.498   5.369
 7322SOL     OW22864   6.255   2.318   3.655
 7322SOL    HW122865   6.321   2.342   3.584
 7322SOL    HW222866   6.302   2.308   3.742
 7323SOL     OW22867   2.328   2.100   1.938
 7323SOL    HW122868   2.266   2.177   1.954
 7323SOL    HW222869   2.285   2.036   1.874
 7324SOL     OW22870   4.773   5.769   2.299
 7324SOL    HW122871   4.751   5.860   2.335
 7324SOL    HW222872   4.872   5.754   2.305
 7325SOL     OW22873   3.635   6.329   0.321
 7325SOL    HW122874   3.725   6.298   0.352
 7325SOL    HW222875   3.628   6.319   0.222
 7326SOL     OW22876   3.241   6.421   5.588
 7326SOL    HW122877   3.225   6.380   5.677
 7326SOL    HW222878   3.339   6.434   5.573
 7327SOL     OW22879   6.591   2.461   5.532
 7327SOL    HW122880   6.593   2.549   5.580
 7327SOL    HW222881   6.529   2.467   5.455
 7328SOL     OW22882   3.563   0.783   6.264
 7328SOL    HW122883   3.558   0.707   6.199
 7328SOL    HW222884   3.594   0.749   6.353
 7329SOL     OW22885   5.577   4.584   1.407
 7329SOL    HW122886   5.637   4.568   1.328
 7329SOL    HW222887   5.509   4.510   1.413
 7330SOL     OW22888   2.471   2.381   0.419
 7330SOL    HW122889   2.384   2.359   0.375
 7330SOL    HW222890   2.507   2.300   0.465
 7331SOL     OW22891   5.984   0.263   2.196
 7331SOL    HW122892   6.030   0.202   2.260
 7331SOL    HW222893   5.945   0.210   2.120
 7332SOL     OW22894   1.772   5.725   0.486
 7332SOL    HW122895   1.841   5.785   0.527
 7332SOL    HW222896   1.681   5.752   0.518
 7333SOL     OW22897   0.215   3.315   2.906
 7333SOL    HW122898   0.222   3.415   2.899
 7333SOL    HW222899   0.298   3.278   2.947
 7334SOL     OW22900   3.465   6.134   6.971
 7334SOL    HW122901   3.451   6.120   6.873
 7334SOL    HW222902   3.399   6.080   0.002
 7335SOL     OW22903   1.558   2.581   2.777
 7335SOL    HW122904   1.481   2.586   2.713
 7335SOL    HW222905   1.584   2.673   2.805
 7336SOL     OW22906   1.537   6.644   3.705
 7336SOL    HW122907   1.607   6.612   3.641
 7336SOL    HW222908   1.577   6.712   3.766
 7337SOL     OW22909   0.295   3.377   1.814
 7337SOL    HW122910   0.234   3.344   1.742
 7337SOL    HW222911   0.326   3.469   1.791
 7338SOL     OW22912   6.525   2.756   1.429
 7338SOL    HW122913   6.498   2.696   1.353
 7338SOL    HW222914   6.561   2.701   1.504
 7339SOL     OW22915   5.495   6.178   3.590
 7339SOL    HW122916   5.481   6.233   3.508
 7339SOL    HW222917   5.535   6.090   3.565
 7340SOL     OW22918   2.240   0.748   1.146
 7340SOL    HW122919   2.295   0.667   1.167
 7340SOL    HW222920   2.269   0.824   1.203
 7341SOL     OW22921   6.520   3.128   6.988
 7341SOL    HW122922   6.438   3.076   7.013
 7341SOL    HW222923   6.513   3.156   6.892
 7342SOL     OW22924   6.962   1.537   1.911
 7342SOL    HW122925   6.969   1.633   1.885
 7342SOL    HW222926   0.029   1.492   1.897
 7343SOL     OW22927   5.082   3.186   6.676
 7343SOL    HW122928   5.103   3.089   6.661
 7343SOL    HW222929   5.155   3.228   6.730
 7344SOL     OW22930   0.634   0.561   6.590
 7344SOL    HW122931   0.664   0.499   6.518
 7344SOL    HW222932   0.627   0.654   6.554
 7345SOL     OW22933   4.566   3.264   5.513
 7345SOL    HW122934   4.578   3.324   5.434
 7345SOL    HW222935   4.636   3.194   5.513
 7346SOL     OW22936   3.999   5.943   2.571
 7346SOL    HW122937   4.090   5.958   2.610
 7346SOL    HW222938   4.007   5.889   2.487
 7347SOL     OW22939   0.795   1.949   1.053
 7347SOL    HW122940   0.794   1.922   1.149
 7347SOL    HW222941   0.834   2.040   1.045
 7348SOL     OW22942   1.372   4.024   3.751
 7348SOL    HW122943   1.302   3.963   3.712
 7348SOL    HW222944   1.417   4.074   3.677
 7349SOL     OW22945   4.249   0.218   2.159
 7349SOL    HW122946   4.182   0.191   2.090
 7349SOL    HW222947   4.338   0.177   2.137
 7350SOL     OW22948   2.645   1.772   5.555
 7350SOL    HW122949   2.645   1.859   5.604
 7350SOL    HW222950   2.585   1.707   5.602
 7351SOL     OW22951   5.705   5.630   3.602
 7351SOL    HW122952   5.638   5.687   3.650
 7351SOL    HW222953   5.687   5.633   3.503
 7352SOL     OW22954   0.467   1.762   2.197
 7352SOL    HW122955   0.494   1.731   2.289
 7352SOL    HW222956   0.408   1.693   2.155
 7353SOL     OW22957   0.252   0.462   6.423
 7353SOL    HW122958   0.275   0.523   6.347
 7353SOL    HW222959   0.195   0.387   6.389
 7354SOL     OW22960   1.434   1.451   5.561
 7354SOL    HW122961   1.360   1.518   5.566
 7354SOL    HW222962   1.425   1.398   5.477
 7355SOL     OW22963   1.124   1.289   0.356
 7355SOL    HW122964   1.158   1.355   0.423
 7355SOL    HW222965   1.048   1.238   0.395
 7356SOL     OW22966   3.634   3.510   6.185
 7356SOL    HW122967   3.702   3.455   6.234
 7356SOL    HW222968   3.543   3.493   6.222
 7357SOL     OW22969   2.906   5.465   2.137
 7357SOL    HW122970   2.819   5.508   2.165
 7357SOL    HW222971   2.906   5.451   2.038
 7358SOL     OW22972   6.104   3.482   2.688
 7358SOL    HW122973   6.034   3.514   2.624
 7358SOL    HW222974   6.187   3.458   2.638
 7359SOL     OW22975   4.243   2.428   5.454
 7359SOL    HW122976   4.223   2.339   5.494
 7359SOL    HW222977   4.253   2.496   5.526
 7360SOL     OW22978   2.366   3.164   5.388
 7360SOL    HW122979   2.428   3.242   5.396
 7360SOL    HW222980   2.395   3.105   5.313
 7361SOL     OW22981   5.317   0.730   2.420
 7361SOL    HW122982   5.390   0.663   2.403
 7361SOL    HW222983   5.271   0.707   2.506
 7362SOL     OW22984   1.982   5.998   6.284
 7362SOL    HW122985   2.051   5.927   6.294
 7362SOL    HW222986   2.017   6.071   6.225
 7363SOL     OW22987   4.402   1.275   1.275
 7363SOL    HW122988   4.402   1.246   1.370
 7363SOL    HW222989   4.388   1.196   1.215
 7364SOL     OW22990   4.077   0.367   2.311
 7364SOL    HW122991   4.142   0.302   2.273
 7364SOL    HW222992   4.004   0.384   2.244
 7365SOL     OW22993   0.490   5.622   2.367
 7365SOL    HW122994   0.532   5.689   2.306
 7365SOL    HW222995   0.413   5.579   2.321
 7366SOL     OW22996   2.529   6.447   5.640
 7366SOL    HW122997   2.589   6.380   5.685
 7366SOL    HW222998   2.523   6.529   5.697
 7367SOL     OW22999   3.758   2.616   0.043
 7367SOL    HW123000   3.769   2.570   0.132
 7367SOL    HW223001   3.679   2.678   0.048
 7368SOL     OW23002   3.670   2.918   2.166
 7368SOL    HW123003   3.700   2.830   2.130
 7368SOL    HW223004   3.722   2.938   2.249
 7369SOL     OW23005   3.541   2.515   1.149
 7369SOL    HW123006   3.545   2.483   1.244
 7369SOL    HW223007   3.463   2.578   1.139
 7370SOL     OW23008   2.599   2.085   6.132
 7370SOL    HW123009   2.637   2.014   6.192
 7370SOL    HW223010   2.650   2.170   6.145
 7371SOL     OW23011   3.140   6.241   3.763
 7371SOL    HW123012   3.140   6.141   3.765
 7371SOL    HW223013   3.211   6.276   3.824
 7372SOL     OW23014   4.505   6.998   4.634
 7372SOL    HW123015   4.564   0.001   4.557
 7372SOL    HW223016   4.561   6.979   4.715
 7373SOL     OW23017   5.821   2.147   5.131
 7373SOL    HW123018   5.781   2.058   5.154
 7373SOL    HW223019   5.768   2.219   5.175
 7374SOL     OW23020   2.174   2.155   4.615
 7374SOL    HW123021   2.191   2.126   4.520
 7374SOL    HW223022   2.255   2.134   4.671
 7375SOL     OW23023   2.365   2.477   2.054
 7375SOL    HW123024   2.298   2.551   2.050
 7375SOL    HW223025   2.352   2.416   1.976
 7376SOL     OW23026   1.217   2.355   1.288
 7376SOL    HW123027   1.225   2.454   1.286
 7376SOL    HW223028   1.227   2.322   1.382
 7377SOL     OW23029   4.392   4.874   0.328
 7377SOL    HW123030   4.395   4.959   0.276
 7377SOL    HW223031   4.411   4.797   0.268
 7378SOL     OW23032   1.547   0.094   4.864
 7378SOL    HW123033   1.519   0.051   4.950
 7378SOL    HW223034   1.632   0.145   4.879
 7379SOL     OW23035   2.747   1.127   2.274
 7379SOL    HW123036   2.742   1.028   2.277
 7379SOL    HW223037   2.776   1.157   2.183
 7380SOL     OW23038   6.780   3.999   3.565
 7380SOL    HW123039   6.862   3.995   3.623
 7380SOL    HW223040   6.802   4.046   3.480
 7381SOL     OW23041   3.726   2.970   0.845
 7381SOL    HW123042   3.676   2.929   0.769
 7381SOL    HW223043   3.759   3.060   0.819
 7382SOL     OW23044   6.788   1.635   5.691
 7382SOL    HW123045   6.840   1.589   5.619
 7382SOL    HW223046   6.697   1.596   5.697
 7383SOL     OW23047   2.472   5.595   1.505
 7383SOL    HW123048   2.414   5.675   1.521
 7383SOL    HW223049   2.559   5.624   1.465
 7384SOL     OW23050   6.553   0.016   1.914
 7384SOL    HW123051   6.569   0.060   2.002
 7384SOL    HW223052   6.634   0.028   1.856
 7385SOL     OW23053   2.512   5.390   2.442
 7385SOL    HW123054   2.456   5.330   2.385
 7385SOL    HW223055   2.541   5.470   2.388
 7386SOL     OW23056   6.815   3.137   6.663
 7386SOL    HW123057   6.777   3.095   6.745
 7386SOL    HW223058   6.826   3.068   6.592
 7387SOL     OW23059   6.653   5.295   4.827
 7387SOL    HW123060   6.643   5.369   4.893
 7387SOL    HW223061   6.563   5.261   4.801
 7388SOL     OW23062   1.198   5.064   2.427
 7388SOL    HW123063   1.241   5.153   2.436
 7388SOL    HW223064   1.119   5.071   2.365
 7389SOL     OW23065   6.793   3.736   0.125
 7389SOL    HW123066   6.742   3.651   0.116
 7389SOL    HW223067   6.763   3.801   0.055
 7390SOL     OW23068   2.880   1.926   2.441
 7390SOL    HW123069   2.937   1.920   2.523
 7390SOL    HW223070   2.900   2.012   2.393
 7391SOL     OW23071   3.584   2.882   2.899
 7391SOL    HW123072   3.674   2.897   2.938
 7391SOL    HW223073   3.589   2.886   2.799
 7392SOL     OW23074   3.672   5.446   6.895
 7392SOL    HW123075   3.711   5.508   6.827
 7392SOL    HW223076   3.746   5.404   6.948
 7393SOL     OW23077   6.444   4.801   3.338
 7393SOL    HW123078   6.499   4.721   3.314
 7393SOL    HW223079   6.447   4.815   3.437
 7394SOL     OW23080   1.768   3.245   5.849
 7394SOL    HW123081   1.734   3.153   5.866
 7394SOL    HW223082   1.868   3.244   5.850
 7395SOL     OW23083   2.084   2.994   1.096
 7395SOL    HW123084   2.175   2.982   1.136
 7395SOL    HW223085   2.020   3.021   1.169
 7396SOL     OW23086   2.460   6.351   1.193
 7396SOL    HW123087   2.558   6.357   1.214
 7396SOL    HW223088   2.422   6.444   1.186
 7397SOL     OW23089   4.945   4.189   4.218
 7397SOL    HW123090   4.956   4.252   4.295
 7397SOL    HW223091   5.008   4.112   4.229
 7398SOL     OW23092   0.938   5.883   3.062
 7398SOL    HW123093   0.897   5.868   2.972
 7398SOL    HW223094   0.982   5.973   3.065
 7399SOL     OW23095   6.640   3.092   4.841
 7399SOL    HW123096   6.648   3.114   4.939
 7399SOL    HW223097   6.575   3.017   4.829
 7400SOL     OW23098   4.683   2.399   5.819
 7400SOL    HW123099   4.616   2.325   5.828
 7400SOL    HW223100   4.635   2.487   5.814
 7401SOL     OW23101   1.821   2.745   3.455
 7401SOL    HW123102   1.747   2.712   3.514
 7401SOL    HW223103   1.817   2.845   3.450
 7402SOL     OW23104   3.126   4.203   6.333
 7402SOL    HW123105   3.153   4.120   6.284
 7402SOL    HW223106   3.153   4.283   6.281
 7403SOL     OW23107   1.430   2.996   2.836
 7403SOL    HW123108   1.506   2.947   2.793
 7403SOL    HW223109   1.428   2.976   2.933
 7404SOL     OW23110   2.856   4.175   1.746
 7404SOL    HW123111   2.766   4.158   1.706
 7404SOL    HW223112   2.856   4.263   1.794
 7405SOL     OW23113   2.918   5.349   4.603
 7405SOL    HW123114   2.926   5.274   4.670
 7405SOL    HW223115   2.844   5.329   4.539
 7406SOL     OW23116   0.899   1.276   5.077
 7406SOL    HW123117   0.968   1.204   5.070
 7406SOL    HW223118   0.838   1.272   4.998
 7407SOL     OW23119   0.997   6.180   5.527
 7407SOL    HW123120   1.065   6.156   5.457
 7407SOL    HW223121   1.033   6.254   5.584
 7408SOL     OW23122   3.961   4.079   5.322
 7408SOL    HW123123   3.939   4.042   5.412
 7408SOL    HW223124   4.060   4.085   5.311
 7409SOL     OW23125   5.180   4.426   0.396
 7409SOL    HW123126   5.195   4.397   0.302
 7409SOL    HW223127   5.263   4.467   0.433
 7410SOL     OW23128   0.704   0.827   0.979
 7410SOL    HW123129   0.646   0.902   0.946
 7410SOL    HW223130   0.651   0.742   0.979
 7411SOL     OW23131   1.813   0.309   6.766
 7411SOL    HW123132   1.858   0.370   6.830
 7411SOL    HW223133   1.832   0.214   6.791
 7412SOL     OW23134   3.778   6.256   0.966
 7412SOL    HW123135   3.848   6.212   0.910
 7412SOL    HW223136   3.771   6.353   0.943
 7413SOL     OW23137   4.706   4.727   3.948
 7413SOL    HW123138   4.682   4.780   4.030
 7413SOL    HW223139   4.691   4.630   3.965
 7414SOL     OW23140   2.129   1.543   3.723
 7414SOL    HW123141   2.136   1.467   3.658
 7414SOL    HW223142   2.202   1.535   3.791
 7415SOL     OW23143   2.518   5.036   5.561
 7415SOL    HW123144   2.592   5.014   5.497
 7415SOL    HW223145   2.434   4.992   5.530
 7416SOL     OW23146   1.934   1.103   2.447
 7416SOL    HW123147   1.937   1.202   2.437
 7416SOL    HW223148   2.026   1.066   2.442
 7417SOL     OW23149   1.842   1.811   2.527
 7417SOL    HW123150   1.882   1.786   2.439
 7417SOL    HW223151   1.788   1.895   2.516
 7418SOL     OW23152   1.843   5.101   6.733
 7418SOL    HW123153   1.880   5.184   6.775
 7418SOL    HW223154   1.744   5.111   6.722
 7419SOL     OW23155   6.587   4.101   3.728
 7419SOL    HW123156   6.670   4.052   3.701
 7419SOL    HW223157   6.575   4.095   3.827
 7420SOL     OW23158   6.932   6.030   1.274
 7420SOL    HW123159   6.935   6.123   1.239
 7420SOL    HW223160   6.983   5.970   1.211
 7421SOL     OW23161   4.055   3.670   1.231
 7421SOL    HW123162   4.062   3.735   1.306
 7421SOL    HW223163   3.968   3.681   1.184
 7422SOL     OW23164   6.566   3.917   2.202
 7422SOL    HW123165   6.581   3.990   2.268
 7422SOL    HW223166   6.518   3.954   2.122
 7423SOL     OW23167   6.004   2.816   5.600
 7423SOL    HW123168   5.945   2.895   5.586
 7423SOL    HW223169   5.954   2.745   5.650
 7424SOL     OW23170   0.108   1.695   5.208
 7424SOL    HW123171   0.011   1.672   5.213
 7424SOL    HW223172   0.144   1.669   5.119
 7425SOL     OW23173   5.249   0.072   0.388
 7425SOL    HW123174   5.267   0.081   0.290
 7425SOL    HW223175   5.275   0.156   0.436
 7426SOL     OW23176   3.282   1.905   5.547
 7426SOL    HW123177   3.289   1.832   5.479
 7426SOL    HW223178   3.204   1.963   5.525
 7427SOL     OW23179   3.907   0.830   3.848
 7427SOL    HW123180   3.907   0.839   3.749
 7427SOL    HW223181   3.941   0.914   3.890
 7428SOL     OW23182   4.115   0.554   5.253
 7428SOL    HW123183   4.052   0.479   5.274
 7428SOL    HW223184   4.203   0.516   5.227
 7429SOL     OW23185   0.943   6.400   3.224
 7429SOL    HW123186   0.960   6.466   3.296
 7429SOL    HW223187   0.991   6.315   3.244
 7430SOL     OW23188   6.568   3.957   1.336
 7430SOL    HW123189   6.577   4.027   1.407
 7430SOL    HW223190   6.657   3.915   1.319
 7431SOL     OW23191   1.492   1.894   3.553
 7431SOL    HW123192   1.401   1.856   3.538
 7431SOL    HW223193   1.538   1.842   3.625
 7432SOL     OW23194   2.194   0.794   3.017
 7432SOL    HW123195   2.209   0.780   3.115
 7432SOL    HW223196   2.184   0.705   2.972
 7433SOL     OW23197   3.866   6.416   6.675
 7433SOL    HW123198   3.842   6.513   6.667
 7433SOL    HW223199   3.963   6.404   6.653
 7434SOL     OW23200   4.476   5.755   5.183
 7434SOL    HW123201   4.532   5.682   5.221
 7434SOL    HW223202   4.418   5.718   5.110
 7435SOL     OW23203   4.326   6.006   1.496
 7435SOL    HW123204   4.419   5.969   1.504
 7435SOL    HW223205   4.262   5.932   1.480
 7436SOL     OW23206   4.303   4.718   6.123
 7436SOL    HW123207   4.394   4.675   6.128
 7436SOL    HW223208   4.233   4.651   6.146
 7437SOL     OW23209   3.086   5.674   1.259
 7437SOL    HW123210   3.166   5.616   1.269
 7437SOL    HW223211   3.090   5.748   1.326
 7438SOL     OW23212   2.085   0.197   0.261
 7438SOL    HW123213   2.131   0.110   0.281
 7438SOL    HW223214   2.137   0.272   0.301
 7439SOL     OW23215   1.879   6.025   5.089
 7439SOL    HW123216   1.972   6.041   5.122
 7439SOL    HW223217   1.878   5.948   5.025
 7440SOL     OW23218   6.168   3.399   3.935
 7440SOL    HW123219   6.172   3.455   4.018
 7440SOL    HW223220   6.229   3.321   3.944
 7441SOL     OW23221   6.130   0.098   3.465
 7441SOL    HW123222   6.195   0.027   3.491
 7441SOL    HW223223   6.177   0.170   3.414
 7442SOL     OW23224   5.857   0.972   6.821
 7442SOL    HW123225   5.893   1.023   6.743
 7442SOL    HW223226   5.766   0.937   6.799
 7443SOL     OW23227   6.768   5.644   2.148
 7443SOL    HW123228   6.804   5.664   2.239
 7443SOL    HW223229   6.773   5.726   2.091
 7444SOL     OW23230   6.234   1.153   6.243
 7444SOL    HW123231   6.211   1.056   6.251
 7444SOL    HW223232   6.281   1.183   6.326
 7445SOL     OW23233   3.606   0.409   0.915
 7445SOL    HW123234   3.706   0.415   0.922
 7445SOL    HW223235   3.570   0.366   0.998
 7446SOL     OW23236   5.218   2.171   0.311
 7446SOL    HW123237   5.130   2.200   0.349
 7446SOL    HW223238   5.216   2.178   0.211
 7447SOL     OW23239   6.622   4.506   5.999
 7447SOL    HW123240   6.617   4.502   6.099
 7447SOL    HW223241   6.607   4.415   5.962
 7448SOL     OW23242   5.059   6.540   5.119
 7448SOL    HW123243   4.987   6.593   5.077
 7448SOL    HW223244   5.126   6.601   5.161
 7449SOL     OW23245   0.278   5.729   0.433
 7449SOL    HW123246   0.377   5.747   0.426
 7449SOL    HW223247   0.241   5.709   0.342
 7450SOL     OW23248   5.322   2.595   5.380
 7450SOL    HW123249   5.390   2.538   5.426
 7450SOL    HW223250   5.357   2.623   5.290
 7451SOL     OW23251   5.288   5.547   2.567
 7451SOL    HW123252   5.368   5.488   2.582
 7451SOL    HW223253   5.281   5.568   2.470
 7452SOL     OW23254   6.581   5.881   4.420
 7452SOL    HW123255   6.574   5.977   4.395
 7452SOL    HW223256   6.529   5.864   4.503
 7453SOL     OW23257   4.335   5.207   5.810
 7453SOL    HW123258   4.311   5.117   5.847
 7453SOL    HW223259   4.255   5.248   5.766
 7454SOL     OW23260   2.546   1.001   0.549
 7454SOL    HW123261   2.555   0.980   0.646
 7454SOL    HW223262   2.613   0.947   0.497
 7455SOL     OW23263   6.493   3.667   2.206
 7455SOL    HW123264   6.529   3.760   2.209
 7455SOL    HW223265   6.538   3.612   2.275
 7456SOL     OW23266   2.975   1.588   5.121
 7456SOL    HW123267   2.918   1.553   5.046
 7456SOL    HW223268   3.065   1.546   5.116
 7457SOL     OW23269   3.124   0.034   4.074
 7457SOL    HW123270   3.059   6.997   4.123
 7457SOL    HW223271   3.074   0.093   4.010
 7458SOL     OW23272   1.546   0.358   5.999
 7458SOL    HW123273   1.509   0.333   5.909
 7458SOL    HW223274   1.520   0.452   6.021
 7459SOL     OW23275   6.327   1.036   2.236
 7459SOL    HW123276   6.291   0.951   2.198
 7459SOL    HW223277   6.410   1.062   2.186
 7460SOL     OW23278   1.364   5.687   6.669
 7460SOL    HW123279   1.431   5.734   6.727
 7460SOL    HW223280   1.396   5.687   6.574
 7461SOL     OW23281   6.247   6.353   6.017
 7461SOL    HW123282   6.199   6.350   6.105
 7461SOL    HW223283   6.226   6.270   5.965
 7462SOL     OW23284   2.015   4.935   1.814
 7462SOL    HW123285   2.027   4.845   1.770
 7462SOL    HW223286   1.990   5.002   1.745
 7463SOL     OW23287   3.526   3.842   0.555
 7463SOL    HW123288   3.474   3.927   0.565
 7463SOL    HW223289   3.610   3.848   0.610
 7464SOL     OW23290   6.625   6.844   5.339
 7464SOL    HW123291   6.683   6.818   5.416
 7464SOL    HW223292   6.584   6.762   5.299
 7465SOL     OW23293   2.663   4.961   0.087
 7465SOL    HW123294   2.632   5.041   0.139
 7465SOL    HW223295   2.652   4.879   0.142
 7466SOL     OW23296   0.537   0.847   6.176
 7466SOL    HW123297   0.514   0.925   6.233
 7466SOL    HW223298   0.619   0.803   6.211
 7467SOL     OW23299   0.341   2.268   6.296
 7467SOL    HW123300   0.363   2.197   6.362
 7467SOL    HW223301   0.363   2.236   6.204
 7468SOL     OW23302   5.148   2.643   4.313
 7468SOL    HW123303   5.070   2.651   4.376
 7468SOL    HW223304   5.174   2.734   4.281
 7469SOL     OW23305   6.743   1.661   0.459
 7469SOL    HW123306   6.744   1.760   0.452
 7469SOL    HW223307   6.766   1.621   0.370
 7470SOL     OW23308   5.409   4.010   3.339
 7470SOL    HW123309   5.432   3.955   3.419
 7470SOL    HW223310   5.484   4.007   3.273
 7471SOL     OW23311   5.077   5.854   5.535
 7471SOL    HW123312   5.105   5.911   5.458
 7471SOL    HW223313   5.148   5.856   5.605
 7472SOL     OW23314   6.185   0.757   5.467
 7472SOL    HW123315   6.218   0.731   5.377
 7472SOL    HW223316   6.172   0.857   5.471
 7473SOL     OW23317   5.937   6.294   3.699
 7473SOL    HW123318   5.953   6.201   3.733
 7473SOL    HW223319   5.867   6.292   3.628
 7474SOL     OW23320   6.705   2.721   6.497
 7474SOL    HW123321   6.619   2.747   6.454
 7474SOL    HW223322   6.747   2.646   6.446
 7475SOL     OW23323   4.395   2.432   1.926
 7475SOL    HW123324   4.383   2.435   2.025
 7475SOL    HW223325   4.396   2.337   1.896
 7476SOL     OW23326   2.178   2.329   2.989
 7476SOL    HW123327   2.150   2.258   2.924
 7476SOL    HW223328   2.197   2.414   2.940
 7477SOL     OW23329   0.405   3.169   5.330
 7477SOL    HW123330   0.306   3.163   5.342
 7477SOL    HW223331   0.439   3.084   5.288
 7478SOL     OW23332   5.601   3.450   5.208
 7478SOL    HW123333   5.598   3.415   5.114
 7478SOL    HW223334   5.513   3.491   5.231
 7479SOL     OW23335   5.306   2.878   0.614
 7479SOL    HW123336   5.332   2.873   0.518
 7479SOL    HW223337   5.371   2.936   0.664
 7480SOL     OW23338   1.978   4.815   2.322
 7480SOL    HW123339   1.972   4.841   2.226
 7480SOL    HW223340   2.056   4.753   2.335
 7481SOL     OW23341   6.456   4.919   6.744
 7481SOL    HW123342   6.440   4.910   6.842
 7481SOL    HW223343   6.377   4.885   6.694
 7482SOL     OW23344   4.245   2.349   2.204
 7482SOL    HW123345   4.197   2.276   2.253
 7482SOL    HW223346   4.292   2.408   2.270
 7483SOL     OW23347   4.812   2.473   4.741
 7483SOL    HW123348   4.719   2.509   4.743
 7483SOL    HW223349   4.817   2.398   4.674
 7484SOL     OW23350   1.984   5.080   4.705
 7484SOL    HW123351   2.022   5.131   4.627
 7484SOL    HW223352   2.052   5.074   4.778
 7485SOL     OW23353   2.628   6.936   3.852
 7485SOL    HW123354   2.682   6.946   3.768
 7485SOL    HW223355   2.615   0.005   3.894
 7486SOL     OW23356   0.619   6.403   6.978
 7486SOL    HW123357   0.705   6.408   0.009
 7486SOL    HW223358   0.567   6.322   7.008
 7487SOL     OW23359   3.868   0.773   3.380
 7487SOL    HW123360   3.788   0.798   3.326
 7487SOL    HW223361   3.918   0.699   3.336
 7488SOL     OW23362   1.955   6.110   4.618
 7488SOL    HW123363   2.004   6.163   4.688
 7488SOL    HW223364   1.998   6.126   4.529
 7489SOL     OW23365   6.535   3.316   0.142
 7489SOL    HW123366   6.522   3.249   0.069
 7489SOL    HW223367   6.469   3.390   0.132
 7490SOL     OW23368   1.781   1.526   2.531
 7490SOL    HW123369   1.808   1.622   2.538
 7490SOL    HW223370   1.782   1.485   2.622
 7491SOL     OW23371   5.019   2.993   0.055
 7491SOL    HW123372   5.016   2.903   0.098
 7491SOL    HW223373   5.049   3.061   0.122
 7492SOL     OW23374   2.158   1.445   4.063
 7492SOL    HW123375   2.181   1.528   4.113
 7492SOL    HW223376   2.203   1.447   3.973
 7493SOL     OW23377   0.131   3.257   5.316
 7493SOL    HW123378   0.118   3.302   5.405
 7493SOL    HW223379   0.058   3.285   5.254
 7494SOL     OW23380   5.784   1.238   4.217
 7494SOL    HW123381   5.762   1.329   4.254
 7494SOL    HW223382   5.709   1.207   4.159
 7495SOL     OW23383   1.540   2.633   4.924
 7495SOL    HW123384   1.636   2.609   4.917
 7495SOL    HW223385   1.524   2.680   5.011
 7496SOL     OW23386   5.694   3.446   4.187
 7496SOL    HW123387   5.744   3.372   4.232
 7496SOL    HW223388   5.596   3.434   4.202
 7497SOL     OW23389   1.955   5.936   1.475
 7497SOL    HW123390   1.899   5.875   1.418
 7497SOL    HW223391   1.977   5.890   1.561
 7498SOL     OW23392   2.376   0.900   4.081
 7498SOL    HW123393   2.400   0.858   4.169
 7498SOL    HW223394   2.277   0.894   4.067
 7499SOL     OW23395   4.519   2.062   3.380
 7499SOL    HW123396   4.447   2.034   3.317
 7499SOL    HW223397   4.496   2.150   3.422
 7500SOL     OW23398   3.318   5.829   3.479
 7500SOL    HW123399   3.352   5.736   3.492
 7500SOL    HW223400   3.225   5.837   3.515
 7501SOL     OW23401   5.687   3.856   3.737
 7501SOL    HW123402   5.612   3.795   3.762
 7501SOL    HW223403   5.737   3.882   3.819
 7502SOL     OW23404   3.689   6.688   4.147
 7502SOL    HW123405   3.664   6.697   4.050
 7502SOL    HW223406   3.786   6.665   4.154
 7503SOL     OW23407   1.868   6.190   0.710
 7503SOL    HW123408   1.896   6.267   0.654
 7503SOL    HW223409   1.883   6.212   0.807
 7504SOL     OW23410   0.492   6.418   2.074
 7504SOL    HW123411   0.396   6.392   2.081
 7504SOL    HW223412   0.515   6.439   1.979
 7505SOL     OW23413   1.325   1.495   6.092
 7505SOL    HW123414   1.268   1.494   6.174
 7505SOL    HW223415   1.338   1.401   6.059
 7506SOL     OW23416   4.184   1.999   3.610
 7506SOL    HW123417   4.137   2.071   3.560
 7506SOL    HW223418   4.279   2.026   3.627
 7507SOL     OW23419   6.413   3.050   4.031
 7507SOL    HW123420   6.457   3.038   3.942
 7507SOL    HW223421   6.324   3.004   4.030
 7508SOL     OW23422   1.801   5.075   0.548
 7508SOL    HW123423   1.848   5.145   0.494
 7508SOL    HW223424   1.703   5.076   0.526
 7509SOL     OW23425   5.959   3.164   0.617
 7509SOL    HW123426   5.979   3.093   0.549
 7509SOL    HW223427   6.031   3.164   0.686
 7510SOL     OW23428   4.028   3.514   4.158
 7510SOL    HW123429   4.043   3.420   4.189
 7510SOL    HW223430   3.945   3.551   4.201
 7511SOL     OW23431   2.806   6.208   3.537
 7511SOL    HW123432   2.782   6.171   3.626
 7511SOL    HW223433   2.747   6.287   3.517
 7512SOL     OW23434   2.936   0.833   6.863
 7512SOL    HW123435   2.846   0.795   6.885
 7512SOL    HW223436   3.005   0.795   6.925
 7513SOL     OW23437   2.401   2.142   3.405
 7513SOL    HW123438   2.357   2.219   3.451
 7513SOL    HW223439   2.372   2.140   3.309
 7514SOL     OW23440   1.772   5.027   3.706
 7514SOL    HW123441   1.691   5.019   3.765
 7514SOL    HW223442   1.809   5.120   3.712
 7515SOL     OW23443   6.804   4.587   4.830
 7515SOL    HW123444   6.748   4.505   4.819
 7515SOL    HW223445   6.829   4.598   4.926
 7516SOL     OW23446   0.830   5.109   6.122
 7516SOL    HW123447   0.770   5.182   6.088
 7516SOL    HW223448   0.897   5.085   6.051
 7517SOL     OW23449   1.354   2.478   0.075
 7517SOL    HW123450   1.393   2.485   7.004
 7517SOL    HW223451   1.383   2.392   0.117
 7518SOL     OW23452   4.917   3.199   3.534
 7518SOL    HW123453   4.899   3.110   3.576
 7518SOL    HW223454   4.897   3.194   3.436
 7519SOL     OW23455   5.782   6.916   3.837
 7519SOL    HW123456   5.756   6.897   3.931
 7519SOL    HW223457   5.791   7.015   3.824
 7520SOL     OW23458   1.382   1.126   2.358
 7520SOL    HW123459   1.367   1.215   2.401
 7520SOL    HW223460   1.457   1.134   2.292
 7521SOL     OW23461   4.642   1.994   4.592
 7521SOL    HW123462   4.690   1.978   4.505
 7521SOL    HW223463   4.619   1.906   4.634
 7522SOL     OW23464   1.552   0.348   5.179
 7522SOL    HW123465   1.548   0.435   5.227
 7522SOL    HW223466   1.647   0.323   5.161
 7523SOL     OW23467   5.045   0.718   6.153
 7523SOL    HW123468   5.137   0.727   6.114
 7523SOL    HW223469   5.037   0.778   6.232
 7524SOL     OW23470   0.232   3.150   4.811
 7524SOL    HW123471   0.331   3.159   4.827
 7524SOL    HW223472   0.195   3.240   4.785
 7525SOL     OW23473   4.183   6.635   6.416
 7525SOL    HW123474   4.229   6.722   6.398
 7525SOL    HW223475   4.160   6.591   6.330
 7526SOL     OW23476   2.478   2.743   1.333
 7526SOL    HW123477   2.504   2.773   1.425
 7526SOL    HW223478   2.561   2.734   1.277
 7527SOL     OW23479   2.873   5.601   3.960
 7527SOL    HW123480   2.843   5.611   4.055
 7527SOL    HW223481   2.910   5.688   3.928
 7528SOL     OW23482   5.571   2.148   6.763
 7528SOL    HW123483   5.665   2.167   6.734
 7528SOL    HW223484   5.541   2.219   6.827
 7529SOL     OW23485   4.999   2.025   3.910
 7529SOL    HW123486   5.084   2.023   3.964
 7529SOL    HW223487   4.942   1.948   3.936
 7530SOL     OW23488   6.147   1.711   2.383
 7530SOL    HW123489   6.099   1.634   2.341
 7530SOL    HW223490   6.162   1.783   2.316
 7531SOL     OW23491   4.992   2.787   3.062
 7531SOL    HW123492   4.913   2.849   3.063
 7531SOL    HW223493   5.054   2.814   2.989
 7532SOL     OW23494   5.340   6.420   5.900
 7532SOL    HW123495   5.242   6.407   5.915
 7532SOL    HW223496   5.381   6.334   5.870
 7533SOL     OW23497   4.613   2.560   1.521
 7533SOL    HW123498   4.656   2.607   1.445
 7533SOL    HW223499   4.553   2.623   1.570
 7534SOL     OW23500   4.471   5.739   4.419
 7534SOL    HW123501   4.403   5.812   4.427
 7534SOL    HW223502   4.441   5.673   4.350
 7535SOL     OW23503   1.552   6.536   4.883
 7535SOL    HW123504   1.499   6.481   4.948
 7535SOL    HW223505   1.606   6.476   4.824
 7536SOL     OW23506   5.675   6.039   3.819
 7536SOL    HW123507   5.717   6.023   3.908
 7536SOL    HW223508   5.606   6.111   3.828
 7537SOL     OW23509   1.903   4.857   2.063
 7537SOL    HW123510   1.926   4.889   1.971
 7537SOL    HW223511   1.853   4.771   2.056
 7538SOL     OW23512   1.550   2.760   1.813
 7538SOL    HW123513   1.553   2.707   1.898
 7538SOL    HW223514   1.599   2.846   1.825
 7539SOL     OW23515   1.454   5.037   3.485
 7539SOL    HW123516   1.362   5.046   3.446
 7539SOL    HW223517   1.502   4.963   3.438
 7540SOL     OW23518   4.665   6.195   4.369
 7540SOL    HW123519   4.569   6.222   4.367
 7540SOL    HW223520   4.671   6.095   4.362
 7541SOL     OW23521   0.701   4.342   6.262
 7541SOL    HW123522   0.712   4.366   6.359
 7541SOL    HW223523   0.607   4.361   6.234
 7542SOL     OW23524   6.728   5.849   5.733
 7542SOL    HW123525   6.706   5.931   5.679
 7542SOL    HW223526   6.818   5.815   5.707
 7543SOL     OW23527   3.045   0.459   4.940
 7543SOL    HW123528   3.130   0.417   4.909
 7543SOL    HW223529   2.999   0.502   4.862
 7544SOL     OW23530   0.599   2.829   4.523
 7544SOL    HW123531   0.502   2.852   4.516
 7544SOL    HW223532   0.631   2.848   4.615
 7545SOL     OW23533   0.384   6.453   5.879
 7545SOL    HW123534   0.463   6.464   5.818
 7545SOL    HW223535   0.417   6.449   5.974
 7546SOL     OW23536   4.975   2.440   1.557
 7546SOL    HW123537   4.975   2.448   1.457
 7546SOL    HW223538   5.053   2.384   1.586
 7547SOL     OW23539   4.443   0.478   0.895
 7547SOL    HW123540   4.527   0.504   0.942
 7547SOL    HW223541   4.462   0.406   0.829
 7548SOL     OW23542   4.495   2.616   6.948
 7548SOL    HW123543   4.493   2.648   6.853
 7548SOL    HW223544   4.407   2.635   6.991
 7549SOL     OW23545   3.242   2.715   6.691
 7549SOL    HW123546   3.163   2.656   6.709
 7549SOL    HW223547   3.298   2.674   6.620
 7550SOL     OW23548   1.894   4.448   3.540
 7550SOL    HW123549   1.948   4.386   3.597
 7550SOL    HW223550   1.797   4.441   3.566
 7551SOL     OW23551   5.594   3.031   5.202
 7551SOL    HW123552   5.546   3.051   5.116
 7551SOL    HW223553   5.607   2.932   5.211
 7552SOL     OW23554   1.590   5.964   4.400
 7552SOL    HW123555   1.602   6.048   4.452
 7552SOL    HW223556   1.642   5.890   4.443
 7553SOL     OW23557   5.729   6.556   5.690
 7553SOL    HW123558   5.657   6.618   5.722
 7553SOL    HW223559   5.739   6.481   5.756
 7554SOL     OW23560   5.004   0.716   0.541
 7554SOL    HW123561   5.045   0.752   0.457
 7554SOL    HW223562   5.074   0.710   0.612
 7555SOL     OW23563   3.386   5.890   6.342
 7555SOL    HW123564   3.477   5.925   6.323
 7555SOL    HW223565   3.327   5.965   6.373
 7556SOL     OW23566   1.692   1.625   0.552
 7556SOL    HW123567   1.678   1.721   0.529
 7556SOL    HW223568   1.604   1.583   0.574
 7557SOL     OW23569   4.504   0.253   0.008
 7557SOL    HW123570   4.514   0.284   6.934
 7557SOL    HW223571   4.516   0.330   0.070
 7558SOL     OW23572   1.679   3.176   3.568
 7558SOL    HW123573   1.613   3.129   3.628
 7558SOL    HW223574   1.644   3.267   3.546
 7559SOL     OW23575   3.772   2.277   5.210
 7559SOL    HW123576   3.703   2.238   5.270
 7559SOL    HW223577   3.841   2.324   5.264
 7560SOL     OW23578   6.350   0.019   0.064
 7560SOL    HW123579   6.294   0.033   0.146
 7560SOL    HW223580   6.431   0.077   0.068
 7561SOL     OW23581   6.048   3.217   5.655
 7561SOL    HW123582   6.138   3.255   5.678
 7561SOL    HW223583   5.994   3.285   5.607
 7562SOL     OW23584   0.802   4.545   4.817
 7562SOL    HW123585   0.869   4.476   4.788
 7562SOL    HW223586   0.739   4.563   4.741
 7563SOL     OW23587   2.541   5.937   2.636
 7563SOL    HW123588   2.599   5.882   2.697
 7563SOL    HW223589   2.570   6.033   2.641
 7564SOL     OW23590   3.710   0.305   4.662
 7564SOL    HW123591   3.800   0.335   4.632
 7564SOL    HW223592   3.696   0.210   4.635
 7565SOL     OW23593   6.069   4.372   5.636
 7565SOL    HW123594   6.052   4.438   5.709
 7565SOL    HW223595   6.155   4.324   5.653
 7566SOL     OW23596   5.134   4.747   2.330
 7566SOL    HW123597   5.164   4.652   2.319
 7566SOL    HW223598   5.181   4.787   2.408
 7567SOL     OW23599   1.052   0.966   4.674
 7567SOL    HW123600   1.044   1.054   4.627
 7567SOL    HW223601   1.089   0.898   4.611
 7568SOL     OW23602   5.590   5.268   1.772
 7568SOL    HW123603   5.645   5.238   1.850
 7568SOL    HW223604   5.589   5.368   1.767
 7569SOL     OW23605   4.337   4.023   6.748
 7569SOL    HW123606   4.243   4.026   6.713
 7569SOL    HW223607   4.335   4.019   6.848
 7570SOL     OW23608   0.061   2.705   3.965
 7570SOL    HW123609   0.047   2.747   4.054
 7570SOL    HW223610   0.036   2.608   3.969
 7571SOL     OW23611   5.252   3.694   3.007
 7571SOL    HW123612   5.331   3.748   2.981
 7571SOL    HW223613   5.274   3.596   2.999
 7572SOL     OW23614   5.239   6.688   2.854
 7572SOL    HW123615   5.262   6.606   2.908
 7572SOL    HW223616   5.278   6.768   2.899
 7573SOL     OW23617   6.018   0.797   5.794
 7573SOL    HW123618   6.040   0.733   5.868
 7573SOL    HW223619   5.922   0.786   5.768
 7574SOL     OW23620   5.597   1.600   4.775
 7574SOL    HW123621   5.540   1.520   4.760
 7574SOL    HW223622   5.685   1.588   4.728
 7575SOL     OW23623   6.062   6.143   0.407
 7575SOL    HW123624   6.086   6.147   0.504
 7575SOL    HW223625   5.968   6.110   0.397
 7576SOL     OW23626   5.516   2.288   6.982
 7576SOL    HW123627   5.573   2.369   6.968
 7576SOL    HW223628   5.441   2.311   0.024
 7577SOL     OW23629   6.684   6.450   0.127
 7577SOL    HW123630   6.714   6.529   0.073
 7577SOL    HW223631   6.732   6.450   0.215
 7578SOL     OW23632   1.410   5.253   2.294
 7578SOL    HW123633   1.484   5.186   2.300
 7578SOL    HW223634   1.357   5.237   2.210
 7579SOL     OW23635   6.905   1.564   1.254
 7579SOL    HW123636   7.002   1.541   1.244
 7579SOL    HW223637   6.855   1.534   1.173
 7580SOL     OW23638   1.475   4.773   3.369
 7580SOL    HW123639   1.399   4.719   3.405
 7580SOL    HW223640   1.461   4.789   3.271
 7581SOL     OW23641   0.678   1.122   1.433
 7581SOL    HW123642   0.604   1.177   1.472
 7581SOL    HW223643   0.672   1.029   1.469
 7582SOL     OW23644   4.066   1.680   3.715
 7582SOL    HW123645   4.118   1.756   3.755
 7582SOL    HW223646   3.996   1.718   3.653
 7583SOL     OW23647   5.461   3.853   2.953
 7583SOL    HW123648   5.556   3.824   2.940
 7583SOL    HW223649   5.423   3.884   2.866
 7584SOL     OW23650   1.376   6.694   2.663
 7584SOL    HW123651   1.412   6.678   2.755
 7584SOL    HW223652   1.341   6.609   2.625
 7585SOL     OW23653   0.922   2.363   6.808
 7585SOL    HW123654   0.996   2.425   6.783
 7585SOL    HW223655   0.959   2.285   6.859
 7586SOL     OW23656   1.909   0.117   2.494
 7586SOL    HW123657   1.935   0.194   2.552
 7586SOL    HW223658   1.811   0.123   2.472
 7587SOL     OW23659   2.902   1.257   0.496
 7587SOL    HW123660   2.963   1.268   0.574
 7587SOL    HW223661   2.832   1.329   0.498
 7588SOL     OW23662   1.535   2.589   3.920
 7588SOL    HW123663   1.595   2.658   3.960
 7588SOL    HW223664   1.590   2.516   3.881
 7589SOL     OW23665   0.132   1.360   3.170
 7589SOL    HW123666   0.184   1.282   3.207
 7589SOL    HW223667   0.037   1.332   3.154
 7590SOL     OW23668   6.282   1.276   6.968
 7590SOL    HW123669   6.208   1.216   6.999
 7590SOL    HW223670   6.313   1.246   6.877
 7591SOL     OW23671   4.730   3.185   6.341
 7591SOL    HW123672   4.790   3.105   6.350
 7591SOL    HW223673   4.642   3.165   6.383
 7592SOL     OW23674   6.655   4.857   4.361
 7592SOL    HW123675   6.562   4.887   4.382
 7592SOL    HW223676   6.687   4.795   4.433
 7593SOL     OW23677   0.041   2.778   6.225
 7593SOL    HW123678   0.081   2.722   6.152
 7593SOL    HW223679   6.962   2.780   6.215
 7594SOL     OW23680   0.796   4.466   1.792
 7594SOL    HW123681   0.865   4.535   1.811
 7594SOL    HW223682   0.835   4.393   1.735
 7595SOL     OW23683   6.266   3.520   6.437
 7595SOL    HW123684   6.318   3.548   6.356
 7595SOL    HW223685   6.195   3.589   6.456
 7596SOL     OW23686   3.345   6.756   5.289
 7596SOL    HW123687   3.266   6.710   5.250
 7596SOL    HW223688   3.384   6.700   5.362
 7597SOL     OW23689   1.954   6.459   3.010
 7597SOL    HW123690   1.986   6.509   3.090
 7597SOL    HW223691   1.959   6.517   2.929
 7598SOL     OW23692   6.238   0.752   3.235
 7598SOL    HW123693   6.192   0.778   3.320
 7598SOL    HW223694   6.266   0.834   3.186
 7599SOL     OW23695   5.124   3.319   1.252
 7599SOL    HW123696   5.160   3.268   1.330
 7599SOL    HW223697   5.099   3.254   1.179
 7600SOL     OW23698   1.297   1.047   3.582
 7600SOL    HW123699   1.218   0.988   3.564
 7600SOL    HW223700   1.323   1.038   3.679
 7601SOL     OW23701   2.942   4.962   2.252
 7601SOL    HW123702   2.968   5.057   2.266
 7601SOL    HW223703   2.852   4.958   2.208
 7602SOL     OW23704   0.424   2.828   0.007
 7602SOL    HW123705   0.379   2.777   0.080
 7602SOL    HW223706   0.394   2.923   0.010
 7603SOL     OW23707   1.974   6.476   5.808
 7603SOL    HW123708   1.989   6.385   5.846
 7603SOL    HW223709   2.062   6.523   5.798
 7604SOL     OW23710   1.798   2.078   5.162
 7604SOL    HW123711   1.730   2.151   5.165
 7604SOL    HW223712   1.758   1.997   5.121
 7605SOL     OW23713   1.035   0.509   0.590
 7605SOL    HW123714   1.078   0.528   0.501
 7605SOL    HW223715   0.948   0.559   0.596
 7606SOL     OW23716   5.862   2.823   5.193
 7606SOL    HW123717   5.889   2.917   5.213
 7606SOL    HW223718   5.775   2.803   5.239
 7607SOL     OW23719   3.717   5.482   0.871
 7607SOL    HW123720   3.742   5.559   0.812
 7607SOL    HW223721   3.768   5.401   0.844
 7608SOL     OW23722   5.103   2.143   6.425
 7608SOL    HW123723   5.015   2.106   6.396
 7608SOL    HW223724   5.140   2.202   6.352
 7609SOL     OW23725   0.638   3.778   4.063
 7609SOL    HW123726   0.574   3.778   4.139
 7609SOL    HW223727   0.698   3.698   4.070
 7610SOL     OW23728   4.031   4.938   5.961
 7610SOL    HW123729   4.027   4.965   6.058
 7610SOL    HW223730   3.981   4.852   5.949
 7611SOL     OW23731   5.236   3.560   1.506
 7611SOL    HW123732   5.164   3.594   1.567
 7611SOL    HW223733   5.227   3.461   1.495
 7612SOL     OW23734   4.060   2.168   3.180
 7612SOL    HW123735   3.998   2.098   3.144
 7612SOL    HW223736   4.100   2.219   3.104
 7613SOL     OW23737   0.853   2.086   1.956
 7613SOL    HW123738   0.902   2.172   1.941
 7613SOL    HW223739   0.806   2.089   2.044
 7614SOL     OW23740   5.471   3.308   0.952
 7614SOL    HW123741   5.437   3.372   1.021
 7614SOL    HW223742   5.563   3.336   0.923
 7615SOL     OW23743   5.135   4.099   5.664
 7615SOL    HW123744   5.141   4.192   5.703
 7615SOL    HW223745   5.172   4.099   5.571
 7616SOL     OW23746   6.474   0.579   3.226
 7616SOL    HW123747   6.469   0.482   3.205
 7616SOL    HW223748   6.381   0.615   3.239
 7617SOL     OW23749   5.364   5.264   3.082
 7617SOL    HW123750   5.457   5.281   3.113
 7617SOL    HW223751   5.309   5.347   3.091
 7618SOL     OW23752   1.411   2.244   0.181
 7618SOL    HW123753   1.449   2.276   0.267
 7618SOL    HW223754   1.477   2.185   0.135
 7619SOL     OW23755   0.245   3.074   4.297
 7619SOL    HW123756   0.301   3.083   4.214
 7619SOL    HW223757   0.256   3.156   4.354
 7620SOL     OW23758   3.512   4.488   0.419
 7620SOL    HW123759   3.572   4.409   0.410
 7620SOL    HW223760   3.488   4.501   0.516
 7621SOL     OW23761   0.393   6.470   1.028
 7621SOL    HW123762   0.441   6.559   1.023
 7621SOL    HW223763   0.458   6.397   1.006
 7622SOL     OW23764   4.466   4.777   0.080
 7622SOL    HW123765   4.394   4.832   0.037
 7622SOL    HW223766   4.549   4.781   0.025
 7623SOL     OW23767   4.345   4.552   0.495
 7623SOL    HW123768   4.385   4.609   0.566
 7623SOL    HW223769   4.398   4.467   0.487
 7624SOL     OW23770   0.239   2.641   3.314
 7624SOL    HW123771   0.266   2.558   3.364
 7624SOL    HW223772   0.160   2.621   3.257
 7625SOL     OW23773   5.809   2.322   0.162
 7625SOL    HW123774   5.768   2.238   0.127
 7625SOL    HW223775   5.770   2.400   0.111
 7626SOL     OW23776   6.472   0.844   6.076
 7626SOL    HW123777   6.473   0.942   6.059
 7626SOL    HW223778   6.488   0.795   5.990
 7627SOL     OW23779   2.753   1.586   0.493
 7627SOL    HW123780   2.709   1.515   0.438
 7627SOL    HW223781   2.850   1.592   0.469
 7628SOL     OW23782   3.879   3.061   1.321
 7628SOL    HW123783   3.866   2.971   1.364
 7628SOL    HW223784   3.977   3.080   1.311
 7629SOL     OW23785   6.263   4.014   3.758
 7629SOL    HW123786   6.290   3.936   3.815
 7629SOL    HW223787   6.345   4.063   3.728
 7630SOL     OW23788   1.435   0.474   5.522
 7630SOL    HW123789   1.438   0.531   5.604
 7630SOL    HW223790   1.486   0.390   5.538
 7631SOL     OW23791   1.480   0.674   5.722
 7631SOL    HW123792   1.552   0.741   5.703
 7631SOL    HW223793   1.486   0.644   5.817
 7632SOL     OW23794   4.389   4.881   0.936
 7632SOL    HW123795   4.291   4.873   0.918
 7632SOL    HW223796   4.430   4.790   0.944
 7633SOL     OW23797   5.705   0.609   1.504
 7633SOL    HW123798   5.711   0.701   1.543
 7633SOL    HW223799   5.658   0.549   1.569
 7634SOL     OW23800   1.220   1.174   1.572
 7634SOL    HW123801   1.264   1.243   1.514
 7634SOL    HW223802   1.135   1.143   1.528
 7635SOL     OW23803   2.776   4.995   4.641
 7635SOL    HW123804   2.687   5.030   4.613
 7635SOL    HW223805   2.780   4.990   4.741
 7636SOL     OW23806   0.543   4.136   4.116
 7636SOL    HW123807   0.597   4.091   4.045
 7636SOL    HW223808   0.552   4.235   4.106
 7637SOL     OW23809   0.651   6.348   3.289
 7637SOL    HW123810   0.663   6.248   3.292
 7637SOL    HW223811   0.718   6.387   3.226
 7638SOL     OW23812   1.160   5.435   1.655
 7638SOL    HW123813   1.066   5.432   1.690
 7638SOL    HW223814   1.178   5.352   1.602
 7639SOL     OW23815   0.192   0.677   0.354
 7639SOL    HW123816   0.141   0.716   0.276
 7639SOL    HW223817   0.129   0.662   0.430
 7640SOL     OW23818   3.009   2.108   6.953
 7640SOL    HW123819   2.949   2.126   6.875
 7640SOL    HW223820   3.098   2.151   6.936
 7641SOL     OW23821   0.236   4.018   2.731
 7641SOL    HW123822   0.241   4.110   2.692
 7641SOL    HW223823   0.179   3.960   2.673
 7642SOL     OW23824   6.030   1.051   2.578
 7642SOL    HW123825   5.951   1.073   2.635
 7642SOL    HW223826   6.016   1.087   2.486
 7643SOL     OW23827   5.208   1.831   2.376
 7643SOL    HW123828   5.187   1.734   2.369
 7643SOL    HW223829   5.168   1.868   2.459
 7644SOL     OW23830   4.868   3.029   2.207
 7644SOL    HW123831   4.927   2.949   2.218
 7644SOL    HW223832   4.842   3.038   2.111
 7645SOL     OW23833   4.147   3.214   5.276
 7645SOL    HW123834   4.079   3.243   5.208
 7645SOL    HW223835   4.209   3.290   5.295
 7646SOL     OW23836   0.667   3.058   3.122
 7646SOL    HW123837   0.745   3.009   3.083
 7646SOL    HW223838   0.585   3.037   3.070
 7647SOL     OW23839   1.015   2.877   4.535
 7647SOL    HW123840   1.034   2.792   4.486
 7647SOL    HW223841   0.987   2.856   4.629
 7648SOL     OW23842   2.302   1.523   2.084
 7648SOL    HW123843   2.236   1.467   2.034
 7648SOL    HW223844   2.394   1.506   2.050
 7649SOL     OW23845   1.223   1.440   4.572
 7649SOL    HW123846   1.189   1.516   4.628
 7649SOL    HW223847   1.323   1.439   4.576
 7650SOL     OW23848   5.040   1.285   1.017
 7650SOL    HW123849   5.012   1.353   1.085
 7650SOL    HW223850   5.014   1.316   0.926
 7651SOL     OW23851   2.513   5.076   4.582
 7651SOL    HW123852   2.472   5.075   4.673
 7651SOL    HW223853   2.457   5.022   4.519
 7652SOL     OW23854   6.059   2.637   5.266
 7652SOL    HW123855   5.998   2.573   5.313
 7652SOL    HW223856   6.006   2.714   5.230
 7653SOL     OW23857   1.396   1.691   0.335
 7653SOL    HW123858   1.432   1.667   0.245
 7653SOL    HW223859   1.397   1.611   0.394
 7654SOL     OW23860   5.507   2.999   4.935
 7654SOL    HW123861   5.431   2.940   4.962
 7654SOL    HW223862   5.471   3.082   4.892
 7655SOL     OW23863   3.695   0.204   3.717
 7655SOL    HW123864   3.656   0.146   3.646
 7655SOL    HW223865   3.654   0.295   3.712
 7656SOL     OW23866   5.984   2.856   5.922
 7656SOL    HW123867   5.962   2.790   5.995
 7656SOL    HW223868   5.931   2.834   5.841
 7657SOL     OW23869   1.838   3.483   4.157
 7657SOL    HW123870   1.787   3.405   4.120
 7657SOL    HW223871   1.934   3.456   4.171
 7658SOL     OW23872   3.135   0.435   1.066
 7658SOL    HW123873   3.218   0.418   1.012
 7658SOL    HW223874   3.055   0.431   1.006
 7659SOL     OW23875   4.687   4.310   6.550
 7659SOL    HW123876   4.632   4.306   6.467
 7659SOL    HW223877   4.716   4.404   6.566
 7660SOL     OW23878   6.381   5.607   4.688
 7660SOL    HW123879   6.309   5.539   4.674
 7660SOL    HW223880   6.448   5.571   4.753
 7661SOL     OW23881   4.504   2.380   6.118
 7661SOL    HW123882   4.495   2.284   6.091
 7661SOL    HW223883   4.413   2.422   6.120
 7662SOL     OW23884   0.656   2.311   3.023
 7662SOL    HW123885   0.654   2.407   2.995
 7662SOL    HW223886   0.710   2.302   3.106
 7663SOL     OW23887   5.223   5.723   6.552
 7663SOL    HW123888   5.250   5.817   6.570
 7663SOL    HW223889   5.227   5.705   6.454
 7664SOL     OW23890   3.985   0.990   3.136
 7664SOL    HW123891   4.007   1.088   3.133
 7664SOL    HW223892   3.950   0.966   3.226
 7665SOL     OW23893   5.569   1.903   3.961
 7665SOL    HW123894   5.522   1.818   3.987
 7665SOL    HW223895   5.636   1.883   3.889
 7666SOL     OW23896   6.574   5.577   4.244
 7666SOL    HW123897   6.671   5.597   4.255
 7666SOL    HW223898   6.537   5.631   4.168
 7667SOL     OW23899   4.551   0.535   2.270
 7667SOL    HW123900   4.532   0.445   2.311
 7667SOL    HW223901   4.542   0.606   2.340
 7668SOL     OW23902   2.776   4.681   0.777
 7668SOL    HW123903   2.825   4.674   0.690
 7668SOL    HW223904   2.735   4.592   0.799
 7669SOL     OW23905   4.216   0.903   5.911
 7669SOL    HW123906   4.186   0.964   5.838
 7669SOL    HW223907   4.257   0.956   5.985
 7670SOL     OW23908   0.781   6.666   0.596
 7670SOL    HW123909   0.789   6.622   0.685
 7670SOL    HW223910   0.864   6.718   0.576
 7671SOL     OW23911   5.574   0.043   2.495
 7671SOL    HW123912   5.494   0.061   2.552
 7671SOL    HW223913   5.657   0.064   2.548
 7672SOL     OW23914   0.103   4.729   3.038
 7672SOL    HW123915   0.191   4.762   3.072
 7672SOL    HW223916   0.030   4.758   3.100
 7673SOL     OW23917   1.541   6.028   2.376
 7673SOL    HW123918   1.543   6.128   2.371
 7673SOL    HW223919   1.511   6.000   2.467
 7674SOL     OW23920   4.288   0.688   3.993
 7674SOL    HW123921   4.277   0.787   3.986
 7674SOL    HW223922   4.215   0.643   3.941
 7675SOL     OW23923   3.750   6.600   3.539
 7675SOL    HW123924   3.742   6.679   3.478
 7675SOL    HW223925   3.664   6.548   3.538
 7676SOL     OW23926   2.747   2.020   5.657
 7676SOL    HW123927   2.844   2.033   5.676
 7676SOL    HW223928   2.692   2.074   5.721
 7677SOL     OW23929   0.235   4.607   1.193
 7677SOL    HW123930   0.270   4.695   1.161
 7677SOL    HW223931   0.175   4.568   1.123
 7678SOL     OW23932   1.935   2.318   5.389
 7678SOL    HW123933   1.942   2.229   5.435
 7678SOL    HW223934   1.959   2.391   5.452
 7679SOL     OW23935   1.940   5.517   5.368
 7679SOL    HW123936   1.918   5.421   5.384
 7679SOL    HW223937   2.038   5.527   5.355
 7680SOL     OW23938   1.812   0.410   5.886
 7680SOL    HW123939   1.896   0.366   5.916
 7680SOL    HW223940   1.733   0.361   5.922
 7681SOL     OW23941   2.698   1.689   6.469
 7681SOL    HW123942   2.663   1.604   6.509
 7681SOL    HW223943   2.723   1.752   6.542
 7682SOL     OW23944   3.836   1.639   2.640
 7682SOL    HW123945   3.912   1.683   2.591
 7682SOL    HW223946   3.786   1.708   2.692
 7683SOL     OW23947   0.741   1.574   4.568
 7683SOL    HW123948   0.755   1.477   4.544
 7683SOL    HW223949   0.711   1.581   4.663
 7684SOL     OW23950   4.337   2.131   1.674
 7684SOL    HW123951   4.336   2.032   1.687
 7684SOL    HW223952   4.315   2.176   1.761
 7685SOL     OW23953   3.841   1.756   6.950
 7685SOL    HW123954   3.839   1.724   0.024
 7685SOL    HW223955   3.936   1.777   6.925
 7686SOL     OW23956   5.504   6.948   3.802
 7686SOL    HW123957   5.507   7.015   3.876
 7686SOL    HW223958   5.587   6.892   3.804
 7687SOL     OW23959   4.796   5.280   4.682
 7687SOL    HW123960   4.829   5.360   4.632
 7687SOL    HW223961   4.722   5.307   4.743
 7688SOL     OW23962   6.934   5.629   5.684
 7688SOL    HW123963   6.970   5.595   5.771
 7688SOL    HW223964   7.008   5.636   5.617
 7689SOL     OW23965   4.628   0.190   1.878
 7689SOL    HW123966   4.716   0.145   1.862
 7689SOL    HW223967   4.641   0.289   1.877
 7690SOL     OW23968   5.879   4.915   0.123
 7690SOL    HW123969   5.854   4.883   0.214
 7690SOL    HW223970   5.830   5.001   0.104
 7691SOL     OW23971   4.677   4.659   2.096
 7691SOL    HW123972   4.723   4.578   2.130
 7691SOL    HW223973   4.710   4.681   2.004
 7692SOL     OW23974   0.916   5.790   1.536
 7692SOL    HW123975   1.007   5.751   1.550
 7692SOL    HW223976   0.924   5.888   1.515
 7693SOL     OW23977   2.898   0.828   1.344
 7693SOL    HW123978   2.798   0.826   1.349
 7693SOL    HW223979   2.931   0.736   1.323
 7694SOL     OW23980   5.561   2.764   4.319
 7694SOL    HW123981   5.530   2.676   4.284
 7694SOL    HW223982   5.501   2.793   4.395
 7695SOL     OW23983   5.212   0.957   1.673
 7695SOL    HW123984   5.304   0.992   1.656
 7695SOL    HW223985   5.217   0.875   1.730
 7696SOL     OW23986   0.428   1.655   6.021
 7696SOL    HW123987   0.363   1.619   5.954
 7696SOL    HW223988   0.424   1.755   6.021
 7697SOL     OW23989   3.296   0.555   2.534
 7697SOL    HW123990   3.322   0.471   2.485
 7697SOL    HW223991   3.197   0.559   2.543
 7698SOL     OW23992   6.615   2.349   6.071
 7698SOL    HW123993   6.709   2.371   6.042
 7698SOL    HW223994   6.611   2.350   6.171
 7699SOL     OW23995   2.472   5.216   6.865
 7699SOL    HW123996   2.524   5.298   6.841
 7699SOL    HW223997   2.513   5.136   6.821
 7700SOL     OW23998   4.337   6.385   2.969
 7700SOL    HW123999   4.355   6.421   2.877
 7700SOL    HW224000   4.301   6.292   2.962
 7701SOL     OW24001   6.866   1.427   6.089
 7701SOL    HW124002   6.805   1.401   6.164
 7701SOL    HW224003   6.957   1.444   6.126
 7702SOL     OW24004   4.079   6.826   5.456
 7702SOL    HW124005   4.097   6.785   5.545
 7702SOL    HW224006   4.002   6.889   5.462
 7703SOL     OW24007   6.187   0.358   5.310
 7703SOL    HW124008   6.152   0.406   5.391
 7703SOL    HW224009   6.251   0.287   5.339
 7704SOL     OW24010   6.241   1.866   4.107
 7704SOL    HW124011   6.208   1.900   4.195
 7704SOL    HW224012   6.243   1.766   4.109
 7705SOL     OW24013   2.540   4.830   0.733
 7705SOL    HW124014   2.476   4.768   0.686
 7705SOL    HW224015   2.614   4.776   0.773
 7706SOL     OW24016   3.297   3.144   3.089
 7706SOL    HW124017   3.327   3.238   3.103
 7706SOL    HW224018   3.222   3.143   3.023
 7707SOL     OW24019   0.104   5.004   6.136
 7707SOL    HW124020   0.029   4.953   6.178
 7707SOL    HW224021   0.171   5.028   6.206
 7708SOL     OW24022   1.174   6.742   3.897
 7708SOL    HW124023   1.192   6.786   3.809
 7708SOL    HW224024   1.248   6.678   3.917
 7709SOL     OW24025   6.449   5.275   1.205
 7709SOL    HW124026   6.366   5.219   1.205
 7709SOL    HW224027   6.472   5.301   1.111
 7710SOL     OW24028   2.297   2.379   0.851
 7710SOL    HW124029   2.234   2.444   0.807
 7710SOL    HW224030   2.253   2.339   0.932
 7711SOL     OW24031   6.850   6.153   5.993
 7711SOL    HW124032   6.913   6.106   6.055
 7711SOL    HW224033   6.891   6.159   5.902
 7712SOL     OW24034   6.351   4.671   6.561
 7712SOL    HW124035   6.268   4.623   6.533
 7712SOL    HW224036   6.412   4.681   6.483
 7713SOL     OW24037   1.782   4.066   0.514
 7713SOL    HW124038   1.734   4.152   0.498
 7713SOL    HW224039   1.733   4.014   0.584
 7714SOL     OW24040   0.214   6.879   5.266
 7714SOL    HW124041   0.174   6.923   5.346
 7714SOL    HW224042   0.177   6.920   5.183
 7715SOL     OW24043   2.720   1.914   6.303
 7715SOL    HW124044   2.668   1.872   6.377
 7715SOL    HW224045   2.783   1.847   6.264
 7716SOL     OW24046   6.903   4.864   6.224
 7716SOL    HW124047   6.819   4.891   6.271
 7716SOL    HW224048   6.891   4.772   6.186
 7717SOL     OW24049   1.565   1.689   5.285
 7717SOL    HW124050   1.633   1.701   5.358
 7717SOL    HW224051   1.474   1.683   5.326
 7718SOL     OW24052   0.644   3.719   3.023
 7718SOL    HW124053   0.604   3.717   2.931
 7718SOL    HW224054   0.650   3.814   3.055
 7719SOL     OW24055   1.615   4.042   4.397
 7719SOL    HW124056   1.664   3.957   4.379
 7719SOL    HW224057   1.664   4.094   4.468
 7720SOL     OW24058   6.213   2.256   6.254
 7720SOL    HW124059   6.238   2.196   6.330
 7720SOL    HW224060   6.160   2.333   6.288
 7721SOL     OW24061   0.982   0.675   2.476
 7721SOL    HW124062   1.020   0.667   2.568
 7721SOL    HW224063   0.976   0.771   2.450
 7722SOL     OW24064   1.763   5.382   4.197
 7722SOL    HW124065   1.745   5.480   4.201
 7722SOL    HW224066   1.854   5.366   4.158
 7723SOL     OW24067   4.905   3.382   6.227
 7723SOL    HW124068   4.844   3.305   6.245
 7723SOL    HW224069   4.964   3.397   6.306
 7724SOL     OW24070   3.377   4.057   0.566
 7724SOL    HW124071   3.373   4.078   0.468
 7724SOL    HW224072   3.428   4.129   0.613
 7725SOL     OW24073   6.015   2.448   2.537
 7725SOL    HW124074   5.932   2.499   2.561
 7725SOL    HW224075   6.068   2.430   2.620
 7726SOL     OW24076   1.160   3.170   6.042
 7726SOL    HW124077   1.089   3.175   5.972
 7726SOL    HW224078   1.152   3.250   6.102
 7727SOL     OW24079   6.129   2.789   1.731
 7727SOL    HW124080   6.080   2.815   1.814
 7727SOL    HW224081   6.156   2.693   1.737
 7728SOL     OW24082   2.159   2.723   5.662
 7728SOL    HW124083   2.138   2.818   5.637
 7728SOL    HW224084   2.257   2.714   5.681
 7729SOL     OW24085   6.406   1.892   1.877
 7729SOL    HW124086   6.382   1.867   1.971
 7729SOL    HW224087   6.355   1.836   1.813
 7730SOL     OW24088   5.756   4.743   5.091
 7730SOL    HW124089   5.801   4.806   5.027
 7730SOL    HW224090   5.671   4.709   5.050
 7731SOL     OW24091   5.903   0.046   0.778
 7731SOL    HW124092   5.992   0.088   0.795
 7731SOL    HW224093   5.851   0.104   0.715
 7732SOL     OW24094   4.083   0.541   0.151
 7732SOL    HW124095   3.989   0.536   0.115
 7732SOL    HW224096   4.082   0.590   0.238
 7733SOL     OW24097   5.981   5.695   2.415
 7733SOL    HW124098   5.952   5.686   2.510
 7733SOL    HW224099   5.958   5.787   2.381
 7734SOL     OW24100   2.469   4.361   5.157
 7734SOL    HW124101   2.479   4.405   5.069
 7734SOL    HW224102   2.531   4.403   5.223
 7735SOL     OW24103   6.367   5.692   7.010
 7735SOL    HW124104   6.436   5.704   6.938
 7735SOL    HW224105   6.284   5.741   6.986
 7736SOL     OW24106   2.623   2.991   0.488
 7736SOL    HW124107   2.601   2.894   0.474
 7736SOL    HW224108   2.583   3.023   0.574
 7737SOL     OW24109   3.522   4.881   1.632
 7737SOL    HW124110   3.562   4.822   1.702
 7737SOL    HW224111   3.426   4.900   1.656
 7738SOL     OW24112   2.048   5.916   6.734
 7738SOL    HW124113   2.094   5.847   6.679
 7738SOL    HW224114   1.954   5.928   6.703
 7739SOL     OW24115   1.289   2.074   2.165
 7739SOL    HW124116   1.323   2.068   2.071
 7739SOL    HW224117   1.366   2.069   2.229
 7740SOL     OW24118   1.939   1.358   2.403
 7740SOL    HW124119   1.878   1.423   2.448
 7740SOL    HW224120   2.004   1.407   2.345
 7741SOL     OW24121   1.522   4.321   5.077
 7741SOL    HW124122   1.557   4.346   4.987
 7741SOL    HW224123   1.598   4.320   5.143
 7742SOL     OW24124   3.645   1.271   3.815
 7742SOL    HW124125   3.558   1.225   3.833
 7742SOL    HW224126   3.654   1.287   3.717
 7743SOL     OW24127   4.580   1.125   6.777
 7743SOL    HW124128   4.589   1.182   6.858
 7743SOL    HW224129   4.527   1.173   6.708
 7744SOL     OW24130   0.496   6.009   3.991
 7744SOL    HW124131   0.430   5.938   3.967
 7744SOL    HW224132   0.586   5.984   3.956
 7745SOL     OW24133   2.477   6.245   0.435
 7745SOL    HW124134   2.438   6.337   0.438
 7745SOL    HW224135   2.413   6.179   0.474
 7746SOL     OW24136   1.369   6.290   0.773
 7746SOL    HW124137   1.336   6.349   0.699
 7746SOL    HW224138   1.310   6.209   0.780
 7747SOL     OW24139   0.175   6.243   0.865
 7747SOL    HW124140   0.121   6.323   0.892
 7747SOL    HW224141   0.113   6.170   0.837
 7748SOL     OW24142   3.324   3.156   5.137
 7748SOL    HW124143   3.271   3.119   5.060
 7748SOL    HW224144   3.421   3.141   5.120
 7749SOL     OW24145   3.306   4.105   3.245
 7749SOL    HW124146   3.226   4.045   3.239
 7749SOL    HW224147   3.322   4.148   3.156
 7750SOL     OW24148   5.362   5.610   5.544
 7750SOL    HW124149   5.285   5.593   5.605
 7750SOL    HW224150   5.331   5.606   5.449
 7751SOL     OW24151   0.322   1.494   3.717
 7751SOL    HW124152   0.252   1.566   3.711
 7751SOL    HW224153   0.333   1.467   3.812
 7752SOL     OW24154   5.606   5.544   5.613
 7752SOL    HW124155   5.511   5.568   5.593
 7752SOL    HW224156   5.624   5.559   5.710
 7753SOL     OW24157   2.620   0.758   4.706
 7753SOL    HW124158   2.687   0.742   4.779
 7753SOL    HW224159   2.654   0.829   4.645
 7754SOL     OW24160   5.319   0.575   1.348
 7754SOL    HW124161   5.271   0.627   1.277
 7754SOL    HW224162   5.410   0.614   1.362
 7755SOL     OW24163   0.735   0.037   5.642
 7755SOL    HW124164   0.684   0.013   5.559
 7755SOL    HW224165   0.826   7.014   5.639
 7756SOL     OW24166   2.332   5.708   2.567
 7756SOL    HW124167   2.412   5.757   2.600
 7756SOL    HW224168   2.342   5.689   2.469
 7757SOL     OW24169   4.580   5.885   4.844
 7757SOL    HW124170   4.566   5.812   4.778
 7757SOL    HW224171   4.633   5.850   4.922
 7758SOL     OW24172   1.713   2.445   6.748
 7758SOL    HW124173   1.807   2.416   6.725
 7758SOL    HW224174   1.706   2.544   6.741
 7759SOL     OW24175   2.337   1.169   4.918
 7759SOL    HW124176   2.434   1.194   4.922
 7759SOL    HW224177   2.288   1.232   4.859
 7760SOL     OW24178   5.908   3.236   2.177
 7760SOL    HW124179   5.957   3.163   2.224
 7760SOL    HW224180   5.809   3.222   2.187
 7761SOL     OW24181   3.107   0.138   5.937
 7761SOL    HW124182   3.147   0.099   6.020
 7761SOL    HW224183   3.048   0.070   5.894
 7762SOL     OW24184   4.180   1.116   5.748
 7762SOL    HW124185   4.082   1.132   5.735
 7762SOL    HW224186   4.230   1.146   5.667
 7763SOL     OW24187   1.261   1.930   1.391
 7763SOL    HW124188   1.271   1.846   1.338
 7763SOL    HW224189   1.207   1.996   1.340
 7764SOL     OW24190   3.802   2.956   2.417
 7764SOL    HW124191   3.880   3.001   2.461
 7764SOL    HW224192   3.738   2.923   2.487
 7765SOL     OW24193   6.485   3.467   4.458
 7765SOL    HW124194   6.534   3.551   4.481
 7765SOL    HW224195   6.513   3.394   4.520
 7766SOL     OW24196   5.284   2.136   6.797
 7766SOL    HW124197   5.265   2.205   6.727
 7766SOL    HW224198   5.383   2.128   6.809
 7767SOL     OW24199   3.796   6.322   3.596
 7767SOL    HW124200   3.804   6.421   3.592
 7767SOL    HW224201   3.705   6.297   3.630
 7768SOL     OW24202   3.980   4.810   2.836
 7768SOL    HW124203   4.011   4.819   2.742
 7768SOL    HW224204   4.058   4.792   2.896
 7769SOL     OW24205   5.087   1.583   2.069
 7769SOL    HW124206   5.077   1.498   2.018
 7769SOL    HW224207   5.001   1.604   2.116
 7770SOL     OW24208   2.324   4.296   2.204
 7770SOL    HW124209   2.244   4.235   2.205
 7770SOL    HW224210   2.360   4.301   2.110
 7771SOL     OW24211   2.726   2.448   5.193
 7771SOL    HW124212   2.811   2.464   5.243
 7771SOL    HW224213   2.649   2.451   5.257
 7772SOL     OW24214   4.715   1.338   3.789
 7772SOL    HW124215   4.694   1.242   3.808
 7772SOL    HW224216   4.725   1.387   3.876
 7773SOL     OW24217   3.272   4.989   5.622
 7773SOL    HW124218   3.187   4.937   5.628
 7773SOL    HW224219   3.345   4.939   5.669
 7774SOL     OW24220   5.641   1.763   6.086
 7774SOL    HW124221   5.712   1.696   6.064
 7774SOL    HW224222   5.683   1.854   6.092
 7775SOL     OW24223   3.829   6.834   2.946
 7775SOL    HW124224   3.815   6.801   2.853
 7775SOL    HW224225   3.801   6.764   3.012
 7776SOL     OW24226   3.315   3.036   5.965
 7776SOL    HW124227   3.389   3.032   6.033
 7776SOL    HW224228   3.305   2.947   5.921
 7777SOL     OW24229   2.430   1.555   5.654
 7777SOL    HW124230   2.335   1.536   5.629
 7777SOL    HW224231   2.492   1.503   5.595
 7778SOL     OW24232   4.950   6.961   6.960
 7778SOL    HW124233   4.862   6.996   6.928
 7778SOL    HW224234   4.939   6.918   0.029
 7779SOL     OW24235   3.805   3.010   0.415
 7779SOL    HW124236   3.754   2.963   0.488
 7779SOL    HW224237   3.814   2.948   0.336
 7780SOL     OW24238   1.815   5.354   4.938
 7780SOL    HW124239   1.793   5.347   4.841
 7780SOL    HW224240   1.744   5.405   4.986
 7781SOL     OW24241   0.957   3.822   6.175
 7781SOL    HW124242   0.903   3.744   6.144
 7781SOL    HW224243   1.053   3.798   6.177
 7782SOL     OW24244   1.975   3.550   5.476
 7782SOL    HW124245   1.913   3.552   5.398
 7782SOL    HW224246   1.987   3.456   5.508
 7783SOL     OW24247   2.885   6.714   6.195
 7783SOL    HW124248   2.932   6.802   6.208
 7783SOL    HW224249   2.880   6.694   6.097
 7784SOL     OW24250   1.877   2.358   0.337
 7784SOL    HW124251   1.865   2.400   0.247
 7784SOL    HW224252   1.788   2.348   0.381
 7785SOL     OW24253   1.695   6.841   3.851
 7785SOL    HW124254   1.682   6.846   3.950
 7785SOL    HW224255   1.790   6.817   3.832
 7786SOL     OW24256   3.323   5.353   6.127
 7786SOL    HW124257   3.234   5.380   6.165
 7786SOL    HW224258   3.325   5.254   6.116
 7787SOL     OW24259   2.096   2.079   5.504
 7787SOL    HW124260   2.115   2.123   5.592
 7787SOL    HW224261   2.161   2.113   5.436
 7788SOL     OW24262   1.407   0.752   1.748
 7788SOL    HW124263   1.325   0.726   1.698
 7788SOL    HW224264   1.427   0.849   1.733
 7789SOL     OW24265   2.734   0.029   1.027
 7789SOL    HW124266   2.738   6.984   0.952
 7789SOL    HW224267   2.822   0.030   1.075
 7790SOL     OW24268   6.643   4.932   2.833
 7790SOL    HW124269   6.599   4.936   2.923
 7790SOL    HW224270   6.724   4.874   2.839
 7791SOL     OW24271   2.570   6.520   3.839
 7791SOL    HW124272   2.582   6.460   3.918
 7791SOL    HW224273   2.658   6.529   3.791
 7792SOL     OW24274   1.078   5.331   5.913
 7792SOL    HW124275   1.011   5.404   5.898
 7792SOL    HW224276   1.164   5.354   5.868
 7793SOL     OW24277   2.062   0.938   5.985
 7793SOL    HW124278   2.104   0.972   6.070
 7793SOL    HW224279   2.042   1.015   5.925
 7794SOL     OW24280   5.082   5.160   4.282
 7794SOL    HW124281   5.058   5.138   4.376
 7794SOL    HW224282   5.107   5.076   4.233
 7795SOL     OW24283   2.309   4.105   5.400
 7795SOL    HW124284   2.329   4.198   5.369
 7795SOL    HW224285   2.318   4.042   5.323
 7796SOL     OW24286   3.516   4.155   3.996
 7796SOL    HW124287   3.599   4.135   3.943
 7796SOL    HW224288   3.537   4.148   4.093
 7797SOL     OW24289   0.694   5.689   2.951
 7797SOL    HW124290   0.650   5.731   3.030
 7797SOL    HW224291   0.701   5.757   2.877
 7798SOL     OW24292   1.710   4.771   6.493
 7798SOL    HW124293   1.646   4.755   6.418
 7798SOL    HW224294   1.793   4.717   6.478
 7799SOL     OW24295   6.763   6.231   1.959
 7799SOL    HW124296   6.772   6.323   1.920
 7799SOL    HW224297   6.738   6.167   1.887
 7800SOL     OW24298   1.018   4.069   1.483
 7800SOL    HW124299   1.113   4.040   1.470
 7800SOL    HW224300   0.966   4.053   1.400
 7801SOL     OW24301   2.622   1.750   1.888
 7801SOL    HW124302   2.680   1.701   1.953
 7801SOL    HW224303   2.629   1.848   1.904
 7802SOL     OW24304   5.903   2.847   1.048
 7802SOL    HW124305   5.845   2.838   0.968
 7802SOL    HW224306   5.850   2.884   1.124
 7803SOL     OW24307   4.347   3.531   5.592
 7803SOL    HW124308   4.360   3.496   5.685
 7803SOL    HW224309   4.412   3.487   5.530
 7804SOL     OW24310   6.171   1.085   3.887
 7804SOL    HW124311   6.099   1.122   3.946
 7804SOL    HW224312   6.134   1.069   3.796
 7805SOL     OW24313   5.234   1.443   1.396
 7805SOL    HW124314   5.288   1.488   1.325
 7805SOL    HW224315   5.243   1.494   1.482
 7806SOL     OW24316   6.257   2.829   5.836
 7806SOL    HW124317   6.164   2.862   5.856
 7806SOL    HW224318   6.306   2.814   5.921
 7807SOL     OW24319   0.228   4.645   6.100
 7807SOL    HW124320   0.177   4.568   6.063
 7807SOL    HW224321   0.252   4.709   6.027
 7808SOL     OW24322   0.266   3.429   4.605
 7808SOL    HW124323   0.180   3.408   4.557
 7808SOL    HW224324   0.246   3.488   4.684
 7809SOL     OW24325   2.420   6.011   5.050
 7809SOL    HW124326   2.483   5.934   5.067
 7809SOL    HW224327   2.348   6.010   5.119
 7810SOL     OW24328   3.615   0.495   5.873
 7810SOL    HW124329   3.675   0.414   5.877
 7810SOL    HW224330   3.643   0.552   5.795
 7811SOL     OW24331   6.780   3.993   4.097
 7811SOL    HW124332   6.686   3.986   4.065
 7811SOL    HW224333   6.826   4.070   4.052
 7812SOL     OW24334   1.144   2.217   3.508
 7812SOL    HW124335   1.050   2.182   3.508
 7812SOL    HW224336   1.194   2.180   3.430
 7813SOL     OW24337   4.790   2.507   6.147
 7813SOL    HW124338   4.723   2.491   6.074
 7813SOL    HW224339   4.870   2.448   6.132
 7814SOL     OW24340   6.647   2.595   3.485
 7814SOL    HW124341   6.596   2.637   3.560
 7814SOL    HW224342   6.739   2.572   3.516
 7815SOL     OW24343   4.916   1.261   6.642
 7815SOL    HW124344   4.836   1.305   6.681
 7815SOL    HW224345   4.989   1.258   6.710
 7816SOL     OW24346   1.891   2.846   6.215
 7816SOL    HW124347   1.851   2.930   6.178
 7816SOL    HW224348   1.828   2.806   6.281
 7817SOL     OW24349   6.544   3.562   3.907
 7817SOL    HW124350   6.575   3.600   3.994
 7817SOL    HW224351   6.618   3.509   3.866
 7818SOL     OW24352   4.525   0.739   2.475
 7818SOL    HW124353   4.438   0.789   2.475
 7818SOL    HW224354   4.597   0.800   2.508
 7819SOL     OW24355   0.237   3.009   1.679
 7819SOL    HW124356   0.191   3.097   1.689
 7819SOL    HW224357   0.308   3.001   1.748
 7820SOL     OW24358   1.907   2.124   4.508
 7820SOL    HW124359   2.006   2.115   4.520
 7820SOL    HW224360   1.888   2.164   4.419
 7821SOL     OW24361   4.763   5.417   1.381
 7821SOL    HW124362   4.822   5.389   1.306
 7821SOL    HW224363   4.815   5.471   1.447
 7822SOL     OW24364   0.195   0.974   5.020
 7822SOL    HW124365   0.142   0.907   5.073
 7822SOL    HW224366   0.140   1.005   4.942
 7823SOL     OW24367   2.182   3.947   4.721
 7823SOL    HW124368   2.239   3.956   4.639
 7823SOL    HW224369   2.226   3.993   4.798
 7824SOL     OW24370   6.573   2.387   5.032
 7824SOL    HW124371   6.662   2.343   5.019
 7824SOL    HW224372   6.501   2.318   5.025
 7825SOL     OW24373   2.296   2.766   0.283
 7825SOL    HW124374   2.255   2.857   0.291
 7825SOL    HW224375   2.228   2.697   0.308
 7826SOL     OW24376   6.312   1.121   0.901
 7826SOL    HW124377   6.394   1.098   0.849
 7826SOL    HW224378   6.278   1.210   0.871
 7827SOL     OW24379   1.288   5.652   1.266
 7827SOL    HW124380   1.235   5.567   1.269
 7827SOL    HW224381   1.385   5.632   1.274
 7828SOL     OW24382   6.207   4.514   0.046
 7828SOL    HW124383   6.231   4.425   0.009
 7828SOL    HW224384   6.194   4.579   6.991
 7829SOL     OW24385   2.881   2.904   1.384
 7829SOL    HW124386   2.781   2.909   1.392
 7829SOL    HW224387   2.920   2.871   1.470
 7830SOL     OW24388   3.280   5.427   5.618
 7830SOL    HW124389   3.334   5.510   5.604
 7830SOL    HW224390   3.283   5.401   5.715
 7831SOL     OW24391   2.182   0.381   2.143
 7831SOL    HW124392   2.149   0.420   2.058
 7831SOL    HW224393   2.104   0.356   2.201
 7832SOL     OW24394   6.027   0.275   4.499
 7832SOL    HW124395   5.955   0.297   4.565
 7832SOL    HW224396   5.992   0.208   4.433
 7833SOL     OW24397   1.705   1.120   4.703
 7833SOL    HW124398   1.799   1.126   4.670
 7833SOL    HW224399   1.695   1.038   4.759
 7834SOL     OW24400   0.214   1.925   3.286
 7834SOL    HW124401   0.212   1.922   3.186
 7834SOL    HW224402   0.221   1.832   3.322
 7835SOL     OW24403   3.920   1.865   4.527
 7835SOL    HW124404   3.896   1.813   4.445
 7835SOL    HW224405   3.927   1.962   4.505
 7836SOL     OW24406   3.323   4.234   5.658
 7836SOL    HW124407   3.234   4.279   5.651
 7836SOL    HW224408   3.396   4.301   5.642
 7837SOL     OW24409   5.234   5.975   0.295
 7837SOL    HW124410   5.164   6.015   0.354
 7837SOL    HW224411   5.259   6.039   0.224
 7838SOL     OW24412   4.729   5.788   1.331
 7838SOL    HW124413   4.744   5.883   1.302
 7838SOL    HW224414   4.635   5.778   1.363
 7839SOL     OW24415   5.727   4.063   4.913
 7839SOL    HW124416   5.687   3.988   4.860
 7839SOL    HW224417   5.658   4.101   4.975
 7840SOL     OW24418   0.431   3.861   4.662
 7840SOL    HW124419   0.497   3.854   4.587
 7840SOL    HW224420   0.475   3.832   4.747
 7841SOL     OW24421   4.466   1.962   6.654
 7841SOL    HW124422   4.493   1.971   6.750
 7841SOL    HW224423   4.367   1.948   6.648
 7842SOL     OW24424   2.170   1.493   2.333
 7842SOL    HW124425   2.193   1.399   2.357
 7842SOL    HW224426   2.239   1.529   2.270
 7843SOL     OW24427   0.418   6.807   4.331
 7843SOL    HW124428   0.437   6.711   4.308
 7843SOL    HW224429   0.477   6.867   4.277
 7844SOL     OW24430   3.669   0.339   2.345
 7844SOL    HW124431   3.635   0.378   2.431
 7844SOL    HW224432   3.696   0.244   2.360
 7845SOL     OW24433   5.311   2.019   1.527
 7845SOL    HW124434   5.269   2.096   1.576
 7845SOL    HW224435   5.247   1.943   1.523
 7846SOL     OW24436   1.335   2.261   0.507
 7846SOL    HW124437   1.242   2.276   0.472
 7846SOL    HW224438   1.399   2.319   0.456
 7847SOL     OW24439   6.168   1.780   3.863
 7847SOL    HW124440   6.212   1.822   3.943
 7847SOL    HW224441   6.078   1.822   3.849
 7848SOL     OW24442   3.067   4.169   0.851
 7848SOL    HW124443   3.076   4.222   0.767
 7848SOL    HW224444   3.006   4.216   0.914
 7849SOL     OW24445   5.768   3.668   5.128
 7849SOL    HW124446   5.789   3.665   5.031
 7849SOL    HW224447   5.744   3.576   5.160
 7850SOL     OW24448   0.236   2.016   3.996
 7850SOL    HW124449   0.272   2.072   3.922
 7850SOL    HW224450   0.185   1.939   3.959
 7851SOL     OW24451   0.663   2.826   1.728
 7851SOL    HW124452   0.643   2.731   1.704
 7851SOL    HW224453   0.718   2.828   1.811
 7852SOL     OW24454   2.919   0.649   0.219
 7852SOL    HW124455   2.878   0.730   0.177
 7852SOL    HW224456   3.008   0.672   0.256
 7853SOL     OW24457   4.593   2.985   1.329
 7853SOL    HW124458   4.535   2.909   1.358
 7853SOL    HW224459   4.675   2.989   1.387
 7854SOL     OW24460   3.907   2.573   6.267
 7854SOL    HW124461   3.904   2.483   6.310
 7854SOL    HW224462   3.870   2.567   6.174
 7855SOL     OW24463   4.603   5.642   4.634
 7855SOL    HW124464   4.599   5.542   4.632
 7855SOL    HW224465   4.551   5.679   4.556
 7856SOL     OW24466   1.016   4.954   5.433
 7856SOL    HW124467   1.015   5.037   5.377
 7856SOL    HW224468   1.017   4.874   5.373
 7857SOL     OW24469   4.801   3.762   0.359
 7857SOL    HW124470   4.747   3.713   0.290
 7857SOL    HW224471   4.783   3.724   0.449
 7858SOL     OW24472   6.701   6.183   4.704
 7858SOL    HW124473   6.691   6.156   4.800
 7858SOL    HW224474   6.618   6.227   4.673
 7859SOL     OW24475   4.588   3.303   6.765
 7859SOL    HW124476   4.584   3.218   6.714
 7859SOL    HW224477   4.678   3.345   6.752
 7860SOL     OW24478   3.808   1.427   4.077
 7860SOL    HW124479   3.824   1.346   4.020
 7860SOL    HW224480   3.792   1.506   4.018
 7861SOL     OW24481   2.707   4.971   2.113
 7861SOL    HW124482   2.615   4.948   2.146
 7861SOL    HW224483   2.711   4.957   2.014
 7862SOL     OW24484   2.738   5.869   1.913
 7862SOL    HW124485   2.645   5.833   1.922
 7862SOL    HW224486   2.784   5.823   1.837
 7863SOL     OW24487   0.561   4.691   3.498
 7863SOL    HW124488   0.502   4.671   3.577
 7863SOL    HW224489   0.505   4.722   3.421
 7864SOL     OW24490   1.493   5.395   6.294
 7864SOL    HW124491   1.530   5.488   6.291
 7864SOL    HW224492   1.563   5.332   6.327
 7865SOL     OW24493   6.330   5.886   4.133
 7865SOL    HW124494   6.402   5.946   4.168
 7865SOL    HW224495   6.368   5.795   4.115
 7866SOL     OW24496   2.343   0.650   5.289
 7866SOL    HW124497   2.284   0.723   5.253
 7866SOL    HW224498   2.438   0.680   5.285
 7867SOL     OW24499   5.705   6.753   3.361
 7867SOL    HW124500   5.751   6.666   3.380
 7867SOL    HW224501   5.738   6.822   3.426
 7868SOL     OW24502   3.647   5.808   0.688
 7868SOL    HW124503   3.730   5.855   0.720
 7868SOL    HW224504   3.672   5.739   0.620
 7869SOL     OW24505   5.056   4.950   5.630
 7869SOL    HW124506   5.033   4.864   5.585
 7869SOL    HW224507   4.972   5.000   5.651
 7870SOL     OW24508   4.894   0.046   4.652
 7870SOL    HW124509   4.979   0.056   4.600
 7870SOL    HW224510   4.881   0.127   4.709
 7871SOL     OW24511   5.916   1.766   1.836
 7871SOL    HW124512   5.936   1.669   1.827
 7871SOL    HW224513   5.817   1.781   1.833
 7872SOL     OW24514   1.739   4.738   2.476
 7872SOL    HW124515   1.775   4.645   2.477
 7872SOL    HW224516   1.778   4.788   2.399
 7873SOL     OW24517   6.378   1.162   0.416
 7873SOL    HW124518   6.470   1.123   0.416
 7873SOL    HW224519   6.378   1.248   0.364
 7874SOL     OW24520   5.255   2.666   1.238
 7874SOL    HW124521   5.345   2.642   1.201
 7874SOL    HW224522   5.207   2.725   1.173
 7875SOL     OW24523   3.979   3.535   0.463
 7875SOL    HW124524   4.035   3.506   0.541
 7875SOL    HW224525   3.917   3.462   0.437
 7876SOL     OW24526   1.104   0.007   3.468
 7876SOL    HW124527   1.005   7.011   3.468
 7876SOL    HW224528   1.123   0.094   3.514
 7877SOL     OW24529   6.741   2.271   2.907
 7877SOL    HW124530   6.733   2.181   2.866
 7877SOL    HW224531   6.837   2.287   2.933
 7878SOL     OW24532   4.743   4.132   3.269
 7878SOL    HW124533   4.713   4.190   3.193
 7878SOL    HW224534   4.706   4.169   3.355
 7879SOL     OW24535   3.273   4.965   2.806
 7879SOL    HW124536   3.290   4.909   2.725
 7879SOL    HW224537   3.226   5.049   2.779
 7880SOL     OW24538   2.265   3.801   0.828
 7880SOL    HW124539   2.271   3.706   0.797
 7880SOL    HW224540   2.301   3.861   0.757
 7881SOL     OW24541   4.731   4.342   4.447
 7881SOL    HW124542   4.709   4.264   4.506
 7881SOL    HW224543   4.829   4.362   4.453
 7882SOL     OW24544   2.533   3.758   1.515
 7882SOL    HW124545   2.565   3.800   1.599
 7882SOL    HW224546   2.435   3.737   1.523
 7883SOL     OW24547   1.098   0.223   5.782
 7883SOL    HW124548   1.100   0.277   5.698
 7883SOL    HW224549   1.034   0.265   5.847
 7884SOL     OW24550   0.712   4.639   4.095
 7884SOL    HW124551   0.702   4.729   4.137
 7884SOL    HW224552   0.726   4.649   3.996
 7885SOL     OW24553   6.492   5.685   0.816
 7885SOL    HW124554   6.572   5.734   0.849
 7885SOL    HW224555   6.492   5.592   0.852
 7886SOL     OW24556   4.032   5.749   0.421
 7886SOL    HW124557   4.061   5.711   0.508
 7886SOL    HW224558   4.062   5.844   0.414
 7887SOL     OW24559   3.365   2.376   0.053
 7887SOL    HW124560   3.283   2.433   0.059
 7887SOL    HW224561   3.391   2.345   0.144
 7888SOL     OW24562   5.007   0.757   3.705
 7888SOL    HW124563   5.018   0.741   3.803
 7888SOL    HW224564   5.066   0.832   3.677
 7889SOL     OW24565   1.537   5.596   1.347
 7889SOL    HW124566   1.557   5.501   1.370
 7889SOL    HW224567   1.548   5.653   1.428
 7890SOL     OW24568   2.090   3.931   2.550
 7890SOL    HW124569   2.141   3.889   2.475
 7890SOL    HW224570   1.994   3.940   2.524
 7891SOL     OW24571   2.274   5.089   2.630
 7891SOL    HW124572   2.310   5.000   2.659
 7891SOL    HW224573   2.237   5.082   2.538
 7892SOL     OW24574   2.210   2.373   4.899
 7892SOL    HW124575   2.158   2.389   4.815
 7892SOL    HW224576   2.150   2.333   4.968
 7893SOL     OW24577   5.985   6.905   1.681
 7893SOL    HW124578   6.002   7.002   1.702
 7893SOL    HW224579   6.068   6.852   1.698
 7894SOL     OW24580   2.389   6.060   2.251
 7894SOL    HW124581   2.379   6.146   2.301
 7894SOL    HW224582   2.299   6.021   2.234
 7895SOL     OW24583   6.292   1.531   5.552
 7895SOL    HW124584   6.235   1.517   5.471
 7895SOL    HW224585   6.240   1.505   5.634
 7896SOL     OW24586   4.547   3.850   5.964
 7896SOL    HW124587   4.533   3.875   5.868
 7896SOL    HW224588   4.642   3.868   5.990
 7897SOL     OW24589   2.691   3.892   6.187
 7897SOL    HW124590   2.699   3.857   6.094
 7897SOL    HW224591   2.605   3.860   6.228
 7898SOL     OW24592   4.753   2.226   3.667
 7898SOL    HW124593   4.681   2.250   3.602
 7898SOL    HW224594   4.746   2.285   3.747
 7899SOL     OW24595   6.768   1.836   1.324
 7899SOL    HW124596   6.742   1.916   1.270
 7899SOL    HW224597   6.847   1.791   1.281
 7900SOL     OW24598   1.220   5.078   1.016
 7900SOL    HW124599   1.285   5.001   1.016
 7900SOL    HW224600   1.127   5.043   1.003
 7901SOL     OW24601   5.366   0.226   5.933
 7901SOL    HW124602   5.398   0.178   5.852
 7901SOL    HW224603   5.400   0.179   6.015
 7902SOL     OW24604   4.998   4.913   1.384
 7902SOL    HW124605   4.916   4.882   1.431
 7902SOL    HW224606   5.020   5.006   1.413
 7903SOL     OW24607   6.014   2.146   0.397
 7903SOL    HW124608   6.023   2.116   0.492
 7903SOL    HW224609   5.949   2.222   0.393
 7904SOL     OW24610   6.436   0.941   2.845
 7904SOL    HW124611   6.357   0.909   2.793
 7904SOL    HW224612   6.519   0.897   2.810
 7905SOL     OW24613   4.852   1.586   0.619
 7905SOL    HW124614   4.779   1.633   0.570
 7905SOL    HW224615   4.891   1.646   0.689
 7906SOL     OW24616   6.758   6.126   6.735
 7906SOL    HW124617   6.789   6.032   6.748
 7906SOL    HW224618   6.703   6.155   6.814
 7907SOL     OW24619   6.251   2.699   4.516
 7907SOL    HW124620   6.157   2.678   4.491
 7907SOL    HW224621   6.291   2.621   4.565
 7908SOL     OW24622   1.623   0.881   4.053
 7908SOL    HW124623   1.650   0.799   4.003
 7908SOL    HW224624   1.678   0.958   4.021
 7909SOL     OW24625   5.003   3.727   4.898
 7909SOL    HW124626   4.936   3.683   4.958
 7909SOL    HW224627   4.992   3.692   4.805
 7910SOL     OW24628   3.670   2.936   5.342
 7910SOL    HW124629   3.732   2.988   5.283
 7910SOL    HW224630   3.662   2.843   5.309
 7911SOL     OW24631   0.229   4.936   0.425
 7911SOL    HW124632   0.260   4.867   0.491
 7911SOL    HW224633   0.140   4.972   0.455
 7912SOL     OW24634   6.784   5.417   6.791
 7912SOL    HW124635   6.856   5.347   6.791
 7912SOL    HW224636   6.723   5.402   6.869
 7913SOL     OW24637   0.416   5.665   6.527
 7913SOL    HW124638   0.319   5.651   6.542
 7913SOL    HW224639   0.467   5.583   6.558
 7914SOL     OW24640   6.914   5.327   0.130
 7914SOL    HW124641   6.889   5.309   0.225
 7914SOL    HW224642   6.871   5.259   0.071
 7915SOL     OW24643   5.179   2.485   2.470
 7915SOL    HW124644   5.220   2.565   2.426
 7915SOL    HW224645   5.079   2.488   2.460
 7916SOL     OW24646   5.406   3.809   5.447
 7916SOL    HW124647   5.482   3.862   5.485
 7916SOL    HW224648   5.389   3.839   5.353
 7917SOL     OW24649   3.809   2.906   3.561
 7917SOL    HW124650   3.779   2.888   3.655
 7917SOL    HW224651   3.736   2.879   3.497
 7918SOL     OW24652   6.020   1.704   1.388
 7918SOL    HW124653   5.920   1.707   1.392
 7918SOL    HW224654   6.058   1.740   1.472
 7919SOL     OW24655   6.851   4.129   3.296
 7919SOL    HW124656   6.794   4.050   3.275
 7919SOL    HW224657   6.814   4.210   3.251
 7920SOL     OW24658   6.772   5.075   1.105
 7920SOL    HW124659   6.781   5.152   1.168
 7920SOL    HW224660   6.676   5.065   1.078
 7921SOL     OW24661   3.230   6.333   0.728
 7921SOL    HW124662   3.155   6.364   0.671
 7921SOL    HW224663   3.217   6.365   0.822
 7922SOL     OW24664   6.801   5.913   6.974
 7922SOL    HW124665   6.805   5.824   6.929
 7922SOL    HW224666   6.706   5.947   6.974
 7923SOL     OW24667   1.842   1.181   2.989
 7923SOL    HW124668   1.793   1.230   3.061
 7923SOL    HW224669   1.894   1.106   3.030
 7924SOL     OW24670   3.461   6.335   3.393
 7924SOL    HW124671   3.540   6.294   3.347
 7924SOL    HW224672   3.491   6.413   3.448
 7925SOL     OW24673   6.926   1.734   6.458
 7925SOL    HW124674   6.852   1.776   6.510
 7925SOL    HW224675   6.974   1.668   6.515
 7926SOL     OW24676   3.590   0.473   3.762
 7926SOL    HW124677   3.493   0.450   3.758
 7926SOL    HW224678   3.606   0.540   3.834
 7927SOL     OW24679   3.821   5.526   4.539
 7927SOL    HW124680   3.844   5.456   4.471
 7927SOL    HW224681   3.890   5.598   4.537
 7928SOL     OW24682   1.188   4.277   3.428
 7928SOL    HW124683   1.258   4.209   3.448
 7928SOL    HW224684   1.182   4.343   3.502
 7929SOL     OW24685   4.135   3.665   4.771
 7929SOL    HW124686   4.157   3.567   4.775
 7929SOL    HW224687   4.196   3.710   4.706
 7930SOL     OW24688   5.115   5.948   3.583
 7930SOL    HW124689   5.016   5.946   3.580
 7930SOL    HW224690   5.151   5.988   3.499
 7931SOL     OW24691   1.867   2.407   0.047
 7931SOL    HW124692   1.807   2.327   0.045
 7931SOL    HW224693   1.961   2.378   0.059
 7932SOL     OW24694   2.619   0.011   6.873
 7932SOL    HW124695   2.563   0.006   6.955
 7932SOL    HW224696   2.633   0.107   6.847
 7933SOL     OW24697   0.393   6.869   0.043
 7933SOL    HW124698   0.471   6.807   0.048
 7933SOL    HW224699   0.393   6.930   0.123
 7934SOL     OW24700   2.551   3.386   0.069
 7934SOL    HW124701   2.574   3.469   0.019
 7934SOL    HW224702   2.524   3.409   0.163
 7935SOL     OW24703   5.177   5.677   0.030
 7935SOL    HW124704   5.207   5.582   0.035
 7935SOL    HW224705   5.144   5.706   0.120
 7936SOL     OW24706   3.249   5.747   3.211
 7936SOL    HW124707   3.291   5.744   3.302
 7936SOL    HW224708   3.270   5.662   3.162
 7937SOL     OW24709   5.096   0.156   4.481
 7937SOL    HW124710   5.058   0.236   4.435
 7937SOL    HW224711   5.147   0.101   4.415
 7938SOL     OW24712   4.920   4.889   4.981
 7938SOL    HW124713   5.010   4.910   5.020
 7938SOL    HW224714   4.851   4.896   5.052
 7939SOL     OW24715   0.702   1.700   6.177
 7939SOL    HW124716   0.664   1.720   6.267
 7939SOL    HW224717   0.638   1.730   6.107
 7940SOL     OW24718   2.563   5.171   1.822
 7940SOL    HW124719   2.613   5.100   1.773
 7940SOL    HW224720   2.469   5.141   1.837
 7941SOL     OW24721   6.717   0.130   1.072
 7941SOL    HW124722   6.631   0.111   1.120
 7941SOL    HW224723   6.770   0.196   1.124
 7942SOL     OW24724   0.173   6.626   2.686
 7942SOL    HW124725   0.169   6.599   2.782
 7942SOL    HW224726   0.266   6.655   2.663
 7943SOL     OW24727   5.925   2.168   1.077
 7943SOL    HW124728   5.992   2.098   1.055
 7943SOL    HW224729   5.904   2.222   0.996
 7944SOL     OW24730   0.173   3.495   0.969
 7944SOL    HW124731   0.123   3.478   1.054
 7944SOL    HW224732   0.158   3.418   0.906
 7945SOL     OW24733   5.356   0.116   2.625
 7945SOL    HW124734   5.380   0.173   2.703
 7945SOL    HW224735   5.259   0.126   2.605
 7946SOL     OW24736   1.399   2.080   6.075
 7946SOL    HW124737   1.418   2.159   6.017
 7946SOL    HW224738   1.362   2.005   6.020
 7947SOL     OW24739   3.745   2.876   6.753
 7947SOL    HW124740   3.805   2.893   6.675
 7947SOL    HW224741   3.704   2.785   6.744
 7948SOL     OW24742   6.670   6.527   0.978
 7948SOL    HW124743   6.694   6.623   0.992
 7948SOL    HW224744   6.709   6.496   0.891
 7949SOL     OW24745   5.172   4.917   4.193
 7949SOL    HW124746   5.253   4.858   4.201
 7949SOL    HW224747   5.107   4.876   4.128
 7950SOL     OW24748   4.604   4.915   3.644
 7950SOL    HW124749   4.651   4.827   3.642
 7950SOL    HW224750   4.540   4.921   3.567
 7951SOL     OW24751   2.897   3.345   1.093
 7951SOL    HW124752   2.810   3.296   1.095
 7951SOL    HW224753   2.909   3.388   1.004
 7952SOL     OW24754   0.039   3.203   6.807
 7952SOL    HW124755   0.091   3.205   6.722
 7952SOL    HW224756   6.962   3.214   6.786
 7953SOL     OW24757   2.280   2.674   3.113
 7953SOL    HW124758   2.193   2.642   3.076
 7953SOL    HW224759   2.338   2.596   3.135
 7954SOL     OW24760   4.493   5.226   4.423
 7954SOL    HW124761   4.542   5.230   4.336
 7954SOL    HW224762   4.479   5.319   4.457
 7955SOL     OW24763   0.049   6.855   6.446
 7955SOL    HW124764   0.078   6.767   6.409
 7955SOL    HW224765   0.094   6.872   6.533
 7956SOL     OW24766   0.547   5.790   3.179
 7956SOL    HW124767   0.627   5.804   3.236
 7956SOL    HW224768   0.483   5.865   3.192
 7957SOL     OW24769   1.866   2.014   0.603
 7957SOL    HW124770   1.928   1.936   0.615
 7957SOL    HW224771   1.773   1.981   0.588
 7958SOL     OW24772   3.345   5.759   4.554
 7958SOL    HW124773   3.295   5.834   4.511
 7958SOL    HW224774   3.436   5.751   4.513
 7959SOL     OW24775   4.336   5.174   0.437
 7959SOL    HW124776   4.377   5.138   0.353
 7959SOL    HW224777   4.265   5.241   0.413
 7960SOL     OW24778   3.235   1.794   1.514
 7960SOL    HW124779   3.238   1.696   1.536
 7960SOL    HW224780   3.267   1.846   1.593
 7961SOL     OW24781   2.256   6.216   6.352
 7961SOL    HW124782   2.329   6.278   6.381
 7961SOL    HW224783   2.199   6.261   6.283
 7962SOL     OW24784   2.321   0.496   1.166
 7962SOL    HW124785   2.227   0.510   1.136
 7962SOL    HW224786   2.353   0.407   1.134
 7963SOL     OW24787   6.988   1.644   4.830
 7963SOL    HW124788   6.900   1.597   4.828
 7963SOL    HW224789   0.028   1.604   4.762
 7964SOL     OW24790   5.727   5.218   3.812
 7964SOL    HW124791   5.741   5.128   3.771
 7964SOL    HW224792   5.737   5.211   3.911
 7965SOL     OW24793   4.331   2.946   7.000
 7965SOL    HW124794   4.333   2.937   0.079
 7965SOL    HW224795   4.249   2.995   6.972
 7966SOL     OW24796   1.007   3.672   4.745
 7966SOL    HW124797   1.029   3.766   4.770
 7966SOL    HW224798   0.949   3.631   4.816
 7967SOL     OW24799   2.810   6.466   3.683
 7967SOL    HW124800   2.884   6.453   3.618
 7967SOL    HW224801   2.774   6.377   3.711
 7968SOL     OW24802   2.157   2.644   3.359
 7968SOL    HW124803   2.186   2.657   3.264
 7968SOL    HW224804   2.236   2.617   3.414
 7969SOL     OW24805   3.974   6.776   2.097
 7969SOL    HW124806   3.919   6.857   2.112
 7969SOL    HW224807   3.916   6.694   2.102
 7970SOL     OW24808   0.042   3.564   2.668
 7970SOL    HW124809   7.001   3.494   2.633
 7970SOL    HW224810   0.012   3.654   2.636
 7971SOL     OW24811   3.113   1.271   1.850
 7971SOL    HW124812   3.184   1.315   1.795
 7971SOL    HW224813   3.026   1.316   1.835
 7972SOL     OW24814   6.685   4.375   1.267
 7972SOL    HW124815   6.753   4.367   1.195
 7972SOL    HW224816   6.711   4.448   1.331
 7973SOL     OW24817   5.229   3.494   3.692
 7973SOL    HW124818   5.197   3.578   3.648
 7973SOL    HW224819   5.203   3.415   3.636
 7974SOL     OW24820   6.235   0.601   4.608
 7974SOL    HW124821   6.244   0.629   4.513
 7974SOL    HW224822   6.281   0.514   4.622
 7975SOL     OW24823   5.258   0.547   4.030
 7975SOL    HW124824   5.183   0.611   4.010
 7975SOL    HW224825   5.239   0.459   3.986
 7976SOL     OW24826   0.705   6.554   5.441
 7976SOL    HW124827   0.617   6.507   5.452
 7976SOL    HW224828   0.692   6.652   5.455
 7977SOL     OW24829   4.279   5.849   2.690
 7977SOL    HW124830   4.202   5.859   2.753
 7977SOL    HW224831   4.301   5.937   2.650
 7978SOL     OW24832   5.545   4.065   6.136
 7978SOL    HW124833   5.514   4.045   6.229
 7978SOL    HW224834   5.469   4.098   6.081
 7979SOL     OW24835   3.192   0.201   5.068
 7979SOL    HW124836   3.093   0.195   5.053
 7979SOL    HW224837   3.211   0.261   5.145
 7980SOL     OW24838   3.897   5.634   0.209
 7980SOL    HW124839   3.842   5.558   0.242
 7980SOL    HW224840   3.945   5.676   0.286
 7981SOL     OW24841   0.894   5.177   1.230
 7981SOL    HW124842   0.943   5.090   1.233
 7981SOL    HW224843   0.880   5.211   1.323
 7982SOL     OW24844   0.074   2.487   0.987
 7982SOL    HW124845   0.166   2.460   0.958
 7982SOL    HW224846   0.071   2.585   1.004
 7983SOL     OW24847   5.220   2.020   3.414
 7983SOL    HW124848   5.147   2.039   3.348
 7983SOL    HW224849   5.269   1.937   3.387
 7984SOL     OW24850   1.201   1.794   2.348
 7984SOL    HW124851   1.145   1.860   2.300
 7984SOL    HW224852   1.176   1.701   2.320
 7985SOL     OW24853   1.645   0.360   2.716
 7985SOL    HW124854   1.734   0.315   2.719
 7985SOL    HW224855   1.625   0.389   2.622
 7986SOL     OW24856   3.727   1.402   0.056
 7986SOL    HW124857   3.700   1.324   0.113
 7986SOL    HW224858   3.769   1.368   6.993
 7987SOL     OW24859   0.379   3.559   6.002
 7987SOL    HW124860   0.461   3.513   6.034
 7987SOL    HW224861   0.301   3.531   6.058
 7988SOL     OW24862   2.636   2.489   4.425
 7988SOL    HW124863   2.662   2.441   4.341
 7988SOL    HW224864   2.663   2.434   4.504
 7989SOL     OW24865   3.583   2.693   5.235
 7989SOL    HW124866   3.632   2.618   5.280
 7989SOL    HW224867   3.488   2.694   5.265
 7990SOL     OW24868   1.074   3.873   3.027
 7990SOL    HW124869   1.093   3.859   3.125
 7990SOL    HW224870   1.022   3.958   3.015
 7991SOL     OW24871   0.113   2.621   6.016
 7991SOL    HW124872   0.179   2.556   5.980
 7991SOL    HW224873   0.041   2.637   5.948
 7992SOL     OW24874   0.974   5.847   0.982
 7992SOL    HW124875   0.998   5.817   1.074
 7992SOL    HW224876   1.008   5.780   0.916
 7993SOL     OW24877   2.264   5.752   6.579
 7993SOL    HW124878   2.309   5.664   6.567
 7993SOL    HW224879   2.318   5.824   6.535
 7994SOL     OW24880   4.539   0.545   3.652
 7994SOL    HW124881   4.633   0.577   3.661
 7994SOL    HW224882   4.526   0.464   3.710
 7995SOL     OW24883   3.441   5.240   3.808
 7995SOL    HW124884   3.460   5.162   3.868
 7995SOL    HW224885   3.352   5.228   3.766
 7996SOL     OW24886   3.508   6.345   4.398
 7996SOL    HW124887   3.514   6.366   4.300
 7996SOL    HW224888   3.535   6.425   4.451
 7997SOL     OW24889   6.362   1.801   1.224
 7997SOL    HW124890   6.406   1.725   1.272
 7997SOL    HW224891   6.414   1.825   1.143
 7998SOL     OW24892   4.419   5.113   0.182
 7998SOL    HW124893   4.362   5.193   0.161
 7998SOL    HW224894   4.503   5.116   0.128
 7999SOL     OW24895   1.299   7.015   5.849
 7999SOL    HW124896   1.269   0.090   5.860
 7999SOL    HW224897   1.368   6.994   5.919
 8000SOL     OW24898   5.706   0.408   6.199
 8000SOL    HW124899   5.718   0.309   6.214
 8000SOL    HW224900   5.648   0.445   6.272
 8001SOL     OW24901   2.963   6.151   1.848
 8001SOL    HW124902   2.924   6.115   1.932
 8001SOL    HW224903   3.016   6.079   1.802
 8002SOL     OW24904   0.267   3.308   6.026
 8002SOL    HW124905   0.281   3.367   5.947
 8002SOL    HW224906   0.175   3.269   6.022
 8003SOL     OW24907   2.605   4.621   2.526
 8003SOL    HW124908   2.663   4.666   2.459
 8003SOL    HW224909   2.544   4.557   2.481
 8004SOL     OW24910   1.748   4.755   3.354
 8004SOL    HW124911   1.783   4.697   3.281
 8004SOL    HW224912   1.648   4.744   3.360
 8005SOL     OW24913   3.547   1.190   2.254
 8005SOL    HW124914   3.491   1.117   2.214
 8005SOL    HW224915   3.489   1.254   2.303
 8006SOL     OW24916   2.615   5.703   0.556
 8006SOL    HW124917   2.539   5.761   0.526
 8006SOL    HW224918   2.688   5.761   0.593
 8007SOL     OW24919   0.781   0.679   4.243
 8007SOL    HW124920   0.759   0.691   4.146
 8007SOL    HW224921   0.828   0.592   4.255
 8008SOL     OW24922   5.079   6.644   6.133
 8008SOL    HW124923   5.087   6.559   6.184
 8008SOL    HW224924   5.006   6.635   6.064
 8009SOL     OW24925   6.525   0.462   2.783
 8009SOL    HW124926   6.471   0.392   2.736
 8009SOL    HW224927   6.494   0.553   2.754
 8010SOL     OW24928   2.041   1.414   0.003
 8010SOL    HW124929   1.974   1.401   6.951
 8010SOL    HW224930   2.101   1.335   0.008
 8011SOL     OW24931   1.870   2.450   1.540
 8011SOL    HW124932   1.956   2.408   1.568
 8011SOL    HW224933   1.855   2.533   1.595
 8012SOL     OW24934   1.803   6.179   1.290
 8012SOL    HW124935   1.768   6.254   1.346
 8012SOL    HW224936   1.732   6.109   1.280
 8013SOL     OW24937   0.161   5.420   4.694
 8013SOL    HW124938   0.069   5.395   4.724
 8013SOL    HW224939   0.163   5.427   4.594
 8014SOL     OW24940   1.288   6.081   5.854
 8014SOL    HW124941   1.273   6.004   5.915
 8014SOL    HW224942   1.204   6.100   5.803
 8015SOL     OW24943   3.045   1.860   0.612
 8015SOL    HW124944   3.137   1.897   0.603
 8015SOL    HW224945   2.979   1.935   0.617
 8016SOL     OW24946   4.672   0.110   0.267
 8016SOL    HW124947   4.735   0.041   0.305
 8016SOL    HW224948   4.723   0.172   0.207
 8017SOL     OW24949   0.238   4.440   5.741
 8017SOL    HW124950   0.316   4.394   5.700
 8017SOL    HW224951   0.227   4.530   5.700
 8018SOL     OW24952   4.881   1.997   5.872
 8018SOL    HW124953   4.855   2.070   5.808
 8018SOL    HW224954   4.822   2.002   5.953
 8019SOL     OW24955   1.841   3.837   6.986
 8019SOL    HW124956   1.848   3.892   0.049
 8019SOL    HW224957   1.885   3.885   6.910
 8020SOL     OW24958   5.636   6.252   6.794
 8020SOL    HW124959   5.555   6.211   6.752
 8020SOL    HW224960   5.688   6.302   6.725
 8021SOL     OW24961   0.742   1.400   1.809
 8021SOL    HW124962   0.708   1.408   1.903
 8021SOL    HW224963   0.842   1.394   1.811
 8022SOL     OW24964   4.134   1.283   2.869
 8022SOL    HW124965   4.098   1.362   2.919
 8022SOL    HW224966   4.182   1.222   2.933
 8023SOL     OW24967   6.111   6.226   3.132
 8023SOL    HW124968   6.073   6.296   3.191
 8023SOL    HW224969   6.089   6.246   3.036
 8024SOL     OW24970   3.259   5.510   6.571
 8024SOL    HW124971   3.203   5.581   6.614
 8024SOL    HW224972   3.281   5.537   6.477
 8025SOL     OW24973   3.680   6.116   5.697
 8025SOL    HW124974   3.707   6.035   5.749
 8025SOL    HW224975   3.716   6.198   5.741
 8026SOL     OW24976   0.161   3.917   6.868
 8026SOL    HW124977   0.115   3.877   6.946
 8026SOL    HW224978   0.180   4.014   6.886
 8027SOL     OW24979   4.507   2.224   5.199
 8027SOL    HW124980   4.494   2.143   5.255
 8027SOL    HW224981   4.596   2.220   5.154
 8028SOL     OW24982   3.623   4.831   5.441
 8028SOL    HW124983   3.556   4.758   5.439
 8028SOL    HW224984   3.712   4.794   5.469
 8029SOL     OW24985   5.394   3.856   6.405
 8029SOL    HW124986   5.480   3.892   6.441
 8029SOL    HW224987   5.388   3.758   6.427
 8030SOL     OW24988   5.701   4.071   5.732
 8030SOL    HW124989   5.607   4.040   5.742
 8030SOL    HW224990   5.701   4.165   5.697
 8031SOL     OW24991   5.037   5.622   2.401
 8031SOL    HW124992   5.091   5.673   2.335
 8031SOL    HW224993   5.090   5.544   2.434
 8032SOL     OW24994   6.110   3.978   5.160
 8032SOL    HW124995   6.165   3.896   5.145
 8032SOL    HW224996   6.059   4.000   5.076
 8033SOL     OW24997   5.509   2.896   0.076
 8033SOL    HW124998   5.468   2.813   0.039
 8033SOL    HW224999   5.589   2.921   0.021
 8034SOL     OW25000   6.405   1.115   5.243
 8034SOL    HW125001   6.431   1.211   5.251
 8034SOL    HW225002   6.423   1.068   5.330
 8035SOL     OW25003   5.339   0.143   4.964
 8035SOL    HW125004   5.420   0.202   4.977
 8035SOL    HW225005   5.291   0.171   4.881
 8036SOL     OW25006   1.266   3.804   1.396
 8036SOL    HW125007   1.345   3.742   1.398
 8036SOL    HW225008   1.276   3.874   1.466
 8037SOL     OW25009   1.455   3.505   1.592
 8037SOL    HW125010   1.494   3.413   1.592
 8037SOL    HW225011   1.518   3.568   1.638
 8038SOL     OW25012   5.353   1.893   2.990
 8038SOL    HW125013   5.373   1.809   2.941
 8038SOL    HW225014   5.296   1.953   2.933
 8039SOL     OW25015   1.875   6.951   3.651
 8039SOL    HW125016   1.840   0.012   3.697
 8039SOL    HW225017   1.946   6.909   3.707
 8040SOL     OW25018   0.507   5.322   1.100
 8040SOL    HW125019   0.601   5.293   1.082
 8040SOL    HW225020   0.450   5.241   1.120
 8041SOL     OW25021   3.932   1.742   1.533
 8041SOL    HW125022   3.838   1.710   1.542
 8041SOL    HW225023   3.934   1.823   1.475
 8042SOL     OW25024   3.302   2.802   1.967
 8042SOL    HW125025   3.278   2.869   2.037
 8042SOL    HW225026   3.320   2.713   2.010
 8043SOL     OW25027   2.962   0.152   0.597
 8043SOL    HW125028   3.053   0.111   0.590
 8043SOL    HW225029   2.932   0.182   0.507
 8044SOL     OW25030   3.084   2.933   1.191
 8044SOL    HW125031   3.011   2.977   1.242
 8044SOL    HW225032   3.057   2.841   1.164
 8045SOL     OW25033   5.529   1.046   2.115
 8045SOL    HW125034   5.456   1.024   2.050
 8045SOL    HW225035   5.618   1.035   2.070
 8046SOL     OW25036   6.106   4.795   5.740
 8046SOL    HW125037   6.070   4.805   5.647
 8046SOL    HW225038   6.076   4.707   5.777
 8047SOL     OW25039   3.217   4.886   4.778
 8047SOL    HW125040   3.265   4.868   4.863
 8047SOL    HW225041   3.121   4.858   4.787
 8048SOL     OW25042   5.315   1.373   5.397
 8048SOL    HW125043   5.259   1.438   5.448
 8048SOL    HW225044   5.309   1.283   5.440
 8049SOL     OW25045   0.767   6.252   1.458
 8049SOL    HW125046   0.738   6.303   1.377
 8049SOL    HW225047   0.778   6.315   1.535
 8050SOL     OW25048   0.933   3.835   1.651
 8050SOL    HW125049   0.922   3.768   1.578
 8050SOL    HW225050   1.000   3.904   1.622
 8051SOL     OW25051   5.390   6.857   3.547
 8051SOL    HW125052   5.391   6.837   3.645
 8051SOL    HW225053   5.320   6.926   3.527
 8052SOL     OW25054   3.449   1.681   2.218
 8052SOL    HW125055   3.454   1.591   2.174
 8052SOL    HW225056   3.370   1.731   2.183
 8053SOL     OW25057   3.997   3.862   2.818
 8053SOL    HW125058   4.017   3.804   2.897
 8053SOL    HW225059   4.074   3.922   2.800
 8054SOL     OW25060   4.532   6.713   4.467
 8054SOL    HW125061   4.477   6.678   4.543
 8054SOL    HW225062   4.552   6.809   4.482
 8055SOL     OW25063   0.818   0.526   5.799
 8055SOL    HW125064   0.806   0.462   5.723
 8055SOL    HW225065   0.914   0.528   5.827
 8056SOL     OW25066   4.391   1.271   3.327
 8056SOL    HW125067   4.474   1.220   3.304
 8056SOL    HW225068   4.310   1.217   3.303
 8057SOL     OW25069   3.023   0.545   2.566
 8057SOL    HW125070   3.001   0.496   2.651
 8057SOL    HW225071   2.985   0.637   2.569
 8058SOL     OW25072   3.214   6.826   2.691
 8058SOL    HW125073   3.221   6.925   2.682
 8058SOL    HW225074   3.153   6.804   2.767
 8059SOL     OW25075   3.792   2.172   4.707
 8059SOL    HW125076   3.879   2.123   4.710
 8059SOL    HW225077   3.773   2.202   4.614
 8060SOL     OW25078   1.061   1.237   4.575
 8060SOL    HW125079   0.970   1.277   4.575
 8060SOL    HW225080   1.129   1.309   4.557
 8061SOL     OW25081   6.818   5.902   2.061
 8061SOL    HW125082   6.916   5.922   2.056
 8061SOL    HW225083   6.786   5.918   2.154
 8062SOL     OW25084   2.275   4.494   4.098
 8062SOL    HW125085   2.287   4.436   4.178
 8062SOL    HW225086   2.177   4.499   4.075
 8063SOL     OW25087   2.161   3.550   6.921
 8063SOL    HW125088   2.179   3.637   6.967
 8063SOL    HW225089   2.246   3.514   6.883
 8064SOL     OW25090   0.496   4.686   0.328
 8064SOL    HW125091   0.424   4.716   0.265
 8064SOL    HW225092   0.456   4.625   0.397
 8065SOL     OW25093   4.341   6.875   4.182
 8065SOL    HW125094   4.388   6.955   4.144
 8065SOL    HW225095   4.367   6.794   4.130
 8066SOL     OW25096   1.673   0.812   6.677
 8066SOL    HW125097   1.631   0.864   6.751
 8066SOL    HW225098   1.656   0.857   6.590
 8067SOL     OW25099   4.089   3.463   1.589
 8067SOL    HW125100   4.068   3.525   1.513
 8067SOL    HW225101   4.033   3.381   1.581
 8068SOL     OW25102   5.924   6.415   5.315
 8068SOL    HW125103   5.936   6.473   5.234
 8068SOL    HW225104   5.906   6.473   5.394
 8069SOL     OW25105   2.869   5.910   1.456
 8069SOL    HW125106   2.861   5.992   1.513
 8069SOL    HW225107   2.944   5.922   1.391
 8070SOL     OW25108   2.745   5.009   1.116
 8070SOL    HW125109   2.831   4.995   1.068
 8070SOL    HW225110   2.726   5.107   1.124
 8071SOL     OW25111   4.086   6.897   4.971
 8071SOL    HW125112   4.173   6.848   4.969
 8071SOL    HW225113   4.052   6.910   4.878
 8072SOL     OW25114   3.791   1.624   0.433
 8072SOL    HW125115   3.871   1.565   0.428
 8072SOL    HW225116   3.710   1.569   0.454
 8073SOL     OW25117   5.046   0.289   6.734
 8073SOL    HW125118   5.057   0.192   6.717
 8073SOL    HW225119   4.953   0.308   6.765
 8074SOL     OW25120   2.975   2.849   0.523
 8074SOL    HW125121   2.879   2.864   0.550
 8074SOL    HW225122   3.002   2.756   0.547
 8075SOL     OW25123   6.706   1.443   1.405
 8075SOL    HW125124   6.767   1.496   1.345
 8075SOL    HW225125   6.613   1.446   1.370
 8076SOL     OW25126   4.923   2.355   5.704
 8076SOL    HW125127   4.860   2.343   5.781
 8076SOL    HW225128   4.881   2.413   5.635
 8077SOL     OW25129   0.445   6.746   1.429
 8077SOL    HW125130   0.525   6.728   1.372
 8077SOL    HW225131   0.462   6.828   1.485
 8078SOL     OW25132   6.266   1.995   0.367
 8078SOL    HW125133   6.180   2.039   0.390
 8078SOL    HW225134   6.294   1.935   0.442
 8079SOL     OW25135   6.015   2.093   3.069
 8079SOL    HW125136   6.115   2.094   3.060
 8079SOL    HW225137   5.981   2.187   3.074
 8080SOL     OW25138   2.128   3.751   0.518
 8080SOL    HW125139   2.077   3.833   0.545
 8080SOL    HW225140   2.206   3.777   0.462
 8081SOL     OW25141   5.549   0.934   5.402
 8081SOL    HW125142   5.488   0.906   5.476
 8081SOL    HW225143   5.547   0.865   5.330
 8082SOL     OW25144   5.708   2.335   2.950
 8082SOL    HW125145   5.704   2.256   3.011
 8082SOL    HW225146   5.734   2.305   2.858
 8083SOL     OW25147   4.954   3.302   2.055
 8083SOL    HW125148   4.919   3.274   2.144
 8083SOL    HW225149   4.991   3.222   2.007
 8084SOL     OW25150   6.197   6.143   1.227
 8084SOL    HW125151   6.209   6.151   1.326
 8084SOL    HW225152   6.278   6.179   1.180
 8085SOL     OW25153   6.115   0.179   1.414
 8085SOL    HW125154   6.042   0.112   1.406
 8085SOL    HW225155   6.115   0.219   1.505
 8086SOL     OW25156   3.847   0.155   3.998
 8086SOL    HW125157   3.779   0.130   3.929
 8086SOL    HW225158   3.938   0.150   3.958
 8087SOL     OW25159   2.523   1.916   1.069
 8087SOL    HW125160   2.561   1.939   1.158
 8087SOL    HW225161   2.455   1.984   1.043
 8088SOL     OW25162   6.336   1.711   1.650
 8088SOL    HW125163   6.394   1.747   1.576
 8088SOL    HW225164   6.381   1.633   1.692
 8089SOL     OW25165   5.316   2.298   6.573
 8089SOL    HW125166   5.237   2.252   6.533
 8089SOL    HW225167   5.320   2.392   6.539
 8090SOL     OW25168   4.880   1.866   6.670
 8090SOL    HW125169   4.964   1.816   6.653
 8090SOL    HW225170   4.801   1.808   6.648
 8091SOL     OW25171   3.512   4.377   6.911
 8091SOL    HW125172   3.485   4.353   6.818
 8091SOL    HW225173   3.567   4.303   6.950
 8092SOL     OW25174   1.570   1.326   4.821
 8092SOL    HW125175   1.623   1.405   4.853
 8092SOL    HW225176   1.631   1.247   4.809
 8093SOL     OW25177   6.321   5.999   1.559
 8093SOL    HW125178   6.302   6.092   1.527
 8093SOL    HW225179   6.419   5.989   1.576
 8094SOL     OW25180   2.203   4.346   5.761
 8094SOL    HW125181   2.112   4.310   5.782
 8094SOL    HW225182   2.208   4.442   5.788
 8095SOL     OW25183   6.290   3.716   3.893
 8095SOL    HW125184   6.303   3.734   3.991
 8095SOL    HW225185   6.337   3.632   3.868
 8096SOL     OW25186   2.690   5.818   3.387
 8096SOL    HW125187   2.741   5.755   3.446
 8096SOL    HW225188   2.603   5.776   3.360
 8097SOL     OW25189   4.996   0.490   3.602
 8097SOL    HW125190   4.955   0.562   3.546
 8097SOL    HW225191   4.939   0.475   3.683
 8098SOL     OW25192   2.091   6.494   4.295
 8098SOL    HW125193   2.187   6.502   4.270
 8098SOL    HW225194   2.048   6.423   4.239
 8099SOL     OW25195   6.463   0.795   3.981
 8099SOL    HW125196   6.481   0.756   3.891
 8099SOL    HW225197   6.510   0.883   3.990
 8100SOL     OW25198   0.453   6.602   0.290
 8100SOL    HW125199   0.458   6.503   0.299
 8100SOL    HW225200   0.532   6.635   0.239
 8101SOL     OW25201   1.655   6.960   4.657
 8101SOL    HW125202   1.611   6.889   4.712
 8101SOL    HW225203   1.645   0.028   4.702
 8102SOL     OW25204   0.784   5.374   6.411
 8102SOL    HW125205   0.757   5.457   6.362
 8102SOL    HW225206   0.797   5.395   6.508
 8103SOL     OW25207   3.988   0.744   1.600
 8103SOL    HW125208   3.967   0.801   1.680
 8103SOL    HW225209   4.032   0.660   1.629
 8104SOL     OW25210   4.091   7.018   6.052
 8104SOL    HW125211   4.055   0.090   6.052
 8104SOL    HW225212   4.191   7.020   6.049
 8105SOL     OW25213   2.676   2.471   3.585
 8105SOL    HW125214   2.741   2.435   3.653
 8105SOL    HW225215   2.666   2.405   3.511
 8106SOL     OW25216   1.483   5.066   3.776
 8106SOL    HW125217   1.400   5.102   3.819
 8106SOL    HW225218   1.475   5.074   3.677
 8107SOL     OW25219   2.120   6.264   5.894
 8107SOL    HW125220   2.084   6.175   5.866
 8107SOL    HW225221   2.193   6.292   5.830
 8108SOL     OW25222   6.892   2.969   4.799
 8108SOL    HW125223   6.804   3.010   4.823
 8108SOL    HW225224   6.880   2.871   4.787
 8109SOL     OW25225   1.812   4.182   4.951
 8109SOL    HW125226   1.771   4.106   4.900
 8109SOL    HW225227   1.901   4.153   4.987
 8110SOL     OW25228   2.958   6.515   0.538
 8110SOL    HW125229   2.876   6.458   0.530
 8110SOL    HW225230   3.032   6.472   0.487
 8111SOL     OW25231   2.929   6.431   5.202
 8111SOL    HW125232   3.012   6.485   5.190
 8111SOL    HW225233   2.952   6.343   5.242
 8112SOL     OW25234   2.840   0.662   5.579
 8112SOL    HW125235   2.813   0.566   5.574
 8112SOL    HW225236   2.912   0.674   5.647
 8113SOL     OW25237   2.920   2.454   0.504
 8113SOL    HW125238   3.001   2.498   0.543
 8113SOL    HW225239   2.841   2.472   0.562
 8114SOL     OW25240   2.242   2.895   2.193
 8114SOL    HW125241   2.202   2.931   2.277
 8114SOL    HW225242   2.331   2.936   2.177
 8115SOL     OW25243   4.084   1.103   1.311
 8115SOL    HW125244   4.082   1.129   1.214
 8115SOL    HW225245   4.055   1.181   1.366
 8116SOL     OW25246   5.628   0.032   5.067
 8116SOL    HW125247   5.574   0.111   5.095
 8116SOL    HW225248   5.720   0.062   5.042
 8117SOL     OW25249   1.780   1.905   3.991
 8117SOL    HW125250   1.792   1.989   3.937
 8117SOL    HW225251   1.869   1.876   4.027
 8118SOL     OW25252   0.830   3.904   5.876
 8118SOL    HW125253   0.904   3.948   5.927
 8118SOL    HW225254   0.764   3.973   5.845
 8119SOL     OW25255   0.348   5.621   4.352
 8119SOL    HW125256   0.329   5.527   4.325
 8119SOL    HW225257   0.437   5.649   4.315
 8120SOL     OW25258   4.182   4.434   6.887
 8120SOL    HW125259   4.134   4.346   6.885
 8120SOL    HW225260   4.235   4.440   6.972
 8121SOL     OW25261   0.246   6.582   3.316
 8121SOL    HW125262   0.155   6.541   3.315
 8121SOL    HW225263   0.308   6.524   3.368
 8122SOL     OW25264   0.673   4.659   2.145
 8122SOL    HW125265   0.738   4.626   2.214
 8122SOL    HW225266   0.580   4.641   2.177
 8123SOL     OW25267   0.755   0.367   6.401
 8123SOL    HW125268   0.702   0.353   6.318
 8123SOL    HW225269   0.756   0.282   6.455
 8124SOL     OW25270   1.431   6.341   1.031
 8124SOL    HW125271   1.413   6.252   1.072
 8124SOL    HW225272   1.388   6.345   0.940
 8125SOL     OW25273   5.756   4.930   2.965
 8125SOL    HW125274   5.665   4.891   2.979
 8125SOL    HW225275   5.825   4.857   2.974
 8126SOL     OW25276   6.361   4.895   2.727
 8126SOL    HW125277   6.460   4.882   2.730
 8126SOL    HW225278   6.339   4.988   2.758
 8127SOL     OW25279   2.333   4.908   0.425
 8127SOL    HW125280   2.325   4.997   0.471
 8127SOL    HW225281   2.313   4.835   0.491
 8128SOL     OW25282   2.976   2.639   6.549
 8128SOL    HW125283   2.964   2.598   6.640
 8128SOL    HW225284   2.888   2.644   6.502
 8129SOL     OW25285   5.481   0.824   6.335
 8129SOL    HW125286   5.435   0.791   6.417
 8129SOL    HW225287   5.508   0.919   6.348
 8130SOL     OW25288   1.223   5.596   6.006
 8130SOL    HW125289   1.266   5.507   6.022
 8130SOL    HW225290   1.127   5.591   6.032
 8131SOL     OW25291   3.319   1.045   0.195
 8131SOL    HW125292   3.252   1.108   0.234
 8131SOL    HW225293   3.405   1.094   0.178
 8132SOL     OW25294   5.659   5.755   5.382
 8132SOL    HW125295   5.589   5.709   5.438
 8132SOL    HW225296   5.725   5.799   5.443
 8133SOL     OW25297   3.407   4.954   3.262
 8133SOL    HW125298   3.408   5.034   3.323
 8133SOL    HW225299   3.500   4.924   3.245
 8134SOL     OW25300   1.960   1.950   4.275
 8134SOL    HW125301   1.941   1.895   4.356
 8134SOL    HW225302   1.948   1.892   4.193
 8135SOL     OW25303   3.199   4.858   2.232
 8135SOL    HW125304   3.202   4.826   2.138
 8135SOL    HW225305   3.112   4.905   2.248
 8136SOL     OW25306   4.160   5.031   2.423
 8136SOL    HW125307   4.129   5.049   2.330
 8136SOL    HW225308   4.206   5.112   2.459
 8137SOL     OW25309   1.965   2.999   4.370
 8137SOL    HW125310   1.990   2.921   4.427
 8137SOL    HW225311   1.960   2.969   4.274
 8138SOL     OW25312   6.013   1.912   2.036
 8138SOL    HW125313   5.968   1.861   1.963
 8138SOL    HW225314   5.953   1.917   2.115
 8139SOL     OW25315   0.939   3.181   3.628
 8139SOL    HW125316   1.022   3.234   3.609
 8139SOL    HW225317   0.913   3.130   3.546
 8140SOL     OW25318   4.185   6.877   6.723
 8140SOL    HW125319   4.143   6.901   6.635
 8140SOL    HW225320   4.248   6.948   6.750
 8141SOL     OW25321   5.017   0.926   5.599
 8141SOL    HW125322   5.032   0.911   5.697
 8141SOL    HW225323   5.017   0.838   5.552
 8142SOL     OW25324   2.598   5.190   0.254
 8142SOL    HW125325   2.510   5.192   0.207
 8142SOL    HW225326   2.598   5.254   0.330
 8143SOL     OW25327   5.533   4.967   1.254
 8143SOL    HW125328   5.469   5.040   1.229
 8143SOL    HW225329   5.561   4.918   1.171
 8144SOL     OW25330   0.194   5.891   5.678
 8144SOL    HW125331   0.144   5.817   5.635
 8144SOL    HW225332   0.286   5.896   5.640
 8145SOL     OW25333   4.866   5.682   0.405
 8145SOL    HW125334   4.775   5.715   0.430
 8145SOL    HW225335   4.901   5.738   0.330
 8146SOL     OW25336   6.182   0.563   4.884
 8146SOL    HW125337   6.236   0.647   4.894
 8146SOL    HW225338   6.162   0.549   4.787
 8147SOL     OW25339   0.408   0.918   6.758
 8147SOL    HW125340   0.329   0.860   6.737
 8147SOL    HW225341   0.468   0.871   6.823
 8148SOL     OW25342   4.282   3.944   0.015
 8148SOL    HW125343   4.333   3.873   6.988
 8148SOL    HW225344   4.330   3.969   0.099
 8149SOL     OW25345   1.543   6.759   4.323
 8149SOL    HW125346   1.540   6.719   4.415
 8149SOL    HW225347   1.452   6.789   4.297
 8150SOL     OW25348   0.906   3.283   0.989
 8150SOL    HW125349   0.989   3.228   0.998
 8150SOL    HW225350   0.890   3.305   0.892
 8151SOL     OW25351   6.055   5.296   3.610
 8151SOL    HW125352   6.110   5.294   3.527
 8151SOL    HW225353   5.960   5.319   3.587
 8152SOL     OW25354   4.412   2.004   2.924
 8152SOL    HW125355   4.315   1.980   2.917
 8152SOL    HW225356   4.465   1.921   2.939
 8153SOL     OW25357   1.099   0.653   3.402
 8153SOL    HW125358   1.184   0.601   3.414
 8153SOL    HW225359   1.078   0.661   3.305
 8154SOL     OW25360   3.156   1.870   3.400
 8154SOL    HW125361   3.207   1.839   3.320
 8154SOL    HW225362   3.194   1.827   3.482
 8155SOL     OW25363   1.545   4.283   2.293
 8155SOL    HW125364   1.536   4.375   2.255
 8155SOL    HW225365   1.620   4.236   2.247
 8156SOL     OW25366   5.826   5.662   1.053
 8156SOL    HW125367   5.904   5.603   1.031
 8156SOL    HW225368   5.760   5.659   0.978
 8157SOL     OW25369   5.918   3.461   5.994
 8157SOL    HW125370   5.883   3.515   5.917
 8157SOL    HW225371   5.877   3.370   5.991
 8158SOL     OW25372   5.641   5.058   6.007
 8158SOL    HW125373   5.631   5.000   5.926
 8158SOL    HW225374   5.558   5.051   6.063
 8159SOL     OW25375   3.913   6.715   5.696
 8159SOL    HW125376   3.999   6.767   5.698
 8159SOL    HW225377   3.873   6.713   5.788
 8160SOL     OW25378   4.651   1.303   3.487
 8160SOL    HW125379   4.662   1.399   3.461
 8160SOL    HW225380   4.640   1.296   3.586
 8161SOL     OW25381   5.326   3.417   0.264
 8161SOL    HW125382   5.386   3.489   0.229
 8161SOL    HW225383   5.361   3.385   0.352
 8162SOL     OW25384   0.173   5.025   6.940
 8162SOL    HW125385   0.111   4.946   6.943
 8162SOL    HW225386   0.173   5.071   0.008
 8163SOL     OW25387   4.397   4.872   5.641
 8163SOL    HW125388   4.320   4.866   5.577
 8163SOL    HW225389   4.368   4.921   5.723
 8164SOL     OW25390   4.204   1.210   6.902
 8164SOL    HW125391   4.112   1.216   6.941
 8164SOL    HW225392   4.272   1.222   6.974
 8165SOL     OW25393   6.472   3.303   6.752
 8165SOL    HW125394   6.513   3.315   6.662
 8165SOL    HW225395   6.445   3.392   6.789
 8166SOL     OW25396   2.095   1.895   3.811
 8166SOL    HW125397   2.058   1.823   3.753
 8166SOL    HW225398   2.031   1.912   3.887
 8167SOL     OW25399   6.845   1.606   3.844
 8167SOL    HW125400   6.759   1.646   3.811
 8167SOL    HW225401   6.876   1.537   3.779
 8168SOL     OW25402   2.139   0.388   1.413
 8168SOL    HW125403   2.212   0.395   1.345
 8168SOL    HW225404   2.098   0.297   1.409
 8169SOL     OW25405   4.082   1.908   0.451
 8169SOL    HW125406   4.143   1.958   0.512
 8169SOL    HW225407   4.068   1.815   0.487
 8170SOL     OW25408   6.978   4.096   2.183
 8170SOL    HW125409   6.965   4.115   2.280
 8170SOL    HW225410   6.925   4.014   2.158
 8171SOL     OW25411   1.697   0.928   0.031
 8171SOL    HW125412   1.712   0.830   0.020
 8171SOL    HW225413   1.640   0.962   6.977
 8172SOL     OW25414   0.271   1.969   2.179
 8172SOL    HW125415   0.347   1.904   2.181
 8172SOL    HW225416   0.303   2.058   2.150
 8173SOL     OW25417   6.222   1.816   2.634
 8173SOL    HW125418   6.154   1.787   2.700
 8173SOL    HW225419   6.196   1.785   2.543
 8174SOL     OW25420   1.587   6.306   2.401
 8174SOL    HW125421   1.545   6.394   2.380
 8174SOL    HW225422   1.674   6.298   2.351
 8175SOL     OW25423   0.868   2.666   3.980
 8175SOL    HW125424   0.793   2.615   4.021
 8175SOL    HW225425   0.842   2.763   3.972
 8176SOL     OW25426   1.813   4.265   1.553
 8176SOL    HW125427   1.882   4.240   1.485
 8176SOL    HW225428   1.848   4.339   1.611
 8177SOL     OW25429   3.683   0.676   2.936
 8177SOL    HW125430   3.626   0.753   2.962
 8177SOL    HW225431   3.771   0.682   2.983
 8178SOL     OW25432   3.198   6.043   0.684
 8178SOL    HW125433   3.216   6.137   0.712
 8178SOL    HW225434   3.283   5.999   0.654
 8179SOL     OW25435   5.826   0.905   4.229
 8179SOL    HW125436   5.731   0.875   4.228
 8179SOL    HW225437   5.848   0.948   4.142
 8180SOL     OW25438   5.842   6.898   6.641
 8180SOL    HW125439   5.841   6.980   6.699
 8180SOL    HW225440   5.913   6.836   6.672
 8181SOL     OW25441   0.791   0.813   1.464
 8181SOL    HW125442   0.785   0.718   1.434
 8181SOL    HW225443   0.715   0.834   1.526
 8182SOL     OW25444   3.855   3.519   4.731
 8182SOL    HW125445   3.950   3.529   4.761
 8182SOL    HW225446   3.800   3.595   4.766
 8183SOL     OW25447   6.742   1.265   5.185
 8183SOL    HW125448   6.676   1.201   5.146
 8183SOL    HW225449   6.816   1.213   5.229
 8184SOL     OW25450   1.036   6.984   0.249
 8184SOL    HW125451   0.986   0.024   0.187
 8184SOL    HW225452   1.132   6.979   0.222
 8185SOL     OW25453   1.852   0.472   1.170
 8185SOL    HW125454   1.827   0.518   1.255
 8185SOL    HW225455   1.778   0.483   1.104
 8186SOL     OW25456   1.847   4.352   6.266
 8186SOL    HW125457   1.750   4.331   6.280
 8186SOL    HW225458   1.890   4.369   6.355
 8187SOL     OW25459   2.347   1.789   5.243
 8187SOL    HW125460   2.317   1.867   5.189
 8187SOL    HW225461   2.447   1.787   5.247
 8188SOL     OW25462   4.163   1.618   3.362
 8188SOL    HW125463   4.234   1.620   3.433
 8188SOL    HW225464   4.202   1.580   3.278
 8189SOL     OW25465   5.454   5.095   3.361
 8189SOL    HW125466   5.366   5.134   3.335
 8189SOL    HW225467   5.455   5.077   3.459
 8190SOL     OW25468   5.191   3.818   3.227
 8190SOL    HW125469   5.226   3.762   3.302
 8190SOL    HW225470   5.226   3.783   3.140
 8191SOL     OW25471   4.436   5.096   2.225
 8191SOL    HW125472   4.381   5.013   2.232
 8191SOL    HW225473   4.531   5.072   2.204
 8192SOL     OW25474   1.841   5.392   2.217
 8192SOL    HW125475   1.793   5.306   2.201
 8192SOL    HW225476   1.806   5.434   2.301
 8193SOL     OW25477   6.874   5.699   4.843
 8193SOL    HW125478   6.972   5.709   4.862
 8193SOL    HW225479   6.842   5.775   4.786
 8194SOL     OW25480   4.200   0.212   0.636
 8194SOL    HW125481   4.255   0.178   0.560
 8194SOL    HW225482   4.239   0.181   0.722
 8195SOL     OW25483   6.071   6.652   4.258
 8195SOL    HW125484   6.001   6.723   4.265
 8195SOL    HW225485   6.156   6.694   4.226
 8196SOL     OW25486   4.718   0.551   6.725
 8196SOL    HW125487   4.623   0.576   6.740
 8196SOL    HW225488   4.765   0.624   6.675
 8197SOL     OW25489   4.520   1.733   1.637
 8197SOL    HW125490   4.584   1.776   1.573
 8197SOL    HW225491   4.431   1.721   1.592
 8198SOL     OW25492   2.653   0.436   2.089
 8198SOL    HW125493   2.674   0.441   2.186
 8198SOL    HW225494   2.584   0.504   2.065
 8199SOL     OW25495   4.531   3.057   6.010
 8199SOL    HW125496   4.606   3.093   6.064
 8199SOL    HW225497   4.535   2.957   6.009
 8200SOL     OW25498   5.884   4.261   1.992
 8200SOL    HW125499   5.868   4.169   1.956
 8200SOL    HW225500   5.891   4.325   1.915
 8201SOL     OW25501   0.193   1.280   5.330
 8201SOL    HW125502   0.171   1.326   5.244
 8201SOL    HW225503   0.252   1.202   5.313
 8202SOL     OW25504   0.067   6.297   2.763
 8202SOL    HW125505   0.059   6.333   2.670
 8202SOL    HW225506   0.159   6.315   2.799
 8203SOL     OW25507   2.031   2.124   0.400
 8203SOL    HW125508   1.977   2.048   0.438
 8203SOL    HW225509   1.977   2.208   0.405
 8204SOL     OW25510   4.063   3.650   0.751
 8204SOL    HW125511   4.161   3.640   0.768
 8204SOL    HW225512   4.048   3.708   0.671
 8205SOL     OW25513   0.524   2.962   6.770
 8205SOL    HW125514   0.522   3.060   6.790
 8205SOL    HW225515   0.496   2.911   6.852
 8206SOL     OW25516   4.891   1.283   0.343
 8206SOL    HW125517   4.970   1.248   0.394
 8206SOL    HW225518   4.879   1.230   0.259
 8207SOL     OW25519   3.153   3.821   4.303
 8207SOL    HW125520   3.103   3.830   4.217
 8207SOL    HW225521   3.157   3.909   4.350
 8208SOL     OW25522   1.064   1.273   0.786
 8208SOL    HW125523   0.982   1.326   0.807
 8208SOL    HW225524   1.103   1.237   0.871
 8209SOL     OW25525   0.340   1.070   5.215
 8209SOL    HW125526   0.271   1.056   5.144
 8209SOL    HW225527   0.369   0.981   5.251
 8210SOL     OW25528   2.070   2.400   0.661
 8210SOL    HW125529   2.052   2.304   0.682
 8210SOL    HW225530   1.992   2.455   0.688
 8211SOL     OW25531   3.442   3.909   1.433
 8211SOL    HW125532   3.434   3.992   1.489
 8211SOL    HW225533   3.522   3.917   1.373
 8212SOL     OW25534   1.628   2.133   2.999
 8212SOL    HW125535   1.712   2.160   3.047
 8212SOL    HW225536   1.593   2.210   2.947
 8213SOL     OW25537   6.721   4.526   1.895
 8213SOL    HW125538   6.731   4.587   1.974
 8213SOL    HW225539   6.811   4.491   1.869
 8214SOL     OW25540   5.897   4.763   3.508
 8214SOL    HW125541   5.980   4.777   3.562
 8214SOL    HW225542   5.919   4.766   3.411
 8215SOL     OW25543   3.220   6.049   5.477
 8215SOL    HW125544   3.156   6.121   5.507
 8215SOL    HW225545   3.180   5.960   5.496
 8216SOL     OW25546   5.400   6.055   4.538
 8216SOL    HW125547   5.302   6.043   4.527
 8216SOL    HW225548   5.424   6.151   4.524
 8217SOL     OW25549   2.080   4.961   6.871
 8217SOL    HW125550   1.989   4.954   6.830
 8217SOL    HW225551   2.137   4.886   6.836
 8218SOL     OW25552   0.877   1.652   6.590
 8218SOL    HW125553   0.881   1.628   6.687
 8218SOL    HW225554   0.785   1.632   6.555
 8219SOL     OW25555   4.657   1.760   0.523
 8219SOL    HW125556   4.568   1.752   0.568
 8219SOL    HW225557   4.646   1.754   0.424
 8220SOL     OW25558   3.171   3.580   3.209
 8220SOL    HW125559   3.163   3.490   3.252
 8220SOL    HW225560   3.235   3.576   3.133
 8221SOL     OW25561   4.706   5.907   4.403
 8221SOL    HW125562   4.629   5.847   4.425
 8221SOL    HW225563   4.777   5.897   4.472
 8222SOL     OW25564   5.343   1.991   2.166
 8222SOL    HW125565   5.289   1.989   2.250
 8222SOL    HW225566   5.388   2.080   2.158
 8223SOL     OW25567   1.643   3.790   5.728
 8223SOL    HW125568   1.735   3.752   5.735
 8223SOL    HW225569   1.644   3.868   5.664
 8224SOL     OW25570   0.767   2.607   2.715
 8224SOL    HW125571   0.799   2.672   2.646
 8224SOL    HW225572   0.844   2.576   2.770
 8225SOL     OW25573   3.741   1.044   0.192
 8225SOL    HW125574   3.785   0.960   0.224
 8225SOL    HW225575   3.679   1.022   0.116
 8226SOL     OW25576   4.761   0.369   2.547
 8226SOL    HW125577   4.702   0.352   2.626
 8226SOL    HW225578   4.854   0.390   2.579
 8227SOL     OW25579   0.337   2.796   3.670
 8227SOL    HW125580   0.413   2.834   3.618
 8227SOL    HW225581   0.305   2.864   3.737
 8228SOL     OW25582   0.439   2.749   6.222
 8228SOL    HW125583   0.395   2.819   6.165
 8228SOL    HW225584   0.521   2.716   6.176
 8229SOL     OW25585   3.635   4.245   0.434
 8229SOL    HW125586   3.620   4.243   0.533
 8229SOL    HW225587   3.731   4.225   0.414
 8230SOL     OW25588   5.611   0.200   5.659
 8230SOL    HW125589   5.614   0.172   5.563
 8230SOL    HW225590   5.545   0.143   5.708
 8231SOL     OW25591   3.848   5.582   1.348
 8231SOL    HW125592   3.920   5.543   1.405
 8231SOL    HW225593   3.810   5.512   1.288
 8232SOL     OW25594   5.446   1.246   0.708
 8232SOL    HW125595   5.424   1.238   0.805
 8232SOL    HW225596   5.539   1.282   0.699
 8233SOL     OW25597   0.819   5.943   6.175
 8233SOL    HW125598   0.856   5.997   6.250
 8233SOL    HW225599   0.737   5.895   6.205
 8234SOL     OW25600   2.903   3.470   6.797
 8234SOL    HW125601   2.957   3.530   6.857
 8234SOL    HW225602   2.828   3.523   6.757
 8235SOL     OW25603   2.148   3.321   0.661
 8235SOL    HW125604   2.126   3.265   0.741
 8235SOL    HW225605   2.070   3.379   0.638
 8236SOL     OW25606   6.394   3.551   0.170
 8236SOL    HW125607   6.459   3.561   0.245
 8236SOL    HW225608   6.327   3.626   0.174
 8237SOL     OW25609   4.728   6.606   4.716
 8237SOL    HW125610   4.806   6.648   4.764
 8237SOL    HW225611   4.704   6.661   4.636
 8238SOL     OW25612   1.381   4.365   0.335
 8238SOL    HW125613   1.451   4.409   0.278
 8238SOL    HW225614   1.374   4.268   0.310
 8239SOL     OW25615   6.544   1.498   5.635
 8239SOL    HW125616   6.593   1.475   5.550
 8239SOL    HW225617   6.455   1.537   5.613
 8240SOL     OW25618   3.494   3.801   2.818
 8240SOL    HW125619   3.420   3.812   2.752
 8240SOL    HW225620   3.459   3.816   2.910
 8241SOL     OW25621   3.678   6.594   0.238
 8241SOL    HW125622   3.641   6.580   0.146
 8241SOL    HW225623   3.670   6.509   0.290
 8242SOL     OW25624   1.363   4.340   6.054
 8242SOL    HW125625   1.343   4.248   6.088
 8242SOL    HW225626   1.325   4.352   5.963
 8243SOL     OW25627   0.733   2.906   6.628
 8243SOL    HW125628   0.642   2.897   6.666
 8243SOL    HW225629   0.801   2.909   6.701
 8244SOL     OW25630   0.505   0.024   3.143
 8244SOL    HW125631   0.433   6.986   3.180
 8244SOL    HW225632   0.541   7.005   3.059
 8245SOL     OW25633   3.314   1.011   2.589
 8245SOL    HW125634   3.326   1.048   2.681
 8245SOL    HW225635   3.358   0.922   2.583
 8246SOL     OW25636   6.709   3.538   5.614
 8246SOL    HW125637   6.691   3.442   5.632
 8246SOL    HW225638   6.743   3.582   5.698
 8247SOL     OW25639   0.772   0.423   1.963
 8247SOL    HW125640   0.865   0.407   1.929
 8247SOL    HW225641   0.724   0.486   1.902
 8248SOL     OW25642   5.711   5.049   3.237
 8248SOL    HW125643   5.614   5.064   3.257
 8248SOL    HW225644   5.766   5.114   3.289
 8249SOL     OW25645   2.264   3.415   5.246
 8249SOL    HW125646   2.324   3.399   5.325
 8249SOL    HW225647   2.255   3.513   5.230
 8250SOL     OW25648   3.316   4.133   2.390
 8250SOL    HW125649   3.316   4.152   2.488
 8250SOL    HW225650   3.406   4.100   2.362
 8251SOL     OW25651   6.109   2.962   4.497
 8251SOL    HW125652   6.101   2.868   4.530
 8251SOL    HW225653   6.120   2.961   4.398
 8252SOL     OW25654   3.251   3.168   0.009
 8252SOL    HW125655   3.312   3.163   0.088
 8252SOL    HW225656   3.164   3.210   0.037
 8253SOL     OW25657   4.128   3.761   5.024
 8253SOL    HW125658   4.151   3.710   4.941
 8253SOL    HW225659   4.159   3.856   5.014
 8254SOL     OW25660   4.324   4.665   4.581
 8254SOL    HW125661   4.390   4.732   4.544
 8254SOL    HW225662   4.374   4.590   4.624
 8255SOL     OW25663   2.993   5.948   5.160
 8255SOL    HW125664   3.036   6.028   5.117
 8255SOL    HW225665   3.041   5.865   5.132
 8256SOL     OW25666   6.275   0.905   1.918
 8256SOL    HW125667   6.198   0.967   1.937
 8256SOL    HW225668   6.276   0.882   1.821
 8257SOL     OW25669   6.631   3.732   3.462
 8257SOL    HW125670   6.545   3.699   3.499
 8257SOL    HW225671   6.664   3.809   3.517
 8258SOL     OW25672   5.403   1.016   0.568
 8258SOL    HW125673   5.386   0.951   0.642
 8258SOL    HW225674   5.428   1.105   0.607
 8259SOL     OW25675   4.175   1.872   3.885
 8259SOL    HW125676   4.254   1.876   3.945
 8259SOL    HW225677   4.178   1.947   3.819
 8260SOL     OW25678   2.866   0.501   1.870
 8260SOL    HW125679   2.809   0.477   1.949
 8260SOL    HW225680   2.959   0.466   1.883
 8261SOL     OW25681   6.467   1.492   1.739
 8261SOL    HW125682   6.529   1.542   1.678
 8261SOL    HW225683   6.520   1.436   1.802
 8262SOL     OW25684   1.031   2.909   0.982
 8262SOL    HW125685   0.951   2.965   0.960
 8262SOL    HW225686   1.102   2.924   0.913
 8263SOL     OW25687   0.591   2.279   0.493
 8263SOL    HW125688   0.555   2.368   0.467
 8263SOL    HW225689   0.677   2.263   0.444
 8264SOL     OW25690   1.791   6.389   2.176
 8264SOL    HW125691   1.816   6.457   2.245
 8264SOL    HW225692   1.858   6.315   2.175
 8265SOL     OW25693   0.972   6.855   1.339
 8265SOL    HW125694   0.964   6.769   1.391
 8265SOL    HW225695   0.889   6.869   1.285
 8266SOL     OW25696   2.081   0.958   3.336
 8266SOL    HW125697   2.170   0.946   3.380
 8266SOL    HW225698   2.021   0.882   3.360
 8267SOL     OW25699   1.706   3.018   0.956
 8267SOL    HW125700   1.771   2.996   0.883
 8267SOL    HW225701   1.630   3.070   0.918
 8268SOL     OW25702   2.317   6.446   6.042
 8268SOL    HW125703   2.282   6.491   5.960
 8268SOL    HW225704   2.347   6.514   6.108
 8269SOL     OW25705   5.724   1.740   1.400
 8269SOL    HW125706   5.735   1.714   1.304
 8269SOL    HW225707   5.652   1.810   1.407
 8270SOL     OW25708   2.674   6.647   4.850
 8270SOL    HW125709   2.575   6.643   4.856
 8270SOL    HW225710   2.714   6.570   4.901
 8271SOL     OW25711   0.129   1.261   2.750
 8271SOL    HW125712   0.179   1.343   2.721
 8271SOL    HW225713   0.155   1.184   2.693
 8272SOL     OW25714   4.951   1.477   1.197
 8272SOL    HW125715   5.009   1.481   1.278
 8272SOL    HW225716   4.857   1.497   1.223
 8273SOL     OW25717   2.189   5.955   1.059
 8273SOL    HW125718   2.227   5.869   1.027
 8273SOL    HW225719   2.107   5.937   1.113
 8274SOL     OW25720   4.678   4.802   3.195
 8274SOL    HW125721   4.719   4.779   3.284
 8274SOL    HW225722   4.670   4.902   3.187
 8275SOL     OW25723   4.547   1.318   5.731
 8275SOL    HW125724   4.628   1.363   5.692
 8275SOL    HW225725   4.503   1.263   5.660
 8276SOL     OW25726   1.414   2.260   3.902
 8276SOL    HW125727   1.441   2.165   3.911
 8276SOL    HW225728   1.492   2.320   3.921
 8277SOL     OW25729   0.047   1.163   0.090
 8277SOL    HW125730   0.120   1.137   0.027
 8277SOL    HW225731   7.002   1.222   0.044
 8278SOL     OW25732   2.528   1.672   5.917
 8278SOL    HW125733   2.452   1.666   5.982
 8278SOL    HW225734   2.495   1.649   5.825
 8279SOL     OW25735   1.667   0.526   4.627
 8279SOL    HW125736   1.646   0.486   4.717
 8279SOL    HW225737   1.608   0.485   4.558
 8280SOL     OW25738   2.156   3.006   0.375
 8280SOL    HW125739   2.234   3.057   0.411
 8280SOL    HW225740   2.098   2.976   0.451
 8281SOL     OW25741   1.834   5.087   1.181
 8281SOL    HW125742   1.768   5.012   1.184
 8281SOL    HW225743   1.799   5.164   1.235
 8282SOL     OW25744   5.129   3.816   0.054
 8282SOL    HW125745   5.133   3.739   0.117
 8282SOL    HW225746   5.088   3.895   0.101
 8283SOL     OW25747   1.731   4.408   6.837
 8283SOL    HW125748   1.697   4.501   6.821
 8283SOL    HW225749   1.695   4.347   6.767
 8284SOL     OW25750   0.670   3.626   0.572
 8284SOL    HW125751   0.670   3.590   0.479
 8284SOL    HW225752   0.753   3.596   0.619
 8285SOL     OW25753   3.488   2.842   5.005
 8285SOL    HW125754   3.405   2.866   5.055
 8285SOL    HW225755   3.545   2.782   5.061
 8286SOL     OW25756   5.389   3.212   6.608
 8286SOL    HW125757   5.449   3.140   6.641
 8286SOL    HW225758   5.362   3.271   6.684
 8287SOL     OW25759   2.093   5.241   4.500
 8287SOL    HW125760   2.099   5.176   4.424
 8287SOL    HW225761   2.016   5.303   4.484
 8288SOL     OW25762   3.005   1.769   1.818
 8288SOL    HW125763   2.975   1.833   1.889
 8288SOL    HW225764   2.962   1.793   1.731
 8289SOL     OW25765   0.592   5.976   1.808
 8289SOL    HW125766   0.531   5.899   1.791
 8289SOL    HW225767   0.639   6.001   1.724
 8290SOL     OW25768   5.935   0.813   0.803
 8290SOL    HW125769   5.960   0.808   0.707
 8290SOL    HW225770   5.974   0.735   0.852
 8291SOL     OW25771   4.749   5.989   6.056
 8291SOL    HW125772   4.694   5.972   6.138
 8291SOL    HW225773   4.810   5.911   6.040
 8292SOL     OW25774   2.599   6.154   6.794
 8292SOL    HW125775   2.653   6.081   6.836
 8292SOL    HW225776   2.502   6.137   6.811
 8293SOL     OW25777   3.534   6.826   7.002
 8293SOL    HW125778   3.592   6.754   0.019
 8293SOL    HW225779   3.542   6.826   6.902
 8294SOL     OW25780   5.906   4.767   4.781
 8294SOL    HW125781   5.845   4.826   4.728
 8294SOL    HW225782   5.885   4.671   4.761
 8295SOL     OW25783   5.049   5.507   1.593
 8295SOL    HW125784   4.984   5.582   1.582
 8295SOL    HW225785   5.024   5.452   1.672
 8296SOL     OW25786   2.509   6.536   6.568
 8296SOL    HW125787   2.494   6.629   6.600
 8296SOL    HW225788   2.491   6.531   6.470
 8297SOL     OW25789   6.912   2.560   2.464
 8297SOL    HW125790   7.007   2.546   2.435
 8297SOL    HW225791   6.894   2.658   2.471
 8298SOL     OW25792   5.923   2.331   1.304
 8298SOL    HW125793   5.928   2.299   1.209
 8298SOL    HW225794   5.993   2.284   1.358
 8299SOL     OW25795   0.192   2.420   1.910
 8299SOL    HW125796   0.212   2.495   1.847
 8299SOL    HW225797   0.257   2.345   1.895
 8300SOL     OW25798   0.843   5.981   5.145
 8300SOL    HW125799   0.784   5.900   5.141
 8300SOL    HW225800   0.837   6.022   5.236
 8301SOL     OW25801   4.281   1.830   1.528
 8301SOL    HW125802   4.224   1.845   1.447
 8301SOL    HW225803   4.224   1.804   1.605
 8302SOL     OW25804   5.360   6.149   5.855
 8302SOL    HW125805   5.444   6.114   5.897
 8302SOL    HW225806   5.281   6.098   5.891
 8303SOL     OW25807   6.718   1.076   4.206
 8303SOL    HW125808   6.677   1.070   4.115
 8303SOL    HW225809   6.746   1.170   4.224
 8304SOL     OW25810   1.368   3.077   0.516
 8304SOL    HW125811   1.351   3.085   0.417
 8304SOL    HW225812   1.365   3.167   0.558
 8305SOL     OW25813   3.909   4.943   4.391
 8305SOL    HW125814   3.936   4.930   4.295
 8305SOL    HW225815   3.984   4.914   4.451
 8306SOL     OW25816   0.473   2.897   5.246
 8306SOL    HW125817   0.381   2.857   5.241
 8306SOL    HW225818   0.525   2.852   5.318
 8307SOL     OW25819   4.463   5.133   1.603
 8307SOL    HW125820   4.506   5.071   1.537
 8307SOL    HW225821   4.496   5.226   1.587
 8308SOL     OW25822   4.452   5.749   1.409
 8308SOL    HW125823   4.357   5.765   1.386
 8308SOL    HW225824   4.458   5.699   1.496
 8309SOL     OW25825   6.385   5.568   3.345
 8309SOL    HW125826   6.324   5.647   3.346
 8309SOL    HW225827   6.478   5.599   3.325
 8310SOL     OW25828   1.091   4.318   0.718
 8310SOL    HW125829   1.109   4.224   0.745
 8310SOL    HW225830   1.149   4.380   0.772
 8311SOL     OW25831   0.703   1.290   4.887
 8311SOL    HW125832   0.677   1.241   4.804
 8311SOL    HW225833   0.673   1.385   4.882
 8312SOL     OW25834   4.309   5.960   0.956
 8312SOL    HW125835   4.386   6.018   0.980
 8312SOL    HW225836   4.243   5.958   1.032
 8313SOL     OW25837   4.973   1.294   2.390
 8313SOL    HW125838   4.881   1.260   2.371
 8313SOL    HW225839   5.007   1.254   2.474
 8314SOL     OW25840   4.708   0.032   0.970
 8314SOL    HW125841   4.723   6.977   1.032
 8314SOL    HW225842   4.782   0.035   0.902
 8315SOL     OW25843   4.029   3.409   1.162
 8315SOL    HW125844   4.092   3.335   1.185
 8315SOL    HW225845   4.071   3.497   1.184
 8316SOL     OW25846   0.945   1.905   1.762
 8316SOL    HW125847   0.933   1.954   1.848
 8316SOL    HW225848   0.966   1.970   1.689
 8317SOL     OW25849   2.560   2.512   2.268
 8317SOL    HW125850   2.570   2.603   2.308
 8317SOL    HW225851   2.484   2.512   2.203
 8318SOL     OW25852   3.902   1.152   4.372
 8318SOL    HW125853   3.916   1.249   4.356
 8318SOL    HW225854   3.891   1.104   4.285
 8319SOL     OW25855   2.850   1.691   6.130
 8319SOL    HW125856   2.923   1.701   6.198
 8319SOL    HW225857   2.879   1.732   6.044
 8320SOL     OW25858   3.455   3.645   1.413
 8320SOL    HW125859   3.552   3.627   1.427
 8320SOL    HW225860   3.438   3.744   1.415
 8321SOL     OW25861   0.430   1.253   0.198
 8321SOL    HW125862   0.357   1.228   0.261
 8321SOL    HW225863   0.396   1.320   0.132
 8322SOL     OW25864   0.175   0.216   0.780
 8322SOL    HW125865   0.103   0.166   0.731
 8322SOL    HW225866   0.248   0.238   0.716
 8323SOL     OW25867   6.062   6.509   2.904
 8323SOL    HW125868   6.133   6.573   2.933
 8323SOL    HW225869   6.102   6.443   2.839
 8324SOL     OW25870   6.026   0.822   1.606
 8324SOL    HW125871   6.022   0.922   1.599
 8324SOL    HW225872   6.029   0.796   1.703
 8325SOL     OW25873   3.321   3.461   5.204
 8325SOL    HW125874   3.409   3.445   5.159
 8325SOL    HW225875   3.286   3.374   5.240
 8326SOL     OW25876   4.800   3.128   5.173
 8326SOL    HW125877   4.786   3.209   5.229
 8326SOL    HW225878   4.782   3.046   5.228
 8327SOL     OW25879   5.759   2.403   6.295
 8327SOL    HW125880   5.674   2.455   6.306
 8327SOL    HW225881   5.791   2.412   6.200
 8328SOL     OW25882   2.798   3.965   6.431
 8328SOL    HW125883   2.772   3.949   6.336
 8328SOL    HW225884   2.873   3.904   6.457
 8329SOL     OW25885   6.811   3.864   6.401
 8329SOL    HW125886   6.855   3.844   6.489
 8329SOL    HW225887   6.878   3.855   6.327
 8330SOL     OW25888   2.692   0.178   0.649
 8330SOL    HW125889   2.789   0.164   0.631
 8330SOL    HW225890   2.653   0.095   0.691
 8331SOL     OW25891   2.842   1.051   1.518
 8331SOL    HW125892   2.786   1.020   1.595
 8331SOL    HW225893   2.839   0.984   1.445
 8332SOL     OW25894   4.760   5.257   2.468
 8332SOL    HW125895   4.701   5.218   2.398
 8332SOL    HW225896   4.709   5.327   2.519
 8333SOL     OW25897   0.204   6.650   6.669
 8333SOL    HW125898   0.202   6.747   6.694
 8333SOL    HW225899   0.259   6.599   6.736
 8334SOL     OW25900   4.422   1.402   4.179
 8334SOL    HW125901   4.419   1.404   4.279
 8334SOL    HW225902   4.376   1.483   4.143
 8335SOL     OW25903   6.319   5.791   6.050
 8335SOL    HW125904   6.372   5.828   5.973
 8335SOL    HW225905   6.279   5.866   6.103
 8336SOL     OW25906   6.716   0.117   2.431
 8336SOL    HW125907   6.748   0.111   2.337
 8336SOL    HW225908   6.690   0.211   2.452
 8337SOL     OW25909   1.077   6.497   3.004
 8337SOL    HW125910   1.147   6.563   3.032
 8337SOL    HW225911   1.024   6.469   3.084
 8338SOL     OW25912   1.511   4.911   1.977
 8338SOL    HW125913   1.505   4.991   2.036
 8338SOL    HW225914   1.596   4.861   1.997
 8339SOL     OW25915   6.076   0.498   1.258
 8339SOL    HW125916   6.061   0.596   1.271
 8339SOL    HW225917   6.031   0.447   1.332
 8340SOL     OW25918   5.408   4.123   1.095
 8340SOL    HW125919   5.439   4.126   1.000
 8340SOL    HW225920   5.308   4.117   1.097
 8341SOL     OW25921   2.752   6.610   0.078
 8341SOL    HW125922   2.724   6.633   7.005
 8341SOL    HW225923   2.828   6.545   0.074
 8342SOL     OW25924   3.564   0.166   1.505
 8342SOL    HW125925   3.492   0.132   1.566
 8342SOL    HW225926   3.599   0.090   1.450
 8343SOL     OW25927   1.005   4.830   6.047
 8343SOL    HW125928   0.924   4.830   6.107
 8343SOL    HW225929   1.024   4.923   6.016
 8344SOL     OW25930   4.616   0.101   5.210
 8344SOL    HW125931   4.693   0.135   5.264
 8344SOL    HW225932   4.534   0.154   5.230
 8345SOL     OW25933   5.223   1.725   3.765
 8345SOL    HW125934   5.151   1.793   3.751
 8345SOL    HW225935   5.301   1.746   3.707
 8346SOL     OW25936   3.156   4.381   0.354
 8346SOL    HW125937   3.084   4.450   0.359
 8346SOL    HW225938   3.221   4.406   0.282
 8347SOL     OW25939   3.504   6.369   4.936
 8347SOL    HW125940   3.533   6.308   4.863
 8347SOL    HW225941   3.582   6.423   4.968
 8348SOL     OW25942   0.913   6.605   1.476
 8348SOL    HW125943   0.837   6.578   1.535
 8348SOL    HW225944   1.000   6.580   1.519
 8349SOL     OW25945   6.081   5.660   1.381
 8349SOL    HW125946   6.071   5.577   1.435
 8349SOL    HW225947   6.175   5.693   1.389
 8350SOL     OW25948   5.009   1.090   4.769
 8350SOL    HW125949   5.106   1.068   4.759
 8350SOL    HW225950   4.999   1.176   4.819
 8351SOL     OW25951   4.623   5.288   4.166
 8351SOL    HW125952   4.595   5.384   4.168
 8351SOL    HW225953   4.707   5.278   4.220
 8352SOL     OW25954   6.925   6.655   2.577
 8352SOL    HW125955   6.880   6.703   2.652
 8352SOL    HW225956   7.018   6.630   2.605
 8353SOL     OW25957   6.070   3.764   1.943
 8353SOL    HW125958   6.156   3.719   1.966
 8353SOL    HW225959   6.031   3.722   1.862
 8354SOL     OW25960   3.583   0.523   6.554
 8354SOL    HW125961   3.493   0.500   6.516
 8354SOL    HW225962   3.626   0.439   6.588
 8355SOL     OW25963   3.068   0.423   6.925
 8355SOL    HW125964   3.137   0.417   6.853
 8355SOL    HW225965   3.077   0.511   6.972
 8356SOL     OW25966   1.556   6.311   0.464
 8356SOL    HW125967   1.619   6.375   0.508
 8356SOL    HW225968   1.540   6.233   0.525
 8357SOL     OW25969   3.826   6.941   5.835
 8357SOL    HW125970   3.754   6.950   5.765
 8357SOL    HW225971   3.912   6.918   5.790
 8358SOL     OW25972   1.438   2.934   5.312
 8358SOL    HW125973   1.380   3.007   5.276
 8358SOL    HW225974   1.507   2.973   5.373
 8359SOL     OW25975   3.058   6.408   4.573
 8359SOL    HW125976   2.993   6.332   4.578
 8359SOL    HW225977   3.010   6.494   4.591
 8360SOL     OW25978   3.919   5.854   1.620
 8360SOL    HW125979   3.823   5.828   1.625
 8360SOL    HW225980   3.932   5.921   1.547
 8361SOL     OW25981   2.045   0.662   2.633
 8361SOL    HW125982   2.134   0.618   2.648
 8361SOL    HW225983   2.055   0.735   2.566
 8362SOL     OW25984   2.707   1.851   0.882
 8362SOL    HW125985   2.664   1.878   0.795
 8362SOL    HW225986   2.639   1.856   0.955
 8363SOL     OW25987   0.291   2.553   6.942
 8363SOL    HW125988   0.320   2.462   6.913
 8363SOL    HW225989   0.317   2.620   6.873
 8364SOL     OW25990   6.329   3.293   2.955
 8364SOL    HW125991   6.299   3.291   3.050
 8364SOL    HW225992   6.426   3.270   2.950
 8365SOL     OW25993   1.152   4.354   1.381
 8365SOL    HW125994   1.200   4.268   1.363
 8365SOL    HW225995   1.053   4.339   1.375
 8366SOL     OW25996   3.676   5.169   2.249
 8366SOL    HW125997   3.617   5.164   2.330
 8366SOL    HW225998   3.677   5.080   2.203
 8367SOL     OW25999   3.994   6.162   3.671
 8367SOL    HW126000   3.919   6.216   3.634
 8367SOL    HW226001   4.054   6.133   3.596
 8368SOL     OW26002   2.620   6.416   6.106
 8368SOL    HW126003   2.546   6.387   6.046
 8368SOL    HW226004   2.704   6.425   6.053
 8369SOL     OW26005   1.948   0.153   6.517
 8369SOL    HW126006   1.942   0.252   6.504
 8369SOL    HW226007   1.856   0.114   6.520
 8370SOL     OW26008   2.385   1.918   5.668
 8370SOL    HW126009   2.378   1.888   5.763
 8370SOL    HW226010   2.328   1.860   5.610
 8371SOL     OW26011   1.564   4.234   1.074
 8371SOL    HW126012   1.604   4.144   1.085
 8371SOL    HW226013   1.635   4.300   1.050
 8372SOL     OW26014   0.257   5.947   2.901
 8372SOL    HW126015   0.291   5.853   2.895
 8372SOL    HW226016   0.308   5.997   2.971
 8373SOL     OW26017   1.106   0.309   4.467
 8373SOL    HW126018   1.170   0.276   4.536
 8373SOL    HW226019   1.128   0.404   4.445
 8374SOL     OW26020   6.609   0.513   6.578
 8374SOL    HW126021   6.564   0.578   6.640
 8374SOL    HW226022   6.695   0.551   6.546
 8375SOL     OW26023   3.092   6.658   5.555
 8375SOL    HW126024   3.123   6.562   5.557
 8375SOL    HW226025   2.993   6.661   5.569
 8376SOL     OW26026   2.307   0.143   4.024
 8376SOL    HW126027   2.288   0.166   3.928
 8376SOL    HW226028   2.223   0.153   4.078
 8377SOL     OW26029   5.672   5.611   1.327
 8377SOL    HW126030   5.692   5.574   1.236
 8377SOL    HW226031   5.757   5.614   1.380
 8378SOL     OW26032   4.407   4.530   2.941
 8378SOL    HW126033   4.439   4.437   2.961
 8378SOL    HW226034   4.457   4.595   2.998
 8379SOL     OW26035   6.520   2.566   1.228
 8379SOL    HW126036   6.611   2.543   1.195
 8379SOL    HW226037   6.452   2.514   1.176
 8380SOL     OW26038   6.634   1.283   2.655
 8380SOL    HW126039   6.567   1.356   2.641
 8380SOL    HW226040   6.614   1.235   2.741
 8381SOL     OW26041   0.455   4.072   5.009
 8381SOL    HW126042   0.362   4.052   5.039
 8381SOL    HW226043   0.453   4.147   4.943
 8382SOL     OW26044   1.540   1.187   1.926
 8382SOL    HW126045   1.502   1.173   2.017
 8382SOL    HW226046   1.576   1.279   1.918
 8383SOL     OW26047   2.542   0.514   6.394
 8383SOL    HW126048   2.585   0.598   6.426
 8383SOL    HW226049   2.612   0.449   6.367
 8384SOL     OW26050   0.351   0.043   0.248
 8384SOL    HW126051   0.438   0.085   0.277
 8384SOL    HW226052   0.289   0.040   0.326
 8385SOL     OW26053   5.956   2.768   1.526
 8385SOL    HW126054   6.007   2.729   1.450
 8385SOL    HW226055   6.020   2.805   1.593
 8386SOL     OW26056   1.100   4.162   2.475
 8386SOL    HW126057   1.138   4.145   2.566
 8386SOL    HW226058   1.003   4.186   2.483
 8387SOL     OW26059   1.074   1.152   1.311
 8387SOL    HW126060   1.024   1.230   1.349
 8387SOL    HW226061   1.150   1.186   1.255
 8388SOL     OW26062   1.903   5.960   0.529
 8388SOL    HW126063   1.909   6.019   0.610
 8388SOL    HW226064   1.972   5.988   0.462
 8389SOL     OW26065   6.035   3.755   2.386
 8389SOL    HW126066   6.131   3.783   2.377
 8389SOL    HW226067   6.011   3.697   2.308
 8390SOL     OW26068   3.694   1.733   6.411
 8390SOL    HW126069   3.699   1.794   6.490
 8390SOL    HW226070   3.755   1.655   6.426
 8391SOL     OW26071   5.884   5.934   0.754
 8391SOL    HW126072   5.861   6.030   0.734
 8391SOL    HW226073   5.980   5.929   0.783
 8392SOL     OW26074   6.130   3.410   3.629
 8392SOL    HW126075   6.145   3.508   3.632
 8392SOL    HW226076   6.064   3.384   3.700
 8393SOL     OW26077   6.202   0.844   2.712
 8393SOL    HW126078   6.168   0.830   2.804
 8393SOL    HW226079   6.144   0.909   2.664
 8394SOL     OW26080   5.819   3.316   1.868
 8394SOL    HW126081   5.829   3.340   1.964
 8394SOL    HW226082   5.891   3.251   1.842
 8395SOL     OW26083   2.918   6.899   5.810
 8395SOL    HW126084   2.837   6.919   5.866
 8395SOL    HW226085   2.890   6.872   5.718
 8396SOL     OW26086   4.869   4.503   3.207
 8396SOL    HW126087   4.965   4.475   3.196
 8396SOL    HW226088   4.865   4.588   3.260
 8397SOL     OW26089   0.551   0.899   3.385
 8397SOL    HW126090   0.462   0.934   3.416
 8397SOL    HW226091   0.545   0.800   3.373
 8398SOL     OW26092   5.089   2.574   6.224
 8398SOL    HW126093   5.073   2.580   6.126
 8398SOL    HW226094   5.119   2.662   6.259
 8399SOL     OW26095   6.027   6.372   6.987
 8399SOL    HW126096   6.030   6.328   0.056
 8399SOL    HW226097   6.115   6.361   6.941
 8400SOL     OW26098   1.845   2.416   4.025
 8400SOL    HW126099   1.865   2.379   4.115
 8400SOL    HW226100   1.865   2.514   4.024
 8401SOL     OW26101   2.435   1.174   5.538
 8401SOL    HW126102   2.491   1.254   5.560
 8401SOL    HW226103   2.489   1.091   5.550
 8402SOL     OW26104   5.536   1.781   6.453
 8402SOL    HW126105   5.557   1.867   6.407
 8402SOL    HW226106   5.458   1.737   6.408
 8403SOL     OW26107   0.781   3.341   4.651
 8403SOL    HW126108   0.856   3.354   4.716
 8403SOL    HW226109   0.799   3.261   4.594
 8404SOL     OW26110   4.260   0.324   6.097
 8404SOL    HW126111   4.226   0.384   6.171
 8404SOL    HW226112   4.273   0.378   6.014
 8405SOL     OW26113   3.385   2.009   6.319
 8405SOL    HW126114   3.374   1.953   6.237
 8405SOL    HW226115   3.413   2.101   6.293
 8406SOL     OW26116   4.331   6.930   0.423
 8406SOL    HW126117   4.232   6.947   0.423
 8406SOL    HW226118   4.379   7.011   0.387
 8407SOL     OW26119   4.224   6.489   3.381
 8407SOL    HW126120   4.315   6.484   3.338
 8407SOL    HW226121   4.179   6.574   3.352
 8408SOL     OW26122   5.683   4.925   0.317
 8408SOL    HW126123   5.648   4.838   0.283
 8408SOL    HW226124   5.644   5.000   0.264
 8409SOL     OW26125   4.865   2.325   1.886
 8409SOL    HW126126   4.824   2.358   1.800
 8409SOL    HW226127   4.850   2.227   1.895
 8410SOL     OW26128   6.403   2.151   1.887
 8410SOL    HW126129   6.387   2.160   1.986
 8410SOL    HW226130   6.414   2.055   1.863
 8411SOL     OW26131   0.305   5.965   1.131
 8411SOL    HW126132   0.281   5.912   1.212
 8411SOL    HW226133   0.393   5.933   1.096
 8412SOL     OW26134   3.921   2.223   1.314
 8412SOL    HW126135   3.861   2.238   1.235
 8412SOL    HW226136   3.987   2.298   1.320
 8413SOL     OW26137   4.514   5.480   6.156
 8413SOL    HW126138   4.474   5.445   6.240
 8413SOL    HW226139   4.516   5.408   6.087
 8414SOL     OW26140   2.470   1.150   2.965
 8414SOL    HW126141   2.496   1.240   3.001
 8414SOL    HW226142   2.373   1.149   2.943
 8415SOL     OW26143   1.923   6.694   4.297
 8415SOL    HW126144   1.966   6.784   4.296
 8415SOL    HW226145   1.990   6.623   4.277
 8416SOL     OW26146   6.272   1.731   4.891
 8416SOL    HW126147   6.369   1.744   4.871
 8416SOL    HW226148   6.236   1.660   4.830
 8417SOL     OW26149   1.975   2.837   5.442
 8417SOL    HW126150   1.955   2.927   5.403
 8417SOL    HW226151   2.058   2.800   5.400
 8418SOL     OW26152   0.036   5.626   2.048
 8418SOL    HW126153   6.968   5.621   2.095
 8418SOL    HW226154   0.027   5.585   1.957
 8419SOL     OW26155   5.742   1.613   2.892
 8419SOL    HW126156   5.709   1.656   2.976
 8419SOL    HW226157   5.734   1.678   2.816
 8420SOL     OW26158   3.178   6.518   1.887
 8420SOL    HW126159   3.202   6.506   1.791
 8420SOL    HW226160   3.098   6.578   1.894
 8421SOL     OW26161   3.129   5.107   6.962
 8421SOL    HW126162   3.030   5.091   6.954
 8421SOL    HW226163   3.166   5.132   6.872
 8422SOL     OW26164   3.682   2.096   2.473
 8422SOL    HW126165   3.708   2.095   2.376
 8422SOL    HW226166   3.616   2.023   2.491
 8423SOL     OW26167   4.487   4.185   5.534
 8423SOL    HW126168   4.481   4.198   5.435
 8423SOL    HW226169   4.583   4.185   5.562
 8424SOL     OW26170   2.184   1.891   3.213
 8424SOL    HW126171   2.106   1.845   3.171
 8424SOL    HW226172   2.200   1.979   3.169
 8425SOL     OW26173   4.140   3.367   4.472
 8425SOL    HW126174   4.139   3.467   4.472
 8425SOL    HW226175   4.133   3.333   4.379
 8426SOL     OW26176   3.479   3.192   2.837
 8426SOL    HW126177   3.553   3.214   2.901
 8426SOL    HW226178   3.456   3.095   2.846
 8427SOL     OW26179   2.914   3.797   3.358
 8427SOL    HW126180   2.876   3.749   3.279
 8427SOL    HW226181   2.927   3.732   3.433
 8428SOL     OW26182   6.812   6.425   1.790
 8428SOL    HW126183   6.746   6.386   1.726
 8428SOL    HW226184   6.853   6.507   1.750
 8429SOL     OW26185   1.717   5.415   5.863
 8429SOL    HW126186   1.745   5.322   5.887
 8429SOL    HW226187   1.670   5.415   5.774
 8430SOL     OW26188   3.905   5.366   4.110
 8430SOL    HW126189   3.854   5.340   4.028
 8430SOL    HW226190   3.980   5.301   4.124
 8431SOL     OW26191   3.685   3.485   7.012
 8431SOL    HW126192   3.658   3.551   0.062
 8431SOL    HW226193   3.624   3.406   7.016
 8432SOL     OW26194   6.848   5.586   5.173
 8432SOL    HW126195   6.880   5.673   5.211
 8432SOL    HW226196   6.799   5.603   5.088
 8433SOL     OW26197   4.166   2.707   0.884
 8433SOL    HW126198   4.072   2.733   0.905
 8433SOL    HW226199   4.228   2.750   0.949
 8434SOL     OW26200   2.435   6.186   4.377
 8434SOL    HW126201   2.447   6.089   4.354
 8434SOL    HW226202   2.383   6.231   4.305
 8435SOL     OW26203   5.356   0.521   2.985
 8435SOL    HW126204   5.297   0.587   2.938
 8435SOL    HW226205   5.350   0.536   3.084
 8436SOL     OW26206   2.953   6.337   3.985
 8436SOL    HW126207   3.025   6.317   3.919
 8436SOL    HW226208   2.865   6.305   3.949
 8437SOL     OW26209   2.314   2.762   2.563
 8437SOL    HW126210   2.311   2.703   2.482
 8437SOL    HW226211   2.282   2.854   2.539
 8438SOL     OW26212   2.569   4.728   2.751
 8438SOL    HW126213   2.598   4.692   2.662
 8438SOL    HW226214   2.527   4.655   2.804
 8439SOL     OW26215   6.674   5.088   3.274
 8439SOL    HW126216   6.637   5.018   3.213
 8439SOL    HW226217   6.601   5.148   3.306
 8440SOL     OW26218   2.569   1.951   3.513
 8440SOL    HW126219   2.579   1.976   3.609
 8440SOL    HW226220   2.518   2.023   3.465
 8441SOL     OW26221   5.361   5.863   5.730
 8441SOL    HW126222   5.297   5.915   5.788
 8441SOL    HW226223   5.365   5.769   5.762
 8442SOL     OW26224   3.951   0.876   5.270
 8442SOL    HW126225   4.024   0.930   5.229
 8442SOL    HW226226   3.923   0.803   5.207
 8443SOL     OW26227   2.041   5.058   3.512
 8443SOL    HW126228   2.056   4.967   3.550
 8443SOL    HW226229   1.944   5.070   3.490
 8444SOL     OW26230   3.129   6.705   3.358
 8444SOL    HW126231   3.102   6.798   3.384
 8444SOL    HW226232   3.060   6.640   3.389
 8445SOL     OW26233   2.736   0.447   0.714
 8445SOL    HW126234   2.659   0.510   0.703
 8445SOL    HW226235   2.704   0.353   0.701
 8446SOL     OW26236   6.613   6.219   5.253
 8446SOL    HW126237   6.541   6.158   5.286
 8446SOL    HW226238   6.576   6.281   5.183
 8447SOL     OW26239   3.701   1.342   1.357
 8447SOL    HW126240   3.648   1.258   1.350
 8447SOL    HW226241   3.758   1.339   1.439
 8448SOL     OW26242   4.742   6.645   3.546
 8448SOL    HW126243   4.726   6.587   3.626
 8448SOL    HW226244   4.808   6.601   3.486
 8449SOL     OW26245   0.395   3.482   3.592
 8449SOL    HW126246   0.318   3.506   3.651
 8449SOL    HW226247   0.431   3.393   3.620
 8450SOL     OW26248   0.262   1.066   1.214
 8450SOL    HW126249   0.229   0.975   1.186
 8450SOL    HW226250   0.278   1.066   1.312
 8451SOL     OW26251   3.131   0.847   0.224
 8451SOL    HW126252   3.206   0.913   0.224
 8451SOL    HW226253   3.095   0.837   0.317
 8452SOL     OW26254   4.937   2.607   4.509
 8452SOL    HW126255   4.949   2.705   4.522
 8452SOL    HW226256   4.895   2.567   4.590
 8453SOL     OW26257   0.028   5.568   0.101
 8453SOL    HW126258   6.993   5.649   0.123
 8453SOL    HW226259   6.988   5.491   0.082
 8454SOL     OW26260   0.103   5.105   0.199
 8454SOL    HW126261   0.080   5.195   0.236
 8454SOL    HW226262   0.196   5.080   0.226
 8455SOL     OW26263   6.778   2.149   3.186
 8455SOL    HW126264   6.710   2.221   3.201
 8455SOL    HW226265   6.859   2.189   3.144
 8456SOL     OW26266   4.747   0.769   3.612
 8456SOL    HW126267   4.755   0.742   3.516
 8456SOL    HW226268   4.838   0.781   3.651
 8457SOL     OW26269   6.474   6.367   5.035
 8457SOL    HW126270   6.383   6.356   4.994
 8457SOL    HW226271   6.533   6.417   4.972
 8458SOL     OW26272   1.369   0.098   0.989
 8458SOL    HW126273   1.348   0.194   0.971
 8458SOL    HW226274   1.361   0.080   1.087
 8459SOL     OW26275   1.780   5.868   3.201
 8459SOL    HW126276   1.711   5.915   3.146
 8459SOL    HW226277   1.738   5.794   3.252
 8460SOL     OW26278   4.566   3.777   5.329
 8460SOL    HW126279   4.599   3.699   5.275
 8460SOL    HW226280   4.631   3.853   5.319
 8461SOL     OW26281   1.246   2.161   4.913
 8461SOL    HW126282   1.183   2.236   4.897
 8461SOL    HW226283   1.196   2.074   4.911
 8462SOL     OW26284   3.288   1.591   0.514
 8462SOL    HW126285   3.287   1.586   0.614
 8462SOL    HW226286   3.310   1.501   0.476
 8463SOL     OW26287   6.305   0.117   1.989
 8463SOL    HW126288   6.246   0.043   2.020
 8463SOL    HW226289   6.389   0.079   1.949
 8464SOL     OW26290   5.605   4.149   4.287
 8464SOL    HW126291   5.653   4.217   4.342
 8464SOL    HW226292   5.567   4.192   4.206
 8465SOL     OW26293   1.763   2.288   0.617
 8465SOL    HW126294   1.795   2.194   0.613
 8465SOL    HW226295   1.842   2.350   0.618
 8466SOL     OW26296   1.163   5.951   3.980
 8466SOL    HW126297   1.096   5.920   3.913
 8466SOL    HW226298   1.227   5.876   4.000
 8467SOL     OW26299   3.005   5.773   0.698
 8467SOL    HW126300   3.033   5.680   0.672
 8467SOL    HW226301   2.984   5.775   0.795
 8468SOL     OW26302   3.046   1.644   1.047
 8468SOL    HW126303   3.076   1.632   1.142
 8468SOL    HW226304   3.054   1.740   1.022
 8469SOL     OW26305   3.180   2.975   6.735
 8469SOL    HW126306   3.194   2.877   6.720
 8469SOL    HW226307   3.123   3.012   6.662
 8470SOL     OW26308   2.369   3.053   1.752
 8470SOL    HW126309   2.454   3.103   1.735
 8470SOL    HW226310   2.297   3.117   1.776
 8471SOL     OW26311   2.476   0.664   3.487
 8471SOL    HW126312   2.424   0.580   3.501
 8471SOL    HW226313   2.517   0.664   3.395
 8472SOL     OW26314   0.390   0.243   4.255
 8472SOL    HW126315   0.486   0.229   4.230
 8472SOL    HW226316   0.346   0.300   4.186
 8473SOL     OW26317   0.120   5.544   6.848
 8473SOL    HW126318   0.060   5.544   6.928
 8473SOL    HW226319   0.100   5.624   6.792
 8474SOL     OW26320   3.084   3.123   1.932
 8474SOL    HW126321   3.096   3.219   1.907
 8474SOL    HW226322   3.131   3.105   2.018
 8475SOL     OW26323   6.471   1.914   2.693
 8475SOL    HW126324   6.546   1.857   2.659
 8475SOL    HW226325   6.385   1.864   2.687
 8476SOL     OW26326   6.327   0.381   2.033
 8476SOL    HW126327   6.285   0.290   2.036
 8476SOL    HW226328   6.290   0.432   1.955
 8477SOL     OW26329   3.094   6.151   1.207
 8477SOL    HW126330   3.093   6.128   1.110
 8477SOL    HW226331   3.076   6.249   1.219
 8478SOL     OW26332   1.564   0.580   5.294
 8478SOL    HW126333   1.517   0.652   5.242
 8478SOL    HW226334   1.523   0.572   5.385
 8479SOL     OW26335   5.913   1.035   0.253
 8479SOL    HW126336   5.829   1.085   0.275
 8479SOL    HW226337   5.923   0.958   0.315
 8480SOL     OW26338   3.377   0.978   1.066
 8480SOL    HW126339   3.353   0.886   1.096
 8480SOL    HW226340   3.310   1.044   1.101
 8481SOL     OW26341   3.570   1.584   3.892
 8481SOL    HW126342   3.538   1.490   3.886
 8481SOL    HW226343   3.669   1.587   3.876
 8482SOL     OW26344   2.235   6.958   2.169
 8482SOL    HW126345   2.283   6.871   2.156
 8482SOL    HW226346   2.137   6.942   2.167
 8483SOL     OW26347   3.150   5.529   2.565
 8483SOL    HW126348   3.187   5.455   2.509
 8483SOL    HW226349   3.165   5.508   2.661
 8484SOL     OW26350   0.244   4.561   2.840
 8484SOL    HW126351   0.196   4.585   2.755
 8484SOL    HW226352   0.200   4.606   2.917
 8485SOL     OW26353   1.668   3.664   6.838
 8485SOL    HW126354   1.704   3.745   6.885
 8485SOL    HW226355   1.734   3.632   6.771
 8486SOL     OW26356   5.372   1.247   2.209
 8486SOL    HW126357   5.285   1.242   2.160
 8486SOL    HW226358   5.430   1.171   2.182
 8487SOL     OW26359   5.160   0.203   0.700
 8487SOL    HW126360   5.206   0.116   0.684
 8487SOL    HW226361   5.166   0.227   0.797
 8488SOL     OW26362   5.516   5.533   4.955
 8488SOL    HW126363   5.587   5.588   4.997
 8488SOL    HW226364   5.555   5.478   4.882
 8489SOL     OW26365   5.984   6.450   1.480
 8489SOL    HW126366   5.953   6.407   1.395
 8489SOL    HW226367   6.047   6.525   1.457
 8490SOL     OW26368   4.679   6.449   3.750
 8490SOL    HW126369   4.614   6.462   3.825
 8490SOL    HW226370   4.686   6.352   3.728
 8491SOL     OW26371   2.392   0.761   1.771
 8491SOL    HW126372   2.436   0.694   1.710
 8491SOL    HW226373   2.296   0.772   1.744
 8492SOL     OW26374   4.728   3.564   5.552
 8492SOL    HW126375   4.642   3.572   5.502
 8492SOL    HW226376   4.711   3.569   5.650
 8493SOL     OW26377   3.369   2.301   0.324
 8493SOL    HW126378   3.358   2.201   0.320
 8493SOL    HW226379   3.419   2.325   0.407
 8494SOL     OW26380   1.889   4.615   6.149
 8494SOL    HW126381   1.893   4.597   6.247
 8494SOL    HW226382   1.834   4.544   6.105
 8495SOL     OW26383   0.099   3.300   0.774
 8495SOL    HW126384   0.184   3.272   0.729
 8495SOL    HW226385   0.059   3.222   0.822
 8496SOL     OW26386   0.493   2.077   3.050
 8496SOL    HW126387   0.521   2.014   3.123
 8496SOL    HW226388   0.564   2.146   3.038
 8497SOL     OW26389   5.599   6.308   4.123
 8497SOL    HW126390   5.541   6.251   4.065
 8497SOL    HW226391   5.679   6.255   4.152
 8498SOL     OW26392   0.323   6.657   1.707
 8498SOL    HW126393   0.309   6.754   1.728
 8498SOL    HW226394   0.374   6.648   1.622
 8499SOL     OW26395   2.508   5.502   6.298
 8499SOL    HW126396   2.570   5.551   6.238
 8499SOL    HW226397   2.554   5.422   6.337
 8500SOL     OW26398   2.337   0.455   5.822
 8500SOL    HW126399   2.253   0.484   5.870
 8500SOL    HW226400   2.339   0.496   5.731
 8501SOL     OW26401   1.811   2.696   0.066
 8501SOL    HW126402   1.810   2.605   0.026
 8501SOL    HW226403   1.815   2.689   0.166
 8502SOL     OW26404   0.921   5.260   1.487
 8502SOL    HW126405   0.883   5.327   1.550
 8502SOL    HW226406   0.925   5.171   1.532
 8503SOL     OW26407   1.145   5.184   2.904
 8503SOL    HW126408   1.178   5.103   2.856
 8503SOL    HW226409   1.091   5.240   2.841
 8504SOL     OW26410   1.788   6.074   3.675
 8504SOL    HW126411   1.838   6.008   3.732
 8504SOL    HW226412   1.834   6.083   3.587
 8505SOL     OW26413   4.973   4.100   3.152
 8505SOL    HW126414   4.999   4.092   3.055
 8505SOL    HW226415   4.874   4.096   3.161
 8506SOL     OW26416   0.703   6.889   0.298
 8506SOL    HW126417   0.796   6.854   0.309
 8506SOL    HW226418   0.647   6.860   0.376
 8507SOL     OW26419   2.238   1.107   5.362
 8507SOL    HW126420   2.301   1.166   5.412
 8507SOL    HW226421   2.152   1.100   5.411
 8508SOL     OW26422   0.099   3.020   4.997
 8508SOL    HW126423   0.153   3.058   4.922
 8508SOL    HW226424   0.006   3.002   4.965
 8509SOL     OW26425   6.138   1.690   5.156
 8509SOL    HW126426   6.174   1.690   5.063
 8509SOL    HW226427   6.046   1.729   5.156
 8510SOL     OW26428   6.772   5.383   3.436
 8510SOL    HW126429   6.727   5.304   3.477
 8510SOL    HW226430   6.845   5.352   3.374
 8511SOL     OW26431   5.651   4.348   1.771
 8511SOL    HW126432   5.737   4.395   1.750
 8511SOL    HW226433   5.600   4.400   1.840
 8512SOL     OW26434   3.973   2.107   0.278
 8512SOL    HW126435   3.973   2.184   0.342
 8512SOL    HW226436   3.999   2.024   0.326
 8513SOL     OW26437   4.840   4.170   1.360
 8513SOL    HW126438   4.912   4.102   1.373
 8513SOL    HW226439   4.751   4.128   1.378
 8514SOL     OW26440   2.421   2.586   3.441
 8514SOL    HW126441   2.495   2.591   3.508
 8514SOL    HW226442   2.451   2.532   3.363
 8515SOL     OW26443   0.541   0.815   6.529
 8515SOL    HW126444   0.505   0.866   6.607
 8515SOL    HW226445   0.473   0.811   6.456
 8516SOL     OW26446   6.123   3.315   2.015
 8516SOL    HW126447   6.089   3.244   1.954
 8516SOL    HW226448   6.070   3.314   2.100
 8517SOL     OW26449   2.064   2.776   6.007
 8517SOL    HW126450   2.155   2.750   6.040
 8517SOL    HW226451   2.003   2.789   6.084
 8518SOL     OW26452   5.316   4.088   5.946
 8518SOL    HW126453   5.321   4.127   5.854
 8518SOL    HW226454   5.358   3.998   5.946
 8519SOL     OW26455   0.356   4.699   0.896
 8519SOL    HW126456   0.417   4.767   0.856
 8519SOL    HW226457   0.406   4.642   0.961
 8520SOL     OW26458   3.142   3.229   5.396
 8520SOL    HW126459   3.116   3.157   5.331
 8520SOL    HW226460   3.222   3.200   5.448
 8521SOL     OW26461   1.856   6.303   5.606
 8521SOL    HW126462   1.828   6.256   5.689
 8521SOL    HW226463   1.956   6.313   5.605
 8522SOL     OW26464   0.190   6.770   1.289
 8522SOL    HW126465   0.114   6.828   1.320
 8522SOL    HW226466   0.262   6.770   1.359
 8523SOL     OW26467   3.062   6.776   0.110
 8523SOL    HW126468   3.031   6.701   0.051
 8523SOL    HW226469   3.089   6.853   0.053
 8524SOL     OW26470   1.442   3.935   4.968
 8524SOL    HW126471   1.422   4.003   5.038
 8524SOL    HW226472   1.466   3.982   4.882
 8525SOL     OW26473   5.876   5.337   1.055
 8525SOL    HW126474   5.872   5.380   0.965
 8525SOL    HW226475   5.964   5.358   1.098
 8526SOL     OW26476   3.217   6.694   0.747
 8526SOL    HW126477   3.224   6.617   0.810
 8526SOL    HW226478   3.124   6.699   0.710
 8527SOL     OW26479   3.817   0.528   0.115
 8527SOL    HW126480   3.797   0.440   0.072
 8527SOL    HW226481   3.743   0.552   0.178
 8528SOL     OW26482   3.857   1.559   0.845
 8528SOL    HW126483   3.881   1.656   0.836
 8528SOL    HW226484   3.844   1.537   0.942
 8529SOL     OW26485   1.191   6.604   0.389
 8529SOL    HW126486   1.123   6.676   0.393
 8529SOL    HW226487   1.222   6.592   0.295
 8530SOL     OW26488   3.790   3.804   5.034
 8530SOL    HW126489   3.758   3.783   4.941
 8530SOL    HW226490   3.824   3.899   5.036
 8531SOL     OW26491   7.003   5.514   2.746
 8531SOL    HW126492   6.908   5.498   2.718
 8531SOL    HW226493   7.013   5.608   2.777
 8532SOL     OW26494   3.956   6.166   4.345
 8532SOL    HW126495   3.978   6.259   4.374
 8532SOL    HW226496   3.857   6.153   4.350
 8533SOL     OW26497   1.600   5.817   0.052
 8533SOL    HW126498   1.673   5.861   0.104
 8533SOL    HW226499   1.597   5.719   0.074
 8534SOL     OW26500   4.684   2.746   3.814
 8534SOL    HW126501   4.771   2.781   3.779
 8534SOL    HW226502   4.629   2.710   3.739
 8535SOL     OW26503   5.614   1.230   4.482
 8535SOL    HW126504   5.598   1.169   4.404
 8535SOL    HW226505   5.690   1.195   4.537
 8536SOL     OW26506   0.994   1.649   4.974
 8536SOL    HW126507   0.919   1.638   5.039
 8536SOL    HW226508   1.080   1.622   5.018
 8537SOL     OW26509   5.427   1.751   3.593
 8537SOL    HW126510   5.481   1.832   3.567
 8537SOL    HW226511   5.390   1.708   3.511
 8538SOL     OW26512   2.272   1.574   0.010
 8538SOL    HW126513   2.190   1.520   7.014
 8538SOL    HW226514   2.353   1.516   0.000
 8539SOL     OW26515   6.658   1.938   2.142
 8539SOL    HW126516   6.637   2.022   2.092
 8539SOL    HW226517   6.655   1.860   2.079
 8540SOL     OW26518   5.542   0.227   6.500
 8540SOL    HW126519   5.442   0.225   6.504
 8540SOL    HW226520   5.572   0.316   6.465
 8541SOL     OW26521   3.468   1.841   3.304
 8541SOL    HW126522   3.435   1.911   3.367
 8541SOL    HW226523   3.416   1.845   3.219
 8542SOL     OW26524   3.902   4.279   6.247
 8542SOL    HW126525   3.934   4.230   6.166
 8542SOL    HW226526   3.849   4.217   6.306
 8543SOL     OW26527   2.024   1.331   1.422
 8543SOL    HW126528   2.031   1.362   1.517
 8543SOL    HW226529   1.982   1.403   1.367
 8544SOL     OW26530   5.633   3.026   4.238
 8544SOL    HW126531   5.687   3.038   4.321
 8544SOL    HW226532   5.585   2.939   4.240
 8545SOL     OW26533   4.659   0.052   5.540
 8545SOL    HW126534   4.581   0.007   5.495
 8545SOL    HW226535   4.688   7.018   5.618
 8546SOL     OW26536   5.701   2.443   4.043
 8546SOL    HW126537   5.770   2.376   4.071
 8546SOL    HW226538   5.610   2.407   4.063
 8547SOL     OW26539   0.718   6.498   6.300
 8547SOL    HW126540   0.726   6.594   6.272
 8547SOL    HW226541   0.797   6.447   6.266
 8548SOL     OW26542   6.103   2.691   4.803
 8548SOL    HW126543   6.134   2.697   4.898
 8548SOL    HW226544   6.182   2.699   4.742
 8549SOL     OW26545   0.405   3.700   4.218
 8549SOL    HW126546   0.393   3.615   4.165
 8549SOL    HW226547   0.333   3.764   4.195
 8550SOL     OW26548   1.936   4.589   6.760
 8550SOL    HW126549   2.021   4.600   6.812
 8550SOL    HW226550   1.894   4.501   6.783
 8551SOL     OW26551   3.690   4.468   6.519
 8551SOL    HW126552   3.766   4.405   6.533
 8551SOL    HW226553   3.689   4.536   6.592
 8552SOL     OW26554   2.888   6.377   4.281
 8552SOL    HW126555   2.968   6.359   4.339
 8552SOL    HW226556   2.912   6.361   4.186
 8553SOL     OW26557   5.602   5.722   6.715
 8553SOL    HW126558   5.696   5.695   6.692
 8553SOL    HW226559   5.539   5.653   6.681
 8554SOL     OW26560   0.387   5.044   0.182
 8554SOL    HW126561   0.367   5.001   0.270
 8554SOL    HW226562   0.432   4.977   0.122
 8555SOL     OW26563   1.074   0.464   3.150
 8555SOL    HW126564   0.980   0.484   3.124
 8555SOL    HW226565   1.131   0.456   3.068
 8556SOL     OW26566   0.828   6.808   3.167
 8556SOL    HW126567   0.920   6.846   3.176
 8556SOL    HW226568   0.800   6.809   3.071
 8557SOL     OW26569   6.578   1.419   2.245
 8557SOL    HW126570   6.639   1.478   2.193
 8557SOL    HW226571   6.505   1.474   2.286
 8558SOL     OW26572   2.442   5.466   3.039
 8558SOL    HW126573   2.468   5.370   3.029
 8558SOL    HW226574   2.420   5.504   2.949
 8559SOL     OW26575   6.671   0.650   2.499
 8559SOL    HW126576   6.706   0.673   2.408
 8559SOL    HW226577   6.746   0.618   2.557
 8560SOL     OW26578   6.831   0.360   1.154
 8560SOL    HW126579   6.834   0.420   1.074
 8560SOL    HW226580   6.780   0.403   1.227
 8561SOL     OW26581   3.739   6.018   2.461
 8561SOL    HW126582   3.798   5.949   2.502
 8561SOL    HW226583   3.660   5.973   2.419
 8562SOL     OW26584   5.201   0.220   4.714
 8562SOL    HW126585   5.165   0.196   4.623
 8562SOL    HW226586   5.137   0.281   4.760
 8563SOL     OW26587   2.574   2.880   6.552
 8563SOL    HW126588   2.585   2.943   6.630
 8563SOL    HW226589   2.479   2.850   6.547
 8564SOL     OW26590   2.221   0.681   3.285
 8564SOL    HW126591   2.135   0.682   3.334
 8564SOL    HW226592   2.282   0.612   3.326
 8565SOL     OW26593   4.314   6.793   1.491
 8565SOL    HW126594   4.276   6.713   1.445
 8565SOL    HW226595   4.255   6.819   1.568
 8566SOL     OW26596   1.426   0.957   2.668
 8566SOL    HW126597   1.458   0.959   2.573
 8566SOL    HW226598   1.333   0.992   2.673
 8567SOL     OW26599   6.565   1.810   1.503
 8567SOL    HW126600   6.612   1.744   1.561
 8567SOL    HW226601   6.624   1.835   1.427
 8568SOL     OW26602   4.828   1.517   6.989
 8568SOL    HW126603   4.813   1.510   0.067
 8568SOL    HW226604   4.845   1.612   6.964
 8569SOL     OW26605   4.923   1.683   5.519
 8569SOL    HW126606   4.929   1.759   5.453
 8569SOL    HW226607   4.887   1.718   5.605
 8570SOL     OW26608   1.187   2.726   6.156
 8570SOL    HW126609   1.116   2.785   6.117
 8570SOL    HW226610   1.261   2.715   6.090
 8571SOL     OW26611   0.207   5.103   5.554
 8571SOL    HW126612   0.122   5.139   5.591
 8571SOL    HW226613   0.237   5.160   5.478
 8572SOL     OW26614   2.193   5.306   5.856
 8572SOL    HW126615   2.286   5.291   5.824
 8572SOL    HW226616   2.144   5.364   5.790
 8573SOL     OW26617   3.904   6.117   6.439
 8573SOL    HW126618   3.930   6.021   6.441
 8573SOL    HW226619   3.807   6.127   6.461
 8574SOL     OW26620   0.668   4.741   5.440
 8574SOL    HW126621   0.722   4.677   5.495
 8574SOL    HW226622   0.601   4.691   5.385
 8575SOL     OW26623   2.710   2.335   0.195
 8575SOL    HW126624   2.735   2.241   0.173
 8575SOL    HW226625   2.672   2.338   0.288
 8576SOL     OW26626   0.622   6.646   0.987
 8576SOL    HW126627   0.564   6.684   0.915
 8576SOL    HW226628   0.716   6.641   0.954
 8577SOL     OW26629   6.178   5.431   4.619
 8577SOL    HW126630   6.116   5.489   4.567
 8577SOL    HW226631   6.129   5.350   4.652
 8578SOL     OW26632   4.931   0.410   4.105
 8578SOL    HW126633   4.868   0.483   4.131
 8578SOL    HW226634   4.923   0.393   4.007
 8579SOL     OW26635   1.299   5.733   3.583
 8579SOL    HW126636   1.271   5.637   3.579
 8579SOL    HW226637   1.351   5.750   3.667
 8580SOL     OW26638   2.466   6.863   1.678
 8580SOL    HW126639   2.370   6.892   1.684
 8580SOL    HW226640   2.515   6.896   1.759
 8581SOL     OW26641   3.422   2.727   1.657
 8581SOL    HW126642   3.333   2.772   1.664
 8581SOL    HW226643   3.421   2.643   1.711
 8582SOL     OW26644   4.822   4.565   2.459
 8582SOL    HW126645   4.751   4.495   2.462
 8582SOL    HW226646   4.906   4.529   2.501
 8583SOL     OW26647   5.755   0.723   6.328
 8583SOL    HW126648   5.670   0.762   6.293
 8583SOL    HW226649   5.799   0.670   6.255
 8584SOL     OW26650   0.401   4.475   6.989
 8584SOL    HW126651   0.498   4.475   6.966
 8584SOL    HW226652   0.388   4.431   0.057
 8585SOL     OW26653   6.875   6.942   0.441
 8585SOL    HW126654   6.894   6.922   0.537
 8585SOL    HW226655   6.832   6.863   0.398
 8586SOL     OW26656   2.716   6.423   3.044
 8586SOL    HW126657   2.658   6.341   3.041
 8586SOL    HW226658   2.803   6.404   3.000
 8587SOL     OW26659   0.692   0.264   2.647
 8587SOL    HW126660   0.705   0.358   2.618
 8587SOL    HW226661   0.594   0.245   2.654
 8588SOL     OW26662   3.086   1.133   0.310
 8588SOL    HW126663   3.036   1.149   0.395
 8588SOL    HW226664   3.037   1.065   0.255
 8589SOL     OW26665   4.088   1.502   4.503
 8589SOL    HW126666   4.186   1.483   4.507
 8589SOL    HW226667   4.073   1.590   4.457
 8590SOL     OW26668   6.669   5.887   4.136
 8590SOL    HW126669   6.731   5.965   4.139
 8590SOL    HW226670   6.652   5.854   4.229
 8591SOL     OW26671   0.191   4.186   6.457
 8591SOL    HW126672   0.152   4.159   6.546
 8591SOL    HW226673   0.250   4.266   6.470
 8592SOL     OW26674   0.051   4.306   0.057
 8592SOL    HW126675   7.006   4.368   0.100
 8592SOL    HW226676   0.107   4.263   0.128
 8593SOL     OW26677   1.000   6.751   1.955
 8593SOL    HW126678   1.073   6.812   1.922
 8593SOL    HW226679   1.036   6.688   2.023
 8594SOL     OW26680   3.273   3.948   4.995
 8594SOL    HW126681   3.351   3.978   5.050
 8594SOL    HW226682   3.301   3.935   4.900
 8595SOL     OW26683   2.146   1.519   2.599
 8595SOL    HW126684   2.137   1.522   2.500
 8595SOL    HW226685   2.182   1.430   2.627
 8596SOL     OW26686   5.819   5.442   2.297
 8596SOL    HW126687   5.851   5.456   2.391
 8596SOL    HW226688   5.869   5.365   2.256
 8597SOL     OW26689   3.928   1.960   1.365
 8597SOL    HW126690   3.938   2.057   1.344
 8597SOL    HW226691   3.861   1.920   1.302
 8598SOL     OW26692   0.018   5.479   1.258
 8598SOL    HW126693   0.041   5.448   1.350
 8598SOL    HW226694   0.070   5.426   1.191
 8599SOL     OW26695   1.244   3.195   3.791
 8599SOL    HW126696   1.256   3.097   3.772
 8599SOL    HW226697   1.175   3.208   3.861
 8600SOL     OW26698   5.757   4.961   6.557
 8600SOL    HW126699   5.749   4.868   6.593
 8600SOL    HW226700   5.813   4.960   6.474
 8601SOL     OW26701   0.589   1.217   4.653
 8601SOL    HW126702   0.498   1.213   4.693
 8601SOL    HW226703   0.612   1.129   4.611
 8602SOL     OW26704   2.544   6.641   2.581
 8602SOL    HW126705   2.456   6.595   2.570
 8602SOL    HW226706   2.547   6.723   2.523
 8603SOL     OW26707   3.918   3.843   0.151
 8603SOL    HW126708   3.977   3.763   0.160
 8603SOL    HW226709   3.938   3.890   0.066
 8604SOL     OW26710   5.805   2.937   3.775
 8604SOL    HW126711   5.804   2.849   3.823
 8604SOL    HW226712   5.899   2.964   3.757
 8605SOL     OW26713   3.135   4.896   4.372
 8605SOL    HW126714   3.212   4.892   4.435
 8605SOL    HW226715   3.053   4.861   4.417
 8606SOL     OW26716   2.157   3.897   6.109
 8606SOL    HW126717   2.102   3.964   6.160
 8606SOL    HW226718   2.101   3.859   6.035
 8607SOL     OW26719   3.102   4.676   1.043
 8607SOL    HW126720   3.111   4.689   1.142
 8607SOL    HW226721   3.042   4.747   1.006
 8608SOL     OW26722   4.672   5.079   3.246
 8608SOL    HW126723   4.682   5.165   3.195
 8608SOL    HW226724   4.723   5.086   3.332
 8609SOL     OW26725   3.893   0.805   4.213
 8609SOL    HW126726   3.818   0.745   4.243
 8609SOL    HW226727   3.922   0.778   4.121
 8610SOL     OW26728   1.282   0.134   3.104
 8610SOL    HW126729   1.208   0.075   3.138
 8610SOL    HW226730   1.356   0.137   3.171
 8611SOL     OW26731   1.606   2.187   4.351
 8611SOL    HW126732   1.603   2.122   4.275
 8611SOL    HW226733   1.592   2.139   4.438
 8612SOL     OW26734   3.548   3.138   6.363
 8612SOL    HW126735   3.471   3.199   6.344
 8612SOL    HW226736   3.561   3.075   6.286
 8613SOL     OW26737   2.358   1.401   1.556
 8613SOL    HW126738   2.446   1.448   1.550
 8613SOL    HW226739   2.341   1.351   1.471
 8614SOL     OW26740   0.927   3.972   2.615
 8614SOL    HW126741   0.961   4.046   2.672
 8614SOL    HW226742   0.980   3.967   2.530
 8615SOL     OW26743   4.460   1.768   4.987
 8615SOL    HW126744   4.408   1.853   4.995
 8615SOL    HW226745   4.407   1.693   5.025
 8616SOL     OW26746   0.739   5.152   0.456
 8616SOL    HW126747   0.721   5.137   0.359
 8616SOL    HW226748   0.684   5.229   0.489
 8617SOL     OW26749   6.453   1.499   0.508
 8617SOL    HW126750   6.539   1.489   0.559
 8617SOL    HW226751   6.377   1.504   0.572
 8618SOL     OW26752   4.856   0.016   1.865
 8618SOL    HW126753   4.812   6.969   1.806
 8618SOL    HW226754   4.939   6.997   1.904
 8619SOL     OW26755   3.622   4.748   0.180
 8619SOL    HW126756   3.566   4.750   0.263
 8619SOL    HW226757   3.703   4.691   0.196
 8620SOL     OW26758   6.230   6.713   2.973
 8620SOL    HW126759   6.317   6.749   3.008
 8620SOL    HW226760   6.175   6.788   2.938
 8621SOL     OW26761   6.145   1.467   3.321
 8621SOL    HW126762   6.157   1.563   3.293
 8621SOL    HW226763   6.165   1.407   3.244
 8622SOL     OW26764   4.488   4.340   0.366
 8622SOL    HW126765   4.471   4.307   0.459
 8622SOL    HW226766   4.586   4.348   0.351
 8623SOL     OW26767   0.496   4.249   3.219
 8623SOL    HW126768   0.469   4.206   3.133
 8623SOL    HW226769   0.417   4.297   3.259
 8624SOL     OW26770   1.347   4.768   3.707
 8624SOL    HW126771   1.440   4.796   3.683
 8624SOL    HW226772   1.342   4.749   3.805
 8625SOL     OW26773   4.516   0.521   4.076
 8625SOL    HW126774   4.435   0.580   4.075
 8625SOL    HW226775   4.599   0.576   4.067
 8626SOL     OW26776   3.829   3.163   4.280
 8626SOL    HW126777   3.739   3.125   4.300
 8626SOL    HW226778   3.894   3.131   4.349
 8627SOL     OW26779   1.309   0.248   2.536
 8627SOL    HW126780   1.252   0.187   2.481
 8627SOL    HW226781   1.329   0.331   2.484
 8628SOL     OW26782   6.448   6.945   0.736
 8628SOL    HW126783   6.420   6.863   0.786
 8628SOL    HW226784   6.378   6.970   0.670
 8629SOL     OW26785   1.742   4.992   4.757
 8629SOL    HW126786   1.731   4.905   4.711
 8629SOL    HW226787   1.832   5.031   4.737
 8630SOL     OW26788   5.994   3.986   4.907
 8630SOL    HW126789   6.004   3.897   4.861
 8630SOL    HW226790   5.897   4.011   4.909
 8631SOL     OW26791   3.899   6.404   6.364
 8631SOL    HW126792   3.955   6.408   6.280
 8631SOL    HW226793   3.913   6.315   6.408
 8632SOL     OW26794   3.388   6.336   3.892
 8632SOL    HW126795   3.459   6.307   3.827
 8632SOL    HW226796   3.429   6.347   3.982
 8633SOL     OW26797   5.194   1.225   4.171
 8633SOL    HW126798   5.096   1.217   4.155
 8633SOL    HW226799   5.212   1.228   4.269
 8634SOL     OW26800   6.567   2.704   0.696
 8634SOL    HW126801   6.527   2.751   0.617
 8634SOL    HW226802   6.578   2.769   0.772
 8635SOL     OW26803   5.901   3.596   5.764
 8635SOL    HW126804   5.849   3.558   5.687
 8635SOL    HW226805   5.997   3.568   5.758
 8636SOL     OW26806   6.042   5.269   6.757
 8636SOL    HW126807   6.002   5.182   6.729
 8636SOL    HW226808   5.983   5.344   6.729
 8637SOL     OW26809   1.304   0.444   0.618
 8637SOL    HW126810   1.352   0.504   0.554
 8637SOL    HW226811   1.212   0.480   0.635
 8638SOL     OW26812   1.958   3.331   0.230
 8638SOL    HW126813   2.012   3.359   0.309
 8638SOL    HW226814   2.017   3.323   0.150
 8639SOL     OW26815   5.834   2.656   1.735
 8639SOL    HW126816   5.745   2.628   1.700
 8639SOL    HW226817   5.897   2.674   1.659
 8640SOL     OW26818   5.059   3.832   0.627
 8640SOL    HW126819   5.144   3.874   0.659
 8640SOL    HW226820   5.029   3.876   0.543
 8641SOL     OW26821   6.883   4.131   4.324
 8641SOL    HW126822   6.860   4.074   4.244
 8641SOL    HW226823   6.804   4.186   4.349
 8642SOL     OW26824   4.497   0.291   2.393
 8642SOL    HW126825   4.562   0.227   2.434
 8642SOL    HW226826   4.454   0.249   2.314
 8643SOL     OW26827   4.137   6.716   6.946
 8643SOL    HW126828   4.147   6.765   0.012
 8643SOL    HW226829   4.164   6.776   6.870
 8644SOL     OW26830   5.239   2.448   5.705
 8644SOL    HW126831   5.286   2.368   5.743
 8644SOL    HW226832   5.150   2.420   5.669
 8645SOL     OW26833   5.723   4.897   1.831
 8645SOL    HW126834   5.629   4.894   1.795
 8645SOL    HW226835   5.736   4.823   1.897
 8646SOL     OW26836   6.085   0.987   0.979
 8646SOL    HW126837   6.170   1.020   0.939
 8646SOL    HW226838   6.037   0.930   0.913
 8647SOL     OW26839   3.994   4.991   6.277
 8647SOL    HW126840   4.088   4.974   6.247
 8647SOL    HW226841   3.960   4.912   6.327
 8648SOL     OW26842   5.534   1.454   5.088
 8648SOL    HW126843   5.513   1.387   5.159
 8648SOL    HW226844   5.605   1.418   5.028
 8649SOL     OW26845   5.723   4.838   5.829
 8649SOL    HW126846   5.697   4.763   5.890
 8649SOL    HW226847   5.727   4.805   5.735
 8650SOL     OW26848   1.749   4.736   4.683
 8650SOL    HW126849   1.836   4.699   4.647
 8650SOL    HW226850   1.729   4.694   4.771
 8651SOL     OW26851   4.058   0.501   0.541
 8651SOL    HW126852   4.016   0.528   0.628
 8651SOL    HW226853   4.123   0.427   0.558
 8652SOL     OW26854   1.274   4.411   3.216
 8652SOL    HW126855   1.245   4.506   3.229
 8652SOL    HW226856   1.259   4.359   3.300
 8653SOL     OW26857   6.476   2.861   6.381
 8653SOL    HW126858   6.386   2.823   6.364
 8653SOL    HW226859   6.495   2.933   6.314
 8654SOL     OW26860   0.744   6.468   1.685
 8654SOL    HW126861   0.660   6.479   1.738
 8654SOL    HW226862   0.810   6.415   1.738
 8655SOL     OW26863   5.997   0.566   3.747
 8655SOL    HW126864   5.946   0.557   3.833
 8655SOL    HW226865   5.994   0.479   3.697
 8656SOL     OW26866   6.463   1.463   1.247
 8656SOL    HW126867   6.423   1.373   1.266
 8656SOL    HW226868   6.404   1.513   1.184
 8657SOL     OW26869   4.427   5.442   6.414
 8657SOL    HW126870   4.454   5.365   6.473
 8657SOL    HW226871   4.327   5.443   6.405
 8658SOL     OW26872   4.534   5.667   0.214
 8658SOL    HW126873   4.574   5.586   0.172
 8658SOL    HW226874   4.489   5.722   0.143
 8659SOL     OW26875   4.684   1.453   3.009
 8659SOL    HW126876   4.704   1.506   3.091
 8659SOL    HW226877   4.603   1.492   2.964
 8660SOL     OW26878   5.109   3.615   0.799
 8660SOL    HW126879   5.075   3.676   0.729
 8660SOL    HW226880   5.158   3.667   0.868
 8661SOL     OW26881   5.887   3.976   1.952
 8661SOL    HW126882   5.941   3.893   1.965
 8661SOL    HW226883   5.855   3.981   1.857
 8662SOL     OW26884   5.033   6.533   1.846
 8662SOL    HW126885   4.980   6.549   1.930
 8662SOL    HW226886   5.130   6.543   1.866
 8663SOL     OW26887   2.213   5.537   0.672
 8663SOL    HW126888   2.245   5.547   0.578
 8663SOL    HW226889   2.125   5.583   0.682
 8664SOL     OW26890   3.967   4.947   0.394
 8664SOL    HW126891   4.031   4.977   0.464
 8664SOL    HW226892   3.956   4.848   0.399
 8665SOL     OW26893   5.384   5.219   5.142
 8665SOL    HW126894   5.446   5.214   5.221
 8665SOL    HW226895   5.325   5.138   5.142
 8666SOL     OW26896   5.337   2.629   4.772
 8666SOL    HW126897   5.436   2.648   4.771
 8666SOL    HW226898   5.319   2.555   4.838
 8667SOL     OW26899   5.028   2.224   2.859
 8667SOL    HW126900   5.095   2.285   2.902
 8667SOL    HW226901   4.981   2.273   2.786
 8668SOL     OW26902   5.013   2.628   4.013
 8668SOL    HW126903   5.000   2.582   4.102
 8668SOL    HW226904   5.106   2.612   3.981
 8669SOL     OW26905   3.247   0.371   6.730
 8669SOL    HW126906   3.234   0.363   6.631
 8669SOL    HW226907   3.344   0.386   6.750
 8670SOL     OW26908   3.277   4.971   5.195
 8670SOL    HW126909   3.339   4.951   5.271
 8670SOL    HW226910   3.211   5.040   5.223
 8671SOL     OW26911   5.553   0.819   4.222
 8671SOL    HW126912   5.563   0.823   4.122
 8671SOL    HW226913   5.485   0.885   4.252
 8672SOL     OW26914   2.638   5.950   4.366
 8672SOL    HW126915   2.609   5.884   4.297
 8672SOL    HW226916   2.629   5.909   4.457
 8673SOL     OW26917   0.275   1.104   6.942
 8673SOL    HW126918   0.278   1.014   6.901
 8673SOL    HW226919   0.342   1.110   7.016
 8674SOL     OW26920   6.619   6.025   1.617
 8674SOL    HW126921   6.621   6.123   1.637
 8674SOL    HW226922   6.606   5.973   1.701
 8675SOL     OW26923   3.313   2.095   4.057
 8675SOL    HW126924   3.410   2.119   4.051
 8675SOL    HW226925   3.273   2.140   4.137
 8676SOL     OW26926   3.271   6.714   3.138
 8676SOL    HW126927   3.207   6.726   3.214
 8676SOL    HW226928   3.326   6.797   3.128
 8677SOL     OW26929   2.086   5.392   6.390
 8677SOL    HW126930   2.070   5.474   6.444
 8677SOL    HW226931   1.999   5.348   6.369
 8678SOL     OW26932   7.005   6.999   0.054
 8678SOL    HW126933   6.972   6.914   0.094
 8678SOL    HW226934   6.994   0.053   0.119
 8679SOL     OW26935   6.146   2.982   4.781
 8679SOL    HW126936   6.105   2.893   4.801
 8679SOL    HW226937   6.135   3.004   4.684
 8680SOL     OW26938   0.505   3.927   0.920
 8680SOL    HW126939   0.446   3.877   0.984
 8680SOL    HW226940   0.492   3.891   0.828
 8681SOL     OW26941   4.748   4.430   0.290
 8681SOL    HW126942   4.809   4.443   0.211
 8681SOL    HW226943   4.703   4.517   0.312
 8682SOL     OW26944   3.924   6.864   2.583
 8682SOL    HW126945   3.966   6.931   2.521
 8682SOL    HW226946   3.825   6.870   2.577
 8683SOL     OW26947   1.530   2.327   1.913
 8683SOL    HW126948   1.592   2.293   1.984
 8683SOL    HW226949   1.521   2.258   1.841
 8684SOL     OW26950   0.496   3.081   4.915
 8684SOL    HW126951   0.494   2.986   4.945
 8684SOL    HW226952   0.548   3.135   4.981
 8685SOL     OW26953   1.069   2.291   5.648
 8685SOL    HW126954   0.973   2.311   5.633
 8685SOL    HW226955   1.078   2.211   5.708
 8686SOL     OW26956   6.644   1.768   1.928
 8686SOL    HW126957   6.560   1.818   1.910
 8686SOL    HW226958   6.703   1.772   1.847
 8687SOL     OW26959   3.262   5.943   2.667
 8687SOL    HW126960   3.360   5.959   2.676
 8687SOL    HW226961   3.216   6.028   2.642
 8688SOL     OW26962   2.971   6.290   6.856
 8688SOL    HW126963   2.897   6.282   6.790
 8688SOL    HW226964   3.011   6.200   6.873
 8689SOL     OW26965   3.189   5.448   6.898
 8689SOL    HW126966   3.271   5.451   6.841
 8689SOL    HW226967   3.108   5.456   6.840
 8690SOL     OW26968   1.667   2.355   3.850
 8690SOL    HW126969   1.738   2.378   3.916
 8690SOL    HW226970   1.707   2.347   3.759
 8691SOL     OW26971   4.458   2.777   6.062
 8691SOL    HW126972   4.365   2.748   6.040
 8691SOL    HW226973   4.481   2.747   6.155
 8692SOL     OW26974   3.274   2.143   2.583
 8692SOL    HW126975   3.184   2.183   2.565
 8692SOL    HW226976   3.340   2.178   2.517
 8693SOL     OW26977   5.589   2.058   0.937
 8693SOL    HW126978   5.680   2.017   0.940
 8693SOL    HW226979   5.527   2.008   0.997
 8694SOL     OW26980   4.215   1.197   6.633
 8694SOL    HW126981   4.207   1.211   6.732
 8694SOL    HW226982   4.206   1.099   6.613
 8695SOL     OW26983   4.557   2.623   5.776
 8695SOL    HW126984   4.519   2.661   5.860
 8695SOL    HW226985   4.493   2.636   5.700
 8696SOL     OW26986   3.377   6.000   1.054
 8696SOL    HW126987   3.436   6.045   0.988
 8696SOL    HW226988   3.281   6.025   1.038
 8697SOL     OW26989   6.477   3.734   0.764
 8697SOL    HW126990   6.435   3.673   0.696
 8697SOL    HW226991   6.574   3.713   0.772
 8698SOL     OW26992   5.944   6.028   3.738
 8698SOL    HW126993   5.992   5.998   3.821
 8698SOL    HW226994   5.846   6.011   3.748
 8699SOL     OW26995   1.243   2.408   5.473
 8699SOL    HW126996   1.239   2.373   5.379
 8699SOL    HW226997   1.167   2.371   5.526
 8700SOL     OW26998   2.302   1.170   4.401
 8700SOL    HW126999   2.218   1.175   4.347
 8700SOL    HW227000   2.287   1.112   4.482
 8701SOL     OW27001   1.689   0.654   0.053
 8701SOL    HW127002   1.701   0.594   6.995
 8701SOL    HW227003   1.596   0.645   0.088
 8702SOL     OW27004   5.503   4.639   0.020
 8702SOL    HW127005   5.480   4.580   6.964
 8702SOL    HW227006   5.603   4.651   0.024
 8703SOL     OW27007   2.458   5.276   1.179
 8703SOL    HW127008   2.412   5.261   1.266
 8703SOL    HW227009   2.557   5.273   1.192
 8704SOL     OW27010   6.377   3.722   2.746
 8704SOL    HW127011   6.278   3.712   2.756
 8704SOL    HW227012   6.398   3.816   2.716
 8705SOL     OW27013   5.101   1.121   0.468
 8705SOL    HW127014   5.159   1.153   0.393
 8705SOL    HW227015   5.156   1.113   0.551
 8706SOL     OW27016   4.645   2.309   5.549
 8706SOL    HW127017   4.575   2.240   5.569
 8706SOL    HW227018   4.666   2.360   5.632
 8707SOL     OW27019   5.121   2.425   0.047
 8707SOL    HW127020   5.050   2.440   0.116
 8707SOL    HW227021   5.109   2.334   0.008
 8708SOL     OW27022   4.170   2.259   1.957
 8708SOL    HW127023   4.082   2.213   1.963
 8708SOL    HW227024   4.196   2.295   2.046
 8709SOL     OW27025   6.827   5.734   6.451
 8709SOL    HW127026   6.748   5.677   6.430
 8709SOL    HW227027   6.802   5.830   6.443
 8710SOL     OW27028   1.867   3.107   3.178
 8710SOL    HW127029   1.948   3.133   3.126
 8710SOL    HW227030   1.818   3.035   3.130
 8711SOL     OW27031   6.733   5.895   2.320
 8711SOL    HW127032   6.640   5.860   2.306
 8711SOL    HW227033   6.762   5.873   2.414
 8712SOL     OW27034   4.195   2.348   3.933
 8712SOL    HW127035   4.193   2.281   4.007
 8712SOL    HW227036   4.200   2.301   3.845
 8713SOL     OW27037   0.598   4.153   3.444
 8713SOL    HW127038   0.562   4.207   3.368
 8713SOL    HW227039   0.636   4.067   3.409
 8714SOL     OW27040   0.397   0.671   5.692
 8714SOL    HW127041   0.300   0.684   5.670
 8714SOL    HW227042   0.450   0.746   5.652
 8715SOL     OW27043   4.785   0.674   1.076
 8715SOL    HW127044   4.753   0.668   1.171
 8715SOL    HW227045   4.871   0.725   1.074
 8716SOL     OW27046   0.578   0.875   1.623
 8716SOL    HW127047   0.623   0.923   1.698
 8716SOL    HW227048   0.481   0.899   1.622
 8717SOL     OW27049   3.920   3.197   2.914
 8717SOL    HW127050   3.885   3.106   2.891
 8717SOL    HW227051   3.882   3.264   2.850
 8718SOL     OW27052   1.294   2.891   5.732
 8718SOL    HW127053   1.358   2.865   5.660
 8718SOL    HW227054   1.224   2.952   5.694
 8719SOL     OW27055   1.829   0.121   6.191
 8719SOL    HW127056   1.883   0.205   6.191
 8719SOL    HW227057   1.858   0.062   6.115
 8720SOL     OW27058   6.359   5.020   5.598
 8720SOL    HW127059   6.383   4.986   5.689
 8720SOL    HW227060   6.295   5.096   5.607
 8721SOL     OW27061   5.469   2.279   3.974
 8721SOL    HW127062   5.438   2.218   3.902
 8721SOL    HW227063   5.416   2.262   4.057
 8722SOL     OW27064   3.599   0.574   0.624
 8722SOL    HW127065   3.610   0.631   0.706
 8722SOL    HW227066   3.501   0.559   0.608
 8723SOL     OW27067   5.592   6.151   1.836
 8723SOL    HW127068   5.651   6.071   1.823
 8723SOL    HW227069   5.578   6.165   1.934
 8724SOL     OW27070   6.167   6.716   4.632
 8724SOL    HW127071   6.119   6.793   4.590
 8724SOL    HW227072   6.106   6.638   4.637
 8725SOL     OW27073   2.855   6.907   6.957
 8725SOL    HW127074   2.829   6.835   0.002
 8725SOL    HW227075   2.773   6.954   6.925
 8726SOL     OW27076   6.644   0.807   1.116
 8726SOL    HW127077   6.568   0.868   1.094
 8726SOL    HW227078   6.650   0.796   1.216
 8727SOL     OW27079   6.491   6.527   2.232
 8727SOL    HW127080   6.544   6.590   2.176
 8727SOL    HW227081   6.537   6.515   2.320
 8728SOL     OW27082   4.243   6.983   4.505
 8728SOL    HW127083   4.342   6.984   4.500
 8728SOL    HW227084   4.205   6.946   4.420
 8729SOL     OW27085   4.672   6.314   3.210
 8729SOL    HW127086   4.743   6.363   3.260
 8729SOL    HW227087   4.630   6.246   3.270
 8730SOL     OW27088   6.708   5.390   2.717
 8730SOL    HW127089   6.753   5.306   2.685
 8730SOL    HW227090   6.633   5.366   2.778
 8731SOL     OW27091   2.345   1.930   2.826
 8731SOL    HW127092   2.313   1.857   2.886
 8731SOL    HW227093   2.421   1.896   2.770
 8732SOL     OW27094   4.798   4.644   1.835
 8732SOL    HW127095   4.885   4.664   1.881
 8732SOL    HW227096   4.788   4.545   1.823
 8733SOL     OW27097   1.354   5.880   3.113
 8733SOL    HW127098   1.390   5.818   3.043
 8733SOL    HW227099   1.332   5.968   3.070
 8734SOL     OW27100   1.060   4.533   1.880
 8734SOL    HW127101   1.085   4.478   1.959
 8734SOL    HW227102   1.099   4.625   1.890
 8735SOL     OW27103   0.849   1.348   0.011
 8735SOL    HW127104   0.893   1.403   6.961
 8735SOL    HW227105   0.840   1.254   7.000
 8736SOL     OW27106   0.955   6.667   0.157
 8736SOL    HW127107   0.967   6.613   0.073
 8736SOL    HW227108   0.975   6.763   0.137
 8737SOL     OW27109   3.185   0.003   6.151
 8737SOL    HW127110   3.242   6.943   6.139
 8737SOL    HW227111   3.133   7.014   6.236
 8738SOL     OW27112   2.235   4.014   3.833
 8738SOL    HW127113   2.304   4.086   3.829
 8738SOL    HW227114   2.243   3.965   3.920
 8739SOL     OW27115   6.531   5.314   5.710
 8739SOL    HW127116   6.441   5.320   5.668
 8739SOL    HW227117   6.561   5.406   5.737
 8740SOL     OW27118   4.159   1.355   5.432
 8740SOL    HW127119   4.247   1.311   5.451
 8740SOL    HW227120   4.147   1.363   5.334
 8741SOL     OW27121   1.873   0.936   2.226
 8741SOL    HW127122   1.894   0.975   2.316
 8741SOL    HW227123   1.938   0.971   2.158
 8742SOL     OW27124   5.387   5.890   1.774
 8742SOL    HW127125   5.415   5.925   1.684
 8742SOL    HW227126   5.346   5.799   1.763
 8743SOL     OW27127   2.274   6.817   2.884
 8743SOL    HW127128   2.290   6.779   2.975
 8743SOL    HW227129   2.358   6.859   2.850
 8744SOL     OW27130   3.603   2.512   6.305
 8744SOL    HW127131   3.642   2.603   6.321
 8744SOL    HW227132   3.668   2.442   6.336
 8745SOL     OW27133   6.566   2.694   5.671
 8745SOL    HW127134   6.573   2.792   5.691
 8745SOL    HW227135   6.579   2.642   5.755
 8746SOL     OW27136   4.475   4.260   5.269
 8746SOL    HW127137   4.559   4.243   5.218
 8746SOL    HW227138   4.415   4.320   5.216
 8747SOL     OW27139   0.718   2.560   3.270
 8747SOL    HW127140   0.758   2.473   3.300
 8747SOL    HW227141   0.733   2.629   3.341
 8748SOL     OW27142   0.472   1.122   6.244
 8748SOL    HW127143   0.504   1.199   6.190
 8748SOL    HW227144   0.380   1.096   6.214
 8749SOL     OW27145   2.624   0.035   4.858
 8749SOL    HW127146   2.597   0.120   4.815
 8749SOL    HW227147   2.563   6.982   4.829
 8750SOL     OW27148   2.690   3.206   5.323
 8750SOL    HW127149   2.687   3.193   5.422
 8750SOL    HW227150   2.613   3.156   5.281
 8751SOL     OW27151   6.305   6.864   2.246
 8751SOL    HW127152   6.252   6.790   2.204
 8751SOL    HW227153   6.278   6.951   2.206
 8752SOL     OW27154   2.841   3.988   6.954
 8752SOL    HW127155   2.848   4.053   0.009
 8752SOL    HW227156   2.867   3.897   6.985
 8753SOL     OW27157   5.081   1.697   4.680
 8753SOL    HW127158   5.180   1.690   4.688
 8753SOL    HW227159   5.042   1.718   4.770
 8754SOL     OW27160   0.780   1.869   5.528
 8754SOL    HW127161   0.792   1.788   5.586
 8754SOL    HW227162   0.739   1.942   5.582
 8755SOL     OW27163   2.769   1.287   6.611
 8755SOL    HW127164   2.812   1.204   6.575
 8755SOL    HW227165   2.809   1.310   6.700
 8756SOL     OW27166   2.116   3.441   3.213
 8756SOL    HW127167   2.097   3.504   3.137
 8756SOL    HW227168   2.114   3.492   3.299
 8757SOL     OW27169   5.575   6.806   5.805
 8757SOL    HW127170   5.506   6.781   5.873
 8757SOL    HW227171   5.658   6.836   5.851
 8758SOL     OW27172   5.159   5.900   2.372
 8758SOL    HW127173   5.226   5.930   2.439
 8758SOL    HW227174   5.081   5.963   2.372
 8759SOL     OW27175   4.151   1.917   6.385
 8759SOL    HW127176   4.173   1.895   6.481
 8759SOL    HW227177   4.125   1.833   6.337
 8760SOL     OW27178   2.171   1.985   5.143
 8760SOL    HW127179   2.127   2.075   5.149
 8760SOL    HW227180   2.104   1.914   5.163
 8761SOL     OW27181   4.105   0.110   0.916
 8761SOL    HW127182   4.016   0.123   0.872
 8761SOL    HW227183   4.133   0.194   0.961
 8762SOL     OW27184   1.407   3.276   2.527
 8762SOL    HW127185   1.468   3.308   2.455
 8762SOL    HW227186   1.384   3.351   2.588
 8763SOL     OW27187   5.987   6.207   4.522
 8763SOL    HW127188   5.918   6.139   4.547
 8763SOL    HW227189   6.078   6.166   4.529
 8764SOL     OW27190   4.743   0.989   4.282
 8764SOL    HW127191   4.667   0.963   4.342
 8764SOL    HW227192   4.811   1.040   4.335
 8765SOL     OW27193   6.036   6.453   4.626
 8765SOL    HW127194   6.006   6.385   4.559
 8765SOL    HW227195   6.014   6.420   4.718
 8766SOL     OW27196   3.934   4.858   3.357
 8766SOL    HW127197   3.976   4.768   3.347
 8766SOL    HW227198   4.001   4.928   3.333
 8767SOL     OW27199   4.527   0.682   3.136
 8767SOL    HW127200   4.460   0.621   3.095
 8767SOL    HW227201   4.548   0.652   3.228
 8768SOL     OW27202   2.021   3.065   0.132
 8768SOL    HW127203   1.923   3.046   0.137
 8768SOL    HW227204   2.062   3.049   0.222
 8769SOL     OW27205   0.902   0.373   5.074
 8769SOL    HW127206   0.808   0.367   5.107
 8769SOL    HW227207   0.925   0.291   5.021
 8770SOL     OW27208   5.016   4.125   2.068
 8770SOL    HW127209   5.056   4.213   2.043
 8770SOL    HW227210   4.946   4.100   2.001
 8771SOL     OW27211   2.297   0.282   6.122
 8771SOL    HW127212   2.269   0.378   6.131
 8771SOL    HW227213   2.319   0.263   6.026
 8772SOL     OW27214   5.707   0.049   0.036
 8772SOL    HW127215   5.802   0.029   0.012
 8772SOL    HW227216   5.664   0.097   6.980
 8773SOL     OW27217   4.638   1.992   3.617
 8773SOL    HW127218   4.616   2.021   3.524
 8773SOL    HW227219   4.696   2.061   3.660
 8774SOL     OW27220   1.735   1.144   0.787
 8774SOL    HW127221   1.755   1.048   0.803
 8774SOL    HW227222   1.819   1.193   0.764
 8775SOL     OW27223   6.002   0.148   4.051
 8775SOL    HW127224   5.986   0.156   3.952
 8775SOL    HW227225   6.068   0.217   4.080
 8776SOL     OW27226   3.221   2.865   5.141
 8776SOL    HW127227   3.170   2.925   5.203
 8776SOL    HW227228   3.202   2.893   5.046
 8777SOL     OW27229   6.872   4.122   1.279
 8777SOL    HW127230   6.824   4.055   1.221
 8777SOL    HW227231   6.807   4.192   1.309
 8778SOL     OW27232   0.445   2.764   4.208
 8778SOL    HW127233   0.419   2.803   4.296
 8778SOL    HW227234   0.390   2.682   4.191
 8779SOL     OW27235   1.943   5.411   1.963
 8779SOL    HW127236   1.910   5.417   2.057
 8779SOL    HW227237   1.906   5.329   1.919
 8780SOL     OW27238   1.482   5.825   3.379
 8780SOL    HW127239   1.448   5.863   3.292
 8780SOL    HW227240   1.405   5.790   3.432
 8781SOL     OW27241   6.875   2.090   3.844
 8781SOL    HW127242   6.840   2.073   3.936
 8781SOL    HW227243   6.804   2.133   3.789
 8782SOL     OW27244   5.832   1.076   1.143
 8782SOL    HW127245   5.888   1.039   1.069
 8782SOL    HW227246   5.772   1.004   1.179
 8783SOL     OW27247   5.826   3.573   3.815
 8783SOL    HW127248   5.845   3.482   3.779
 8783SOL    HW227249   5.843   3.641   3.744
 8784SOL     OW27250   4.866   4.744   5.230
 8784SOL    HW127251   4.905   4.678   5.295
 8784SOL    HW227252   4.788   4.791   5.273
 8785SOL     OW27253   5.484   3.597   0.114
 8785SOL    HW127254   5.568   3.608   0.167
 8785SOL    HW227255   5.490   3.513   0.060
 8786SOL     OW27256   2.399   6.524   6.964
 8786SOL    HW127257   2.384   6.482   6.875
 8786SOL    HW227258   2.418   6.622   6.952
 8787SOL     OW27259   1.596   2.583   2.036
 8787SOL    HW127260   1.617   2.581   2.133
 8787SOL    HW227261   1.554   2.496   2.009
 8788SOL     OW27262   6.912   2.138   5.701
 8788SOL    HW127263   6.923   2.233   5.670
 8788SOL    HW227264   6.843   2.134   5.773
 8789SOL     OW27265   6.054   0.085   6.047
 8789SOL    HW127266   6.116   0.156   6.013
 8789SOL    HW227267   6.015   0.114   6.134
 8790SOL     OW27268   6.721   1.095   0.569
 8790SOL    HW127269   6.715   1.103   0.469
 8790SOL    HW227270   6.788   1.161   0.603
 8791SOL     OW27271   4.959   0.239   5.587
 8791SOL    HW127272   4.992   0.147   5.607
 8791SOL    HW227273   4.909   0.239   5.501
 8792SOL     OW27274   4.101   6.700   2.994
 8792SOL    HW127275   4.196   6.680   3.019
 8792SOL    HW227276   4.095   6.793   2.957
 8793SOL     OW27277   1.989   5.896   4.159
 8793SOL    HW127278   2.073   5.925   4.113
 8793SOL    HW227279   1.954   5.813   4.116
 8794SOL     OW27280   3.144   6.181   2.362
 8794SOL    HW127281   3.155   6.194   2.461
 8794SOL    HW227282   3.051   6.206   2.335
 8795SOL     OW27283   1.395   6.663   5.180
 8795SOL    HW127284   1.332   6.691   5.108
 8795SOL    HW227285   1.489   6.672   5.149
 8796SOL     OW27286   3.756   1.488   5.414
 8796SOL    HW127287   3.662   1.520   5.421
 8796SOL    HW227288   3.809   1.550   5.356
 8797SOL     OW27289   1.585   6.402   6.019
 8797SOL    HW127290   1.617   6.359   5.935
 8797SOL    HW227291   1.643   6.374   6.095
 8798SOL     OW27292   5.722   4.287   5.254
 8798SOL    HW127293   5.782   4.339   5.315
 8798SOL    HW227294   5.669   4.350   5.197
 8799SOL     OW27295   2.319   4.930   3.310
 8799SOL    HW127296   2.271   5.005   3.264
 8799SOL    HW227297   2.346   4.861   3.243
 8800SOL     OW27298   5.335   3.444   5.166
 8800SOL    HW127299   5.237   3.457   5.182
 8800SOL    HW227300   5.375   3.392   5.241
 8801SOL     OW27301   2.435   0.828   4.373
 8801SOL    HW127302   2.530   0.798   4.375
 8801SOL    HW227303   2.390   0.802   4.459
 8802SOL     OW27304   1.146   0.395   1.241
 8802SOL    HW127305   1.096   0.314   1.211
 8802SOL    HW227306   1.137   0.467   1.173
 8803SOL     OW27307   1.533   4.668   6.078
 8803SOL    HW127308   1.591   4.589   6.055
 8803SOL    HW227309   1.441   4.653   6.043
 8804SOL     OW27310   3.552   0.726   1.550
 8804SOL    HW127311   3.511   0.805   1.595
 8804SOL    HW227312   3.608   0.675   1.616
 8805SOL     OW27313   2.406   0.318   3.660
 8805SOL    HW127314   2.486   0.329   3.720
 8805SOL    HW227315   2.329   0.283   3.714
 8806SOL     OW27316   1.875   5.435   1.630
 8806SOL    HW127317   1.960   5.482   1.656
 8806SOL    HW227318   1.892   5.337   1.622
 8807SOL     OW27319   6.382   6.097   6.321
 8807SOL    HW127320   6.415   6.035   6.392
 8807SOL    HW227321   6.450   6.102   6.247
 8808SOL     OW27322   5.739   1.734   0.693
 8808SOL    HW127323   5.781   1.664   0.752
 8808SOL    HW227324   5.643   1.712   0.678
 8809SOL     OW27325   5.445   4.018   1.999
 8809SOL    HW127326   5.380   3.954   2.041
 8809SOL    HW227327   5.500   4.061   2.070
 8810SOL     OW27328   5.515   1.209   5.227
 8810SOL    HW127329   5.485   1.141   5.294
 8810SOL    HW227330   5.537   1.164   5.140
 8811SOL     OW27331   2.539   1.838   4.173
 8811SOL    HW127332   2.599   1.760   4.154
 8811SOL    HW227333   2.499   1.871   4.087
 8812SOL     OW27334   0.960   0.736   0.917
 8812SOL    HW127335   0.945   0.682   0.835
 8812SOL    HW227336   0.874   0.780   0.944
 8813SOL     OW27337   0.984   4.934   1.763
 8813SOL    HW127338   1.074   4.951   1.802
 8813SOL    HW227339   0.913   4.960   1.829
 8814SOL     OW27340   6.623   0.833   0.438
 8814SOL    HW127341   6.532   0.817   0.400
 8814SOL    HW227342   6.633   0.929   0.463
 8815SOL     OW27343   6.451   6.061   0.828
 8815SOL    HW127344   6.541   6.105   0.835
 8815SOL    HW227345   6.437   6.000   0.905
 8816SOL     OW27346   1.077   0.368   0.862
 8816SOL    HW127347   1.046   0.412   0.778
 8816SOL    HW227348   1.080   0.269   0.849
 8817SOL     OW27349   0.488   5.654   5.544
 8817SOL    HW127350   0.545   5.730   5.513
 8817SOL    HW227351   0.477   5.659   5.643
 8818SOL     OW27352   0.239   3.743   3.210
 8818SOL    HW127353   0.186   3.677   3.263
 8818SOL    HW227354   0.207   3.742   3.115
 8819SOL     OW27355   4.834   6.380   4.287
 8819SOL    HW127356   4.785   6.459   4.252
 8819SOL    HW227357   4.769   6.309   4.314
 8820SOL     OW27358   2.491   2.178   4.157
 8820SOL    HW127359   2.435   2.105   4.195
 8820SOL    HW227360   2.461   2.199   4.064
 8821SOL     OW27361   1.625   6.270   6.821
 8821SOL    HW127362   1.658   6.239   6.732
 8821SOL    HW227363   1.665   6.359   6.843
 8822SOL     OW27364   0.839   0.350   3.344
 8822SOL    HW127365   0.802   0.420   3.282
 8822SOL    HW227366   0.870   0.394   3.428
 8823SOL     OW27367   1.921   0.223   1.356
 8823SOL    HW127368   1.849   0.290   1.376
 8823SOL    HW227369   1.920   0.201   1.259
 8824SOL     OW27370   2.283   3.563   0.656
 8824SOL    HW127371   2.217   3.499   0.695
 8824SOL    HW227372   2.234   3.631   0.601
 8825SOL     OW27373   1.806   0.469   3.556
 8825SOL    HW127374   1.903   0.448   3.565
 8825SOL    HW227375   1.769   0.424   3.475
 8826SOL     OW27376   6.311   2.290   0.224
 8826SOL    HW127377   6.219   2.320   0.201
 8826SOL    HW227378   6.306   2.203   0.275
 8827SOL     OW27379   3.196   1.519   3.239
 8827SOL    HW127380   3.258   1.445   3.265
 8827SOL    HW227381   3.119   1.482   3.187
 8828SOL     OW27382   4.044   5.580   3.878
 8828SOL    HW127383   3.995   5.624   3.953
 8828SOL    HW227384   4.087   5.651   3.821
 8829SOL     OW27385   0.230   2.934   0.403
 8829SOL    HW127386   0.268   2.979   0.322
 8829SOL    HW227387   0.148   2.883   0.378
 8830SOL     OW27388   0.136   1.569   0.252
 8830SOL    HW127389   0.173   1.654   0.217
 8830SOL    HW227390   0.118   1.578   0.350
 8831SOL     OW27391   5.483   1.255   3.251
 8831SOL    HW127392   5.423   1.286   3.178
 8831SOL    HW227393   5.498   1.157   3.243
 8832SOL     OW27394   6.720   6.595   2.424
 8832SOL    HW127395   6.633   6.608   2.472
 8832SOL    HW227396   6.795   6.602   2.489
 8833SOL     OW27397   2.131   6.419   5.442
 8833SOL    HW127398   2.096   6.405   5.350
 8833SOL    HW227399   2.092   6.503   5.480
 8834SOL     OW27400   5.773   3.730   4.335
 8834SOL    HW127401   5.737   3.691   4.250
 8834SOL    HW227402   5.712   3.803   4.366
 8835SOL     OW27403   6.092   0.503   5.522
 8835SOL    HW127404   6.130   0.596   5.523
 8835SOL    HW227405   6.088   0.468   5.616
 8836SOL     OW27406   4.136   1.176   0.312
 8836SOL    HW127407   4.199   1.124   0.255
 8836SOL    HW227408   4.043   1.168   0.276
 8837SOL     OW27409   0.798   0.191   2.386
 8837SOL    HW127410   0.863   0.261   2.415
 8837SOL    HW227411   0.731   0.175   2.459
 8838SOL     OW27412   2.829   5.358   3.080
 8838SOL    HW127413   2.844   5.354   2.981
 8838SOL    HW227414   2.824   5.266   3.117
 8839SOL     OW27415   5.243   5.987   2.844
 8839SOL    HW127416   5.337   6.021   2.843
 8839SOL    HW227417   5.242   5.891   2.815
 8840SOL     OW27418   6.747   2.267   2.107
 8840SOL    HW127419   6.751   2.367   2.107
 8840SOL    HW227420   6.728   2.234   2.015
 8841SOL     OW27421   1.392   0.766   5.225
 8841SOL    HW127422   1.411   0.809   5.136
 8841SOL    HW227423   1.403   0.834   5.298
 8842SOL     OW27424   3.326   2.716   0.231
 8842SOL    HW127425   3.350   2.655   0.307
 8842SOL    HW227426   3.404   2.725   0.170
 8843SOL     OW27427   1.478   2.514   5.718
 8843SOL    HW127428   1.440   2.490   5.629
 8843SOL    HW227429   1.549   2.584   5.705
 8844SOL     OW27430   5.582   1.088   6.423
 8844SOL    HW127431   5.656   1.154   6.437
 8844SOL    HW227432   5.494   1.136   6.421
 8845SOL     OW27433   4.061   3.640   0.212
 8845SOL    HW127434   4.027   3.602   0.298
 8845SOL    HW227435   4.160   3.632   0.209
 8846SOL     OW27436   2.353   5.878   4.209
 8846SOL    HW127437   2.308   5.885   4.120
 8846SOL    HW227438   2.292   5.834   4.274
 8847SOL     OW27439   3.169   0.816   2.777
 8847SOL    HW127440   3.114   0.882   2.828
 8847SOL    HW227441   3.119   0.788   2.695
 8848SOL     OW27442   2.514   0.897   1.146
 8848SOL    HW127443   2.433   0.928   1.096
 8848SOL    HW227444   2.510   0.930   1.240
 8849SOL     OW27445   2.641   6.159   3.136
 8849SOL    HW127446   2.603   6.089   3.075
 8849SOL    HW227447   2.717   6.121   3.188
 8850SOL     OW27448   1.719   1.598   0.274
 8850SOL    HW127449   1.722   1.690   0.236
 8850SOL    HW227450   1.709   1.604   0.373
 8851SOL     OW27451   1.912   4.799   2.846
 8851SOL    HW127452   1.912   4.893   2.879
 8851SOL    HW227453   1.829   4.753   2.877
 8852SOL     OW27454   0.982   1.829   5.317
 8852SOL    HW127455   0.946   1.884   5.242
 8852SOL    HW227456   0.911   1.817   5.387
 8853SOL     OW27457   3.078   1.531   1.560
 8853SOL    HW127458   3.035   1.446   1.529
 8853SOL    HW227459   3.060   1.543   1.658
 8854SOL     OW27460   2.206   3.245   4.741
 8854SOL    HW127461   2.269   3.168   4.742
 8854SOL    HW227462   2.145   3.237   4.662
 8855SOL     OW27463   6.449   4.939   1.788
 8855SOL    HW127464   6.357   4.916   1.755
 8855SOL    HW227465   6.481   5.022   1.743
 8856SOL     OW27466   6.206   5.801   6.458
 8856SOL    HW127467   6.121   5.825   6.411
 8856SOL    HW227468   6.217   5.859   6.538
 8857SOL     OW27469   6.812   1.895   5.107
 8857SOL    HW127470   6.892   1.949   5.131
 8857SOL    HW227471   6.734   1.923   5.163
 8858SOL     OW27472   0.140   4.640   5.046
 8858SOL    HW127473   0.090   4.668   5.128
 8858SOL    HW227474   0.111   4.696   4.968
 8859SOL     OW27475   1.378   1.019   3.971
 8859SOL    HW127476   1.460   0.973   4.006
 8859SOL    HW227477   1.366   1.107   4.017
 8860SOL     OW27478   7.018   3.192   1.301
 8860SOL    HW127479   6.943   3.257   1.310
 8860SOL    HW227480   0.081   3.242   1.276
 8861SOL     OW27481   3.998   1.424   0.465
 8861SOL    HW127482   3.936   1.358   0.422
 8861SOL    HW227483   4.057   1.377   0.531
 8862SOL     OW27484   4.683   5.774   4.158
 8862SOL    HW127485   4.674   5.819   4.247
 8862SOL    HW227486   4.764   5.808   4.111
 8863SOL     OW27487   1.769   5.015   3.434
 8863SOL    HW127488   1.753   5.022   3.532
 8863SOL    HW227489   1.790   4.920   3.410
 8864SOL     OW27490   4.771   3.659   6.328
 8864SOL    HW127491   4.767   3.574   6.381
 8864SOL    HW227492   4.680   3.682   6.294
 8865SOL     OW27493   2.840   0.981   6.085
 8865SOL    HW127494   2.829   0.889   6.046
 8865SOL    HW227495   2.893   1.037   6.022
 8866SOL     OW27496   5.529   6.637   2.649
 8866SOL    HW127497   5.619   6.677   2.669
 8866SOL    HW227498   5.462   6.710   2.638
 8867SOL     OW27499   6.160   3.690   3.652
 8867SOL    HW127500   6.089   3.741   3.606
 8867SOL    HW227501   6.201   3.746   3.724
 8868SOL     OW27502   6.925   3.375   2.181
 8868SOL    HW127503   6.853   3.416   2.124
 8868SOL    HW227504   6.904   3.392   2.278
 8869SOL     OW27505   4.298   5.280   4.203
 8869SOL    HW127506   4.273   5.253   4.110
 8869SOL    HW227507   4.345   5.204   4.248
 8870SOL     OW27508   1.966   6.869   1.552
 8870SOL    HW127509   1.963   6.823   1.640
 8870SOL    HW227510   1.994   6.804   1.481
 8871SOL     OW27511   1.461   1.327   3.007
 8871SOL    HW127512   1.381   1.357   2.955
 8871SOL    HW227513   1.513   1.261   2.953
 8872SOL     OW27514   1.291   4.480   6.288
 8872SOL    HW127515   1.337   4.456   6.202
 8872SOL    HW227516   1.230   4.406   6.315
 8873SOL     OW27517   1.849   0.436   1.750
 8873SOL    HW127518   1.916   0.464   1.681
 8873SOL    HW227519   1.772   0.501   1.750
 8874SOL     OW27520   1.239   5.189   1.475
 8874SOL    HW127521   1.149   5.150   1.453
 8874SOL    HW227522   1.286   5.214   1.391
 8875SOL     OW27523   6.830   3.148   4.249
 8875SOL    HW127524   6.899   3.126   4.180
 8875SOL    HW227525   6.870   3.144   4.340
 8876SOL     OW27526   2.988   0.523   6.501
 8876SOL    HW127527   2.954   0.614   6.520
 8876SOL    HW227528   2.924   0.455   6.535
 8877SOL     OW27529   1.112   3.788   2.073
 8877SOL    HW127530   1.028   3.837   2.047
 8877SOL    HW227531   1.184   3.808   2.006
 8878SOL     OW27532   3.542   4.242   0.702
 8878SOL    HW127533   3.629   4.251   0.749
 8878SOL    HW227534   3.483   4.319   0.726
 8879SOL     OW27535   0.037   5.028   2.666
 8879SOL    HW127536   7.006   5.102   2.711
 8879SOL    HW227537   7.017   5.010   2.576
 8880SOL     OW27538   4.211   6.453   4.128
 8880SOL    HW127539   4.216   6.491   4.220
 8880SOL    HW227540   4.129   6.487   4.082
 8881SOL     OW27541   5.535   4.938   3.866
 8881SOL    HW127542   5.536   4.842   3.894
 8881SOL    HW227543   5.491   4.993   3.937
 8882SOL     OW27544   3.864   0.788   0.154
 8882SOL    HW127545   3.852   0.713   0.090
 8882SOL    HW227546   3.927   0.761   0.227
 8883SOL     OW27547   0.202   6.862   5.883
 8883SOL    HW127548   0.286   6.912   5.862
 8883SOL    HW227549   0.177   6.878   5.978
 8884SOL     OW27550   5.537   4.452   5.114
 8884SOL    HW127551   5.441   4.425   5.118
 8884SOL    HW227552   5.548   4.524   5.046
 8885SOL     OW27553   5.725   5.097   7.020
 8885SOL    HW127554   5.625   5.090   7.014
 8885SOL    HW227555   5.751   5.194   7.014
 8886SOL     OW27556   3.895   5.590   6.192
 8886SOL    HW127557   3.855   5.564   6.104
 8886SOL    HW227558   3.987   5.627   6.178
 8887SOL     OW27559   4.146   0.689   0.944
 8887SOL    HW127560   4.210   0.623   0.904
 8887SOL    HW227561   4.172   0.708   1.038
 8888SOL     OW27562   1.451   1.497   3.447
 8888SOL    HW127563   1.436   1.410   3.402
 8888SOL    HW227564   1.545   1.528   3.429
 8889SOL     OW27565   6.715   6.643   6.463
 8889SOL    HW127566   6.812   6.665   6.469
 8889SOL    HW227567   6.698   6.552   6.501
 8890SOL     OW27568   0.450   6.175   6.987
 8890SOL    HW127569   0.480   6.081   6.970
 8890SOL    HW227570   0.371   6.196   6.929
 8891SOL     OW27571   4.714   4.436   6.870
 8891SOL    HW127572   4.734   4.453   6.774
 8891SOL    HW227573   4.795   4.402   6.917
 8892SOL     OW27574   3.871   4.970   3.784
 8892SOL    HW127575   3.817   4.887   3.789
 8892SOL    HW227576   3.814   5.049   3.806
 8893SOL     OW27577   1.217   4.998   5.082
 8893SOL    HW127578   1.138   4.951   5.042
 8893SOL    HW227579   1.255   5.062   5.015
 8894SOL     OW27580   4.927   2.081   0.765
 8894SOL    HW127581   4.985   2.001   0.780
 8894SOL    HW227582   4.855   2.084   0.835
 8895SOL     OW27583   0.614   3.208   0.536
 8895SOL    HW127584   0.640   3.249   0.624
 8895SOL    HW227585   0.696   3.189   0.483
 8896SOL     OW27586   1.675   2.687   5.311
 8896SOL    HW127587   1.737   2.700   5.234
 8896SOL    HW227588   1.606   2.619   5.286
 8897SOL     OW27589   1.951   4.049   3.384
 8897SOL    HW127590   1.875   4.069   3.445
 8897SOL    HW227591   2.037   4.059   3.433
 8898SOL     OW27592   5.657   3.803   2.601
 8898SOL    HW127593   5.569   3.782   2.557
 8898SOL    HW227594   5.721   3.837   2.532
 8899SOL     OW27595   6.566   5.279   6.187
 8899SOL    HW127596   6.654   5.326   6.184
 8899SOL    HW227597   6.563   5.209   6.115
 8900SOL     OW27598   5.521   2.398   3.385
 8900SOL    HW127599   5.581   2.426   3.310
 8900SOL    HW227600   5.576   2.373   3.464
 8901SOL     OW27601   1.039   2.127   3.207
 8901SOL    HW127602   1.042   2.130   3.107
 8901SOL    HW227603   1.125   2.089   3.241
 8902SOL     OW27604   1.332   5.235   0.220
 8902SOL    HW127605   1.339   5.176   0.301
 8902SOL    HW227606   1.421   5.275   0.200
 8903SOL     OW27607   1.415   1.257   5.315
 8903SOL    HW127608   1.317   1.278   5.310
 8903SOL    HW227609   1.465   1.316   5.251
 8904SOL     OW27610   0.676   1.486   2.839
 8904SOL    HW127611   0.668   1.386   2.841
 8904SOL    HW227612   0.762   1.512   2.794
 8905SOL     OW27613   1.642   2.852   2.736
 8905SOL    HW127614   1.632   2.887   2.643
 8905SOL    HW227615   1.739   2.837   2.756
 8906SOL     OW27616   0.484   6.469   0.695
 8906SOL    HW127617   0.540   6.461   0.612
 8906SOL    HW227618   0.543   6.464   0.775
 8907SOL     OW27619   3.324   2.664   5.319
 8907SOL    HW127620   3.303   2.577   5.274
 8907SOL    HW227621   3.289   2.739   5.263
 8908SOL     OW27622   1.344   4.640   0.500
 8908SOL    HW127623   1.417   4.572   0.508
 8908SOL    HW227624   1.336   4.669   0.404
 8909SOL     OW27625   2.514   1.006   6.327
 8909SOL    HW127626   2.611   0.995   6.347
 8909SOL    HW227627   2.499   0.999   6.229
 8910SOL     OW27628   0.867   2.435   5.209
 8910SOL    HW127629   0.927   2.366   5.247
 8910SOL    HW227630   0.883   2.522   5.256
 8911SOL     OW27631   4.902   1.648   4.465
 8911SOL    HW127632   4.955   1.661   4.549
 8911SOL    HW227633   4.880   1.551   4.454
 8912SOL     OW27634   3.780   2.905   5.620
 8912SOL    HW127635   3.779   2.925   5.522
 8912SOL    HW227636   3.709   2.958   5.666
 8913SOL     OW27637   5.215   5.082   0.147
 8913SOL    HW127638   5.237   4.984   0.145
 8913SOL    HW227639   5.116   5.093   0.157
 8914SOL     OW27640   5.027   7.004   4.915
 8914SOL    HW127641   5.071   0.073   4.923
 8914SOL    HW227642   4.963   7.006   4.838
 8915SOL     OW27643   1.189   1.783   4.274
 8915SOL    HW127644   1.141   1.870   4.268
 8915SOL    HW227645   1.123   1.709   4.289
 8916SOL     OW27646   5.572   1.883   6.708
 8916SOL    HW127647   5.558   1.978   6.735
 8916SOL    HW227648   5.552   1.874   6.610
 8917SOL     OW27649   5.755   1.723   0.409
 8917SOL    HW127650   5.779   1.809   0.365
 8917SOL    HW227651   5.741   1.738   0.506
 8918SOL     OW27652   1.542   5.322   0.746
 8918SOL    HW127653   1.586   5.254   0.805
 8918SOL    HW227654   1.445   5.300   0.737
 8919SOL     OW27655   4.860   4.820   6.605
 8919SOL    HW127656   4.765   4.844   6.584
 8919SOL    HW227657   4.906   4.898   6.648
 8920SOL     OW27658   0.644   1.389   0.191
 8920SOL    HW127659   0.574   1.318   0.187
 8920SOL    HW227660   0.728   1.356   0.149
 8921SOL     OW27661   1.245   2.614   1.223
 8921SOL    HW127662   1.341   2.596   1.243
 8921SOL    HW227663   1.234   2.709   1.192
 8922SOL     OW27664   3.789   6.529   2.099
 8922SOL    HW127665   3.873   6.483   2.125
 8922SOL    HW227666   3.710   6.479   2.136
 8923SOL     OW27667   1.079   1.983   5.789
 8923SOL    HW127668   1.035   1.895   5.770
 8923SOL    HW227669   1.177   1.969   5.803
 8924SOL     OW27670   5.369   5.704   4.785
 8924SOL    HW127671   5.410   5.648   4.857
 8924SOL    HW227672   5.278   5.734   4.815
 8925SOL     OW27673   0.133   0.688   2.162
 8925SOL    HW127674   0.205   0.756   2.175
 8925SOL    HW227675   0.170   0.597   2.178
 8926SOL     OW27676   6.737   3.611   5.353
 8926SOL    HW127677   6.663   3.675   5.334
 8926SOL    HW227678   6.721   3.566   5.441
 8927SOL     OW27679   6.833   1.955   5.478
 8927SOL    HW127680   6.904   2.010   5.435
 8927SOL    HW227681   6.813   1.992   5.569
 8928SOL     OW27682   2.161   6.900   5.947
 8928SOL    HW127683   2.209   6.982   5.916
 8928SOL    HW227684   2.062   6.918   5.950
 8929SOL     OW27685   6.269   2.453   4.913
 8929SOL    HW127686   6.262   2.531   4.975
 8929SOL    HW227687   6.188   2.450   4.854
 8930SOL     OW27688   0.869   3.510   2.872
 8930SOL    HW127689   0.851   3.500   2.970
 8930SOL    HW227690   0.857   3.606   2.846
 8931SOL     OW27691   3.003   2.773   1.628
 8931SOL    HW127692   3.057   2.703   1.583
 8931SOL    HW227693   3.062   2.832   1.683
 8932SOL     OW27694   0.210   1.948   3.002
 8932SOL    HW127695   0.191   1.884   2.928
 8932SOL    HW227696   0.308   1.968   3.005
 8933SOL     OW27697   2.855   2.333   6.454
 8933SOL    HW127698   2.952   2.319   6.433
 8933SOL    HW227699   2.840   2.428   6.480
 8934SOL     OW27700   3.201   5.446   4.876
 8934SOL    HW127701   3.239   5.407   4.792
 8934SOL    HW227702   3.246   5.407   4.955
 8935SOL     OW27703   0.476   4.921   0.758
 8935SOL    HW127704   0.545   4.987   0.789
 8935SOL    HW227705   0.385   4.962   0.762
 8936SOL     OW27706   1.800   3.707   0.348
 8936SOL    HW127707   1.844   3.688   0.261
 8936SOL    HW227708   1.835   3.793   0.386
 8937SOL     OW27709   0.647   7.006   5.398
 8937SOL    HW127710   0.724   6.963   5.351
 8937SOL    HW227711   0.615   0.064   5.345
 8938SOL     OW27712   0.449   5.562   1.000
 8938SOL    HW127713   0.352   5.543   0.985
 8938SOL    HW227714   0.497   5.477   1.023
 8939SOL     OW27715   4.827   2.280   4.550
 8939SOL    HW127716   4.745   2.225   4.537
 8939SOL    HW227717   4.849   2.328   4.465
 8940SOL     OW27718   0.604   1.119   4.010
 8940SOL    HW127719   0.567   1.101   4.101
 8940SOL    HW227720   0.662   1.200   4.012
 8941SOL     OW27721   5.653   2.058   5.861
 8941SOL    HW127722   5.592   1.979   5.854
 8941SOL    HW227723   5.703   2.055   5.948
 8942SOL     OW27724   0.709   3.458   5.884
 8942SOL    HW127725   0.656   3.458   5.799
 8942SOL    HW227726   0.776   3.533   5.881
 8943SOL     OW27727   4.632   4.003   0.537
 8943SOL    HW127728   4.588   3.923   0.496
 8943SOL    HW227729   4.629   3.994   0.637
 8944SOL     OW27730   5.099   5.391   5.488
 8944SOL    HW127731   5.100   5.340   5.574
 8944SOL    HW227732   5.053   5.479   5.502
 8945SOL     OW27733   2.276   0.693   4.539
 8945SOL    HW127734   2.287   0.597   4.515
 8945SOL    HW227735   2.209   0.702   4.613
 8946SOL     OW27736   3.131   1.899   5.005
 8946SOL    HW127737   3.175   1.949   4.931
 8946SOL    HW227738   3.117   1.960   5.083
 8947SOL     OW27739   1.466   3.426   5.168
 8947SOL    HW127740   1.553   3.413   5.120
 8947SOL    HW227741   1.392   3.430   5.101
 8948SOL     OW27742   5.913   5.614   3.814
 8948SOL    HW127743   5.975   5.543   3.780
 8948SOL    HW227744   5.821   5.597   3.780
 8949SOL     OW27745   1.605   6.987   0.901
 8949SOL    HW127746   1.535   0.028   0.937
 8949SOL    HW227747   1.636   7.019   0.812
 8950SOL     OW27748   4.861   3.150   5.572
 8950SOL    HW127749   4.903   3.087   5.637
 8950SOL    HW227750   4.901   3.241   5.582
 8951SOL     OW27751   2.045   2.215   5.077
 8951SOL    HW127752   1.983   2.138   5.096
 8951SOL    HW227753   2.001   2.300   5.105
 8952SOL     OW27754   0.789   0.807   2.189
 8952SOL    HW127755   0.839   0.875   2.243
 8952SOL    HW227756   0.823   0.715   2.211
 8953SOL     OW27757   1.141   3.705   6.818
 8953SOL    HW127758   1.239   3.695   6.800
 8953SOL    HW227759   1.103   3.618   6.846
 8954SOL     OW27760   0.456   5.957   5.542
 8954SOL    HW127761   0.536   5.954   5.482
 8954SOL    HW227762   0.450   6.048   5.583
 8955SOL     OW27763   0.106   3.849   2.542
 8955SOL    HW127764   0.163   3.843   2.460
 8955SOL    HW227765   0.010   3.845   2.517
 8956SOL     OW27766   0.176   1.536   6.824
 8956SOL    HW127767   0.267   1.576   6.829
 8956SOL    HW227768   0.113   1.590   6.881
 8957SOL     OW27769   3.045   4.069   1.553
 8957SOL    HW127770   3.003   4.114   1.632
 8957SOL    HW227771   3.091   3.985   1.583
 8958SOL     OW27772   1.188   0.820   4.030
 8958SOL    HW127773   1.237   0.904   4.005
 8958SOL    HW227774   1.094   0.826   3.996
 8959SOL     OW27775   1.319   4.200   0.945
 8959SOL    HW127776   1.325   4.183   0.847
 8959SOL    HW227777   1.411   4.213   0.983
 8960SOL     OW27778   4.806   5.450   2.816
 8960SOL    HW127779   4.783   5.522   2.882
 8960SOL    HW227780   4.905   5.439   2.811
 8961SOL     OW27781   1.469   2.410   4.276
 8961SOL    HW127782   1.527   2.332   4.304
 8961SOL    HW227783   1.524   2.475   4.224
 8962SOL     OW27784   6.102   6.948   2.020
 8962SOL    HW127785   6.016   6.997   2.030
 8962SOL    HW227786   6.090   6.870   1.960
 8963SOL     OW27787   5.010   6.802   4.384
 8963SOL    HW127788   5.094   6.770   4.428
 8963SOL    HW227789   5.021   6.799   4.284
 8964SOL     OW27790   5.981   4.039   2.708
 8964SOL    HW127791   5.988   3.986   2.792
 8964SOL    HW227792   6.073   4.059   2.673
 8965SOL     OW27793   1.814   4.853   1.031
 8965SOL    HW127794   1.816   4.755   1.011
 8965SOL    HW227795   1.857   4.904   0.957
 8966SOL     OW27796   1.901   3.660   5.707
 8966SOL    HW127797   1.919   3.605   5.626
 8966SOL    HW227798   1.966   3.736   5.711
 8967SOL     OW27799   3.462   5.871   1.524
 8967SOL    HW127800   3.489   5.899   1.432
 8967SOL    HW227801   3.411   5.945   1.567
 8968SOL     OW27802   4.610   5.456   2.633
 8968SOL    HW127803   4.518   5.421   2.652
 8968SOL    HW227804   4.671   5.433   2.709
 8969SOL     OW27805   6.485   0.718   3.723
 8969SOL    HW127806   6.388   0.717   3.695
 8969SOL    HW227807   6.536   0.778   3.661
 8970SOL     OW27808   3.116   2.255   0.466
 8970SOL    HW127809   3.046   2.323   0.445
 8970SOL    HW227810   3.202   2.282   0.424
 8971SOL     OW27811   3.422   5.698   2.519
 8971SOL    HW127812   3.432   5.770   2.449
 8971SOL    HW227813   3.333   5.654   2.509
 8972SOL     OW27814   4.634   6.240   6.273
 8972SOL    HW127815   4.565   6.205   6.209
 8972SOL    HW227816   4.601   6.230   6.366
 8973SOL     OW27817   0.409   3.359   2.079
 8973SOL    HW127818   0.424   3.261   2.091
 8973SOL    HW227819   0.386   3.378   1.983
 8974SOL     OW27820   1.584   4.355   5.766
 8974SOL    HW127821   1.609   4.283   5.702
 8974SOL    HW227822   1.538   4.314   5.845
 8975SOL     OW27823   2.704   0.718   6.892
 8975SOL    HW127824   2.633   0.730   6.822
 8975SOL    HW227825   2.673   0.759   6.978
 8976SOL     OW27826   0.924   4.851   5.099
 8976SOL    HW127827   0.967   4.785   5.161
 8976SOL    HW227828   0.900   4.934   5.151
 8977SOL     OW27829   5.669   1.807   6.952
 8977SOL    HW127830   5.757   1.759   6.953
 8977SOL    HW227831   5.646   1.830   6.858
 8978SOL     OW27832   6.133   6.302   6.283
 8978SOL    HW127833   6.078   6.375   6.324
 8978SOL    HW227834   6.175   6.248   6.356
 8979SOL     OW27835   1.299   3.316   4.075
 8979SOL    HW127836   1.250   3.309   3.989
 8979SOL    HW227837   1.397   3.322   4.056
 8980SOL     OW27838   2.197   3.030   5.558
 8980SOL    HW127839   2.108   3.055   5.522
 8980SOL    HW227840   2.268   3.061   5.495
 8981SOL     OW27841   3.917   1.887   5.018
 8981SOL    HW127842   3.867   1.973   5.005
 8981SOL    HW227843   3.951   1.855   4.929
 8982SOL     OW27844   1.293   2.693   0.203
 8982SOL    HW127845   1.318   2.601   0.171
 8982SOL    HW227846   1.264   2.688   0.298
 8983SOL     OW27847   2.703   6.103   6.477
 8983SOL    HW127848   2.727   6.186   6.526
 8983SOL    HW227849   2.775   6.035   6.488
 8984SOL     OW27850   1.090   0.198   3.906
 8984SOL    HW127851   1.102   0.214   4.004
 8984SOL    HW227852   1.175   0.162   3.868
 8985SOL     OW27853   3.752   2.157   1.084
 8985SOL    HW127854   3.659   2.173   1.052
 8985SOL    HW227855   3.766   2.060   1.102
 8986SOL     OW27856   4.447   5.536   2.925
 8986SOL    HW127857   4.438   5.453   2.869
 8986SOL    HW227858   4.419   5.615   2.870
 8987SOL     OW27859   4.037   6.406   2.142
 8987SOL    HW127860   3.980   6.333   2.103
 8987SOL    HW227861   4.122   6.413   2.089
 8988SOL     OW27862   1.612   4.672   4.251
 8988SOL    HW127863   1.678   4.689   4.179
 8988SOL    HW227864   1.605   4.574   4.268
 8989SOL     OW27865   4.707   3.422   6.482
 8989SOL    HW127866   4.712   3.348   6.414
 8989SOL    HW227867   4.757   3.395   6.564
 8990SOL     OW27868   1.355   4.963   4.656
 8990SOL    HW127869   1.367   4.900   4.732
 8990SOL    HW227870   1.435   5.022   4.649
 8991SOL     OW27871   1.849   3.409   4.705
 8991SOL    HW127872   1.913   3.414   4.781
 8991SOL    HW227873   1.846   3.498   4.658
 8992SOL     OW27874   4.632   1.888   0.796
 8992SOL    HW127875   4.536   1.865   0.782
 8992SOL    HW227876   4.663   1.948   0.722
 8993SOL     OW27877   3.595   2.871   0.641
 8993SOL    HW127878   3.515   2.833   0.686
 8993SOL    HW227879   3.568   2.947   0.582
 8994SOL     OW27880   1.681   4.193   5.550
 8994SOL    HW127881   1.777   4.217   5.561
 8994SOL    HW227882   1.674   4.113   5.490
 8995SOL     OW27883   0.681   1.661   0.245
 8995SOL    HW127884   0.664   1.565   0.222
 8995SOL    HW227885   0.761   1.667   0.305
 8996SOL     OW27886   5.374   4.270   6.417
 8996SOL    HW127887   5.282   4.246   6.385
 8996SOL    HW227888   5.393   4.365   6.396
 8997SOL     OW27889   4.807   1.404   6.038
 8997SOL    HW127890   4.813   1.503   6.051
 8997SOL    HW227891   4.847   1.357   6.116
 8998SOL     OW27892   6.041   3.635   4.298
 8998SOL    HW127893   5.970   3.704   4.313
 8998SOL    HW227894   5.999   3.549   4.271
 8999SOL     OW27895   4.491   6.507   6.490
 8999SOL    HW127896   4.586   6.530   6.469
 8999SOL    HW227897   4.450   6.582   6.543
 9000SOL     OW27898   1.721   3.153   2.347
 9000SOL    HW127899   1.657   3.225   2.321
 9000SOL    HW227900   1.811   3.173   2.308
 9001SOL     OW27901   1.208   4.729   2.022
 9001SOL    HW127902   1.180   4.752   2.115
 9001SOL    HW227903   1.268   4.649   2.023
 9002SOL     OW27904   1.878   5.172   5.168
 9002SOL    HW127905   1.832   5.228   5.099
 9002SOL    HW227906   1.887   5.078   5.134
 9003SOL     OW27907   5.569   4.277   1.245
 9003SOL    HW127908   5.508   4.215   1.195
 9003SOL    HW227909   5.636   4.316   1.183
 9004SOL     OW27910   4.082   5.325   0.820
 9004SOL    HW127911   4.113   5.381   0.896
 9004SOL    HW227912   4.002   5.271   0.847
 9005SOL     OW27913   6.623   1.833   5.375
 9005SOL    HW127914   6.555   1.814   5.446
 9005SOL    HW227915   6.707   1.866   5.417
 9006SOL     OW27916   2.435   5.834   1.196
 9006SOL    HW127917   2.454   5.818   1.099
 9006SOL    HW227918   2.393   5.924   1.207
 9007SOL     OW27919   3.139   0.810   3.189
 9007SOL    HW127920   3.092   0.735   3.142
 9007SOL    HW227921   3.229   0.825   3.147
 9008SOL     OW27922   0.471   5.454   2.776
 9008SOL    HW127923   0.498   5.531   2.718
 9008SOL    HW227924   0.376   5.428   2.754
 9009SOL     OW27925   3.526   4.679   0.795
 9009SOL    HW127926   3.492   4.770   0.768
 9009SOL    HW227927   3.600   4.689   0.860
 9010SOL     OW27928   1.759   6.524   3.985
 9010SOL    HW127929   1.752   6.622   4.000
 9010SOL    HW227930   1.831   6.506   3.918
 9011SOL     OW27931   4.468   0.561   1.206
 9011SOL    HW127932   4.477   0.467   1.173
 9011SOL    HW227933   4.479   0.563   1.306
 9012SOL     OW27934   2.203   5.228   6.862
 9012SOL    HW127935   2.303   5.234   6.860
 9012SOL    HW227936   2.176   5.134   6.882
 9013SOL     OW27937   0.969   0.664   6.022
 9013SOL    HW127938   0.982   0.666   6.121
 9013SOL    HW227939   1.058   0.652   5.977
 9014SOL     OW27940   0.049   2.043   0.754
 9014SOL    HW127941   0.137   2.089   0.742
 9014SOL    HW227942   0.002   2.038   0.666
 9015SOL     OW27943   4.728   2.354   1.637
 9015SOL    HW127944   4.663   2.420   1.601
 9015SOL    HW227945   4.820   2.377   1.604
 9016SOL     OW27946   6.309   5.974   6.641
 9016SOL    HW127947   6.390   6.033   6.645
 9016SOL    HW227948   6.294   5.930   6.729
 9017SOL     OW27949   4.705   1.420   4.065
 9017SOL    HW127950   4.620   1.392   4.109
 9017SOL    HW227951   4.710   1.520   4.061
 9018SOL     OW27952   2.414   3.219   5.878
 9018SOL    HW127953   2.411   3.146   5.947
 9018SOL    HW227954   2.380   3.184   5.791
 9019SOL     OW27955   1.278   5.355   2.605
 9019SOL    HW127956   1.346   5.314   2.666
 9019SOL    HW227957   1.187   5.320   2.630
 9020SOL     OW27958   0.011   4.323   0.698
 9020SOL    HW127959   0.071   4.373   0.760
 9020SOL    HW227960   0.017   4.225   0.718
 9021SOL     OW27961   6.951   1.608   3.500
 9021SOL    HW127962   6.937   1.544   3.575
 9021SOL    HW227963   6.872   1.604   3.438
 9022SOL     OW27964   3.275   1.437   0.145
 9022SOL    HW127965   3.340   1.496   0.096
 9022SOL    HW227966   3.185   1.442   0.100
 9023SOL     OW27967   3.846   3.724   1.673
 9023SOL    HW127968   3.889   3.680   1.752
 9023SOL    HW227969   3.765   3.673   1.646
 9024SOL     OW27970   1.325   3.924   5.643
 9024SOL    HW127971   1.236   3.935   5.599
 9024SOL    HW227972   1.356   3.830   5.632
 9025SOL     OW27973   0.364   5.263   0.691
 9025SOL    HW127974   0.414   5.334   0.740
 9025SOL    HW227975   0.334   5.299   0.603
 9026SOL     OW27976   3.481   2.208   1.134
 9026SOL    HW127977   3.458   2.304   1.145
 9026SOL    HW227978   3.491   2.165   1.224
 9027SOL     OW27979   0.407   3.542   2.987
 9027SOL    HW127980   0.417   3.450   3.025
 9027SOL    HW227981   0.463   3.606   3.040
 9028SOL     OW27982   3.404   2.994   5.372
 9028SOL    HW127983   3.498   2.969   5.350
 9028SOL    HW227984   3.362   3.038   5.293
 9029SOL     OW27985   4.037   6.525   4.864
 9029SOL    HW127986   3.947   6.502   4.828
 9029SOL    HW227987   4.103   6.526   4.790
 9030SOL     OW27988   2.381   1.763   3.563
 9030SOL    HW127989   2.437   1.842   3.536
 9030SOL    HW227990   2.439   1.682   3.566
 9031SOL     OW27991   3.978   6.621   4.095
 9031SOL    HW127992   3.943   6.528   4.090
 9031SOL    HW227993   3.944   6.674   4.018
 9032SOL     OW27994   4.710   4.444   0.922
 9032SOL    HW127995   4.753   4.514   0.867
 9032SOL    HW227996   4.779   4.380   0.956
 9033SOL     OW27997   0.713   4.861   2.755
 9033SOL    HW127998   0.773   4.802   2.700
 9033SOL    HW227999   0.624   4.818   2.767
 9034SOL     OW28000   2.934   5.972   4.800
 9034SOL    HW128001   3.018   6.022   4.822
 9034SOL    HW228002   2.934   5.948   4.703
 9035SOL     OW28003   1.929   4.788   0.274
 9035SOL    HW128004   1.928   4.738   0.188
 9035SOL    HW228005   1.997   4.861   0.270
 9036SOL     OW28006   2.043   3.245   5.877
 9036SOL    HW128007   2.054   3.276   5.782
 9036SOL    HW228008   2.103   3.167   5.893
 9037SOL     OW28009   1.330   3.906   3.433
 9037SOL    HW128010   1.296   3.887   3.525
 9037SOL    HW228011   1.428   3.886   3.428
 9038SOL     OW28012   4.759   2.535   6.960
 9038SOL    HW128013   4.809   2.612   6.922
 9038SOL    HW228014   4.662   2.545   6.938
 9039SOL     OW28015   2.261   4.745   6.489
 9039SOL    HW128016   2.354   4.779   6.504
 9039SOL    HW228017   2.263   4.675   6.418
 9040SOL     OW28018   2.612   2.291   2.486
 9040SOL    HW128019   2.669   2.334   2.416
 9040SOL    HW228020   2.516   2.309   2.468
 9041SOL     OW28021   1.088   2.067   0.817
 9041SOL    HW128022   1.046   2.039   0.730
 9041SOL    HW228023   1.075   2.165   0.830
 9042SOL     OW28024   3.944   0.161   4.297
 9042SOL    HW128025   3.898   0.128   4.214
 9042SOL    HW228026   4.035   0.194   4.273
 9043SOL     OW28027   2.512   0.786   6.707
 9043SOL    HW128028   2.535   0.761   6.613
 9043SOL    HW228029   2.477   0.880   6.708
 9044SOL     OW28030   6.913   0.850   0.399
 9044SOL    HW128031   6.982   0.871   0.469
 9044SOL    HW228032   6.828   0.824   0.443
 9045SOL     OW28033   3.705   0.790   2.404
 9045SOL    HW128034   3.643   0.779   2.482
 9045SOL    HW228035   3.654   0.783   2.319
 9046SOL     OW28036   3.592   4.114   3.090
 9046SOL    HW128037   3.690   4.097   3.095
 9046SOL    HW228038   3.561   4.153   3.177
 9047SOL     OW28039   1.613   3.619   4.776
 9047SOL    HW128040   1.559   3.647   4.697
 9047SOL    HW228041   1.588   3.526   4.803
 9048SOL     OW28042   6.762   2.729   6.166
 9048SOL    HW128043   6.678   2.713   6.114
 9048SOL    HW228044   6.779   2.651   6.227
 9049SOL     OW28045   4.518   6.789   5.534
 9049SOL    HW128046   4.571   6.708   5.508
 9049SOL    HW228047   4.443   6.762   5.595
 9050SOL     OW28048   0.416   3.680   1.338
 9050SOL    HW128049   0.501   3.729   1.318
 9050SOL    HW228050   0.405   3.605   1.273
 9051SOL     OW28051   2.491   0.306   1.501
 9051SOL    HW128052   2.573   0.283   1.447
 9051SOL    HW228053   2.482   0.242   1.577
 9052SOL     OW28054   2.337   2.854   4.128
 9052SOL    HW128055   2.259   2.796   4.152
 9052SOL    HW228056   2.415   2.796   4.105
 9053SOL     OW28057   2.063   1.008   2.013
 9053SOL    HW128058   2.040   1.047   1.923
 9053SOL    HW228059   2.162   1.006   2.024
 9054SOL     OW28060   2.714   5.384   4.923
 9054SOL    HW128061   2.790   5.448   4.912
 9054SOL    HW228062   2.694   5.372   5.020
 9055SOL     OW28063   6.124   2.368   3.884
 9055SOL    HW128064   6.179   2.444   3.918
 9055SOL    HW228065   6.149   2.348   3.789
 9056SOL     OW28066   0.228   2.007   1.603
 9056SOL    HW128067   0.250   1.981   1.697
 9056SOL    HW228068   0.256   1.933   1.541
 9057SOL     OW28069   4.468   2.538   5.114
 9057SOL    HW128070   4.561   2.538   5.149
 9057SOL    HW228071   4.429   2.630   5.120
 9058SOL     OW28072   1.636   1.242   1.649
 9058SOL    HW128073   1.723   1.216   1.608
 9058SOL    HW228074   1.591   1.161   1.686
 9059SOL     OW28075   1.468   2.167   3.223
 9059SOL    HW128076   1.491   2.259   3.256
 9059SOL    HW228077   1.519   2.150   3.138
 9060SOL     OW28078   5.798   3.041   4.455
 9060SOL    HW128079   5.744   3.038   4.540
 9060SOL    HW228080   5.895   3.036   4.477
 9061SOL     OW28081   2.923   5.242   2.293
 9061SOL    HW128082   2.849   5.224   2.358
 9061SOL    HW228083   2.907   5.329   2.247
 9062SOL     OW28084   1.173   6.118   1.668
 9062SOL    HW128085   1.255   6.125   1.612
 9062SOL    HW228086   1.194   6.147   1.761
 9063SOL     OW28087   3.013   0.212   3.895
 9063SOL    HW128088   3.091   0.236   3.838
 9063SOL    HW228089   2.958   0.294   3.913
 9064SOL     OW28090   6.126   3.295   6.476
 9064SOL    HW128091   6.183   3.375   6.456
 9064SOL    HW228092   6.041   3.301   6.425
 9065SOL     OW28093   3.999   0.254   0.174
 9065SOL    HW128094   4.029   0.348   0.166
 9065SOL    HW228095   4.012   0.223   0.268
 9066SOL     OW28096   4.963   0.017   0.343
 9066SOL    HW128097   5.060   0.034   0.360
 9066SOL    HW228098   4.954   6.970   0.270
 9067SOL     OW28099   1.172   0.710   3.747
 9067SOL    HW128100   1.153   0.774   3.672
 9067SOL    HW228101   1.127   0.742   3.830
 9068SOL     OW28102   1.527   6.803   4.825
 9068SOL    HW128103   1.521   6.843   4.916
 9068SOL    HW228104   1.523   6.703   4.831
 9069SOL     OW28105   1.341   3.101   0.240
 9069SOL    HW128106   1.410   3.145   0.183
 9069SOL    HW228107   1.327   3.007   0.208
 9070SOL     OW28108   1.981   3.377   4.946
 9070SOL    HW128109   2.004   3.445   5.015
 9070SOL    HW228110   2.065   3.343   4.904
 9071SOL     OW28111   6.440   6.419   0.723
 9071SOL    HW128112   6.370   6.386   0.659
 9071SOL    HW228113   6.484   6.341   0.767
 9072SOL     OW28114   0.045   2.957   1.124
 9072SOL    HW128115   0.015   2.864   1.103
 9072SOL    HW228116   7.012   2.993   1.200
 9073SOL     OW28117   1.980   6.867   2.199
 9073SOL    HW128118   1.980   6.775   2.160
 9073SOL    HW228119   1.889   6.908   2.188
 9074SOL     OW28120   1.112   0.414   2.712
 9074SOL    HW128121   1.131   0.341   2.647
 9074SOL    HW228122   1.150   0.390   2.802
 9075SOL     OW28123   6.896   1.219   2.593
 9075SOL    HW128124   6.803   1.253   2.606
 9075SOL    HW228125   6.948   1.230   2.677
 9076SOL     OW28126   0.727   1.063   6.389
 9076SOL    HW128127   0.634   1.095   6.372
 9076SOL    HW228128   0.792   1.132   6.358
 9077SOL     OW28129   4.303   6.210   1.313
 9077SOL    HW128130   4.240   6.211   1.235
 9077SOL    HW228131   4.310   6.117   1.349
 9078SOL     OW28132   3.485   2.844   4.740
 9078SOL    HW128133   3.494   2.847   4.840
 9078SOL    HW228134   3.503   2.751   4.708
 9079SOL     OW28135   2.856   0.328   4.636
 9079SOL    HW128136   2.934   0.308   4.576
 9079SOL    HW228137   2.844   0.427   4.642
 9080SOL     OW28138   5.287   3.016   6.428
 9080SOL    HW128139   5.372   3.023   6.375
 9080SOL    HW228140   5.289   3.081   6.503
 9081SOL     OW28141   5.162   6.200   2.680
 9081SOL    HW128142   5.110   6.282   2.705
 9081SOL    HW228143   5.161   6.136   2.757
 9082SOL     OW28144   1.653   6.991   4.392
 9082SOL    HW128145   1.672   6.985   4.490
 9082SOL    HW228146   1.619   6.903   4.359
 9083SOL     OW28147   5.091   4.884   5.964
 9083SOL    HW128148   5.119   4.867   5.869
 9083SOL    HW228149   5.019   4.953   5.966
 9084SOL     OW28150   4.061   3.865   3.363
 9084SOL    HW128151   4.008   3.949   3.374
 9084SOL    HW228152   4.113   3.870   3.277
 9085SOL     OW28153   2.296   0.820   0.893
 9085SOL    HW128154   2.261   0.816   0.987
 9085SOL    HW228155   2.221   0.837   0.830
 9086SOL     OW28156   0.482   4.479   0.503
 9086SOL    HW128157   0.566   4.427   0.523
 9086SOL    HW228158   0.404   4.416   0.501
 9087SOL     OW28159   5.100   2.872   2.153
 9087SOL    HW128160   5.130   2.784   2.116
 9087SOL    HW228161   5.144   2.946   2.102
 9088SOL     OW28162   6.076   0.457   0.681
 9088SOL    HW128163   6.120   0.453   0.591
 9088SOL    HW228164   5.977   0.465   0.669
 9089SOL     OW28165   5.042   6.370   5.480
 9089SOL    HW128166   4.997   6.456   5.457
 9089SOL    HW228167   5.141   6.382   5.480
 9090SOL     OW28168   5.841   1.129   5.094
 9090SOL    HW128169   5.886   1.051   5.051
 9090SOL    HW228170   5.844   1.118   5.193
 9091SOL     OW28171   2.868   3.300   6.586
 9091SOL    HW128172   2.883   3.359   6.507
 9091SOL    HW228173   2.899   3.346   6.669
 9092SOL     OW28174   6.645   1.100   0.302
 9092SOL    HW128175   6.678   1.020   0.253
 9092SOL    HW228176   6.584   1.153   0.242
 9093SOL     OW28177   1.743   5.932   5.346
 9093SOL    HW128178   1.781   5.964   5.259
 9093SOL    HW228179   1.808   5.869   5.389
 9094SOL     OW28180   0.425   3.924   3.053
 9094SOL    HW128181   0.392   3.861   3.124
 9094SOL    HW228182   0.506   3.973   3.086
 9095SOL     OW28183   4.635   4.956   5.752
 9095SOL    HW128184   4.646   4.926   5.846
 9095SOL    HW228185   4.544   4.929   5.719
 9096SOL     OW28186   6.686   4.664   3.545
 9096SOL    HW128187   6.679   4.630   3.452
 9096SOL    HW228188   6.613   4.731   3.562
 9097SOL     OW28189   1.635   2.375   6.435
 9097SOL    HW128190   1.590   2.461   6.409
 9097SOL    HW228191   1.617   2.356   6.531
 9098SOL     OW28192   2.282   2.242   5.371
 9098SOL    HW128193   2.319   2.177   5.305
 9098SOL    HW228194   2.293   2.335   5.335
 9099SOL     OW28195   2.431   2.754   6.307
 9099SOL    HW128196   2.522   2.784   6.280
 9099SOL    HW228197   2.370   2.833   6.311
 9100SOL     OW28198   0.822   3.732   2.338
 9100SOL    HW128199   0.755   3.721   2.412
 9100SOL    HW228200   0.828   3.647   2.285
 9101SOL     OW28201   3.014   1.649   2.904
 9101SOL    HW128202   3.020   1.565   2.956
 9101SOL    HW228203   2.997   1.628   2.807
 9102SOL     OW28204   4.329   6.586   2.286
 9102SOL    HW128205   4.288   6.632   2.208
 9102SOL    HW228206   4.314   6.640   2.369
 9103SOL     OW28207   5.901   1.601   6.942
 9103SOL    HW128208   5.869   1.512   6.975
 9103SOL    HW228209   5.921   1.595   6.844
 9104SOL     OW28210   6.683   0.639   1.970
 9104SOL    HW128211   6.771   0.686   1.957
 9104SOL    HW228212   6.668   0.576   1.894
 9105SOL     OW28213   1.008   7.016   5.611
 9105SOL    HW128214   1.036   0.051   5.533
 9105SOL    HW228215   1.048   0.033   5.695
 9106SOL     OW28216   0.545   4.170   0.299
 9106SOL    HW128217   0.520   4.227   0.221
 9106SOL    HW228218   0.551   4.075   0.270
 9107SOL     OW28219   2.594   6.964   6.341
 9107SOL    HW128220   2.580   6.924   6.431
 9107SOL    HW228221   2.506   6.972   6.294
 9108SOL     OW28222   5.300   4.986   5.416
 9108SOL    HW128223   5.273   4.936   5.498
 9108SOL    HW228224   5.305   4.924   5.338
 9109SOL     OW28225   4.906   3.248   2.348
 9109SOL    HW128226   4.885   3.236   2.445
 9109SOL    HW228227   4.893   3.161   2.300
 9110SOL     OW28228   0.784   5.686   4.516
 9110SOL    HW128229   0.782   5.678   4.616
 9110SOL    HW228230   0.739   5.770   4.488
 9111SOL     OW28231   4.771   2.796   5.859
 9111SOL    HW128232   4.730   2.716   5.815
 9111SOL    HW228233   4.759   2.790   5.958
 9112SOL     OW28234   1.871   5.162   2.664
 9112SOL    HW128235   1.861   5.132   2.759
 9112SOL    HW228236   1.907   5.087   2.609
 9113SOL     OW28237   5.448   2.664   3.439
 9113SOL    HW128238   5.535   2.707   3.417
 9113SOL    HW228239   5.450   2.569   3.410
 9114SOL     OW28240   1.540   6.219   3.995
 9114SOL    HW128241   1.482   6.194   3.917
 9114SOL    HW228242   1.530   6.151   4.068
 9115SOL     OW28243   5.949   4.580   3.164
 9115SOL    HW128244   5.951   4.669   3.210
 9115SOL    HW228245   5.941   4.508   3.233
 9116SOL     OW28246   0.325   6.845   3.267
 9116SOL    HW128247   0.330   6.872   3.363
 9116SOL    HW228248   0.300   6.748   3.262
 9117SOL     OW28249   4.430   1.441   6.796
 9117SOL    HW128250   4.349   1.466   6.743
 9117SOL    HW228251   4.410   1.361   6.852
 9118SOL     OW28252   6.035   3.606   0.466
 9118SOL    HW128253   5.985   3.552   0.534
 9118SOL    HW228254   6.080   3.544   0.401
 9119SOL     OW28255   3.562   6.350   1.178
 9119SOL    HW128256   3.593   6.322   1.087
 9119SOL    HW228257   3.628   6.414   1.217
 9120SOL     OW28258   6.794   2.503   6.351
 9120SOL    HW128259   6.875   2.450   6.375
 9120SOL    HW228260   6.715   2.471   6.403
 9121SOL     OW28261   4.006   0.336   5.763
 9121SOL    HW128262   4.092   0.385   5.777
 9121SOL    HW228263   4.025   0.249   5.718
 9122SOL     OW28264   2.074   3.957   2.069
 9122SOL    HW128265   1.976   3.950   2.055
 9122SOL    HW228266   2.106   4.049   2.044
 9123SOL     OW28267   1.479   0.106   3.502
 9123SOL    HW128268   1.393   0.157   3.511
 9123SOL    HW228269   1.516   0.088   3.594
 9124SOL     OW28270   3.668   4.743   1.393
 9124SOL    HW128271   3.719   4.688   1.460
 9124SOL    HW228272   3.590   4.787   1.439
 9125SOL     OW28273   3.571   5.793   6.999
 9125SOL    HW128274   3.520   5.805   6.915
 9125SOL    HW228275   3.528   5.722   0.035
 9126SOL     OW28276   4.543   4.648   1.031
 9126SOL    HW128277   4.601   4.575   0.996
 9126SOL    HW228278   4.592   4.698   1.103
 9127SOL     OW28279   6.899   3.721   5.053
 9127SOL    HW128280   6.872   3.729   5.149
 9127SOL    HW228281   6.839   3.656   5.007
 9128SOL     OW28282   6.290   3.283   4.691
 9128SOL    HW128283   6.384   3.255   4.670
 9128SOL    HW228284   6.233   3.201   4.702
 9129SOL     OW28285   2.177   1.800   1.021
 9129SOL    HW128286   2.081   1.815   1.044
 9129SOL    HW228287   2.228   1.777   1.104
 9130SOL     OW28288   3.094   4.405   5.615
 9130SOL    HW128289   3.005   4.399   5.661
 9130SOL    HW228290   3.088   4.469   5.539
 9131SOL     OW28291   6.190   2.747   0.946
 9131SOL    HW128292   6.226   2.678   0.884
 9131SOL    HW228293   6.151   2.703   1.027
 9132SOL     OW28294   1.015   4.682   3.664
 9132SOL    HW128295   1.067   4.638   3.737
 9132SOL    HW228296   0.964   4.613   3.613
 9133SOL     OW28297   3.843   0.652   1.013
 9133SOL    HW128298   3.812   0.603   1.094
 9133SOL    HW228299   3.933   0.694   1.031
 9134SOL     OW28300   4.502   5.260   0.943
 9134SOL    HW128301   4.593   5.251   0.901
 9134SOL    HW228302   4.512   5.293   1.037
 9135SOL     OW28303   1.344   5.899   1.607
 9135SOL    HW128304   1.353   5.971   1.538
 9135SOL    HW228305   1.263   5.844   1.588
 9136SOL     OW28306   5.457   5.173   6.415
 9136SOL    HW128307   5.468   5.103   6.345
 9136SOL    HW228308   5.508   5.146   6.497
 9137SOL     OW28309   4.891   6.309   6.352
 9137SOL    HW128310   4.893   6.246   6.430
 9137SOL    HW228311   4.797   6.319   6.320
 9138SOL     OW28312   2.534   2.733   0.438
 9138SOL    HW128313   2.476   2.755   0.359
 9138SOL    HW228314   2.498   2.653   0.485
 9139SOL     OW28315   0.127   0.361   1.222
 9139SOL    HW128316   0.069   0.440   1.200
 9139SOL    HW228317   0.129   0.300   1.143
 9140SOL     OW28318   0.835   4.222   2.442
 9140SOL    HW128319   0.804   4.136   2.401
 9140SOL    HW228320   0.756   4.278   2.464
 9141SOL     OW28321   7.001   5.551   5.970
 9141SOL    HW128322   6.945   5.627   6.005
 9141SOL    HW228323   6.953   5.465   5.985
 9142SOL     OW28324   1.064   3.597   2.634
 9142SOL    HW128325   1.027   3.505   2.625
 9142SOL    HW228326   1.024   3.642   2.714
 9143SOL     OW28327   0.462   3.754   2.748
 9143SOL    HW128328   0.393   3.824   2.763
 9143SOL    HW228329   0.421   3.664   2.763
 9144SOL     OW28330   2.504   4.956   5.136
 9144SOL    HW128331   2.485   5.052   5.116
 9144SOL    HW228332   2.510   4.942   5.234
 9145SOL     OW28333   0.899   6.972   6.607
 9145SOL    HW128334   0.843   6.989   6.688
 9145SOL    HW228335   0.852   7.009   6.527
 9146SOL     OW28336   5.895   3.238   3.542
 9146SOL    HW128337   5.905   3.143   3.512
 9146SOL    HW228338   5.896   3.242   3.642
 9147SOL     OW28339   5.835   6.639   3.768
 9147SOL    HW128340   5.823   6.737   3.784
 9147SOL    HW228341   5.893   6.600   3.840
 9148SOL     OW28342   6.661   0.266   1.498
 9148SOL    HW128343   6.657   0.338   1.428
 9148SOL    HW228344   6.570   0.227   1.512
 9149SOL     OW28345   6.379   3.700   1.011
 9149SOL    HW128346   6.393   3.706   0.913
 9149SOL    HW228347   6.393   3.790   1.052
 9150SOL     OW28348   2.573   4.173   6.993
 9150SOL    HW128349   2.633   4.241   6.950
 9150SOL    HW228350   2.492   4.160   6.936
 9151SOL     OW28351   1.562   3.903   3.908
 9151SOL    HW128352   1.486   3.946   3.861
 9151SOL    HW228353   1.627   3.868   3.841
 9152SOL     OW28354   2.017   4.215   3.912
 9152SOL    HW128355   1.965   4.164   3.980
 9152SOL    HW228356   2.104   4.169   3.895
 9153SOL     OW28357   0.123   2.122   6.623
 9153SOL    HW128358   0.076   2.061   6.686
 9153SOL    HW228359   0.203   2.075   6.585
 9154SOL     OW28360   6.230   5.297   3.385
 9154SOL    HW128361   6.222   5.395   3.368
 9154SOL    HW228362   6.322   5.266   3.360
 9155SOL     OW28363   0.843   6.155   2.686
 9155SOL    HW128364   0.876   6.102   2.607
 9155SOL    HW228365   0.850   6.252   2.666
 9156SOL     OW28366   6.871   3.995   0.339
 9156SOL    HW128367   6.791   3.969   0.284
 9156SOL    HW228368   6.861   4.090   0.369
 9157SOL     OW28369   3.304   4.284   6.509
 9157SOL    HW128370   3.399   4.290   6.476
 9157SOL    HW228371   3.243   4.270   6.432
 9158SOL     OW28372   0.258   3.798   3.716
 9158SOL    HW128373   0.267   3.839   3.626
 9158SOL    HW228374   0.321   3.844   3.780
 9159SOL     OW28375   3.623   6.715   3.128
 9159SOL    HW128376   3.649   6.780   3.200
 9159SOL    HW228377   3.545   6.661   3.159
 9160SOL     OW28378   0.547   4.731   6.475
 9160SOL    HW128379   0.586   4.640   6.463
 9160SOL    HW228380   0.468   4.741   6.414
 9161SOL     OW28381   5.632   4.079   1.432
 9161SOL    HW128382   5.583   4.004   1.387
 9161SOL    HW228383   5.631   4.160   1.373
 9162SOL     OW28384   4.750   2.183   2.289
 9162SOL    HW128385   4.799   2.223   2.366
 9162SOL    HW228386   4.740   2.250   2.216
 9163SOL     OW28387   1.618   1.970   3.338
 9163SOL    HW128388   1.559   2.033   3.288
 9163SOL    HW228389   1.564   1.921   3.407
 9164SOL     OW28390   2.637   0.277   6.784
 9164SOL    HW128391   2.563   0.332   6.745
 9164SOL    HW228392   2.679   0.327   6.859
 9165SOL     OW28393   4.884   2.482   5.192
 9165SOL    HW128394   4.865   2.388   5.221
 9165SOL    HW228395   4.900   2.539   5.273
 9166SOL     OW28396   4.882   5.703   1.563
 9166SOL    HW128397   4.824   5.718   1.483
 9166SOL    HW228398   4.825   5.696   1.645
 9167SOL     OW28399   1.239   1.037   5.822
 9167SOL    HW128400   1.224   0.949   5.779
 9167SOL    HW228401   1.214   1.110   5.759
 9168SOL     OW28402   6.587   5.362   4.428
 9168SOL    HW128403   6.592   5.441   4.366
 9168SOL    HW228404   6.492   5.331   4.434
 9169SOL     OW28405   6.141   6.077   0.116
 9169SOL    HW128406   6.193   6.037   0.191
 9169SOL    HW228407   6.045   6.084   0.142
 9170SOL     OW28408   1.212   1.460   6.343
 9170SOL    HW128409   1.308   1.479   6.366
 9170SOL    HW228410   1.154   1.528   6.387
 9171SOL     OW28411   3.457   4.775   0.394
 9171SOL    HW128412   3.445   4.675   0.396
 9171SOL    HW228413   3.479   4.807   0.486
 9172SOL     OW28414   5.169   1.352   4.657
 9172SOL    HW128415   5.116   1.363   4.741
 9172SOL    HW228416   5.130   1.410   4.586
 9173SOL     OW28417   6.200   2.252   4.145
 9173SOL    HW128418   6.180   2.207   4.231
 9173SOL    HW228419   6.198   2.351   4.157
 9174SOL     OW28420   0.863   5.568   6.923
 9174SOL    HW128421   0.892   5.657   6.890
 9174SOL    HW228422   0.908   5.547   7.010
 9175SOL     OW28423   1.690   6.627   6.883
 9175SOL    HW128424   1.762   6.696   6.886
 9175SOL    HW228425   1.649   6.617   6.974
 9176SOL     OW28426   1.658   1.610   2.779
 9176SOL    HW128427   1.700   1.520   2.786
 9176SOL    HW228428   1.578   1.606   2.719
 9177SOL     OW28429   0.158   4.809   3.892
 9177SOL    HW128430   0.228   4.839   3.957
 9177SOL    HW228431   0.201   4.766   3.813
 9178SOL     OW28432   2.035   6.259   0.371
 9178SOL    HW128433   1.936   6.259   0.363
 9178SOL    HW228434   2.076   6.250   0.280
 9179SOL     OW28435   4.348   6.301   5.131
 9179SOL    HW128436   4.309   6.238   5.198
 9179SOL    HW228437   4.288   6.381   5.122
 9180SOL     OW28438   7.018   2.132   4.152
 9180SOL    HW128439   6.965   2.048   4.147
 9180SOL    HW228440   0.085   2.119   4.105
 9181SOL     OW28441   3.816   1.702   3.583
 9181SOL    HW128442   3.724   1.739   3.596
 9181SOL    HW228443   3.819   1.649   3.498
 9182SOL     OW28444   2.124   1.256   3.222
 9182SOL    HW128445   2.061   1.195   3.174
 9182SOL    HW228446   2.083   1.347   3.231
 9183SOL     OW28447   5.385   2.470   6.073
 9183SOL    HW128448   5.308   2.475   6.010
 9183SOL    HW228449   5.460   2.420   6.029
 9184SOL     OW28450   3.349   2.722   1.174
 9184SOL    HW128451   3.391   2.736   1.264
 9184SOL    HW228452   3.409   2.762   1.104
 9185SOL     OW28453   0.382   0.574   6.934
 9185SOL    HW128454   0.462   0.615   6.977
 9185SOL    HW228455   0.382   0.593   6.836
 9186SOL     OW28456   5.287   0.436   6.094
 9186SOL    HW128457   5.317   0.455   6.001
 9186SOL    HW228458   5.312   0.342   6.118
 9187SOL     OW28459   5.105   1.854   0.386
 9187SOL    HW128460   5.191   1.905   0.379
 9187SOL    HW228461   5.100   1.808   0.475
 9188SOL     OW28462   1.107   0.046   2.029
 9188SOL    HW128463   1.034   0.104   2.065
 9188SOL    HW228464   1.084   0.017   1.935
 9189SOL     OW28465   2.931   1.337   3.816
 9189SOL    HW128466   2.958   1.248   3.779
 9189SOL    HW228467   2.904   1.327   3.912
 9190SOL     OW28468   5.677   3.899   5.490
 9190SOL    HW128469   5.685   3.973   5.556
 9190SOL    HW228470   5.742   3.913   5.415
 9191SOL     OW28471   5.107   6.358   6.210
 9191SOL    HW128472   5.033   6.312   6.260
 9191SOL    HW228473   5.100   6.333   6.113
 9192SOL     OW28474   6.708   3.942   5.917
 9192SOL    HW128475   6.795   3.895   5.905
 9192SOL    HW228476   6.674   3.927   6.009
 9193SOL     OW28477   3.866   3.038   3.215
 9193SOL    HW128478   3.945   3.090   3.247
 9193SOL    HW228479   3.783   3.075   3.259
 9194SOL     OW28480   2.773   5.735   3.030
 9194SOL    HW128481   2.839   5.718   3.103
 9194SOL    HW228482   2.787   5.668   2.956
 9195SOL     OW28483   0.508   3.243   3.611
 9195SOL    HW128484   0.540   3.189   3.689
 9195SOL    HW228485   0.532   3.196   3.526
 9196SOL     OW28486   4.135   0.465   2.978
 9196SOL    HW128487   4.216   0.514   3.009
 9196SOL    HW228488   4.113   0.494   2.885
 9197SOL     OW28489   2.984   3.057   6.531
 9197SOL    HW128490   2.966   3.029   6.437
 9197SOL    HW228491   2.944   3.147   6.547
 9198SOL     OW28492   5.823   3.010   5.552
 9198SOL    HW128493   5.770   3.039   5.631
 9198SOL    HW228494   5.789   3.056   5.470
 9199SOL     OW28495   1.644   4.047   6.460
 9199SOL    HW128496   1.610   4.002   6.542
 9199SOL    HW228497   1.587   4.024   6.382
 9200SOL     OW28498   6.308   0.152   0.293
 9200SOL    HW128499   6.364   0.167   0.374
 9200SOL    HW228500   6.230   0.214   0.295
 9201SOL     OW28501   0.087   4.301   2.006
 9201SOL    HW128502   0.046   4.240   2.074
 9201SOL    HW228503   0.130   4.247   1.934
 9202SOL     OW28504   2.947   5.134   4.368
 9202SOL    HW128505   2.958   5.038   4.341
 9202SOL    HW228506   2.978   5.146   4.462
 9203SOL     OW28507   5.295   1.094   5.508
 9203SOL    HW128508   5.366   1.116   5.575
 9203SOL    HW228509   5.210   1.071   5.555
 9204SOL     OW28510   5.547   4.168   3.008
 9204SOL    HW128511   5.623   4.171   2.944
 9204SOL    HW228512   5.539   4.256   3.055
 9205SOL     OW28513   6.123   2.747   2.640
 9205SOL    HW128514   6.115   2.767   2.738
 9205SOL    HW228515   6.211   2.704   2.622
 9206SOL     OW28516   1.709   6.487   3.550
 9206SOL    HW128517   1.740   6.450   3.462
 9206SOL    HW228518   1.688   6.412   3.612
 9207SOL     OW28519   4.207   5.905   6.806
 9207SOL    HW128520   4.146   5.979   6.835
 9207SOL    HW228521   4.220   5.910   6.707
 9208SOL     OW28522   4.916   3.586   2.078
 9208SOL    HW128523   4.955   3.494   2.076
 9208SOL    HW228524   4.850   3.597   2.004
 9209SOL     OW28525   3.648   1.049   2.497
 9209SOL    HW128526   3.706   0.973   2.467
 9209SOL    HW228527   3.618   1.101   2.417
 9210SOL     OW28528   2.179   0.206   1.030
 9210SOL    HW128529   2.226   0.178   1.114
 9210SOL    HW228530   2.081   0.216   1.048
 9211SOL     OW28531   4.914   1.825   6.960
 9211SOL    HW128532   4.814   1.826   6.958
 9211SOL    HW228533   4.949   1.862   6.874
 9212SOL     OW28534   5.483   4.548   4.468
 9212SOL    HW128535   5.559   4.519   4.409
 9212SOL    HW228536   5.444   4.469   4.514
 9213SOL     OW28537   6.097   6.685   3.641
 9213SOL    HW128538   5.998   6.698   3.633
 9213SOL    HW228539   6.115   6.610   3.705
 9214SOL     OW28540   2.427   2.660   4.440
 9214SOL    HW128541   2.513   2.609   4.448
 9214SOL    HW228542   2.354   2.598   4.409
 9215SOL     OW28543   0.610   4.205   2.638
 9215SOL    HW128544   0.638   4.196   2.734
 9215SOL    HW228545   0.602   4.114   2.597
 9216SOL     OW28546   2.570   5.939   5.353
 9216SOL    HW128547   2.619   5.965   5.270
 9216SOL    HW228548   2.533   5.847   5.342
 9217SOL     OW28549   4.547   1.467   6.254
 9217SOL    HW128550   4.490   1.463   6.336
 9217SOL    HW228551   4.593   1.556   6.250
 9218SOL     OW28552   5.905   6.393   5.893
 9218SOL    HW128553   5.867   6.317   5.839
 9218SOL    HW228554   5.842   6.416   5.966
 9219SOL     OW28555   3.560   3.240   5.421
 9219SOL    HW128556   3.488   3.173   5.406
 9219SOL    HW228557   3.542   3.291   5.505
 9220SOL     OW28558   1.670   6.801   2.936
 9220SOL    HW128559   1.674   6.794   3.035
 9220SOL    HW228560   1.753   6.844   2.902
 9221SOL     OW28561   2.358   0.342   6.587
 9221SOL    HW128562   2.435   0.376   6.533
 9221SOL    HW228563   2.354   0.390   6.674
 9222SOL     OW28564   1.572   4.449   3.528
 9222SOL    HW128565   1.617   4.442   3.439
 9222SOL    HW228566   1.505   4.524   3.526
 9223SOL     OW28567   1.455   3.700   4.551
 9223SOL    HW128568   1.409   3.786   4.573
 9223SOL    HW228569   1.394   3.643   4.496
 9224SOL     OW28570   2.142   4.474   3.765
 9224SOL    HW128571   2.239   4.485   3.742
 9224SOL    HW228572   2.131   4.392   3.822
 9225SOL     OW28573   4.592   6.934   6.181
 9225SOL    HW128574   4.592   6.960   6.084
 9225SOL    HW228575   4.652   6.855   6.194
 9226SOL     OW28576   0.894   0.186   0.615
 9226SOL    HW128577   0.796   0.179   0.596
 9226SOL    HW228578   0.940   0.230   0.538
 9227SOL     OW28579   2.697   5.117   0.639
 9227SOL    HW128580   2.687   5.215   0.655
 9227SOL    HW228581   2.705   5.099   0.541
 9228SOL     OW28582   2.915   2.282   5.860
 9228SOL    HW128583   2.817   2.263   5.870
 9228SOL    HW228584   2.931   2.330   5.773
 9229SOL     OW28585   0.230   4.784   6.698
 9229SOL    HW128586   0.159   4.776   6.768
 9229SOL    HW228587   0.191   4.767   6.608
 9230SOL     OW28588   4.564   1.960   3.874
 9230SOL    HW128589   4.654   1.971   3.915
 9230SOL    HW228590   4.568   1.984   3.777
 9231SOL     OW28591   0.744   5.133   5.136
 9231SOL    HW128592   0.693   5.081   5.205
 9231SOL    HW228593   0.680   5.187   5.080
 9232SOL     OW28594   1.595   5.871   1.511
 9232SOL    HW128595   1.514   5.878   1.570
 9232SOL    HW228596   1.663   5.814   1.555
 9233SOL     OW28597   0.770   0.626   0.080
 9233SOL    HW128598   0.709   0.558   0.121
 9233SOL    HW228599   0.865   0.600   0.099
 9234SOL     OW28600   2.371   4.670   0.588
 9234SOL    HW128601   2.300   4.610   0.624
 9234SOL    HW228602   2.454   4.617   0.571
 9235SOL     OW28603   2.483   2.624   4.019
 9235SOL    HW128604   2.516   2.619   3.924
 9235SOL    HW228605   2.557   2.597   4.081
 9236SOL     OW28606   1.942   3.199   6.617
 9236SOL    HW128607   1.894   3.128   6.566
 9236SOL    HW228608   1.976   3.162   6.704
 9237SOL     OW28609   5.676   5.200   2.931
 9237SOL    HW128610   5.621   5.174   2.851
 9237SOL    HW228611   5.708   5.118   2.977
 9238SOL     OW28612   1.519   3.144   4.805
 9238SOL    HW128613   1.602   3.100   4.770
 9238SOL    HW228614   1.445   3.077   4.810
 9239SOL     OW28615   0.749   4.745   0.234
 9239SOL    HW128616   0.660   4.704   0.254
 9239SOL    HW228617   0.815   4.718   0.304
 9240SOL     OW28618   4.942   2.877   2.602
 9240SOL    HW128619   4.986   2.842   2.685
 9240SOL    HW228620   4.984   2.833   2.522
 9241SOL     OW28621   6.073   6.662   0.833
 9241SOL    HW128622   6.007   6.631   0.765
 9241SOL    HW228623   6.130   6.585   0.862
 9242SOL     OW28624   1.527   2.158   1.678
 9242SOL    HW128625   1.459   2.220   1.639
 9242SOL    HW228626   1.504   2.064   1.655
 9243SOL     OW28627   0.484   0.619   1.487
 9243SOL    HW128628   0.471   0.626   1.388
 9243SOL    HW228629   0.561   0.559   1.506
 9244SOL     OW28630   4.335   6.803   4.992
 9244SOL    HW128631   4.293   6.845   5.072
 9244SOL    HW228632   4.422   6.761   5.017
 9245SOL     OW28633   1.182   4.672   3.254
 9245SOL    HW128634   1.235   4.706   3.176
 9245SOL    HW228635   1.085   4.686   3.236
 9246SOL     OW28636   6.248   0.978   4.622
 9246SOL    HW128637   6.197   0.893   4.606
 9246SOL    HW228638   6.304   0.999   4.542
 9247SOL     OW28639   3.691   5.553   3.241
 9247SOL    HW128640   3.637   5.540   3.324
 9247SOL    HW228641   3.630   5.560   3.162
 9248SOL     OW28642   2.607   1.385   5.519
 9248SOL    HW128643   2.650   1.345   5.438
 9248SOL    HW228644   2.677   1.405   5.587
 9249SOL     OW28645   3.802   4.885   1.794
 9249SOL    HW128646   3.730   4.860   1.859
 9249SOL    HW228647   3.779   4.973   1.752
 9250SOL     OW28648   0.066   3.489   4.424
 9250SOL    HW128649   0.054   3.445   4.335
 9250SOL    HW228650   0.086   3.586   4.411
 9251SOL     OW28651   3.732   2.390   0.689
 9251SOL    HW128652   3.822   2.352   0.709
 9251SOL    HW228653   3.738   2.489   0.681
 9252SOL     OW28654   4.642   0.477   5.226
 9252SOL    HW128655   4.663   0.380   5.235
 9252SOL    HW228656   4.611   0.496   5.132
 9253SOL     OW28657   1.015   4.694   5.734
 9253SOL    HW128658   1.049   4.723   5.823
 9253SOL    HW228659   0.955   4.764   5.697
 9254SOL     OW28660   6.465   4.731   2.438
 9254SOL    HW128661   6.432   4.647   2.482
 9254SOL    HW228662   6.555   4.713   2.397
 9255SOL     OW28663   6.156   4.720   0.379
 9255SOL    HW128664   6.244   4.674   0.390
 9255SOL    HW228665   6.107   4.720   0.466
 9256SOL     OW28666   1.985   6.645   1.992
 9256SOL    HW128667   2.048   6.578   2.032
 9256SOL    HW228668   1.938   6.604   1.914
 9257SOL     OW28669   0.066   5.715   3.982
 9257SOL    HW128670   0.086   5.760   4.069
 9257SOL    HW228671   7.012   5.649   3.994
 9258SOL     OW28672   3.644   3.417   0.637
 9258SOL    HW128673   3.595   3.453   0.558
 9258SOL    HW228674   3.724   3.474   0.656
 9259SOL     OW28675   2.273   1.729   6.621
 9259SOL    HW128676   2.329   1.762   6.545
 9259SOL    HW228677   2.193   1.788   6.631
 9260SOL     OW28678   5.774   2.668   5.469
 9260SOL    HW128679   5.799   2.572   5.480
 9260SOL    HW228680   5.847   2.726   5.505
 9261SOL     OW28681   4.197   1.997   1.017
 9261SOL    HW128682   4.206   2.092   1.048
 9261SOL    HW228683   4.108   1.985   0.974
 9262SOL     OW28684   6.547   6.348   4.136
 9262SOL    HW128685   6.517   6.286   4.209
 9262SOL    HW228686   6.593   6.427   4.176
 9263SOL     OW28687   2.466   4.404   3.122
 9263SOL    HW128688   2.455   4.478   3.189
 9263SOL    HW228689   2.561   4.374   3.121
 9264SOL     OW28690   5.247   4.177   6.680
 9264SOL    HW128691   5.219   4.083   6.656
 9264SOL    HW228692   5.315   4.209   6.613
 9265SOL     OW28693   4.536   2.069   6.915
 9265SOL    HW128694   4.528   2.137   6.988
 9265SOL    HW228695   4.562   1.981   6.955
 9266SOL     OW28696   0.308   4.396   1.349
 9266SOL    HW128697   0.315   4.437   1.441
 9266SOL    HW228698   0.270   4.464   1.286
 9267SOL     OW28699   0.486   1.050   3.768
 9267SOL    HW128700   0.542   1.073   3.847
 9267SOL    HW228701   0.482   0.951   3.758
 9268SOL     OW28702   0.678   6.666   1.278
 9268SOL    HW128703   0.760   6.641   1.330
 9268SOL    HW228704   0.693   6.645   1.181
 9269SOL     OW28705   4.418   0.178   0.354
 9269SOL    HW128706   4.517   0.167   0.354
 9269SOL    HW228707   4.393   0.263   0.400
 9270SOL     OW28708   3.252   1.187   6.421
 9270SOL    HW128709   3.262   1.211   6.325
 9270SOL    HW228710   3.328   1.129   6.450
 9271SOL     OW28711   1.139   0.227   6.750
 9271SOL    HW128712   1.168   0.309   6.798
 9271SOL    HW228713   1.098   0.163   6.814
 9272SOL     OW28714   6.735   6.441   6.053
 9272SOL    HW128715   6.819   6.494   6.042
 9272SOL    HW228716   6.755   6.344   6.045
 9273SOL     OW28717   4.976   5.270   3.694
 9273SOL    HW128718   4.952   5.240   3.787
 9273SOL    HW228719   4.963   5.369   3.687
 9274SOL     OW28720   0.688   3.438   0.001
 9274SOL    HW128721   0.764   3.502   0.012
 9274SOL    HW228722   0.717   3.361   6.966
 9275SOL     OW28723   0.610   6.385   1.224
 9275SOL    HW128724   0.542   6.448   1.261
 9275SOL    HW228725   0.619   6.399   1.126
 9276SOL     OW28726   3.371   4.125   0.293
 9276SOL    HW128727   3.462   4.159   0.319
 9276SOL    HW228728   3.309   4.202   0.280
 9277SOL     OW28729   4.254   4.789   2.641
 9277SOL    HW128730   4.173   4.835   2.606
 9277SOL    HW228731   4.324   4.785   2.570
 9278SOL     OW28732   0.662   0.993   4.473
 9278SOL    HW128733   0.753   0.968   4.438
 9278SOL    HW228734   0.635   0.930   4.545
 9279SOL     OW28735   3.885   4.971   1.425
 9279SOL    HW128736   3.864   5.008   1.515
 9279SOL    HW228737   3.809   4.913   1.395
 9280SOL     OW28738   1.575   1.199   2.782
 9280SOL    HW128739   1.584   1.137   2.704
 9280SOL    HW228740   1.639   1.275   2.771
 9281SOL     OW28741   3.336   4.117   6.753
 9281SOL    HW128742   3.256   4.107   6.811
 9281SOL    HW228743   3.314   4.176   6.676
 9282SOL     OW28744   3.521   0.005   4.934
 9282SOL    HW128745   3.584   0.007   4.857
 9282SOL    HW228746   3.506   0.098   4.967
 9283SOL     OW28747   4.879   6.110   6.529
 9283SOL    HW128748   4.910   6.017   6.508
 9283SOL    HW228749   4.784   6.121   6.501
 9284SOL     OW28750   3.017   3.968   5.174
 9284SOL    HW128751   3.006   4.067   5.185
 9284SOL    HW228752   3.108   3.948   5.137
 9285SOL     OW28753   6.122   3.208   2.767
 9285SOL    HW128754   6.107   3.296   2.722
 9285SOL    HW228755   6.218   3.201   2.795
 9286SOL     OW28756   4.532   6.062   0.707
 9286SOL    HW128757   4.570   6.129   0.771
 9286SOL    HW228758   4.534   5.971   0.748
 9287SOL     OW28759   2.921   4.769   6.088
 9287SOL    HW128760   2.943   4.866   6.098
 9287SOL    HW228761   2.999   4.714   6.117
 9288SOL     OW28762   4.346   2.105   3.920
 9288SOL    HW128763   4.320   2.103   4.017
 9288SOL    HW228764   4.436   2.064   3.909
 9289SOL     OW28765   4.536   6.124   6.791
 9289SOL    HW128766   4.520   6.027   6.808
 9289SOL    HW228767   4.605   6.158   6.855
 9290SOL     OW28768   5.478   0.641   4.758
 9290SOL    HW128769   5.576   0.639   4.780
 9290SOL    HW228770   5.465   0.610   4.664
 9291SOL     OW28771   1.008   5.304   5.483
 9291SOL    HW128772   1.054   5.392   5.495
 9291SOL    HW228773   1.027   5.268   5.392
 9292SOL     OW28774   1.218   1.187   6.355
 9292SOL    HW128775   1.238   1.283   6.375
 9292SOL    HW228776   1.259   1.162   6.268
 9293SOL     OW28777   5.132   2.771   5.733
 9293SOL    HW128778   5.220   2.731   5.758
 9293SOL    HW228779   5.120   2.764   5.634
 9294SOL     OW28780   4.831   0.975   0.567
 9294SOL    HW128781   4.802   0.880   0.558
 9294SOL    HW228782   4.915   0.989   0.514
 9295SOL     OW28783   0.828   0.705   4.861
 9295SOL    HW128784   0.898   0.776   4.871
 9295SOL    HW228785   0.851   0.647   4.782
 9296SOL     OW28786   2.654   4.462   0.869
 9296SOL    HW128787   2.586   4.473   0.942
 9296SOL    HW228788   2.674   4.365   0.856
 9297SOL     OW28789   6.751   6.679   3.154
 9297SOL    HW128790   6.752   6.624   3.071
 9297SOL    HW228791   6.795   6.627   3.228
 9298SOL     OW28792   1.471   6.203   5.665
 9298SOL    HW128793   1.410   6.145   5.720
 9298SOL    HW228794   1.472   6.171   5.571
 9299SOL     OW28795   2.315   2.470   5.197
 9299SOL    HW128796   2.227   2.460   5.150
 9299SOL    HW228797   2.386   2.493   5.131
 9300SOL     OW28798   1.569   5.894   5.556
 9300SOL    HW128799   1.627   5.908   5.475
 9300SOL    HW228800   1.473   5.906   5.530
 9301SOL     OW28801   0.439   4.238   4.569
 9301SOL    HW128802   0.423   4.156   4.514
 9301SOL    HW228803   0.415   4.319   4.515
 9302SOL     OW28804   2.181   3.185   5.102
 9302SOL    HW128805   2.215   3.272   5.136
 9302SOL    HW228806   2.257   3.121   5.090
 9303SOL     OW28807   2.903   4.129   0.248
 9303SOL    HW128808   2.906   4.037   0.285
 9303SOL    HW228809   2.996   4.160   0.226
 9304SOL     OW28810   5.108   4.764   0.483
 9304SOL    HW128811   5.154   4.849   0.458
 9304SOL    HW228812   5.054   4.731   0.406
 9305SOL     OW28813   2.808   1.186   0.920
 9305SOL    HW128814   2.736   1.253   0.937
 9305SOL    HW228815   2.811   1.120   0.995
 9306SOL     OW28816   0.605   4.278   5.243
 9306SOL    HW128817   0.555   4.253   5.326
 9306SOL    HW228818   0.595   4.205   5.175
 9307SOL     OW28819   2.443   2.990   1.163
 9307SOL    HW128820   2.507   2.916   1.142
 9307SOL    HW228821   2.382   2.961   1.237
 9308SOL     OW28822   1.803   3.973   1.376
 9308SOL    HW128823   1.721   3.956   1.321
 9308SOL    HW228824   1.777   4.000   1.468
 9309SOL     OW28825   4.223   6.129   5.279
 9309SOL    HW128826   4.124   6.125   5.263
 9309SOL    HW228827   4.260   6.037   5.287
 9310SOL     OW28828   4.183   6.506   5.866
 9310SOL    HW128829   4.262   6.475   5.919
 9310SOL    HW228830   4.132   6.427   5.833
 9311SOL     OW28831   4.572   3.400   1.632
 9311SOL    HW128832   4.655   3.377   1.683
 9311SOL    HW228833   4.569   3.346   1.548
 9312SOL     OW28834   0.530   2.201   1.029
 9312SOL    HW128835   0.505   2.219   1.124
 9312SOL    HW228836   0.489   2.114   0.999
 9313SOL     OW28837   1.114   6.460   1.716
 9313SOL    HW128838   1.200   6.432   1.758
 9313SOL    HW228839   1.133   6.512   1.633
 9314SOL     OW28840   5.171   2.449   0.622
 9314SOL    HW128841   5.074   2.427   0.621
 9314SOL    HW228842   5.223   2.370   0.590
 9315SOL     OW28843   5.740   1.298   6.509
 9315SOL    HW128844   5.742   1.372   6.442
 9315SOL    HW228845   5.700   1.332   6.594
 9316SOL     OW28846   4.737   0.920   5.742
 9316SOL    HW128847   4.747   0.999   5.802
 9316SOL    HW228848   4.662   0.862   5.776
 9317SOL     OW28849   2.972   5.929   4.251
 9317SOL    HW128850   2.941   5.953   4.343
 9317SOL    HW228851   2.924   5.848   4.219
 9318SOL     OW28852   4.702   6.350   0.395
 9318SOL    HW128853   4.653   6.425   0.439
 9318SOL    HW228854   4.649   6.266   0.406
 9319SOL     OW28855   2.263   4.380   0.712
 9319SOL    HW128856   2.324   4.371   0.791
 9319SOL    HW228857   2.294   4.320   0.638
 9320SOL     OW28858   6.208   0.294   5.975
 9320SOL    HW128859   6.278   0.272   5.907
 9320SOL    HW228860   6.243   0.365   6.036
 9321SOL     OW28861   0.197   3.158   5.710
 9321SOL    HW128862   0.262   3.234   5.715
 9321SOL    HW228863   0.116   3.180   5.765
 9322SOL     OW28864   6.071   4.084   5.601
 9322SOL    HW128865   6.080   4.132   5.513
 9322SOL    HW228866   6.045   4.150   5.672
 9323SOL     OW28867   1.275   3.229   3.359
 9323SOL    HW128868   1.359   3.261   3.316
 9323SOL    HW228869   1.200   3.234   3.292
 9324SOL     OW28870   0.792   4.090   1.283
 9324SOL    HW128871   0.837   4.065   1.197
 9324SOL    HW228872   0.694   4.070   1.277
 9325SOL     OW28873   1.520   5.533   2.512
 9325SOL    HW128874   1.572   5.450   2.535
 9325SOL    HW228875   1.531   5.600   2.585
 9326SOL     OW28876   3.999   3.959   6.942
 9326SOL    HW128877   4.091   3.965   6.979
 9326SOL    HW228878   3.995   3.886   6.874
 9327SOL     OW28879   4.574   1.086   3.219
 9327SOL    HW128880   4.572   1.015   3.148
 9327SOL    HW228881   4.583   1.043   3.309
 9328SOL     OW28882   2.695   6.554   4.394
 9328SOL    HW128883   2.721   6.488   4.323
 9328SOL    HW228884   2.771   6.568   4.457
 9329SOL     OW28885   0.268   6.271   6.373
 9329SOL    HW128886   0.181   6.228   6.351
 9329SOL    HW228887   0.343   6.217   6.334
 9330SOL     OW28888   5.926   6.853   6.382
 9330SOL    HW128889   5.886   6.887   6.467
 9330SOL    HW228890   5.932   6.928   6.316
 9331SOL     OW28891   1.752   3.333   5.058
 9331SOL    HW128892   1.842   3.334   5.016
 9331SOL    HW228893   1.681   3.329   4.987
 9332SOL     OW28894   4.370   5.725   0.593
 9332SOL    HW128895   4.342   5.716   0.689
 9332SOL    HW228896   4.369   5.635   0.550
 9333SOL     OW28897   3.577   5.171   0.587
 9333SOL    HW128898   3.634   5.196   0.509
 9333SOL    HW228899   3.623   5.194   0.672
 9334SOL     OW28900   4.640   6.543   5.409
 9334SOL    HW128901   4.587   6.597   5.343
 9334SOL    HW228902   4.606   6.449   5.409
 9335SOL     OW28903   2.589   2.065   1.848
 9335SOL    HW128904   2.498   2.096   1.874
 9335SOL    HW228905   2.642   2.142   1.813
 9336SOL     OW28906   6.564   1.098   5.043
 9336SOL    HW128907   6.516   1.103   5.131
 9336SOL    HW228908   6.509   1.142   4.972
 9337SOL     OW28909   4.587   0.750   5.924
 9337SOL    HW128910   4.657   0.702   5.976
 9337SOL    HW228911   4.518   0.787   5.986
 9338SOL     OW28912   6.552   5.999   6.948
 9338SOL    HW128913   6.514   5.917   6.905
 9338SOL    HW228914   6.477   6.058   6.978
 9339SOL     OW28915   6.536   4.884   6.110
 9339SOL    HW128916   6.566   4.828   6.032
 9339SOL    HW228917   6.476   4.956   6.078
 9340SOL     OW28918   3.517   6.024   2.714
 9340SOL    HW128919   3.602   5.979   2.741
 9340SOL    HW228920   3.537   6.094   2.646
 9341SOL     OW28921   5.613   4.309   6.779
 9341SOL    HW128922   5.564   4.234   6.822
 9341SOL    HW228923   5.633   4.285   6.684
 9342SOL     OW28924   2.703   0.118   4.573
 9342SOL    HW128925   2.727   0.036   4.625
 9342SOL    HW228926   2.741   0.199   4.618
 9343SOL     OW28927   4.763   4.364   1.796
 9343SOL    HW128928   4.681   4.309   1.811
 9343SOL    HW228929   4.822   4.319   1.729
 9344SOL     OW28930   5.947   5.202   5.714
 9344SOL    HW128931   5.985   5.130   5.770
 9344SOL    HW228932   5.859   5.172   5.676
 9345SOL     OW28933   6.896   6.097   0.104
 9345SOL    HW128934   6.967   6.060   0.165
 9345SOL    HW228935   6.863   6.024   0.045
 9346SOL     OW28936   5.542   6.840   2.028
 9346SOL    HW128937   5.600   6.856   1.948
 9346SOL    HW228938   5.456   6.890   2.017
 9347SOL     OW28939   3.771   5.358   1.202
 9347SOL    HW128940   3.740   5.393   1.114
 9347SOL    HW228941   3.830   5.278   1.188
 9348SOL     OW28942   2.345   5.962   2.840
 9348SOL    HW128943   2.246   5.968   2.827
 9348SOL    HW228944   2.391   5.990   2.755
 9349SOL     OW28945   6.454   5.560   2.188
 9349SOL    HW128946   6.488   5.505   2.265
 9349SOL    HW228947   6.464   5.657   2.210
 9350SOL     OW28948   6.965   1.893   4.772
 9350SOL    HW128949   6.870   1.915   4.792
 9350SOL    HW228950   6.984   1.798   4.800
 9351SOL     OW28951   2.626   0.655   5.387
 9351SOL    HW128952   2.717   0.672   5.425
 9351SOL    HW228953   2.588   0.572   5.428
 9352SOL     OW28954   2.377   2.254   5.835
 9352SOL    HW128955   2.315   2.332   5.841
 9352SOL    HW228956   2.394   2.233   5.739
 9353SOL     OW28957   0.919   4.268   1.672
 9353SOL    HW128958   0.960   4.199   1.612
 9353SOL    HW228959   0.903   4.228   1.762
 9354SOL     OW28960   6.555   2.327   1.446
 9354SOL    HW128961   6.522   2.278   1.366
 9354SOL    HW228962   6.597   2.413   1.417
 9355SOL     OW28963   0.158   0.417   4.597
 9355SOL    HW128964   0.162   0.484   4.523
 9355SOL    HW228965   0.186   0.327   4.563
 9356SOL     OW28966   4.225   5.110   1.920
 9356SOL    HW128967   4.180   5.062   1.995
 9356SOL    HW228968   4.268   5.194   1.955
 9357SOL     OW28969   2.899   3.326   0.572
 9357SOL    HW128970   2.873   3.406   0.517
 9357SOL    HW228971   2.996   3.305   0.558
 9358SOL     OW28972   6.005   4.523   1.470
 9358SOL    HW128973   6.093   4.559   1.439
 9358SOL    HW228974   5.947   4.599   1.500
 9359SOL     OW28975   6.916   4.379   6.535
 9359SOL    HW128976   6.842   4.435   6.573
 9359SOL    HW228977   6.973   4.435   6.476
 9360SOL     OW28978   2.296   0.119   5.868
 9360SOL    HW128979   2.251   0.185   5.808
 9360SOL    HW228980   2.388   0.100   5.834
 9361SOL     OW28981   2.905   6.014   2.685
 9361SOL    HW128982   2.905   6.017   2.785
 9361SOL    HW228983   2.941   5.926   2.655
 9362SOL     OW28984   2.273   1.233   2.336
 9362SOL    HW128985   2.336   1.210   2.262
 9362SOL    HW228986   2.223   1.151   2.364
 9363SOL     OW28987   3.360   5.738   2.833
 9363SOL    HW128988   3.396   5.728   2.740
 9363SOL    HW228989   3.332   5.832   2.848
 9364SOL     OW28990   4.504   3.072   6.402
 9364SOL    HW128991   4.429   3.128   6.365
 9364SOL    HW228992   4.466   2.986   6.438
 9365SOL     OW28993   2.659   2.383   4.939
 9365SOL    HW128994   2.578   2.438   4.918
 9365SOL    HW228995   2.690   2.404   5.031
 9366SOL     OW28996   3.202   1.667   0.782
 9366SOL    HW128997   3.152   1.612   0.848
 9366SOL    HW228998   3.137   1.707   0.717
 9367SOL     OW28999   0.073   5.400   3.928
 9367SOL    HW129000   0.044   5.384   3.834
 9367SOL    HW229001   7.018   5.378   3.990
 9368SOL     OW29002   3.884   1.892   1.780
 9368SOL    HW129003   3.899   1.842   1.695
 9368SOL    HW229004   3.814   1.962   1.765
 9369SOL     OW29005   6.467   1.261   6.122
 9369SOL    HW129006   6.376   1.238   6.157
 9369SOL    HW229007   6.464   1.269   6.023
 9370SOL     OW29008   5.798   1.138   3.205
 9370SOL    HW129009   5.784   1.232   3.175
 9370SOL    HW229010   5.850   1.138   3.291
 9371SOL     OW29011   1.014   5.562   0.148
 9371SOL    HW129012   1.109   5.593   0.140
 9371SOL    HW229013   1.013   5.474   0.195
 9372SOL     OW29014   5.863   6.497   3.404
 9372SOL    HW129015   5.813   6.420   3.445
 9372SOL    HW229016   5.927   6.462   3.335
 9373SOL     OW29017   4.467   1.679   3.156
 9373SOL    HW129018   4.467   1.689   3.056
 9373SOL    HW229019   4.494   1.766   3.198
 9374SOL     OW29020   6.007   2.955   0.448
 9374SOL    HW129021   5.928   2.894   0.441
 9374SOL    HW229022   6.076   2.914   0.508
 9375SOL     OW29023   6.819   1.897   3.262
 9375SOL    HW129024   6.827   1.987   3.219
 9375SOL    HW229025   6.908   1.851   3.261
 9376SOL     OW29026   3.414   3.825   1.074
 9376SOL    HW129027   3.414   3.731   1.108
 9376SOL    HW229028   3.496   3.841   1.018
 9377SOL     OW29029   6.471   5.555   3.775
 9377SOL    HW129030   6.435   5.488   3.711
 9377SOL    HW229031   6.556   5.594   3.740
 9378SOL     OW29032   2.703   6.888   6.000
 9378SOL    HW129033   2.603   6.882   6.004
 9378SOL    HW229034   2.736   6.936   6.082
 9379SOL     OW29035   4.713   4.699   4.505
 9379SOL    HW129036   4.637   4.764   4.495
 9379SOL    HW229037   4.780   4.737   4.569
 9380SOL     OW29038   6.667   6.826   5.612
 9380SOL    HW129039   6.568   6.836   5.607
 9380SOL    HW229040   6.690   6.730   5.631
 9381SOL     OW29041   2.778   2.870   5.440
 9381SOL    HW129042   2.759   2.968   5.451
 9381SOL    HW229043   2.697   2.824   5.405
 9382SOL     OW29044   4.239   0.850   3.137
 9382SOL    HW129045   4.141   0.864   3.154
 9382SOL    HW229046   4.250   0.794   3.055
 9383SOL     OW29047   3.373   6.572   4.818
 9383SOL    HW129048   3.419   6.497   4.866
 9383SOL    HW229049   3.371   6.653   4.877
 9384SOL     OW29050   4.050   5.824   2.332
 9384SOL    HW129051   4.087   5.735   2.305
 9384SOL    HW229052   4.109   5.897   2.297
 9385SOL     OW29053   4.005   1.887   2.617
 9385SOL    HW129054   3.950   1.879   2.533
 9385SOL    HW229055   3.974   1.967   2.669
 9386SOL     OW29056   3.475   5.990   4.729
 9386SOL    HW129057   3.514   5.996   4.821
 9386SOL    HW229058   3.381   5.958   4.735
 9387SOL     OW29059   4.057   6.720   1.240
 9387SOL    HW129060   3.990   6.681   1.178
 9387SOL    HW229061   4.111   6.647   1.282
 9388SOL     OW29062   1.327   6.332   2.196
 9388SOL    HW129063   1.228   6.317   2.199
 9388SOL    HW229064   1.370   6.260   2.142
 9389SOL     OW29065   2.483   0.409   5.400
 9389SOL    HW129066   2.449   0.318   5.426
 9389SOL    HW229067   2.413   0.458   5.348
 9390SOL     OW29068   3.883   5.882   3.265
 9390SOL    HW129069   3.921   5.804   3.216
 9390SOL    HW229070   3.954   5.953   3.273
 9391SOL     OW29071   2.015   1.138   5.789
 9391SOL    HW129072   2.059   1.113   5.703
 9391SOL    HW229073   2.037   1.233   5.812
 9392SOL     OW29074   0.512   6.947   5.032
 9392SOL    HW129075   0.430   7.004   5.025
 9392SOL    HW229076   0.517   6.908   5.124
 9393SOL     OW29077   3.805   1.697   4.346
 9393SOL    HW129078   3.753   1.665   4.425
 9393SOL    HW229079   3.742   1.718   4.271
 9394SOL     OW29080   6.083   2.599   3.381
 9394SOL    HW129081   6.176   2.579   3.349
 9394SOL    HW229082   6.037   2.514   3.406
 9395SOL     OW29083   2.633   2.172   0.588
 9395SOL    HW129084   2.566   2.124   0.531
 9395SOL    HW229085   2.591   2.198   0.675
 9396SOL     OW29086   0.021   6.559   4.724
 9396SOL    HW129087   0.066   6.495   4.662
 9396SOL    HW229088   6.952   6.585   4.687
 9397SOL     OW29089   2.484   0.225   0.446
 9397SOL    HW129090   2.559   0.236   0.511
 9397SOL    HW229091   2.519   0.235   0.352
 9398SOL     OW29092   1.947   0.526   0.155
 9398SOL    HW129093   1.889   0.605   0.136
 9398SOL    HW229094   1.948   0.509   0.254
 9399SOL     OW29095   6.731   1.826   0.149
 9399SOL    HW129096   6.650   1.801   0.202
 9399SOL    HW229097   6.727   1.784   0.059
 9400SOL     OW29098   5.059   3.682   1.740
 9400SOL    HW129099   5.108   3.767   1.763
 9400SOL    HW229100   4.976   3.675   1.796
 9401SOL     OW29101   2.705   6.671   3.503
 9401SOL    HW129102   2.749   6.641   3.419
 9401SOL    HW229103   2.701   6.595   3.568
 9402SOL     OW29104   1.839   4.872   6.110
 9402SOL    HW129105   1.816   4.893   6.015
 9402SOL    HW229106   1.846   4.773   6.122
 9403SOL     OW29107   5.079   1.898   2.615
 9403SOL    HW129108   4.990   1.943   2.609
 9403SOL    HW229109   5.144   1.959   2.660
 9404SOL     OW29110   0.883   4.729   6.299
 9404SOL    HW129111   0.979   4.710   6.283
 9404SOL    HW229112   0.874   4.820   6.341
 9405SOL     OW29113   6.381   6.628   1.927
 9405SOL    HW129114   6.353   6.537   1.955
 9405SOL    HW229115   6.449   6.663   1.991
 9406SOL     OW29116   0.428   1.509   5.689
 9406SOL    HW129117   0.469   1.421   5.713
 9406SOL    HW229118   0.392   1.505   5.596
 9407SOL     OW29119   2.744   6.793   2.093
 9407SOL    HW129120   2.726   6.707   2.140
 9407SOL    HW229121   2.757   6.866   2.160
 9408SOL     OW29122   3.495   1.251   5.644
 9408SOL    HW129123   3.470   1.267   5.548
 9408SOL    HW229124   3.448   1.170   5.678
 9409SOL     OW29125   4.725   4.191   4.689
 9409SOL    HW129126   4.763   4.100   4.672
 9409SOL    HW229127   4.727   4.210   4.787
 9410SOL     OW29128   3.694   5.430   1.703
 9410SOL    HW129129   3.690   5.529   1.687
 9410SOL    HW229130   3.613   5.402   1.755
 9411SOL     OW29131   3.727   4.601   1.020
 9411SOL    HW129132   3.792   4.660   1.069
 9411SOL    HW229133   3.638   4.604   1.067
 9412SOL     OW29134   1.008   3.367   1.561
 9412SOL    HW129135   1.068   3.443   1.587
 9412SOL    HW229136   0.949   3.343   1.638
 9413SOL     OW29137   4.159   5.450   5.027
 9413SOL    HW129138   4.085   5.444   4.960
 9413SOL    HW229139   4.120   5.459   5.119
 9414SOL     OW29140   3.407   1.556   2.997
 9414SOL    HW129141   3.493   1.603   3.017
 9414SOL    HW229142   3.364   1.528   3.083
 9415SOL     OW29143   2.059   6.458   2.685
 9415SOL    HW129144   2.044   6.374   2.737
 9415SOL    HW229145   2.002   6.531   2.723
 9416SOL     OW29146   0.260   1.332   1.602
 9416SOL    HW129147   0.260   1.423   1.559
 9416SOL    HW229148   0.231   1.341   1.698
 9417SOL     OW29149   2.807   6.888   5.559
 9417SOL    HW129150   2.884   6.871   5.497
 9417SOL    HW229151   2.725   6.842   5.524
 9418SOL     OW29152   2.383   6.309   0.745
 9418SOL    HW129153   2.294   6.341   0.712
 9418SOL    HW229154   2.370   6.253   0.826
 9419SOL     OW29155   3.637   6.305   5.174
 9419SOL    HW129156   3.691   6.284   5.092
 9419SOL    HW229157   3.643   6.402   5.195
 9420SOL     OW29158   0.568   1.650   5.257
 9420SOL    HW129159   0.664   1.628   5.240
 9420SOL    HW229160   0.512   1.616   5.182
 9421SOL     OW29161   2.448   5.851   5.741
 9421SOL    HW129162   2.399   5.927   5.699
 9421SOL    HW229163   2.408   5.764   5.709
 9422SOL     OW29164   5.551   0.319   2.546
 9422SOL    HW129165   5.489   0.242   2.534
 9422SOL    HW229166   5.638   0.286   2.582
 9423SOL     OW29167   4.249   0.764   2.878
 9423SOL    HW129168   4.308   0.825   2.825
 9423SOL    HW229169   4.195   0.707   2.816
 9424SOL     OW29170   5.038   0.439   5.754
 9424SOL    HW129171   5.001   0.393   5.673
 9424SOL    HW229172   4.975   0.511   5.783
 9425SOL     OW29173   6.716   3.531   6.394
 9425SOL    HW129174   6.696   3.459   6.461
 9425SOL    HW229175   6.799   3.507   6.344
 9426SOL     OW29176   2.712   1.467   0.191
 9426SOL    HW129177   2.619   1.491   0.217
 9426SOL    HW229178   2.728   1.370   0.209
 9427SOL     OW29179   2.487   4.757   5.317
 9427SOL    HW129180   2.579   4.745   5.354
 9427SOL    HW229181   2.490   4.753   5.217
 9428SOL     OW29182   5.403   0.285   2.256
 9428SOL    HW129183   5.454   0.371   2.265
 9428SOL    HW229184   5.450   0.213   2.306
 9429SOL     OW29185   1.255   4.381   1.696
 9429SOL    HW129186   1.264   4.399   1.598
 9429SOL    HW229187   1.169   4.421   1.729
 9430SOL     OW29188   6.392   6.243   1.850
 9430SOL    HW129189   6.344   6.156   1.837
 9430SOL    HW229190   6.379   6.274   1.944
 9431SOL     OW29191   5.458   4.221   0.467
 9431SOL    HW129192   5.448   4.319   0.451
 9431SOL    HW229193   5.379   4.173   0.429
 9432SOL     OW29194   6.546   0.228   3.561
 9432SOL    HW129195   6.602   0.203   3.482
 9432SOL    HW229196   6.523   0.146   3.614
 9433SOL     OW29197   2.901   4.806   4.189
 9433SOL    HW129198   2.879   4.709   4.174
 9433SOL    HW229199   2.983   4.813   4.246
 9434SOL     OW29200   5.652   4.846   3.462
 9434SOL    HW129201   5.640   4.916   3.392
 9434SOL    HW229202   5.747   4.816   3.463
 9435SOL     OW29203   1.408   1.239   4.395
 9435SOL    HW129204   1.342   1.302   4.355
 9435SOL    HW229205   1.456   1.284   4.470
 9436SOL     OW29206   1.204   3.590   1.642
 9436SOL    HW129207   1.302   3.576   1.630
 9436SOL    HW229208   1.179   3.682   1.613
 9437SOL     OW29209   1.108   6.212   3.598
 9437SOL    HW129210   1.071   6.205   3.691
 9437SOL    HW229211   1.113   6.121   3.557
 9438SOL     OW29212   1.012   6.342   1.101
 9438SOL    HW129213   1.000   6.284   1.020
 9438SOL    HW229214   1.086   6.406   1.085
 9439SOL     OW29215   0.312   3.035   2.094
 9439SOL    HW129216   0.237   2.970   2.080
 9439SOL    HW229217   0.363   3.045   2.009
 9440SOL     OW29218   4.853   5.339   4.333
 9440SOL    HW129219   4.908   5.260   4.307
 9440SOL    HW229220   4.912   5.417   4.352
 9441SOL     OW29221   1.516   5.241   5.190
 9441SOL    HW129222   1.536   5.314   5.125
 9441SOL    HW229223   1.549   5.154   5.153
 9442SOL     OW29224   6.173   1.642   0.061
 9442SOL    HW129225   6.090   1.646   0.005
 9442SOL    HW229226   6.246   1.598   0.008
 9443SOL     OW29227   2.048   4.270   1.386
 9443SOL    HW129228   2.079   4.232   1.299
 9443SOL    HW229229   2.083   4.363   1.396
 9444SOL     OW29230   0.493   3.541   6.849
 9444SOL    HW129231   0.559   3.496   6.908
 9444SOL    HW229232   0.536   3.564   6.762
 9445SOL     OW29233   5.422   3.265   2.343
 9445SOL    HW129234   5.428   3.181   2.290
 9445SOL    HW229235   5.331   3.306   2.330
 9446SOL     OW29236   6.433   7.017   2.725
 9446SOL    HW129237   6.418   6.982   2.818
 9446SOL    HW229238   6.526   6.992   2.696
 9447SOL     OW29239   5.450   3.361   3.375
 9447SOL    HW129240   5.481   3.445   3.419
 9447SOL    HW229241   5.370   3.326   3.423
 9448SOL     OW29242   5.151   5.976   5.876
 9448SOL    HW129243   5.116   5.943   5.964
 9448SOL    HW229244   5.074   6.009   5.820
 9449SOL     OW29245   0.019   5.580   6.365
 9449SOL    HW129246   6.955   5.627   6.389
 9449SOL    HW229247   0.054   5.531   6.445
 9450SOL     OW29248   2.758   5.021   4.915
 9450SOL    HW129249   2.684   5.082   4.889
 9450SOL    HW229250   2.758   5.008   5.014
 9451SOL     OW29251   4.731   5.702   5.887
 9451SOL    HW129252   4.695   5.722   5.978
 9451SOL    HW229253   4.655   5.692   5.822
 9452SOL     OW29254   1.834   3.205   1.095
 9452SOL    HW129255   1.779   3.135   1.048
 9452SOL    HW229256   1.796   3.221   1.186
 9453SOL     OW29257   1.962   4.267   2.973
 9453SOL    HW129258   1.965   4.211   2.891
 9453SOL    HW229259   2.042   4.246   3.030
 9454SOL     OW29260   2.302   3.640   5.856
 9454SOL    HW129261   2.393   3.602   5.874
 9454SOL    HW229262   2.306   3.740   5.864
 9455SOL     OW29263   3.388   1.305   2.462
 9455SOL    HW129264   3.387   1.221   2.517
 9455SOL    HW229265   3.413   1.382   2.520
 9456SOL     OW29266   0.278   4.682   0.576
 9456SOL    HW129267   0.203   4.650   0.634
 9456SOL    HW229268   0.360   4.628   0.594
 9457SOL     OW29269   1.167   3.661   6.420
 9457SOL    HW129270   1.176   3.689   6.324
 9457SOL    HW229271   1.077   3.618   6.434
 9458SOL     OW29272   1.091   4.651   6.667
 9458SOL    HW129273   1.045   4.740   6.666
 9458SOL    HW229274   1.135   4.637   6.756
 9459SOL     OW29275   6.464   5.217   2.099
 9459SOL    HW129276   6.556   5.253   2.118
 9459SOL    HW229277   6.451   5.132   2.149
 9460SOL     OW29278   0.206   1.939   5.295
 9460SOL    HW129279   0.157   1.871   5.242
 9460SOL    HW229280   0.225   2.019   5.238
 9461SOL     OW29281   6.169   1.672   3.143
 9461SOL    HW129282   6.119   1.672   3.057
 9461SOL    HW229283   6.212   1.762   3.156
 9462SOL     OW29284   1.752   3.384   3.150
 9462SOL    HW129285   1.841   3.386   3.195
 9462SOL    HW229286   1.765   3.370   3.052
 9463SOL     OW29287   0.239   0.798   0.936
 9463SOL    HW129288   0.147   0.765   0.916
 9463SOL    HW229289   0.259   0.785   1.033
 9464SOL     OW29290   5.463   6.559   6.679
 9464SOL    HW129291   5.444   6.461   6.685
 9464SOL    HW229292   5.487   6.583   6.585
 9465SOL     OW29293   0.050   0.549   3.445
 9465SOL    HW129294   0.074   0.459   3.481
 9465SOL    HW229295   0.132   0.605   3.439
 9466SOL     OW29296   4.236   3.505   5.205
 9466SOL    HW129297   4.165   3.443   5.174
 9466SOL    HW229298   4.212   3.599   5.181
 9467SOL     OW29299   1.243   3.035   1.313
 9467SOL    HW129300   1.146   3.033   1.335
 9467SOL    HW229301   1.256   3.056   1.216
 9468SOL     OW29302   6.034   2.444   6.348
 9468SOL    HW129303   6.076   2.461   6.437
 9468SOL    HW229304   5.936   2.429   6.359
 9469SOL     OW29305   5.889   5.518   1.833
 9469SOL    HW129306   5.890   5.448   1.904
 9469SOL    HW229307   5.965   5.582   1.847
 9470SOL     OW29308   5.525   3.005   6.279
 9470SOL    HW129309   5.608   3.059   6.263
 9470SOL    HW229310   5.461   3.019   6.204
 9471SOL     OW29311   7.013   2.887   5.623
 9471SOL    HW129312   0.048   2.861   5.544
 9471SOL    HW229313   7.011   2.812   5.689
 9472SOL     OW29314   6.682   3.653   4.425
 9472SOL    HW129315   6.731   3.578   4.468
 9472SOL    HW229316   6.727   3.740   4.448
 9473SOL     OW29317   3.749   6.561   5.529
 9473SOL    HW129318   3.779   6.471   5.563
 9473SOL    HW229319   3.804   6.632   5.571
 9474SOL     OW29320   6.076   3.731   1.326
 9474SOL    HW129321   6.030   3.779   1.401
 9474SOL    HW229322   6.169   3.708   1.354
 9475SOL     OW29323   3.183   3.485   0.640
 9475SOL    HW129324   3.236   3.508   0.722
 9475SOL    HW229325   3.167   3.386   0.637
 9476SOL     OW29326   3.075   3.211   4.612
 9476SOL    HW129327   3.081   3.311   4.612
 9476SOL    HW229328   3.167   3.173   4.599
 9477SOL     OW29329   0.656   3.436   1.768
 9477SOL    HW129330   0.619   3.458   1.678
 9477SOL    HW229331   0.685   3.520   1.814
 9478SOL     OW29332   5.811   3.800   6.191
 9478SOL    HW129333   5.719   3.769   6.171
 9478SOL    HW229334   5.870   3.721   6.208
 9479SOL     OW29335   5.761   6.731   6.153
 9479SOL    HW129336   5.836   6.753   6.216
 9479SOL    HW229337   5.796   6.726   6.060
 9480SOL     OW29338   4.183   4.315   6.422
 9480SOL    HW129339   4.241   4.331   6.342
 9480SOL    HW229340   4.240   4.312   6.504
 9481SOL     OW29341   5.914   3.663   1.112
 9481SOL    HW129342   5.919   3.568   1.140
 9481SOL    HW229343   5.975   3.718   1.169
 9482SOL     OW29344   6.198   1.261   3.083
 9482SOL    HW129345   6.204   1.331   3.013
 9482SOL    HW229346   6.110   1.269   3.130
 9483SOL     OW29347   2.279   1.232   1.321
 9483SOL    HW129348   2.276   1.302   1.249
 9483SOL    HW229349   2.187   1.218   1.357
 9484SOL     OW29350   5.353   1.778   3.282
 9484SOL    HW129351   5.350   1.802   3.185
 9484SOL    HW229352   5.298   1.696   3.298
 9485SOL     OW29353   0.847   7.000   1.590
 9485SOL    HW129354   0.906   6.962   1.519
 9485SOL    HW229355   0.758   0.001   1.552
 9486SOL     OW29356   2.234   5.071   0.751
 9486SOL    HW129357   2.197   5.140   0.690
 9486SOL    HW229358   2.161   5.010   0.782
 9487SOL     OW29359   2.934   3.646   4.010
 9487SOL    HW129360   2.946   3.744   3.999
 9487SOL    HW229361   3.013   3.598   3.972
 9488SOL     OW29362   2.612   6.415   1.451
 9488SOL    HW129363   2.592   6.325   1.489
 9488SOL    HW229364   2.528   6.469   1.444
 9489SOL     OW29365   3.173   3.782   1.299
 9489SOL    HW129366   3.186   3.756   1.395
 9489SOL    HW229367   3.141   3.703   1.247
 9490SOL     OW29368   5.667   0.148   0.315
 9490SOL    HW129369   5.716   0.099   0.243
 9490SOL    HW229370   5.613   0.221   0.275
 9491SOL     OW29371   6.604   4.973   4.860
 9491SOL    HW129372   6.608   5.073   4.855
 9491SOL    HW229373   6.510   4.944   4.872
 9492SOL     OW29374   3.270   3.515   2.652
 9492SOL    HW129375   3.251   3.611   2.670
 9492SOL    HW229376   3.368   3.498   2.662
 9493SOL     OW29377   4.354   5.416   3.715
 9493SOL    HW129378   4.365   5.506   3.757
 9493SOL    HW229379   4.388   5.419   3.621
 9494SOL     OW29380   4.770   3.818   0.752
 9494SOL    HW129381   4.828   3.885   0.706
 9494SOL    HW229382   4.795   3.814   0.849
 9495SOL     OW29383   6.538   2.191   4.117
 9495SOL    HW129384   6.484   2.252   4.058
 9495SOL    HW229385   6.497   2.187   4.208
 9496SOL     OW29386   4.984   4.716   6.882
 9496SOL    HW129387   5.028   4.650   6.822
 9496SOL    HW229388   4.890   4.732   6.851
 9497SOL     OW29389   4.454   3.827   0.419
 9497SOL    HW129390   4.379   3.880   0.381
 9497SOL    HW229391   4.430   3.730   0.422
 9498SOL     OW29392   5.433   0.638   5.872
 9498SOL    HW129393   5.517   0.585   5.865
 9498SOL    HW229394   5.386   0.639   5.784
 9499SOL     OW29395   2.285   3.412   5.626
 9499SOL    HW129396   2.369   3.392   5.576
 9499SOL    HW229397   2.301   3.489   5.688
 9500SOL     OW29398   3.121   6.435   2.141
 9500SOL    HW129399   3.134   6.464   2.047
 9500SOL    HW229400   3.196   6.374   2.168
 9501SOL     OW29401   3.361   1.451   4.995
 9501SOL    HW129402   3.446   1.412   5.030
 9501SOL    HW229403   3.358   1.548   5.016
 9502SOL     OW29404   0.244   2.156   5.112
 9502SOL    HW129405   0.283   2.199   5.032
 9502SOL    HW229406   0.224   2.225   5.181
 9503SOL     OW29407   0.225   1.078   1.486
 9503SOL    HW129408   0.217   1.167   1.529
 9503SOL    HW229409   0.144   1.059   1.431
 9504SOL     OW29410   6.966   2.046   1.015
 9504SOL    HW129411   6.989   2.123   1.074
 9504SOL    HW229412   6.992   2.066   0.921
 9505SOL     OW29413   5.850   3.758   3.318
 9505SOL    HW129414   5.762   3.754   3.271
 9505SOL    HW229415   5.917   3.702   3.270
 9506SOL     OW29416   0.743   3.137   6.453
 9506SOL    HW129417   0.643   3.147   6.458
 9506SOL    HW229418   0.771   3.058   6.507
 9507SOL     OW29419   2.068   1.245   4.239
 9507SOL    HW129420   2.103   1.319   4.182
 9507SOL    HW229421   2.068   1.160   4.187
 9508SOL     OW29422   6.273   2.539   0.777
 9508SOL    HW129423   6.222   2.473   0.723
 9508SOL    HW229424   6.366   2.547   0.741
 9509SOL     OW29425   1.196   6.537   5.431
 9509SOL    HW129426   1.236   6.468   5.370
 9509SOL    HW229427   1.100   6.551   5.407
 9510SOL     OW29428   0.492   4.044   1.685
 9510SOL    HW129429   0.450   4.080   1.602
 9510SOL    HW229430   0.433   4.063   1.764
 9511SOL     OW29431   0.506   1.975   6.901
 9511SOL    HW129432   0.577   2.036   6.867
 9511SOL    HW229433   0.505   1.978   7.001
 9512SOL     OW29434   5.841   2.141   3.361
 9512SOL    HW129435   5.762   2.175   3.412
 9512SOL    HW229436   5.860   2.046   3.388
 9513SOL     OW29437   1.614   3.351   4.562
 9513SOL    HW129438   1.619   3.444   4.526
 9513SOL    HW229439   1.678   3.341   4.638
 9514SOL     OW29440   1.844   4.001   0.214
 9514SOL    HW129441   1.777   4.072   0.237
 9514SOL    HW229442   1.933   4.027   0.251
 9515SOL     OW29443   1.616   5.767   6.807
 9515SOL    HW129444   1.599   5.804   6.898
 9515SOL    HW229445   1.626   5.668   6.812
 9516SOL     OW29446   4.981   3.653   4.623
 9516SOL    HW129447   5.050   3.583   4.642
 9516SOL    HW229448   4.959   3.653   4.525
 9517SOL     OW29449   1.495   4.963   0.907
 9517SOL    HW129450   1.427   4.938   0.839
 9517SOL    HW229451   1.491   4.899   0.984
 9518SOL     OW29452   1.518   2.338   6.885
 9518SOL    HW129453   1.597   2.382   6.841
 9518SOL    HW229454   1.534   2.240   6.891
 9519SOL     OW29455   3.321   3.569   2.968
 9519SOL    HW129456   3.385   3.606   3.035
 9519SOL    HW229457   3.348   3.597   2.876
 9520SOL     OW29458   6.261   1.610   4.332
 9520SOL    HW129459   6.356   1.628   4.307
 9520SOL    HW229460   6.258   1.550   4.412
 9521SOL     OW29461   3.469   4.155   1.565
 9521SOL    HW129462   3.383   4.206   1.560
 9521SOL    HW229463   3.545   4.216   1.543
 9522SOL     OW29464   4.177   5.602   2.566
 9522SOL    HW129465   4.261   5.561   2.532
 9522SOL    HW229466   4.197   5.692   2.604
 9523SOL     OW29467   2.679   5.334   5.205
 9523SOL    HW129468   2.737   5.410   5.234
 9523SOL    HW229469   2.734   5.251   5.195
 9524SOL     OW29470   1.525   3.041   1.438
 9524SOL    HW129471   1.445   3.035   1.379
 9524SOL    HW229472   1.496   3.038   1.534
 9525SOL     OW29473   1.787   1.648   5.841
 9525SOL    HW129474   1.836   1.599   5.912
 9525SOL    HW229475   1.843   1.725   5.809
 9526SOL     OW29476   6.034   5.000   0.619
 9526SOL    HW129477   5.979   5.045   0.690
 9526SOL    HW229478   6.092   4.930   0.661
 9527SOL     OW29479   2.406   0.103   4.633
 9527SOL    HW129480   2.471   0.095   4.558
 9527SOL    HW229481   2.400   0.016   4.681
 9528SOL     OW29482   6.094   1.770   1.114
 9528SOL    HW129483   6.053   1.721   1.192
 9528SOL    HW229484   6.141   1.852   1.148
 9529SOL     OW29485   5.482   3.694   0.728
 9529SOL    HW129486   5.519   3.780   0.763
 9529SOL    HW229487   5.412   3.660   0.790
 9530SOL     OW29488   1.178   4.256   4.537
 9530SOL    HW129489   1.249   4.252   4.467
 9530SOL    HW229490   1.220   4.267   4.627
 9531SOL     OW29491   4.125   5.029   3.265
 9531SOL    HW129492   4.107   5.115   3.313
 9531SOL    HW229493   4.201   5.042   3.200
 9532SOL     OW29494   6.510   5.012   1.044
 9532SOL    HW129495   6.416   5.043   1.055
 9532SOL    HW229496   6.510   4.918   1.009
 9533SOL     OW29497   0.771   5.421   3.732
 9533SOL    HW129498   0.671   5.418   3.736
 9533SOL    HW229499   0.804   5.339   3.685
 9534SOL     OW29500   5.807   4.538   4.699
 9534SOL    HW129501   5.790   4.441   4.685
 9534SOL    HW229502   5.777   4.589   4.618
 9535SOL     OW29503   1.861   0.912   6.364
 9535SOL    HW129504   1.948   0.877   6.399
 9535SOL    HW229505   1.849   0.881   6.269
 9536SOL     OW29506   3.726   3.429   5.331
 9536SOL    HW129507   3.784   3.447   5.410
 9536SOL    HW229508   3.661   3.357   5.354
 9537SOL     OW29509   3.240   1.801   4.672
 9537SOL    HW129510   3.331   1.785   4.632
 9537SOL    HW229511   3.197   1.878   4.626
 9538SOL     OW29512   4.773   0.583   4.209
 9538SOL    HW129513   4.689   0.588   4.263
 9538SOL    HW229514   4.838   0.652   4.242
 9539SOL     OW29515   2.890   3.489   4.243
 9539SOL    HW129516   2.842   3.551   4.181
 9539SOL    HW229517   2.868   3.513   4.338
 9540SOL     OW29518   5.242   5.712   4.350
 9540SOL    HW129519   5.290   5.704   4.262
 9540SOL    HW229520   5.304   5.753   4.417
 9541SOL     OW29521   1.749   0.691   5.868
 9541SOL    HW129522   1.769   0.593   5.871
 9541SOL    HW229523   1.817   0.738   5.811
 9542SOL     OW29524   5.423   5.070   4.099
 9542SOL    HW129525   5.461   5.125   4.173
 9542SOL    HW229526   5.339   5.025   4.130
 9543SOL     OW29527   3.599   0.531   6.158
 9543SOL    HW129528   3.594   0.561   6.062
 9543SOL    HW229529   3.691   0.500   6.178
 9544SOL     OW29530   5.131   3.452   3.949
 9544SOL    HW129531   5.070   3.374   3.935
 9544SOL    HW229532   5.188   3.465   3.868
 9545SOL     OW29533   6.418   5.166   2.451
 9545SOL    HW129534   6.331   5.203   2.481
 9545SOL    HW229535   6.402   5.102   2.375
 9546SOL     OW29536   3.720   1.583   5.900
 9546SOL    HW129537   3.775   1.656   5.861
 9546SOL    HW229538   3.691   1.608   5.993
 9547SOL     OW29539   2.210   5.455   3.949
 9547SOL    HW129540   2.157   5.400   3.884
 9547SOL    HW229541   2.308   5.440   3.933
 9548SOL     OW29542   0.459   5.429   5.015
 9548SOL    HW129543   0.446   5.393   4.923
 9548SOL    HW229544   0.440   5.527   5.016
 9549SOL     OW29545   2.512   1.215   2.152
 9549SOL    HW129546   2.510   1.300   2.098
 9549SOL    HW229547   2.603   1.203   2.191
 9550SOL     OW29548   6.285   2.468   1.096
 9550SOL    HW129549   6.187   2.489   1.091
 9550SOL    HW229550   6.323   2.464   1.004
 9551SOL     OW29551   5.896   3.204   5.871
 9551SOL    HW129552   5.804   3.180   5.842
 9551SOL    HW229553   5.956   3.209   5.791
 9552SOL     OW29554   2.399   6.185   6.072
 9552SOL    HW129555   2.417   6.166   6.169
 9552SOL    HW229556   2.330   6.257   6.065
 9553SOL     OW29557   5.673   2.513   7.014
 9553SOL    HW129558   5.695   2.595   6.961
 9553SOL    HW229559   5.647   2.540   0.086
 9554SOL     OW29560   1.304   6.637   3.549
 9554SOL    HW129561   1.398   6.637   3.581
 9554SOL    HW229562   1.258   6.553   3.580
 9555SOL     OW29563   0.473   1.228   3.389
 9555SOL    HW129564   0.417   1.176   3.325
 9555SOL    HW229565   0.431   1.226   3.479
 9556SOL     OW29566   1.951   3.636   0.832
 9556SOL    HW129567   1.928   3.725   0.871
 9556SOL    HW229568   1.921   3.563   0.894
 9557SOL     OW29569   5.441   6.842   1.422
 9557SOL    HW129570   5.465   6.745   1.429
 9557SOL    HW229571   5.381   6.867   1.498
 9558SOL     OW29572   5.714   6.270   5.198
 9558SOL    HW129573   5.732   6.174   5.220
 9558SOL    HW229574   5.780   6.328   5.244
 9559SOL     OW29575   1.123   3.840   0.071
 9559SOL    HW129576   1.101   3.807   6.999
 9559SOL    HW229577   1.047   3.820   0.132
 9560SOL     OW29578   2.573   1.046   2.702
 9560SOL    HW129579   2.532   1.092   2.781
 9560SOL    HW229580   2.642   1.106   2.662
 9561SOL     OW29581   0.418   0.312   1.422
 9561SOL    HW129582   0.322   0.325   1.447
 9561SOL    HW229583   0.427   0.308   1.323
 9562SOL     OW29584   2.468   6.426   4.515
 9562SOL    HW129585   2.432   6.340   4.479
 9562SOL    HW229586   2.534   6.464   4.450
 9563SOL     OW29587   0.165   6.728   6.961
 9563SOL    HW129588   0.206   6.640   6.938
 9563SOL    HW229589   0.234   6.788   7.002
 9564SOL     OW29590   2.551   0.906   0.819
 9564SOL    HW129591   2.465   0.870   0.855
 9564SOL    HW229592   2.627   0.862   0.865
 9565SOL     OW29593   3.383   0.992   5.707
 9565SOL    HW129594   3.364   0.999   5.805
 9565SOL    HW229595   3.349   0.905   5.673
 9566SOL     OW29596   2.724   5.819   0.247
 9566SOL    HW129597   2.772   5.843   0.331
 9566SOL    HW229598   2.653   5.887   0.228
 9567SOL     OW29599   5.287   4.259   0.126
 9567SOL    HW129600   5.255   4.177   0.174
 9567SOL    HW229601   5.385   4.251   0.108
 9568SOL     OW29602   4.255   1.755   0.115
 9568SOL    HW129603   4.225   1.682   0.175
 9568SOL    HW229604   4.290   1.832   0.170
 9569SOL     OW29605   0.019   1.246   1.957
 9569SOL    HW129606   0.019   1.291   2.046
 9569SOL    HW229607   0.112   1.248   1.919
 9570SOL     OW29608   0.374   2.838   1.112
 9570SOL    HW129609   0.330   2.921   1.078
 9570SOL    HW229610   0.456   2.862   1.164
 9571SOL     OW29611   2.851   3.481   5.722
 9571SOL    HW129612   2.781   3.411   5.737
 9571SOL    HW229613   2.884   3.475   5.628
 9572SOL     OW29614   1.853   5.075   2.251
 9572SOL    HW129615   1.910   4.995   2.230
 9572SOL    HW229616   1.776   5.078   2.188
 9573SOL     OW29617   0.535   1.772   6.628
 9573SOL    HW129618   0.497   1.769   6.721
 9573SOL    HW229619   0.593   1.853   6.618
 9574SOL     OW29620   3.340   2.871   2.538
 9574SOL    HW129621   3.270   2.934   2.507
 9574SOL    HW229622   3.315   2.833   2.627
 9575SOL     OW29623   0.026   1.337   2.212
 9575SOL    HW129624   6.979   1.321   2.283
 9575SOL    HW229625   0.088   1.410   2.241
 9576SOL     OW29626   2.063   2.125   0.744
 9576SOL    HW129627   1.975   2.086   0.718
 9576SOL    HW229628   2.135   2.057   0.732
 9577SOL     OW29629   0.657   0.039   5.899
 9577SOL    HW129630   0.685   0.050   5.804
 9577SOL    HW229631   0.724   7.002   5.947
 9578SOL     OW29632   1.147   2.794   2.976
 9578SOL    HW129633   1.108   2.885   2.988
 9578SOL    HW229634   1.073   2.729   2.954
 9579SOL     OW29635   0.200   6.208   3.367
 9579SOL    HW129636   0.251   6.259   3.436
 9579SOL    HW229637   0.113   6.177   3.406
 9580SOL     OW29638   4.592   3.229   0.636
 9580SOL    HW129639   4.598   3.284   0.553
 9580SOL    HW229640   4.606   3.133   0.614
 9581SOL     OW29641   0.367   0.495   6.649
 9581SOL    HW129642   0.321   0.472   6.564
 9581SOL    HW229643   0.457   0.533   6.629
 9582SOL     OW29644   3.969   5.720   4.795
 9582SOL    HW129645   4.017   5.712   4.707
 9582SOL    HW229646   4.036   5.735   4.868
 9583SOL     OW29647   3.091   3.809   1.601
 9583SOL    HW129648   3.020   3.743   1.576
 9583SOL    HW229649   3.142   3.775   1.680
 9584SOL     OW29650   6.813   4.668   5.800
 9584SOL    HW129651   6.839   4.656   5.896
 9584SOL    HW229652   6.723   4.710   5.794
 9585SOL     OW29653   5.563   6.870   3.173
 9585SOL    HW129654   5.612   6.826   3.248
 9585SOL    HW229655   5.619   6.864   3.090
 9586SOL     OW29656   4.643   5.540   2.390
 9586SOL    HW129657   4.632   5.515   2.487
 9586SOL    HW229658   4.719   5.603   2.380
 9587SOL     OW29659   0.758   6.959   1.210
 9587SOL    HW129660   0.773   0.033   1.179
 9587SOL    HW229661   0.710   6.961   1.298
 9588SOL     OW29662   5.946   6.832   0.630
 9588SOL    HW129663   6.031   6.836   0.578
 9588SOL    HW229664   5.934   6.918   0.680
 9589SOL     OW29665   1.665   4.762   0.344
 9589SOL    HW129666   1.763   4.765   0.323
 9589SOL    HW229667   1.622   4.847   0.315
 9590SOL     OW29668   6.066   2.883   2.001
 9590SOL    HW129669   6.163   2.862   2.014
 9590SOL    HW229670   6.010   2.818   2.053
 9591SOL     OW29671   3.060   5.413   6.153
 9591SOL    HW129672   2.961   5.427   6.142
 9591SOL    HW229673   3.079   5.376   6.244
 9592SOL     OW29674   2.917   4.641   0.544
 9592SOL    HW129675   2.873   4.672   0.460
 9592SOL    HW229676   3.007   4.684   0.552
 9593SOL     OW29677   0.911   1.270   6.612
 9593SOL    HW129678   0.863   1.273   6.525
 9593SOL    HW229679   0.953   1.180   6.624
 9594SOL     OW29680   2.063   5.380   4.175
 9594SOL    HW129681   2.079   5.283   4.191
 9594SOL    HW229682   2.110   5.409   4.091
 9595SOL     OW29683   0.231   2.960   3.927
 9595SOL    HW129684   0.296   3.009   3.984
 9595SOL    HW229685   0.240   2.862   3.943
 9596SOL     OW29686   0.635   4.940   6.609
 9596SOL    HW129687   0.582   4.855   6.596
 9596SOL    HW229688   0.680   4.964   6.523
 9597SOL     OW29689   6.873   4.273   1.631
 9597SOL    HW129690   6.909   4.316   1.548
 9597SOL    HW229691   6.906   4.322   1.711
 9598SOL     OW29692   2.194   4.577   3.142
 9598SOL    HW129693   2.170   4.577   3.239
 9598SOL    HW229694   2.167   4.489   3.102
 9599SOL     OW29695   2.508   0.467   4.184
 9599SOL    HW129696   2.559   0.545   4.146
 9599SOL    HW229697   2.432   0.501   4.238
 9600SOL     OW29698   3.122   6.944   6.935
 9600SOL    HW129699   3.181   6.877   6.888
 9600SOL    HW229700   3.029   6.936   6.899
 9601SOL     OW29701   5.404   4.546   0.507
 9601SOL    HW129702   5.367   4.631   0.544
 9601SOL    HW229703   5.490   4.524   0.554
 9602SOL     OW29704   6.106   4.267   6.510
 9602SOL    HW129705   6.081   4.309   6.597
 9602SOL    HW229706   6.159   4.183   6.528
 9603SOL     OW29707   4.335   1.412   6.093
 9603SOL    HW129708   4.267   1.362   6.146
 9603SOL    HW229709   4.416   1.430   6.149
 9604SOL     OW29710   4.952   0.018   0.791
 9604SOL    HW129711   5.005   0.092   0.749
 9604SOL    HW229712   5.009   6.990   0.857
 9605SOL     OW29713   1.072   6.127   3.081
 9605SOL    HW129714   1.146   6.135   3.014
 9605SOL    HW229715   1.099   6.172   3.166
 9606SOL     OW29716   1.749   6.208   0.049
 9606SOL    HW129717   1.822   6.162   7.019
 9606SOL    HW229718   1.671   6.223   7.009
 9607SOL     OW29719   2.465   1.065   6.824
 9607SOL    HW129720   2.415   1.147   6.797
 9607SOL    HW229721   2.563   1.086   6.833
 9608SOL     OW29722   0.171   4.629   1.749
 9608SOL    HW129723   0.168   4.710   1.690
 9608SOL    HW229724   0.222   4.556   1.704
 9609SOL     OW29725   2.770   2.716   0.267
 9609SOL    HW129726   2.696   2.711   0.334
 9609SOL    HW229727   2.835   2.642   0.284
 9610SOL     OW29728   1.617   4.930   3.967
 9610SOL    HW129729   1.558   4.953   3.889
 9610SOL    HW229730   1.619   5.008   4.030
 9611SOL     OW29731   1.044   6.276   0.388
 9611SOL    HW129732   1.026   6.371   0.413
 9611SOL    HW229733   1.134   6.271   0.343
 9612SOL     OW29734   0.214   3.739   1.510
 9612SOL    HW129735   0.157   3.659   1.493
 9612SOL    HW229736   0.282   3.748   1.438
 9613SOL     OW29737   5.199   0.256   3.315
 9613SOL    HW129738   5.269   0.295   3.375
 9613SOL    HW229739   5.186   0.315   3.235
 9614SOL     OW29740   4.058   2.445   1.716
 9614SOL    HW129741   4.094   2.401   1.798
 9614SOL    HW229742   3.959   2.450   1.722
 9615SOL     OW29743   2.553   0.654   0.681
 9615SOL    HW129744   2.513   0.634   0.770
 9615SOL    HW229745   2.577   0.751   0.676
 9616SOL     OW29746   3.830   3.981   1.398
 9616SOL    HW129747   3.835   3.882   1.410
 9616SOL    HW229748   3.843   4.026   1.486
 9617SOL     OW29749   1.414   2.932   3.076
 9617SOL    HW129750   1.478   2.873   3.126
 9617SOL    HW229751   1.322   2.892   3.079
 9618SOL     OW29752   3.186   6.338   0.448
 9618SOL    HW129753   3.214   6.433   0.441
 9618SOL    HW229754   3.265   6.278   0.438
 9619SOL     OW29755   1.503   6.758   6.545
 9619SOL    HW129756   1.488   6.826   6.473
 9619SOL    HW229757   1.590   6.712   6.531
 9620SOL     OW29758   4.395   0.799   6.230
 9620SOL    HW129759   4.375   0.748   6.147
 9620SOL    HW229760   4.412   0.735   6.306
 9621SOL     OW29761   1.323   2.349   2.127
 9621SOL    HW129762   1.386   2.362   2.050
 9621SOL    HW229763   1.310   2.252   2.143
 9622SOL     OW29764   6.981   1.139   0.363
 9622SOL    HW129765   6.930   1.053   0.374
 9622SOL    HW229766   6.979   1.167   0.267
 9623SOL     OW29767   2.889   3.761   5.628
 9623SOL    HW129768   2.883   3.667   5.664
 9623SOL    HW229769   2.900   3.757   5.529
 9624SOL     OW29770   6.705   3.705   2.980
 9624SOL    HW129771   6.612   3.703   3.018
 9624SOL    HW229772   6.735   3.611   2.963
 9625SOL     OW29773   4.883   5.824   6.539
 9625SOL    HW129774   4.798   5.777   6.565
 9625SOL    HW229775   4.951   5.811   6.611
 9626SOL     OW29776   4.173   5.436   0.387
 9626SOL    HW129777   4.108   5.473   0.453
 9626SOL    HW229778   4.266   5.459   0.415
 9627SOL     OW29779   6.825   6.289   4.962
 9627SOL    HW129780   6.902   6.226   4.949
 9627SOL    HW229781   6.741   6.236   4.972
 9628SOL     OW29782   4.711   4.731   0.362
 9628SOL    HW129783   4.728   4.780   0.448
 9628SOL    HW229784   4.651   4.786   0.304
 9629SOL     OW29785   0.478   6.931   1.648
 9629SOL    HW129786   0.382   6.927   1.678
 9629SOL    HW229787   0.537   6.948   1.727
 9630SOL     OW29788   6.393   6.866   4.702
 9630SOL    HW129789   6.312   6.811   4.680
 9630SOL    HW229790   6.364   6.956   4.735
 9631SOL     OW29791   6.777   6.668   7.008
 9631SOL    HW129792   6.708   6.740   7.017
 9631SOL    HW229793   6.829   6.682   6.924
 9632SOL     OW29794   1.067   0.038   2.831
 9632SOL    HW129795   1.144   0.003   2.777
 9632SOL    HW229796   1.102   0.085   2.912
 9633SOL     OW29797   5.302   5.263   5.894
 9633SOL    HW129798   5.309   5.186   5.958
 9633SOL    HW229799   5.373   5.254   5.824
 9634SOL     OW29800   0.976   5.970   4.193
 9634SOL    HW129801   0.973   6.052   4.250
 9634SOL    HW229802   1.056   5.975   4.133
 9635SOL     OW29803   1.830   4.907   5.449
 9635SOL    HW129804   1.783   4.913   5.361
 9635SOL    HW229805   1.763   4.892   5.522
 9636SOL     OW29806   3.742   2.208   6.118
 9636SOL    HW129807   3.745   2.122   6.067
 9636SOL    HW229808   3.703   2.280   6.061
 9637SOL     OW29809   2.162   1.542   6.374
 9637SOL    HW129810   2.175   1.639   6.397
 9637SOL    HW229811   2.150   1.490   6.459
 9638SOL     OW29812   6.408   3.729   6.706
 9638SOL    HW129813   6.328   3.752   6.762
 9638SOL    HW229814   6.391   3.758   6.612
 9639SOL     OW29815   3.924   1.249   2.445
 9639SOL    HW129816   3.824   1.260   2.442
 9639SOL    HW229817   3.956   1.215   2.357
 9640SOL     OW29818   2.347   2.836   3.684
 9640SOL    HW129819   2.299   2.851   3.598
 9640SOL    HW229820   2.292   2.775   3.743
 9641SOL     OW29821   3.838   5.991   0.777
 9641SOL    HW129822   3.764   6.030   0.722
 9641SOL    HW229823   3.924   6.000   0.728
 9642SOL     OW29824   3.382   6.793   4.988
 9642SOL    HW129825   3.410   6.886   4.963
 9642SOL    HW229826   3.390   6.781   5.087
 9643SOL     OW29827   5.657   5.664   4.324
 9643SOL    HW129828   5.601   5.644   4.244
 9643SOL    HW229829   5.639   5.757   4.355
 9644SOL     OW29830   0.941   4.313   6.130
 9644SOL    HW129831   0.844   4.305   6.154
 9644SOL    HW229832   0.991   4.354   6.207
 9645SOL     OW29833   2.679   5.561   4.429
 9645SOL    HW129834   2.685   5.462   4.437
 9645SOL    HW229835   2.650   5.600   4.517
 9646SOL     OW29836   2.660   4.823   1.883
 9646SOL    HW129837   2.710   4.881   1.818
 9646SOL    HW229838   2.713   4.741   1.902
 9647SOL     OW29839   6.488   5.596   1.900
 9647SOL    HW129840   6.484   5.584   1.999
 9647SOL    HW229841   6.551   5.529   1.860
 9648SOL     OW29842   4.276   1.240   0.542
 9648SOL    HW129843   4.220   1.217   0.462
 9648SOL    HW229844   4.361   1.188   0.538
 9649SOL     OW29845   3.009   6.497   0.027
 9649SOL    HW129846   3.011   6.438   6.967
 9649SOL    HW229847   3.100   6.499   0.070
 9650SOL     OW29848   6.200   5.210   2.070
 9650SOL    HW129849   6.167   5.303   2.053
 9650SOL    HW229850   6.299   5.213   2.084
 9651SOL     OW29851   0.169   1.044   6.125
 9651SOL    HW129852   0.171   0.944   6.121
 9651SOL    HW229853   0.117   1.079   6.047
 9652SOL     OW29854   1.966   4.268   0.721
 9652SOL    HW129855   2.035   4.203   0.690
 9652SOL    HW229856   1.920   4.308   0.642
 9653SOL     OW29857   4.091   4.850   4.578
 9653SOL    HW129858   4.165   4.915   4.563
 9653SOL    HW229859   4.125   4.757   4.564
 9654SOL     OW29860   3.181   2.614   1.478
 9654SOL    HW129861   3.254   2.548   1.462
 9654SOL    HW229862   3.203   2.700   1.431
 9655SOL     OW29863   0.359   0.891   0.341
 9655SOL    HW129864   0.328   0.796   0.347
 9655SOL    HW229865   0.450   0.894   0.300
 9656SOL     OW29866   2.598   1.198   1.432
 9656SOL    HW129867   2.617   1.254   1.513
 9656SOL    HW229868   2.685   1.168   1.391
 9657SOL     OW29869   5.404   0.691   3.517
 9657SOL    HW129870   5.341   0.623   3.555
 9657SOL    HW229871   5.484   0.645   3.480
 9658SOL     OW29872   6.517   2.158   3.355
 9658SOL    HW129873   6.562   2.087   3.409
 9658SOL    HW229874   6.477   2.226   3.417
 9659SOL     OW29875   6.679   4.585   0.235
 9659SOL    HW129876   6.657   4.507   0.294
 9659SOL    HW229877   6.598   4.610   0.182
 9660SOL     OW29878   0.360   5.390   0.415
 9660SOL    HW129879   0.301   5.462   0.452
 9660SOL    HW229880   0.360   5.394   0.316
 9661SOL     OW29881   4.397   5.575   1.172
 9661SOL    HW129882   4.470   5.571   1.104
 9661SOL    HW229883   4.430   5.626   1.252
 9662SOL     OW29884   6.486   2.871   4.688
 9662SOL    HW129885   6.535   2.795   4.731
 9662SOL    HW229886   6.396   2.841   4.657
 9663SOL     OW29887   1.432   5.622   4.255
 9663SOL    HW129888   1.519   5.578   4.276
 9663SOL    HW229889   1.437   5.668   4.167
 9664SOL     OW29890   5.748   0.151   2.671
 9664SOL    HW129891   5.743   0.238   2.722
 9664SOL    HW229892   5.715   0.077   2.730
 9665SOL     OW29893   5.595   5.303   5.467
 9665SOL    HW129894   5.613   5.385   5.520
 9665SOL    HW229895   5.502   5.306   5.430
 9666SOL     OW29896   5.389   4.082   1.736
 9666SOL    HW129897   5.413   4.065   1.832
 9666SOL    HW229898   5.470   4.115   1.687
 9667SOL     OW29899   3.919   3.019   4.018
 9667SOL    HW129900   3.871   3.103   4.046
 9667SOL    HW229901   3.856   2.942   4.024
 9668SOL     OW29902   6.665   1.307   6.292
 9668SOL    HW129903   6.587   1.294   6.232
 9668SOL    HW229904   6.637   1.361   6.372
 9669SOL     OW29905   0.916   1.320   1.117
 9669SOL    HW129906   0.996   1.273   1.080
 9669SOL    HW229907   0.858   1.255   1.166
 9670SOL     OW29908   4.907   5.074   6.006
 9670SOL    HW129909   4.828   5.052   6.064
 9670SOL    HW229910   4.956   5.152   6.045
 9671SOL     OW29911   0.550   5.214   6.325
 9671SOL    HW129912   0.531   5.233   6.229
 9671SOL    HW229913   0.627   5.270   6.355
 9672SOL     OW29914   1.291   6.865   4.324
 9672SOL    HW129915   1.203   6.838   4.363
 9672SOL    HW229916   1.306   6.962   4.340
 9673SOL     OW29917   5.195   4.328   6.881
 9673SOL    HW129918   5.213   4.293   6.973
 9673SOL    HW229919   5.214   4.256   6.814
 9674SOL     OW29920   2.960   5.984   2.967
 9674SOL    HW129921   2.918   5.895   2.985
 9674SOL    HW229922   3.058   5.979   2.986
 9675SOL     OW29923   5.773   1.112   1.687
 9675SOL    HW129924   5.853   1.125   1.628
 9675SOL    HW229925   5.690   1.135   1.637
 9676SOL     OW29926   1.326   3.534   5.397
 9676SOL    HW129927   1.376   3.464   5.345
 9676SOL    HW229928   1.341   3.623   5.355
 9677SOL     OW29929   2.821   4.341   6.118
 9677SOL    HW129930   2.918   4.314   6.117
 9677SOL    HW229931   2.766   4.264   6.088
 9678SOL     OW29932   3.318   4.143   2.977
 9678SOL    HW129933   3.288   4.238   2.967
 9678SOL    HW229934   3.409   4.132   2.937
 9679SOL     OW29935   1.001   1.350   1.719
 9679SOL    HW129936   1.088   1.390   1.692
 9679SOL    HW229937   0.943   1.339   1.638
 9680SOL     OW29938   6.351   0.273   3.380
 9680SOL    HW129939   6.409   0.243   3.456
 9680SOL    HW229940   6.359   0.207   3.305
 9681SOL     OW29941   2.542   0.580   1.602
 9681SOL    HW129942   2.634   0.547   1.623
 9681SOL    HW229943   2.501   0.521   1.532
 9682SOL     OW29944   4.967   5.159   3.009
 9682SOL    HW129945   4.983   5.181   2.912
 9682SOL    HW229946   4.943   5.062   3.017
 9683SOL     OW29947   3.568   5.177   0.863
 9683SOL    HW129948   3.589   5.125   0.946
 9683SOL    HW229949   3.470   5.197   0.860
 9684SOL     OW29950   0.297   3.351   5.013
 9684SOL    HW129951   0.203   3.376   5.038
 9684SOL    HW229952   0.308   3.251   5.019
 9685SOL     OW29953   1.977   2.984   1.399
 9685SOL    HW129954   1.884   2.949   1.385
 9685SOL    HW229955   1.972   3.081   1.422
 9686SOL     OW29956   6.408   2.129   0.739
 9686SOL    HW129957   6.456   2.119   0.652
 9686SOL    HW229958   6.395   2.038   0.780
 9687SOL     OW29959   1.947   0.720   3.374
 9687SOL    HW129960   1.907   0.698   3.463
 9687SOL    HW229961   1.913   0.657   3.305
 9688SOL     OW29962   6.438   2.432   3.484
 9688SOL    HW129963   6.522   2.486   3.487
 9688SOL    HW229964   6.370   2.479   3.426
 9689SOL     OW29965   1.689   6.514   0.582
 9689SOL    HW129966   1.614   6.574   0.553
 9689SOL    HW229967   1.702   6.522   0.681
 9690SOL     OW29968   5.769   5.485   6.264
 9690SOL    HW129969   5.764   5.434   6.349
 9690SOL    HW229970   5.770   5.422   6.186
 9691SOL     OW29971   2.455   4.724   1.297
 9691SOL    HW129972   2.509   4.730   1.214
 9691SOL    HW229973   2.497   4.657   1.359
 9692SOL     OW29974   2.121   5.323   2.492
 9692SOL    HW129975   2.217   5.335   2.516
 9692SOL    HW229976   2.067   5.316   2.576
 9693SOL     OW29977   7.010   5.296   2.051
 9693SOL    HW129978   0.061   5.255   2.108
 9693SOL    HW229979   6.936   5.331   2.109
 9694SOL     OW29980   2.181   0.998   6.217
 9694SOL    HW129981   2.135   0.918   6.255
 9694SOL    HW229982   2.260   1.021   6.274
 9695SOL     OW29983   6.252   4.203   1.212
 9695SOL    HW129984   6.338   4.220   1.164
 9695SOL    HW229985   6.220   4.111   1.190
 9696SOL     OW29986   5.021   2.519   1.296
 9696SOL    HW129987   5.111   2.559   1.316
 9696SOL    HW229988   5.028   2.459   1.217
 9697SOL     OW29989   6.972   5.243   6.809
 9697SOL    HW129990   6.978   5.143   6.800
 9697SOL    HW229991   0.018   5.275   6.876
 9698SOL     OW29992   6.139   1.010   5.361
 9698SOL    HW129993   6.228   1.024   5.318
 9698SOL    HW229994   6.091   1.097   5.368
 9699SOL     OW29995   0.105   4.530   6.376
 9699SOL    HW129996   0.105   4.620   6.419
 9699SOL    HW229997   0.127   4.539   6.279
 9700SOL     OW29998   3.871   5.117   5.789
 9700SOL    HW129999   3.907   5.033   5.828
 9700SOL    HW230000   3.840   5.099   5.695
 9701SOL     OW30001   3.510   5.618   4.789
 9701SOL    HW130002   3.527   5.637   4.692
 9701SOL    HW230003   3.438   5.679   4.822
 9702SOL     OW30004   5.275   0.272   6.500
 9702SOL    HW130005   5.270   0.262   6.600
 9702SOL    HW230006   5.227   0.356   6.473
 9703SOL     OW30007   3.588   5.650   4.473
 9703SOL    HW130008   3.560   5.612   4.385
 9703SOL    HW230009   3.668   5.601   4.508
 9704SOL     OW30010   3.103   0.823   2.453
 9704SOL    HW130011   3.155   0.886   2.395
 9704SOL    HW230012   3.005   0.843   2.445
 9705SOL     OW30013   5.065   5.070   0.446
 9705SOL    HW130014   4.997   5.137   0.478
 9705SOL    HW230015   5.155   5.114   0.441
 9706SOL     OW30016   0.412   1.930   1.206
 9706SOL    HW130017   0.484   1.985   1.249
 9706SOL    HW230018   0.339   1.914   1.273
 9707SOL     OW30019   6.456   4.273   2.258
 9707SOL    HW130020   6.380   4.330   2.225
 9707SOL    HW230021   6.523   4.263   2.185
 9708SOL     OW30022   1.810   2.570   3.245
 9708SOL    HW130023   1.819   2.475   3.275
 9708SOL    HW230024   1.838   2.631   3.320
 9709SOL     OW30025   0.214   5.923   3.664
 9709SOL    HW130026   0.276   5.948   3.738
 9709SOL    HW230027   0.249   5.958   3.577
 9710SOL     OW30028   0.542   1.631   2.447
 9710SOL    HW130029   0.618   1.568   2.438
 9710SOL    HW230030   0.540   1.667   2.541
 9711SOL     OW30031   1.576   3.201   6.193
 9711SOL    HW130032   1.557   3.107   6.222
 9711SOL    HW230033   1.659   3.234   6.239
 9712SOL     OW30034   5.289   3.341   4.537
 9712SOL    HW130035   5.298   3.412   4.468
 9712SOL    HW230036   5.232   3.374   4.612
 9713SOL     OW30037   0.359   5.159   2.920
 9713SOL    HW130038   0.295   5.181   2.993
 9713SOL    HW230039   0.439   5.218   2.927
 9714SOL     OW30040   1.777   0.899   1.701
 9714SOL    HW130041   1.750   0.873   1.794
 9714SOL    HW230042   1.834   0.981   1.705
 9715SOL     OW30043   6.793   5.887   4.633
 9715SOL    HW130044   6.775   5.831   4.552
 9715SOL    HW230045   6.735   5.969   4.631
 9716SOL     OW30046   4.249   2.673   0.038
 9716SOL    HW130047   4.167   2.634   7.016
 9716SOL    HW230048   4.272   2.759   7.013
 9717SOL     OW30049   5.551   6.041   5.247
 9717SOL    HW130050   5.512   6.008   5.161
 9717SOL    HW230051   5.492   6.015   5.323
 9718SOL     OW30052   4.728   3.121   1.661
 9718SOL    HW130053   4.682   3.068   1.732
 9718SOL    HW230054   4.764   3.059   1.591
 9719SOL     OW30055   0.504   1.856   0.187
 9719SOL    HW130056   0.558   1.772   0.200
 9719SOL    HW230057   0.527   1.921   0.260
 9720SOL     OW30058   0.708   5.656   1.656
 9720SOL    HW130059   0.778   5.720   1.622
 9720SOL    HW230060   0.621   5.675   1.611
 9721SOL     OW30061   0.987   2.447   1.620
 9721SOL    HW130062   0.949   2.381   1.685
 9721SOL    HW230063   0.921   2.464   1.547
 9722SOL     OW30064   0.319   6.884   3.541
 9722SOL    HW130065   0.232   6.874   3.588
 9722SOL    HW230066   0.346   6.980   3.540
 9723SOL     OW30067   1.564   6.206   2.645
 9723SOL    HW130068   1.593   6.238   2.555
 9723SOL    HW230069   1.645   6.190   2.702
 9724SOL     OW30070   3.242   2.864   1.401
 9724SOL    HW130071   3.182   2.868   1.322
 9724SOL    HW230072   3.250   2.955   1.442
 9725SOL     OW30073   4.214   3.610   6.040
 9725SOL    HW130074   4.170   3.628   6.128
 9725SOL    HW230075   4.227   3.697   5.992
 9726SOL     OW30076   4.366   0.504   4.574
 9726SOL    HW130077   4.334   0.413   4.600
 9726SOL    HW230078   4.461   0.515   4.602
 9727SOL     OW30079   1.436   3.211   5.317
 9727SOL    HW130080   1.505   3.237   5.384
 9727SOL    HW230081   1.408   3.291   5.264
 9728SOL     OW30082   1.104   6.454   6.584
 9728SOL    HW130083   1.102   6.554   6.598
 9728SOL    HW230084   1.016   6.424   6.549
 9729SOL     OW30085   1.461   4.392   3.020
 9729SOL    HW130086   1.396   4.348   2.958
 9729SOL    HW230087   1.412   4.425   3.101
 9730SOL     OW30088   6.869   3.367   2.434
 9730SOL    HW130089   6.964   3.344   2.454
 9730SOL    HW230090   6.808   3.300   2.477
 9731SOL     OW30091   4.379   4.857   0.587
 9731SOL    HW130092   4.387   4.875   0.489
 9731SOL    HW230093   4.410   4.763   0.606
 9732SOL     OW30094   5.775   6.192   2.914
 9732SOL    HW130095   5.758   6.117   2.850
 9732SOL    HW230096   5.873   6.213   2.917
 9733SOL     OW30097   5.647   5.340   4.799
 9733SOL    HW130098   5.720   5.275   4.775
 9733SOL    HW230099   5.563   5.289   4.815
 9734SOL     OW30100   5.228   2.011   4.050
 9734SOL    HW130101   5.276   2.052   3.972
 9734SOL    HW230102   5.284   1.939   4.090
 9735SOL     OW30103   1.603   4.787   2.709
 9735SOL    HW130104   1.647   4.732   2.780
 9735SOL    HW230105   1.647   4.771   2.621
 9736SOL     OW30106   5.434   1.451   5.708
 9736SOL    HW130107   5.489   1.453   5.624
 9736SOL    HW230108   5.487   1.410   5.782
 9737SOL     OW30109   4.645   2.737   4.967
 9737SOL    HW130110   4.686   2.819   4.928
 9737SOL    HW230111   4.665   2.733   5.065
 9738SOL     OW30112   1.900   0.270   3.226
 9738SOL    HW130113   1.813   0.259   3.275
 9738SOL    HW230114   1.904   0.361   3.186
 9739SOL     OW30115   0.558   4.859   1.714
 9739SOL    HW130116   0.532   4.939   1.660
 9739SOL    HW230117   0.611   4.888   1.794
 9740SOL     OW30118   5.983   3.019   3.393
 9740SOL    HW130119   6.072   3.063   3.394
 9740SOL    HW230120   5.971   2.970   3.306
 9741SOL     OW30121   4.589   1.315   2.594
 9741SOL    HW130122   4.668   1.360   2.635
 9741SOL    HW230123   4.539   1.380   2.537
 9742SOL     OW30124   4.742   0.057   3.218
 9742SOL    HW130125   4.839   0.051   3.239
 9742SOL    HW230126   4.690   0.011   3.290
 9743SOL     OW30127   2.120   1.805   5.580
 9743SOL    HW130128   2.096   1.901   5.593
 9743SOL    HW230129   2.115   1.782   5.483
 9744SOL     OW30130   0.861   0.562   3.004
 9744SOL    HW130131   0.918   0.594   2.928
 9744SOL    HW230132   0.776   0.524   2.968
 9745SOL     OW30133   0.398   2.395   5.802
 9745SOL    HW130134   0.402   2.334   5.723
 9745SOL    HW230135   0.421   2.488   5.774
 9746SOL     OW30136   5.650   1.959   5.218
 9746SOL    HW130137   5.588   1.903   5.164
 9746SOL    HW230138   5.614   1.969   5.311
 9747SOL     OW30139   1.447   1.017   1.709
 9747SOL    HW130140   1.369   1.061   1.663
 9747SOL    HW230141   1.458   1.056   1.800
 9748SOL     OW30142   1.183   0.003   4.724
 9748SOL    HW130143   1.216   6.929   4.721
 9748SOL    HW230144   1.259   0.065   4.705
 9749SOL     OW30145   2.078   2.166   5.766
 9749SOL    HW130146   2.011   2.240   5.758
 9749SOL    HW230147   2.153   2.195   5.825
 9750SOL     OW30148   5.670   5.004   4.346
 9750SOL    HW130149   5.608   5.082   4.345
 9750SOL    HW230150   5.678   4.967   4.253
 9751SOL     OW30151   2.224   2.592   1.416
 9751SOL    HW130152   2.323   2.579   1.418
 9751SOL    HW230153   2.187   2.582   1.508
 9752SOL     OW30154   4.442   0.962   6.445
 9752SOL    HW130155   4.430   1.061   6.454
 9752SOL    HW230156   4.443   0.938   6.348
 9753SOL     OW30157   6.272   6.412   4.860
 9753SOL    HW130158   6.255   6.316   4.885
 9753SOL    HW230159   6.188   6.453   4.828
 9754SOL     OW30160   1.218   1.637   0.033
 9754SOL    HW130161   1.156   1.574   0.079
 9754SOL    HW230162   1.209   1.728   0.074
 9755SOL     OW30163   4.132   3.401   4.771
 9755SOL    HW130164   4.094   3.340   4.700
 9755SOL    HW230165   4.106   3.366   4.861
 9756SOL     OW30166   6.329   2.607   0.154
 9756SOL    HW130167   6.390   2.565   0.222
 9756SOL    HW230168   6.246   2.552   0.145
 9757SOL     OW30169   4.941   3.159   3.239
 9757SOL    HW130170   4.949   3.233   3.171
 9757SOL    HW230171   5.023   3.102   3.235
 9758SOL     OW30172   1.576   6.825   6.025
 9758SOL    HW130173   1.503   6.893   6.038
 9758SOL    HW230174   1.643   6.834   6.099
 9759SOL     OW30175   2.369   6.645   1.207
 9759SOL    HW130176   2.314   6.715   1.253
 9759SOL    HW230177   2.422   6.688   1.134
 9760SOL     OW30178   5.123   3.980   5.250
 9760SOL    HW130179   5.048   3.982   5.184
 9760SOL    HW230180   5.151   3.885   5.265
 9761SOL     OW30181   5.551   6.170   2.104
 9761SOL    HW130182   5.464   6.135   2.072
 9761SOL    HW230183   5.586   6.111   2.177
 9762SOL     OW30184   2.803   2.142   4.681
 9762SOL    HW130185   2.773   2.234   4.658
 9762SOL    HW230186   2.764   2.115   4.769
 9763SOL     OW30187   4.706   2.106   1.521
 9763SOL    HW130188   4.700   2.153   1.433
 9763SOL    HW230189   4.715   2.174   1.594
 9764SOL     OW30190   1.258   2.033   3.319
 9764SOL    HW130191   1.338   2.086   3.290
 9764SOL    HW230192   1.280   1.981   3.401
 9765SOL     OW30193   6.710   1.857   4.856
 9765SOL    HW130194   6.747   1.848   4.948
 9765SOL    HW230195   6.664   1.772   4.830
 9766SOL     OW30196   2.325   0.610   2.707
 9766SOL    HW130197   2.412   0.650   2.733
 9766SOL    HW230198   2.339   0.517   2.673
 9767SOL     OW30199   5.026   2.050   4.710
 9767SOL    HW130200   5.115   2.052   4.666
 9767SOL    HW230201   4.975   2.133   4.687
 9768SOL     OW30202   5.401   2.184   2.403
 9768SOL    HW130203   5.434   2.100   2.445
 9768SOL    HW230204   5.445   2.197   2.315
 9769SOL     OW30205   1.637   1.396   2.085
 9769SOL    HW130206   1.621   1.428   2.179
 9769SOL    HW230207   1.735   1.384   2.071
 9770SOL     OW30208   5.756   6.297   6.151
 9770SOL    HW130209   5.706   6.351   6.084
 9770SOL    HW230210   5.752   6.201   6.126
 9771SOL     OW30211   4.491   4.587   1.350
 9771SOL    HW130212   4.525   4.502   1.311
 9771SOL    HW230213   4.548   4.663   1.319
 9772SOL     OW30214   0.027   6.589   1.723
 9772SOL    HW130215   0.005   6.663   1.787
 9772SOL    HW230216   0.126   6.585   1.710
 9773SOL     OW30217   5.802   6.229   3.480
 9773SOL    HW130218   5.746   6.152   3.449
 9773SOL    HW230219   5.890   6.196   3.513
 9774SOL     OW30220   5.877   5.389   2.943
 9774SOL    HW130221   5.817   5.310   2.927
 9774SOL    HW230222   5.936   5.403   2.864
 9775SOL     OW30223   2.437   2.030   4.493
 9775SOL    HW130224   2.450   2.125   4.463
 9775SOL    HW230225   2.517   2.002   4.546
 9776SOL     OW30226   0.135   5.667   4.895
 9776SOL    HW130227   0.228   5.680   4.928
 9776SOL    HW230228   0.133   5.590   4.830
 9777SOL     OW30229   5.570   5.150   6.655
 9777SOL    HW130230   5.536   5.144   6.749
 9777SOL    HW230231   5.643   5.083   6.641
 9778SOL     OW30232   5.703   0.278   3.599
 9778SOL    HW130233   5.774   0.306   3.535
 9778SOL    HW230234   5.651   0.202   3.559
 9779SOL     OW30235   2.328   1.614   4.829
 9779SOL    HW130236   2.365   1.668   4.753
 9779SOL    HW230237   2.374   1.640   4.914
 9780SOL     OW30238   2.561   2.251   0.836
 9780SOL    HW130239   2.478   2.305   0.822
 9780SOL    HW230240   2.560   2.211   0.928
 9781SOL     OW30241   1.984   4.475   4.094
 9781SOL    HW130242   1.965   4.522   4.008
 9781SOL    HW230243   1.927   4.394   4.102
 9782SOL     OW30244   6.740   0.201   0.789
 9782SOL    HW130245   6.703   0.293   0.802
 9782SOL    HW230246   6.742   0.153   0.877
 9783SOL     OW30247   6.124   1.196   1.875
 9783SOL    HW130248   6.068   1.132   1.928
 9783SOL    HW230249   6.199   1.230   1.932
 9784SOL     OW30250   4.486   1.530   3.379
 9784SOL    HW130251   4.439   1.444   3.359
 9784SOL    HW230252   4.483   1.589   3.299
 9785SOL     OW30253   0.005   2.857   3.460
 9785SOL    HW130254   7.008   2.801   3.541
 9785SOL    HW230255   6.955   2.839   3.391
 9786SOL     OW30256   1.702   5.144   5.778
 9786SOL    HW130257   1.657   5.168   5.692
 9786SOL    HW230258   1.687   5.047   5.798
 9787SOL     OW30259   5.302   3.808   2.102
 9787SOL    HW130260   5.304   3.709   2.111
 9787SOL    HW230261   5.208   3.841   2.113
 9788SOL     OW30262   0.698   0.626   3.964
 9788SOL    HW130263   0.694   0.608   3.866
 9788SOL    HW230264   0.621   0.683   3.992
 9789SOL     OW30265   2.073   5.488   6.015
 9789SOL    HW130266   2.099   5.431   5.936
 9789SOL    HW230267   2.140   5.476   6.088
 9790SOL     OW30268   5.609   2.671   4.719
 9790SOL    HW130269   5.685   2.710   4.772
 9790SOL    HW230270   5.585   2.733   4.645
 9791SOL     OW30271   0.626   0.807   1.973
 9791SOL    HW130272   0.697   0.812   2.044
 9791SOL    HW230273   0.628   0.890   1.918
 9792SOL     OW30274   4.524   5.172   1.932
 9792SOL    HW130275   4.470   5.202   2.011
 9792SOL    HW230276   4.619   5.200   1.945
 9793SOL     OW30277   4.796   5.795   2.808
 9793SOL    HW130278   4.868   5.751   2.754
 9793SOL    HW230279   4.746   5.725   2.859
 9794SOL     OW30280   5.629   3.340   6.526
 9794SOL    HW130281   5.596   3.327   6.619
 9794SOL    HW230282   5.559   3.311   6.461
 9795SOL     OW30283   1.136   2.646   3.984
 9795SOL    HW130284   1.039   2.656   3.961
 9795SOL    HW230285   1.159   2.710   4.058
 9796SOL     OW30286   3.108   4.544   0.796
 9796SOL    HW130287   3.134   4.573   0.888
 9796SOL    HW230288   3.037   4.605   0.760
 9797SOL     OW30289   4.605   3.547   0.239
 9797SOL    HW130290   4.658   3.497   0.171
 9797SOL    HW230291   4.525   3.588   0.195
 9798SOL     OW30292   2.585   0.620   1.207
 9798SOL    HW130293   2.502   0.576   1.171
 9798SOL    HW230294   2.577   0.719   1.193
 9799SOL     OW30295   3.514   3.436   2.705
 9799SOL    HW130296   3.480   3.371   2.773
 9799SOL    HW230297   3.613   3.442   2.712
 9800SOL     OW30298   4.114   6.253   5.775
 9800SOL    HW130299   4.080   6.195   5.849
 9800SOL    HW230300   4.197   6.214   5.737
 9801SOL     OW30301   4.281   5.372   6.785
 9801SOL    HW130302   4.201   5.374   6.844
 9801SOL    HW230303   4.322   5.463   6.781
 9802SOL     OW30304   0.067   3.247   1.700
 9802SOL    HW130305   0.042   3.202   1.785
 9802SOL    HW230306   7.006   3.289   1.659
 9803SOL     OW30307   6.239   0.391   6.643
 9803SOL    HW130308   6.224   0.301   6.603
 9803SOL    HW230309   6.292   0.447   6.579
 9804SOL     OW30310   0.289   4.963   3.656
 9804SOL    HW130311   0.333   5.052   3.668
 9804SOL    HW230312   0.226   4.968   3.578
 9805SOL     OW30313   1.182   5.339   6.687
 9805SOL    HW130314   1.139   5.428   6.704
 9805SOL    HW230315   1.226   5.340   6.597
 9806SOL     OW30316   0.858   2.605   1.196
 9806SOL    HW130317   0.910   2.523   1.219
 9806SOL    HW230318   0.921   2.681   1.178
 9807SOL     OW30319   3.252   2.223   6.878
 9807SOL    HW130320   3.297   2.236   6.790
 9807SOL    HW230321   3.293   2.285   6.945
 9808SOL     OW30322   5.758   0.722   5.556
 9808SOL    HW130323   5.664   0.756   5.555
 9808SOL    HW230324   5.799   0.740   5.645
 9809SOL     OW30325   0.918   1.285   5.779
 9809SOL    HW130326   0.889   1.379   5.795
 9809SOL    HW230327   1.017   1.280   5.784
 9810SOL     OW30328   2.964   1.985   3.224
 9810SOL    HW130329   2.893   1.938   3.276
 9810SOL    HW230330   3.052   1.977   3.271
 9811SOL     OW30331   6.186   5.955   3.442
 9811SOL    HW130332   6.267   5.914   3.483
 9811SOL    HW230333   6.196   6.055   3.441
 9812SOL     OW30334   3.964   2.118   6.511
 9812SOL    HW130335   4.036   2.186   6.525
 9812SOL    HW230336   3.997   2.044   6.454
 9813SOL     OW30337   6.559   5.378   0.263
 9813SOL    HW130338   6.632   5.313   0.284
 9813SOL    HW230339   6.598   5.463   0.228
 9814SOL     OW30340   6.327   0.505   6.141
 9814SOL    HW130341   6.301   0.602   6.139
 9814SOL    HW230342   6.394   0.487   6.070
 9815SOL     OW30343   6.978   2.749   0.973
 9815SOL    HW130344   0.050   2.748   0.935
 9815SOL    HW230345   6.915   2.705   0.909
 9816SOL     OW30346   6.218   1.027   6.621
 9816SOL    HW130347   6.207   0.929   6.638
 9816SOL    HW230348   6.144   1.078   6.665
 9817SOL     OW30349   3.283   5.303   1.716
 9817SOL    HW130350   3.217   5.358   1.767
 9817SOL    HW230351   3.286   5.334   1.621
 9818SOL     OW30352   2.018   1.686   3.069
 9818SOL    HW130353   1.941   1.745   3.095
 9818SOL    HW230354   1.985   1.614   3.008
 9819SOL     OW30355   5.643   3.823   4.785
 9819SOL    HW130356   5.669   3.855   4.694
 9819SOL    HW230357   5.685   3.734   4.802
 9820SOL     OW30358   3.145   2.004   6.602
 9820SOL    HW130359   3.147   2.059   6.686
 9820SOL    HW230360   3.230   1.952   6.595
 9821SOL     OW30361   4.402   2.340   1.503
 9821SOL    HW130362   4.396   2.275   1.579
 9821SOL    HW230363   4.467   2.413   1.528
 9822SOL     OW30364   4.270   5.908   4.380
 9822SOL    HW130365   4.223   5.950   4.303
 9822SOL    HW230366   4.266   5.969   4.459
 9823SOL     OW30367   1.400   0.581   2.123
 9823SOL    HW130368   1.410   0.534   2.211
 9823SOL    HW230369   1.306   0.570   2.090
 9824SOL     OW30370   2.346   5.928   6.004
 9824SOL    HW130371   2.365   5.896   5.911
 9824SOL    HW230372   2.368   6.025   6.011
 9825SOL     OW30373   4.964   5.870   5.088
 9825SOL    HW130374   5.046   5.926   5.083
 9825SOL    HW230375   4.897   5.913   5.148
 9826SOL     OW30376   3.677   0.243   5.771
 9826SOL    HW130377   3.608   0.197   5.715
 9826SOL    HW230378   3.768   0.219   5.739
 9827SOL     OW30379   2.006   5.781   2.659
 9827SOL    HW130380   1.999   5.682   2.642
 9827SOL    HW230381   2.097   5.813   2.634
 9828SOL     OW30382   3.548   2.014   4.784
 9828SOL    HW130383   3.550   2.006   4.884
 9828SOL    HW230384   3.621   2.076   4.755
 9829SOL     OW30385   4.785   6.268   6.004
 9829SOL    HW130386   4.807   6.172   6.021
 9829SOL    HW230387   4.746   6.309   6.087
 9830SOL     OW30388   5.962   1.457   2.473
 9830SOL    HW130389   6.054   1.419   2.457
 9830SOL    HW230390   5.954   1.486   2.568
 9831SOL     OW30391   0.266   3.818   2.299
 9831SOL    HW130392   0.363   3.820   2.324
 9831SOL    HW230393   0.233   3.724   2.300
 9832SOL     OW30394   5.070   4.695   4.398
 9832SOL    HW130395   5.004   4.655   4.335
 9832SOL    HW230396   5.150   4.725   4.347
 9833SOL     OW30397   3.753   4.106   3.873
 9833SOL    HW130398   3.792   4.040   3.808
 9833SOL    HW230399   3.809   4.108   3.956
 9834SOL     OW30400   2.446   5.219   5.777
 9834SOL    HW130401   2.467   5.173   5.691
 9834SOL    HW230402   2.513   5.191   5.847
 9835SOL     OW30403   3.882   4.095   4.741
 9835SOL    HW130404   3.937   4.017   4.711
 9835SOL    HW230405   3.889   4.105   4.840
 9836SOL     OW30406   0.929   3.947   6.428
 9836SOL    HW130407   1.021   3.965   6.461
 9836SOL    HW230408   0.933   3.916   6.333
 9837SOL     OW30409   6.018   2.035   1.337
 9837SOL    HW130410   5.999   1.938   1.352
 9837SOL    HW230411   6.000   2.086   1.420
 9838SOL     OW30412   1.170   5.910   1.263
 9838SOL    HW130413   1.104   5.909   1.338
 9838SOL    HW230414   1.236   5.836   1.275
 9839SOL     OW30415   4.216   1.085   3.428
 9839SOL    HW130416   4.277   1.140   3.485
 9839SOL    HW230417   4.243   0.989   3.433
 9840SOL     OW30418   5.159   1.880   6.829
 9840SOL    HW130419   5.205   1.969   6.828
 9840SOL    HW230420   5.150   1.848   6.924
 9841SOL     OW30421   0.320   5.484   3.827
 9841SOL    HW130422   0.405   5.526   3.860
 9841SOL    HW230423   0.250   5.491   3.897
 9842SOL     OW30424   3.898   2.570   0.310
 9842SOL    HW130425   3.942   2.565   0.400
 9842SOL    HW230426   3.814   2.517   0.310
 9843SOL     OW30427   6.708   6.309   1.112
 9843SOL    HW130428   6.704   6.393   1.058
 9843SOL    HW230429   6.802   6.295   1.144
 9844SOL     OW30430   5.274   0.506   4.312
 9844SOL    HW130431   5.279   0.506   4.212
 9844SOL    HW230432   5.194   0.454   4.341
 9845SOL     OW30433   1.055   2.474   2.178
 9845SOL    HW130434   1.149   2.448   2.156
 9845SOL    HW230435   1.054   2.569   2.212
 9846SOL     OW30436   5.523   1.208   1.184
 9846SOL    HW130437   5.618   1.234   1.201
 9846SOL    HW230438   5.486   1.164   1.266
 9847SOL     OW30439   3.783   3.307   1.231
 9847SOL    HW130440   3.867   3.346   1.195
 9847SOL    HW230441   3.802   3.218   1.272
 9848SOL     OW30442   3.374   3.633   5.431
 9848SOL    HW130443   3.355   3.721   5.388
 9848SOL    HW230444   3.389   3.564   5.360
 9849SOL     OW30445   1.384   0.757   6.680
 9849SOL    HW130446   1.482   0.740   6.683
 9849SOL    HW230447   1.341   0.693   6.617
 9850SOL     OW30448   0.003   0.665   4.269
 9850SOL    HW130449   0.081   0.650   4.330
 9850SOL    HW230450   0.021   0.623   4.180
 9851SOL     OW30451   3.828   5.323   4.372
 9851SOL    HW130452   3.740   5.275   4.370
 9851SOL    HW230453   3.863   5.332   4.279
 9852SOL     OW30454   1.390   1.320   6.722
 9852SOL    HW130455   1.327   1.243   6.706
 9852SOL    HW230456   1.443   1.302   6.804
 9853SOL     OW30457   0.375   4.427   4.372
 9853SOL    HW130458   0.438   4.401   4.298
 9853SOL    HW230459   0.285   4.388   4.355
 9854SOL     OW30460   0.544   6.056   5.992
 9854SOL    HW130461   0.617   5.994   5.962
 9854SOL    HW230462   0.456   6.008   5.986
 9855SOL     OW30463   0.692   3.370   0.758
 9855SOL    HW130464   0.769   3.423   0.723
 9855SOL    HW230465   0.621   3.432   0.789
 9856SOL     OW30466   5.919   4.859   3.252
 9856SOL    HW130467   5.997   4.920   3.268
 9856SOL    HW230468   5.838   4.913   3.230
 9857SOL     OW30469   5.111   2.547   3.209
 9857SOL    HW130470   5.137   2.524   3.115
 9857SOL    HW230471   5.063   2.635   3.209
 9858SOL     OW30472   1.107   6.435   2.423
 9858SOL    HW130473   1.200   6.400   2.429
 9858SOL    HW230474   1.062   6.427   2.511
 9859SOL     OW30475   0.348   4.960   5.070
 9859SOL    HW130476   0.342   4.903   5.153
 9859SOL    HW230477   0.432   4.938   5.021
 9860SOL     OW30478   1.870   1.947   5.391
 9860SOL    HW130479   1.822   2.011   5.331
 9860SOL    HW230480   1.950   1.992   5.430
 9861SOL     OW30481   2.820   1.353   4.079
 9861SOL    HW130482   2.866   1.429   4.124
 9861SOL    HW230483   2.721   1.364   4.088
 9862SOL     OW30484   2.359   4.725   0.939
 9862SOL    HW130485   2.347   4.770   0.851
 9862SOL    HW230486   2.332   4.787   1.012
 9863SOL     OW30487   3.016   5.679   0.973
 9863SOL    HW130488   3.108   5.654   0.943
 9863SOL    HW230489   3.018   5.705   1.069
 9864SOL     OW30490   2.862   6.191   5.349
 9864SOL    HW130491   2.882   6.105   5.303
 9864SOL    HW230492   2.763   6.199   5.364
 9865SOL     OW30493   0.417   0.030   5.581
 9865SOL    HW130494   0.386   0.112   5.534
 9865SOL    HW230495   0.489   7.006   5.528
 9866SOL     OW30496   6.347   4.492   4.489
 9866SOL    HW130497   6.434   4.493   4.538
 9866SOL    HW230498   6.334   4.580   4.443
 9867SOL     OW30499   5.208   1.782   1.878
 9867SOL    HW130500   5.171   1.712   1.939
 9867SOL    HW230501   5.213   1.746   1.785
 9868SOL     OW30502   1.308   4.567   3.504
 9868SOL    HW130503   1.322   4.644   3.567
 9868SOL    HW230504   1.255   4.599   3.425
 9869SOL     OW30505   0.150   2.699   1.237
 9869SOL    HW130506   0.222   2.730   1.175
 9869SOL    HW230507   0.145   2.760   1.316
 9870SOL     OW30508   3.393   1.352   1.724
 9870SOL    HW130509   3.415   1.419   1.652
 9870SOL    HW230510   3.397   1.396   1.813
 9871SOL     OW30511   6.992   3.567   5.324
 9871SOL    HW130512   6.892   3.571   5.324
 9871SOL    HW230513   0.003   3.526   5.409
 9872SOL     OW30514   2.185   5.577   5.025
 9872SOL    HW130515   2.268   5.629   5.004
 9872SOL    HW230516   2.211   5.487   5.060
 9873SOL     OW30517   1.839   1.953   6.051
 9873SOL    HW130518   1.798   2.036   6.088
 9873SOL    HW230519   1.912   1.921   6.112
 9874SOL     OW30520   0.812   2.699   4.949
 9874SOL    HW130521   0.796   2.617   4.893
 9874SOL    HW230522   0.896   2.744   4.918
 9875SOL     OW30523   6.698   6.183   0.845
 9875SOL    HW130524   6.765   6.207   0.775
 9875SOL    HW230525   6.734   6.208   0.935
 9876SOL     OW30526   2.746   0.014   3.288
 9876SOL    HW130527   2.653   6.999   3.299
 9876SOL    HW230528   2.759   0.093   3.348
 9877SOL     OW30529   0.592   4.865   4.953
 9877SOL    HW130530   0.645   4.796   5.003
 9877SOL    HW230531   0.546   4.821   4.876
 9878SOL     OW30532   1.733   3.151   0.307
 9878SOL    HW130533   1.787   3.231   0.281
 9878SOL    HW230534   1.730   3.086   0.231
 9879SOL     OW30535   1.740   4.455   6.003
 9879SOL    HW130536   1.777   4.481   5.913
 9879SOL    HW230537   1.781   4.369   6.032
 9880SOL     OW30538   2.213   1.214   7.018
 9880SOL    HW130539   2.279   1.174   6.955
 9880SOL    HW230540   2.128   1.161   7.016
 9881SOL     OW30541   5.133   0.901   4.490
 9881SOL    HW130542   5.046   0.945   4.466
 9881SOL    HW230543   5.167   0.940   4.575
 9882SOL     OW30544   3.760   2.904   4.428
 9882SOL    HW130545   3.680   2.953   4.394
 9882SOL    HW230546   3.816   2.965   4.482
 9883SOL     OW30547   1.948   6.303   0.949
 9883SOL    HW130548   1.994   6.272   1.032
 9883SOL    HW230549   2.010   6.361   0.896
 9884SOL     OW30550   1.503   3.256   6.791
 9884SOL    HW130551   1.482   3.274   6.696
 9884SOL    HW230552   1.588   3.303   6.816
 9885SOL     OW30553   6.695   3.280   3.855
 9885SOL    HW130554   6.669   3.303   3.949
 9885SOL    HW230555   6.614   3.280   3.797
 9886SOL     OW30556   5.315   6.204   1.656
 9886SOL    HW130557   5.384   6.154   1.709
 9886SOL    HW230558   5.343   6.300   1.647
 9887SOL     OW30559   3.863   6.582   0.516
 9887SOL    HW130560   3.955   6.595   0.477
 9887SOL    HW230561   3.802   6.652   0.480
 9888SOL     OW30562   5.679   6.046   2.501
 9888SOL    HW130563   5.717   6.035   2.593
 9888SOL    HW230564   5.626   6.130   2.497
 9889SOL     OW30565   0.344   4.904   3.157
 9889SOL    HW130566   0.442   4.918   3.147
 9889SOL    HW230567   0.299   4.992   3.173
 9890SOL     OW30568   6.580   3.429   0.957
 9890SOL    HW130569   6.484   3.424   0.985
 9890SOL    HW230570   6.586   3.415   0.858
 9891SOL     OW30571   4.937   5.259   0.625
 9891SOL    HW130572   4.978   5.340   0.582
 9891SOL    HW230573   4.974   5.249   0.717
 9892SOL     OW30574   1.987   5.675   4.025
 9892SOL    HW130575   1.959   5.612   4.098
 9892SOL    HW230576   2.080   5.652   3.996
 9893SOL     OW30577   5.993   5.075   2.967
 9893SOL    HW130578   5.901   5.044   2.994
 9893SOL    HW230579   6.008   5.056   2.870
 9894SOL     OW30580   3.614   2.404   5.957
 9894SOL    HW130581   3.630   2.405   5.858
 9894SOL    HW230582   3.516   2.415   5.974
 9895SOL     OW30583   5.647   2.823   6.468
 9895SOL    HW130584   5.584   2.895   6.498
 9895SOL    HW230585   5.634   2.805   6.371
 9896SOL     OW30586   3.502   3.261   0.828
 9896SOL    HW130587   3.540   3.255   0.920
 9896SOL    HW230588   3.558   3.324   0.773
 9897SOL     OW30589   4.967   1.614   2.652
 9897SOL    HW130590   4.962   1.682   2.726
 9897SOL    HW230591   5.043   1.636   2.591
 9898SOL     OW30592   1.036   5.156   5.246
 9898SOL    HW130593   1.114   5.127   5.191
 9898SOL    HW230594   0.956   5.165   5.187
 9899SOL     OW30595   5.064   4.910   2.075
 9899SOL    HW130596   5.010   4.994   2.084
 9899SOL    HW230597   5.089   4.877   2.166
 9900SOL     OW30598   1.879   2.127   3.857
 9900SOL    HW130599   1.961   2.185   3.853
 9900SOL    HW230600   1.805   2.171   3.806
 9901SOL     OW30601   2.162   2.400   6.233
 9901SOL    HW130602   2.099   2.323   6.232
 9901SOL    HW230603   2.142   2.460   6.311
 9902SOL     OW30604   3.698   3.819   0.966
 9902SOL    HW130605   3.710   3.835   0.868
 9902SOL    HW230606   3.692   3.721   0.984
 9903SOL     OW30607   4.417   2.270   2.482
 9903SOL    HW130608   4.445   2.189   2.430
 9903SOL    HW230609   4.414   2.349   2.420
 9904SOL     OW30610   6.958   2.470   0.055
 9904SOL    HW130611   7.004   2.408   0.119
 9904SOL    HW230612   6.992   2.563   0.069
 9905SOL     OW30613   1.344   6.299   6.341
 9905SOL    HW130614   1.359   6.275   6.245
 9905SOL    HW230615   1.419   6.358   6.373
 9906SOL     OW30616   2.157   2.930   6.271
 9906SOL    HW130617   2.156   3.010   6.330
 9906SOL    HW230618   2.068   2.886   6.272
 9907SOL     OW30619   2.284   6.045   3.129
 9907SOL    HW130620   2.189   6.019   3.141
 9907SOL    HW230621   2.313   6.026   3.035
 9908SOL     OW30622   0.568   3.540   6.426
 9908SOL    HW130623   0.541   3.480   6.352
 9908SOL    HW230624   0.523   3.629   6.415
 9909SOL     OW30625   3.270   1.318   2.917
 9909SOL    HW130626   3.192   1.343   2.975
 9909SOL    HW230627   3.341   1.388   2.925
 9910SOL     OW30628   6.481   4.760   0.994
 9910SOL    HW130629   6.571   4.725   1.022
 9910SOL    HW230630   6.411   4.693   1.017
 9911SOL     OW30631   4.468   4.891   3.410
 9911SOL    HW130632   4.390   4.835   3.437
 9911SOL    HW230633   4.447   4.938   3.324
 9912SOL     OW30634   4.985   0.094   2.180
 9912SOL    HW130635   5.084   0.099   2.188
 9912SOL    HW230636   4.946   0.186   2.175
 9913SOL     OW30637   5.414   2.813   2.834
 9913SOL    HW130638   5.506   2.853   2.840
 9913SOL    HW230639   5.401   2.746   2.907
 9914SOL     OW30640   1.663   0.070   5.254
 9914SOL    HW130641   1.751   0.032   5.279
 9914SOL    HW230642   1.662   0.168   5.273
 9915SOL     OW30643   4.972   3.674   4.046
 9915SOL    HW130644   4.898   3.670   3.978
 9915SOL    HW230645   5.042   3.606   4.023
 9916SOL     OW30646   2.210   3.053   2.451
 9916SOL    HW130647   2.197   3.090   2.542
 9916SOL    HW230648   2.152   3.102   2.386
 9917SOL     OW30649   3.230   4.057   5.431
 9917SOL    HW130650   3.137   4.071   5.465
 9917SOL    HW230651   3.295   4.102   5.492
 9918SOL     OW30652   2.221   1.307   6.282
 9918SOL    HW130653   2.209   1.272   6.189
 9918SOL    HW230654   2.198   1.404   6.284
 9919SOL     OW30655   1.220   6.028   2.364
 9919SOL    HW130656   1.314   6.005   2.341
 9919SOL    HW230657   1.184   6.093   2.297
 9920SOL     OW30658   3.907   6.235   1.194
 9920SOL    HW130659   3.850   6.216   1.114
 9920SOL    HW230660   3.868   6.310   1.246
 9921SOL     OW30661   6.087   0.062   3.114
 9921SOL    HW130662   6.089   0.157   3.083
 9921SOL    HW230663   5.998   0.042   3.154
 9922SOL     OW30664   4.511   4.630   0.703
 9922SOL    HW130665   4.606   4.661   0.705
 9922SOL    HW230666   4.507   4.536   0.739
 9923SOL     OW30667   6.455   1.997   6.299
 9923SOL    HW130668   6.541   1.946   6.290
 9923SOL    HW230669   6.378   1.934   6.285
 9924SOL     OW30670   6.686   1.678   2.949
 9924SOL    HW130671   6.775   1.633   2.944
 9924SOL    HW230672   6.697   1.772   2.981
 9925SOL     OW30673   2.598   3.799   5.920
 9925SOL    HW130674   2.513   3.847   5.942
 9925SOL    HW230675   2.610   3.797   5.820
 9926SOL     OW30676   1.359   1.511   0.871
 9926SOL    HW130677   1.326   1.587   0.815
 9926SOL    HW230678   1.374   1.431   0.814
 9927SOL     OW30679   0.547   2.130   2.556
 9927SOL    HW130680   0.506   2.058   2.613
 9927SOL    HW230681   0.546   2.216   2.606
 9928SOL     OW30682   0.578   4.200   1.974
 9928SOL    HW130683   0.650   4.198   1.905
 9928SOL    HW230684   0.606   4.260   2.050
 9929SOL     OW30685   3.402   4.410   6.017
 9929SOL    HW130686   3.490   4.439   6.055
 9929SOL    HW230687   3.411   4.317   5.981
 9930SOL     OW30688   6.860   0.340   6.592
 9930SOL    HW130689   6.835   0.276   6.519
 9930SOL    HW230690   6.815   0.313   6.677
 9931SOL     OW30691   1.430   6.342   5.309
 9931SOL    HW130692   1.469   6.266   5.362
 9931SOL    HW230693   1.466   6.429   5.344
 9932SOL     OW30694   2.155   1.549   0.867
 9932SOL    HW130695   2.057   1.556   0.854
 9932SOL    HW230696   2.188   1.627   0.921
 9933SOL     OW30697   2.734   1.181   3.207
 9933SOL    HW130698   2.699   1.088   3.223
 9933SOL    HW230699   2.787   1.211   3.286
 9934SOL     OW30700   5.860   1.718   6.459
 9934SOL    HW130701   5.772   1.693   6.498
 9934SOL    HW230702   5.892   1.804   6.500
 9935SOL     OW30703   2.793   1.886   0.360
 9935SOL    HW130704   2.788   1.864   0.457
 9935SOL    HW230705   2.822   1.805   0.308
 9936SOL     OW30706   5.220   5.573   5.784
 9936SOL    HW130707   5.197   5.478   5.804
 9936SOL    HW230708   5.137   5.628   5.781
 9937SOL     OW30709   0.355   0.129   2.874
 9937SOL    HW130710   0.274   0.157   2.925
 9937SOL    HW230711   0.358   0.177   2.786
 9938SOL     OW30712   6.747   1.003   4.626
 9938SOL    HW130713   6.694   0.980   4.544
 9938SOL    HW230714   6.813   1.075   4.604
 9939SOL     OW30715   2.186   4.067   0.745
 9939SOL    HW130716   2.126   3.999   0.703
 9939SOL    HW230717   2.247   4.106   0.676
 9940SOL     OW30718   0.478   6.888   2.847
 9940SOL    HW130719   0.431   6.973   2.871
 9940SOL    HW230720   0.478   6.877   2.748
 9941SOL     OW30721   4.137   4.848   5.508
 9941SOL    HW130722   4.065   4.857   5.439
 9941SOL    HW230723   4.127   4.761   5.556
 9942SOL     OW30724   4.518   4.578   3.538
 9942SOL    HW130725   4.589   4.617   3.596
 9942SOL    HW230726   4.430   4.618   3.562
 9943SOL     OW30727   1.950   3.628   0.124
 9943SOL    HW130728   1.963   3.529   0.119
 9943SOL    HW230729   1.901   3.659   0.042
 9944SOL     OW30730   1.507   4.957   0.220
 9944SOL    HW130731   1.563   5.009   0.154
 9944SOL    HW230732   1.439   4.903   0.171
 9945SOL     OW30733   6.072   3.892   0.391
 9945SOL    HW130734   6.136   3.939   0.451
 9945SOL    HW230735   6.039   3.809   0.436
 9946SOL     OW30736   5.542   1.192   2.636
 9946SOL    HW130737   5.540   1.240   2.723
 9946SOL    HW230738   5.605   1.238   2.574
 9947SOL     OW30739   1.444   1.823   4.371
 9947SOL    HW130740   1.350   1.805   4.343
 9947SOL    HW230741   1.497   1.856   4.292
 9948SOL     OW30742   6.630   0.360   3.808
 9948SOL    HW130743   6.590   0.335   3.720
 9948SOL    HW230744   6.716   0.408   3.793
 9949SOL     OW30745   6.616   4.374   4.847
 9949SOL    HW130746   6.529   4.327   4.863
 9949SOL    HW230747   6.690   4.325   4.893
 9950SOL     OW30748   6.551   5.119   5.945
 9950SOL    HW130749   6.545   5.158   5.852
 9950SOL    HW230750   6.646   5.093   5.964
 9951SOL     OW30751   0.746   3.043   2.815
 9951SOL    HW130752   0.775   3.030   2.721
 9951SOL    HW230753   0.679   3.117   2.820
 9952SOL     OW30754   0.530   4.518   1.788
 9952SOL    HW130755   0.531   4.607   1.744
 9952SOL    HW230756   0.623   4.490   1.812
 9953SOL     OW30757   6.201   2.708   3.622
 9953SOL    HW130758   6.172   2.670   3.710
 9953SOL    HW230759   6.133   2.686   3.552
 9954SOL     OW30760   2.992   1.727   5.737
 9954SOL    HW130761   2.963   1.770   5.651
 9954SOL    HW230762   3.054   1.651   5.717
 9955SOL     OW30763   4.664   3.441   0.989
 9955SOL    HW130764   4.565   3.443   0.999
 9955SOL    HW230765   4.688   3.432   0.892
 9956SOL     OW30766   1.466   4.766   3.090
 9956SOL    HW130767   1.512   4.853   3.104
 9956SOL    HW230768   1.519   4.710   3.027
 9957SOL     OW30769   5.238   6.812   1.707
 9957SOL    HW130770   5.203   6.906   1.701
 9957SOL    HW230771   5.234   6.782   1.803
 9958SOL     OW30772   4.328   4.955   5.894
 9958SOL    HW130773   4.389   4.941   5.972
 9958SOL    HW230774   4.236   4.924   5.917
 9959SOL     OW30775   4.372   4.350   1.147
 9959SOL    HW130776   4.460   4.345   1.195
 9959SOL    HW230777   4.298   4.360   1.214
 9960SOL     OW30778   6.428   6.812   0.417
 9960SOL    HW130779   6.355   6.757   0.378
 9960SOL    HW230780   6.485   6.849   0.343
 9961SOL     OW30781   2.146   4.218   1.963
 9961SOL    HW130782   2.140   4.314   1.937
 9961SOL    HW230783   2.185   4.166   1.887
 9962SOL     OW30784   3.317   5.303   2.521
 9962SOL    HW130785   3.401   5.256   2.546
 9962SOL    HW230786   3.326   5.342   2.429
 9963SOL     OW30787   1.944   1.303   0.702
 9963SOL    HW130788   2.043   1.303   0.687
 9963SOL    HW230789   1.911   1.397   0.705
 9964SOL     OW30790   4.648   4.442   5.466
 9964SOL    HW130791   4.576   4.464   5.399
 9964SOL    HW230792   4.737   4.465   5.427
 9965SOL     OW30793   2.727   6.028   5.140
 9965SOL    HW130794   2.725   6.067   5.048
 9965SOL    HW230795   2.817   5.985   5.155
 9966SOL     OW30796   2.817   4.700   2.316
 9966SOL    HW130797   2.797   4.623   2.254
 9966SOL    HW230798   2.867   4.770   2.266
 9967SOL     OW30799   6.529   6.885   2.420
 9967SOL    HW130800   6.530   6.982   2.445
 9967SOL    HW230801   6.454   6.868   2.355
 9968SOL     OW30802   4.333   6.284   0.087
 9968SOL    HW130803   4.325   6.205   0.027
 9968SOL    HW230804   4.265   6.353   0.061
 9969SOL     OW30805   0.972   4.347   4.693
 9969SOL    HW130806   1.043   4.312   4.633
 9969SOL    HW230807   0.882   4.323   4.655
 9970SOL     OW30808   5.365   5.143   2.274
 9970SOL    HW130809   5.405   5.226   2.235
 9970SOL    HW230810   5.351   5.075   2.201
 9971SOL     OW30811   1.312   3.170   1.799
 9971SOL    HW130812   1.307   3.091   1.738
 9971SOL    HW230813   1.290   3.143   1.892
 9972SOL     OW30814   3.752   3.885   0.705
 9972SOL    HW130815   3.839   3.873   0.658
 9972SOL    HW230816   3.750   3.975   0.750
 9973SOL     OW30817   3.830   1.647   3.904
 9973SOL    HW130818   3.894   1.609   3.837
 9973SOL    HW230819   3.863   1.736   3.935
 9974SOL     OW30820   6.873   2.171   3.464
 9974SOL    HW130821   6.966   2.154   3.432
 9974SOL    HW230822   6.808   2.141   3.394
 9975SOL     OW30823   0.980   5.185   6.489
 9975SOL    HW130824   1.050   5.151   6.426
 9975SOL    HW230825   0.921   5.251   6.442
 9976SOL     OW30826   2.204   4.987   5.765
 9976SOL    HW130827   2.219   5.086   5.772
 9976SOL    HW230828   2.264   4.940   5.830
 9977SOL     OW30829   5.353   5.328   4.522
 9977SOL    HW130830   5.271   5.296   4.568
 9977SOL    HW230831   5.406   5.385   4.584
 9978SOL     OW30832   0.348   1.917   6.114
 9978SOL    HW130833   0.417   1.987   6.094
 9978SOL    HW230834   0.356   1.891   6.211
 9979SOL     OW30835   5.205   3.307   5.462
 9979SOL    HW130836   5.123   3.352   5.426
 9979SOL    HW230837   5.226   3.343   5.553
 9980SOL     OW30838   1.429   0.661   0.137
 9980SOL    HW130839   1.378   0.659   0.051
 9980SOL    HW230840   1.404   0.743   0.189
 9981SOL     OW30841   0.993   2.354   0.900
 9981SOL    HW130842   0.924   2.283   0.885
 9981SOL    HW230843   0.949   2.444   0.899
 9982SOL     OW30844   2.541   1.334   5.106
 9982SOL    HW130845   2.609   1.293   5.166
 9982SOL    HW230846   2.567   1.428   5.084
 9983SOL     OW30847   6.537   2.834   2.346
 9983SOL    HW130848   6.486   2.914   2.376
 9983SOL    HW230849   6.634   2.858   2.336
 9984SOL     OW30850   0.250   6.183   1.306
 9984SOL    HW130851   0.253   6.107   1.242
 9984SOL    HW230852   0.235   6.268   1.256
 9985SOL     OW30853   3.444   4.960   0.687
 9985SOL    HW130854   3.501   5.036   0.658
 9985SOL    HW230855   3.386   4.989   0.763
 9986SOL     OW30856   5.044   4.562   0.670
 9986SOL    HW130857   5.027   4.472   0.630
 9986SOL    HW230858   5.077   4.624   0.599
 9987SOL     OW30859   5.542   3.139   1.526
 9987SOL    HW130860   5.631   3.094   1.520
 9987SOL    HW230861   5.482   3.086   1.587
 9988SOL     OW30862   6.088   5.937   3.974
 9988SOL    HW130863   6.168   5.918   4.032
 9988SOL    HW230864   6.050   6.026   3.997
 9989SOL     OW30865   6.330   3.833   1.387
 9989SOL    HW130866   6.426   3.847   1.363
 9989SOL    HW230867   6.292   3.919   1.421
 9990SOL     OW30868   0.367   6.334   3.537
 9990SOL    HW130869   0.324   6.392   3.607
 9990SOL    HW230870   0.466   6.330   3.552
 9991SOL     OW30871   1.762   4.071   3.606
 9991SOL    HW130872   1.758   4.131   3.686
 9991SOL    HW230873   1.746   3.976   3.634
 9992SOL     OW30874   3.266   4.077   1.014
 9992SOL    HW130875   3.188   4.094   0.952
 9992SOL    HW230876   3.336   4.146   0.998
 9993SOL     OW30877   3.358   5.939   4.093
 9993SOL    HW130878   3.308   6.018   4.129
 9993SOL    HW230879   3.330   5.857   4.142
 9994SOL     OW30880   0.147   3.932   4.260
 9994SOL    HW130881   0.076   3.942   4.329
 9994SOL    HW230882   0.105   3.915   4.171
 9995SOL     OW30883   2.873   0.580   4.668
 9995SOL    HW130884   2.969   0.598   4.647
 9995SOL    HW230885   2.842   0.643   4.740
 9996SOL     OW30886   2.546   4.122   0.480
 9996SOL    HW130887   2.559   4.049   0.547
 9996SOL    HW230888   2.575   4.090   0.390
 9997SOL     OW30889   5.406   1.676   3.988
 9997SOL    HW130890   5.357   1.685   4.074
 9997SOL    HW230891   5.342   1.688   3.912
 9998SOL     OW30892   4.713   4.158   2.558
 9998SOL    HW130893   4.729   4.079   2.616
 9998SOL    HW230894   4.772   4.154   2.477
 9999SOL     OW30895   0.847   0.062   3.775
 9999SOL    HW130896   0.936   0.096   3.807
 9999SOL    HW230897   0.857   0.025   3.683
10000SOL     OW30898   5.242   1.617   1.614
10000SOL    HW130899   5.152   1.576   1.629
10000SOL    HW230900   5.232   1.701   1.560
10001SOL     OW30901   3.066   6.646   2.275
10001SOL    HW130902   3.012   6.696   2.208
10001SOL    HW230903   3.073   6.550   2.247
10002SOL     OW30904   2.128   1.110   0.844
10002SOL    HW130905   2.125   1.054   0.761
10002SOL    HW230906   2.221   1.143   0.857
10003SOL     OW30907   2.702   1.546   2.474
10003SOL    HW130908   2.718   1.613   2.402
10003SOL    HW230909   2.621   1.492   2.451
10004SOL     OW30910   5.488   4.744   4.678
10004SOL    HW130911   5.426   4.822   4.672
10004SOL    HW230912   5.478   4.688   4.596
10005SOL     OW30913   2.707   5.783   3.733
10005SOL    HW130914   2.799   5.766   3.768
10005SOL    HW230915   2.640   5.757   3.803
10006SOL     OW30916   5.920   0.089   5.420
10006SOL    HW130917   5.928   0.172   5.365
10006SOL    HW230918   5.969   0.014   5.376
10007SOL     OW30919   0.625   3.693   4.800
10007SOL    HW130920   0.665   3.611   4.842
10007SOL    HW230921   0.698   3.750   4.763
10008SOL     OW30922   3.727   1.973   4.185
10008SOL    HW130923   3.809   1.924   4.156
10008SOL    HW230924   3.651   1.909   4.196
10009SOL     OW30925   1.861   3.702   1.777
10009SOL    HW130926   1.926   3.636   1.740
10009SOL    HW230927   1.854   3.690   1.876
10010SOL     OW30928   3.058   5.018   6.429
10010SOL    HW130929   3.034   5.032   6.525
10010SOL    HW230930   3.101   4.928   6.418
10011SOL     OW30931   0.056   4.641   0.331
10011SOL    HW130932   7.015   4.602   0.400
10011SOL    HW230933   0.146   4.654   0.371
10012SOL     OW30934   4.903   0.562   1.853
10012SOL    HW130935   4.998   0.595   1.858
10012SOL    HW230936   4.855   0.588   1.937
10013SOL     OW30937   1.405   4.615   5.122
10013SOL    HW130938   1.431   4.671   5.200
10013SOL    HW230939   1.480   4.552   5.099
10014SOL     OW30940   1.100   6.622   2.207
10014SOL    HW130941   1.072   6.695   2.269
10014SOL    HW230942   1.106   6.536   2.258
10015SOL     OW30943   3.886   5.155   6.990
10015SOL    HW130944   3.896   5.092   6.913
10015SOL    HW230945   3.789   5.163   7.014
10016SOL     OW30946   2.138   1.820   4.661
10016SOL    HW130947   2.110   1.915   4.679
10016SOL    HW230948   2.073   1.758   4.704
10017SOL     OW30949   2.325   1.714   2.632
10017SOL    HW130950   2.248   1.650   2.630
10017SOL    HW230951   2.372   1.712   2.543
10018SOL     OW30952   6.572   3.984   5.682
10018SOL    HW130953   6.631   3.974   5.762
10018SOL    HW230954   6.477   3.999   5.712
10019SOL     OW30955   0.191   1.590   3.341
10019SOL    HW130956   0.112   1.584   3.402
10019SOL    HW230957   0.185   1.519   3.271
10020SOL     OW30958   0.051   0.974   1.841
10020SOL    HW130959   0.091   1.051   1.890
10020SOL    HW230960   0.107   0.952   1.761
10021SOL     OW30961   0.966   3.003   1.946
10021SOL    HW130962   0.880   2.952   1.941
10021SOL    HW230963   0.953   3.094   1.908
10022SOL     OW30964   1.950   6.086   6.951
10022SOL    HW130965   1.982   6.031   6.874
10022SOL    HW230966   2.020   6.087   0.002
10023SOL     OW30967   2.657   6.209   5.652
10023SOL    HW130968   2.671   6.111   5.665
10023SOL    HW230969   2.636   6.227   5.556
10024SOL     OW30970   1.443   5.226   2.991
10024SOL    HW130971   1.477   5.216   2.898
10024SOL    HW230972   1.343   5.229   2.990
10025SOL     OW30973   1.639   3.312   1.860
10025SOL    HW130974   1.724   3.361   1.880
10025SOL    HW230975   1.569   3.340   1.925
10026SOL     OW30976   5.075   1.322   2.905
10026SOL    HW130977   5.074   1.420   2.927
10026SOL    HW230978   4.982   1.286   2.910
10027SOL     OW30979   0.980   2.649   5.362
10027SOL    HW130980   1.005   2.708   5.285
10027SOL    HW230981   1.060   2.636   5.420
10028SOL     OW30982   3.085   0.939   0.878
10028SOL    HW130983   3.086   0.954   0.977
10028SOL    HW230984   3.074   0.841   0.860
10029SOL     OW30985   0.489   3.233   4.598
10029SOL    HW130986   0.399   3.235   4.554
10029SOL    HW230987   0.493   3.302   4.670
10030SOL     OW30988   2.955   6.849   5.092
10030SOL    HW130989   3.054   6.841   5.089
10030SOL    HW230990   2.927   6.934   5.047
10031SOL     OW30991   4.516   4.887   4.468
10031SOL    HW130992   4.524   4.955   4.540
10031SOL    HW230993   4.464   4.926   4.392
10032SOL     OW30994   3.731   0.136   6.352
10032SOL    HW130995   3.737   0.164   6.448
10032SOL    HW230996   3.636   0.118   6.328
10033SOL     OW30997   3.924   1.341   4.665
10033SOL    HW130998   3.826   1.346   4.643
10033SOL    HW230999   3.975   1.402   4.604
10034SOL     OW31000   2.573   0.860   3.894
10034SOL    HW131001   2.497   0.878   3.956
10034SOL    HW231002   2.539   0.851   3.800
10035SOL     OW31003   5.570   3.921   0.847
10035SOL    HW131004   5.582   3.998   0.784
10035SOL    HW231005   5.659   3.880   0.867
10036SOL     OW31006   6.532   1.046   0.748
10036SOL    HW131007   6.495   0.963   0.706
10036SOL    HW231008   6.604   1.083   0.691
10037SOL     OW31009   6.443   0.008   6.456
10037SOL    HW131010   6.456   0.106   6.472
10037SOL    HW231011   6.485   7.003   6.369
10038SOL     OW31012   4.509   6.626   6.189
10038SOL    HW131013   4.552   6.576   6.264
10038SOL    HW231014   4.440   6.688   6.226
10039SOL     OW31015   4.749   6.045   4.705
10039SOL    HW131016   4.764   6.141   4.729
10039SOL    HW231017   4.687   6.004   4.772
10040SOL     OW31018   4.767   6.110   6.982
10040SOL    HW131019   4.701   6.182   7.007
10040SOL    HW231020   4.833   6.147   6.917
10041SOL     OW31021   6.021   5.441   5.140
10041SOL    HW131022   6.017   5.352   5.094
10041SOL    HW231023   5.937   5.457   5.190
10042SOL     OW31024   0.682   0.920   5.117
10042SOL    HW131025   0.725   0.830   5.122
10042SOL    HW231026   0.613   0.921   5.044
10043SOL     OW31027   0.652   0.288   3.064
10043SOL    HW131028   0.603   0.202   3.073
10043SOL    HW231029   0.590   0.359   3.034
10044SOL     OW31030   2.660   1.543   4.344
10044SOL    HW131031   2.599   1.498   4.279
10044SOL    HW231032   2.606   1.601   4.405
10045SOL     OW31033   5.473   0.133   4.018
10045SOL    HW131034   5.398   0.190   4.052
10045SOL    HW231035   5.553   0.190   4.000
10046SOL     OW31036   0.772   1.656   1.727
10046SOL    HW131037   0.856   1.660   1.672
10046SOL    HW231038   0.746   1.561   1.742
10047SOL     OW31039   6.191   3.183   5.022
10047SOL    HW131040   6.110   3.236   5.045
10047SOL    HW231041   6.167   3.112   4.954
10048SOL     OW31042   3.731   1.809   2.023
10048SOL    HW131043   3.707   1.720   2.062
10048SOL    HW231044   3.795   1.796   1.947
10049SOL     OW31045   0.763   0.750   6.282
10049SOL    HW131046   0.829   0.676   6.295
10049SOL    HW231047   0.778   0.820   6.353
10050SOL     OW31048   6.202   2.694   5.055
10050SOL    HW131049   6.284   2.741   5.089
10050SOL    HW231050   6.150   2.659   5.133
10051SOL     OW31051   6.584   2.658   4.898
10051SOL    HW131052   6.509   2.690   4.956
10051SOL    HW231053   6.611   2.566   4.925
10052SOL     OW31054   2.158   2.648   2.117
10052SOL    HW131055   2.066   2.651   2.078
10052SOL    HW231056   2.191   2.742   2.132
10053SOL     OW31057   3.669   5.394   2.078
10053SOL    HW131058   3.664   5.327   2.152
10053SOL    HW231059   3.633   5.353   1.994
10054SOL     OW31060   3.829   6.262   5.914
10054SOL    HW131061   3.914   6.219   5.945
10054SOL    HW231062   3.805   6.337   5.977
10055SOL     OW31063   6.231   2.246   5.527
10055SOL    HW131064   6.256   2.197   5.443
10055SOL    HW231065   6.231   2.344   5.509
10056SOL     OW31066   6.109   5.216   0.867
10056SOL    HW131067   6.158   5.298   0.895
10056SOL    HW231068   6.025   5.241   0.820
10057SOL     OW31069   3.560   0.911   4.446
10057SOL    HW131070   3.592   1.006   4.440
10057SOL    HW231071   3.514   0.897   4.533
10058SOL     OW31072   0.215   3.747   4.495
10058SOL    HW131073   0.266   3.743   4.410
10058SOL    HW231074   0.274   3.781   4.568
10059SOL     OW31075   4.900   6.766   0.736
10059SOL    HW131076   4.803   6.742   0.729
10059SOL    HW231077   4.910   6.855   0.780
10060SOL     OW31078   2.544   1.455   1.996
10060SOL    HW131079   2.626   1.504   2.024
10060SOL    HW231080   2.555   1.421   1.903
10061SOL     OW31081   4.864   1.229   4.152
10061SOL    HW131082   4.820   1.141   4.171
10061SOL    HW231083   4.797   1.293   4.115
10062SOL     OW31084   6.311   6.883   4.966
10062SOL    HW131085   6.387   6.823   4.939
10062SOL    HW231086   6.225   6.833   4.955
10063SOL     OW31087   1.796   1.818   3.160
10063SOL    HW131088   1.755   1.881   3.226
10063SOL    HW231089   1.773   1.848   3.067
10064SOL     OW31090   5.763   5.559   5.858
10064SOL    HW131091   5.783   5.529   5.951
10064SOL    HW231092   5.834   5.525   5.796
10065SOL     OW31093   2.118   0.534   1.911
10065SOL    HW131094   2.053   0.608   1.894
10065SOL    HW231095   2.166   0.511   1.826
10066SOL     OW31096   1.794   1.572   4.198
10066SOL    HW131097   1.699   1.549   4.222
10066SOL    HW231098   1.843   1.596   4.282
10067SOL     OW31099   5.455   3.940   5.763
10067SOL    HW131100   5.506   3.858   5.789
10067SOL    HW231101   5.358   3.916   5.752
10068SOL     OW31102   5.346   3.105   3.869
10068SOL    HW131103   5.319   3.191   3.912
10068SOL    HW231104   5.393   3.125   3.782
10069SOL     OW31105   1.655   5.598   3.941
10069SOL    HW131106   1.618   5.505   3.932
10069SOL    HW231107   1.684   5.631   3.852
10070SOL     OW31108   0.023   0.649   4.819
10070SOL    HW131109   6.975   0.603   4.763
10070SOL    HW231110   7.020   0.746   4.827
10071SOL     OW31111   4.759   5.265   3.890
10071SOL    HW131112   4.672   5.223   3.919
10071SOL    HW231113   4.760   5.361   3.919
10072SOL     OW31114   1.010   6.201   4.324
10072SOL    HW131115   0.978   6.216   4.418
10072SOL    HW231116   1.110   6.204   4.322
10073SOL     OW31117   6.344   4.039   4.487
10073SOL    HW131118   6.293   4.113   4.443
10073SOL    HW231119   6.386   3.981   4.418
10074SOL     OW31120   0.706   0.625   5.263
10074SOL    HW131121   0.636   0.607   5.332
10074SOL    HW231122   0.782   0.674   5.305
10075SOL     OW31123   1.533   2.031   2.339
10075SOL    HW131124   1.628   2.059   2.330
10075SOL    HW231125   1.498   2.059   2.429
10076SOL     OW31126   5.857   0.657   3.376
10076SOL    HW131127   5.924   0.731   3.388
10076SOL    HW231128   5.896   0.586   3.318
10077SOL     OW31129   3.032   2.538   6.818
10077SOL    HW131130   3.092   2.549   6.897
10077SOL    HW231131   2.941   2.510   6.849
10078SOL     OW31132   6.950   6.216   4.476
10078SOL    HW131133   0.011   6.274   4.484
10078SOL    HW231134   6.888   6.235   4.552
10079SOL     OW31135   0.929   3.486   1.981
10079SOL    HW131136   0.896   3.562   1.924
10079SOL    HW231137   1.019   3.457   1.949
10080SOL     OW31138   3.402   1.887   6.571
10080SOL    HW131139   3.472   1.929   6.630
10080SOL    HW231140   3.409   1.926   6.479
10081SOL     OW31141   0.040   0.334   6.889
10081SOL    HW131142   0.052   0.392   6.809
10081SOL    HW231143   0.108   0.357   6.958
10082SOL     OW31144   6.652   3.560   2.418
10082SOL    HW131145   6.720   3.487   2.414
10082SOL    HW231146   6.644   3.594   2.512
10083SOL     OW31147   5.211   0.955   3.085
10083SOL    HW131148   5.303   0.918   3.097
10083SOL    HW231149   5.215   1.054   3.071
10084SOL     OW31150   3.850   0.912   6.046
10084SOL    HW131151   3.915   0.877   6.113
10084SOL    HW231152   3.892   0.986   5.994
10085SOL     OW31153   0.259   5.601   2.212
10085SOL    HW131154   0.179   5.582   2.154
10085SOL    HW231155   0.236   5.674   2.277
10086SOL     OW31156   6.119   5.169   1.812
10086SOL    HW131157   6.171   5.186   1.896
10086SOL    HW231158   6.142   5.239   1.744
10087SOL     OW31159   0.788   6.892   3.942
10087SOL    HW131160   0.801   6.944   3.858
10087SOL    HW231161   0.863   6.911   4.005
10088SOL     OW31162   6.567   6.855   6.969
10088SOL    HW131163   6.575   6.862   6.870
10088SOL    HW231164   6.471   6.839   6.994
10089SOL     OW31165   2.468   2.433   3.149
10089SOL    HW131166   2.531   2.473   3.081
10089SOL    HW231167   2.415   2.361   3.106
10090SOL     OW31168   0.765   4.813   0.963
10090SOL    HW131169   0.721   4.766   1.039
10090SOL    HW231170   0.755   4.758   0.880
10091SOL     OW31171   1.191   3.174   4.731
10091SOL    HW131172   1.223   3.204   4.641
10091SOL    HW231173   1.105   3.220   4.753
10092SOL     OW31174   2.040   3.310   5.605
10092SOL    HW131175   2.032   3.254   5.523
10092SOL    HW231176   2.127   3.359   5.604
10093SOL     OW31177   1.036   3.996   4.582
10093SOL    HW131178   1.003   3.978   4.675
10093SOL    HW231179   1.041   4.095   4.568
10094SOL     OW31180   2.534   6.090   1.631
10094SOL    HW131181   2.468   6.024   1.596
10094SOL    HW231182   2.488   6.155   1.692
10095SOL     OW31183   6.252   2.078   5.823
10095SOL    HW131184   6.307   2.139   5.879
10095SOL    HW231185   6.304   2.048   5.743
10096SOL     OW31186   6.030   4.995   2.203
10096SOL    HW131187   6.090   5.051   2.145
10096SOL    HW231188   6.084   4.924   2.248
10097SOL     OW31189   1.148   0.917   7.011
10097SOL    HW131190   1.123   0.986   6.942
10097SOL    HW231191   1.181   0.835   6.965
10098SOL     OW31192   2.140   0.215   5.672
10098SOL    HW131193   2.210   0.191   5.605
10098SOL    HW231194   2.106   0.307   5.654
10099SOL     OW31195   0.095   5.186   6.432
10099SOL    HW131196   7.019   5.203   6.451
10099SOL    HW231197   0.138   5.145   6.512
10100SOL     OW31198   5.698   0.288   4.023
10100SOL    HW131199   5.777   0.268   4.082
10100SOL    HW231200   5.683   0.387   4.020
10101SOL     OW31201   5.744   4.087   1.691
10101SOL    HW131202   5.716   4.071   1.596
10101SOL    HW231203   5.702   4.172   1.724
10102SOL     OW31204   1.779   0.961   2.834
10102SOL    HW131205   1.815   0.897   2.902
10102SOL    HW231206   1.779   1.053   2.873
10103SOL     OW31207   2.731   1.223   5.270
10103SOL    HW131208   2.819   1.206   5.225
10103SOL    HW231209   2.685   1.136   5.285
10104SOL     OW31210   1.850   3.113   4.750
10104SOL    HW131211   1.872   3.099   4.847
10104SOL    HW231212   1.844   3.210   4.731
10105SOL     OW31213   1.259   1.128   0.187
10105SOL    HW131214   1.195   1.181   0.241
10105SOL    HW231215   1.232   1.130   0.091
10106SOL     OW31216   4.769   5.313   0.907
10106SOL    HW131217   4.867   5.329   0.900
10106SOL    HW231218   4.720   5.399   0.898
10107SOL     OW31219   0.436   1.628   6.865
10107SOL    HW131220   0.499   1.676   6.926
10107SOL    HW231221   0.473   1.537   6.843
10108SOL     OW31222   6.222   5.929   6.887
10108SOL    HW131223   6.215   5.998   6.960
10108SOL    HW231224   6.130   5.903   6.857
10109SOL     OW31225   3.334   6.292   2.189
10109SOL    HW131226   3.376   6.229   2.123
10109SOL    HW231227   3.297   6.240   2.266
10110SOL     OW31228   4.328   6.780   4.711
10110SOL    HW131229   4.328   6.870   4.668
10110SOL    HW231230   4.337   6.790   4.810
10111SOL     OW31231   6.350   2.809   4.260
10111SOL    HW131232   6.321   2.767   4.346
10111SOL    HW231233   6.328   2.906   4.261
10112SOL     OW31234   5.583   4.277   4.765
10112SOL    HW131235   5.570   4.332   4.848
10112SOL    HW231236   5.670   4.228   4.771
10113SOL     OW31237   4.066   1.504   5.817
10113SOL    HW131238   4.009   1.465   5.744
10113SOL    HW231239   4.152   1.453   5.822
10114SOL     OW31240   5.542   0.416   0.925
10114SOL    HW131241   5.485   0.334   0.926
10114SOL    HW231242   5.625   0.399   0.977
10115SOL     OW31243   3.144   2.168   3.770
10115SOL    HW131244   3.234   2.157   3.813
10115SOL    HW231245   3.149   2.141   3.674
10116SOL     OW31246   0.581   6.684   0.013
10116SOL    HW131247   0.657   6.694   6.970
10116SOL    HW231248   0.582   6.593   0.054
10117SOL     OW31249   6.964   0.141   4.994
10117SOL    HW131250   6.994   0.237   4.991
10117SOL    HW231251   6.872   0.134   4.955
10118SOL     OW31252   0.994   5.135   3.146
10118SOL    HW131253   1.064   5.181   3.091
10118SOL    HW231254   0.914   5.117   3.089
10119SOL     OW31255   1.060   6.374   4.781
10119SOL    HW131256   1.154   6.402   4.763
10119SOL    HW231257   1.044   6.373   4.880
10120SOL     OW31258   1.119   3.810   4.151
10120SOL    HW131259   1.199   3.808   4.212
10120SOL    HW231260   1.052   3.876   4.185
10121SOL     OW31261   6.567   4.748   5.883
10121SOL    HW131262   6.594   4.665   5.931
10121SOL    HW231263   6.478   4.735   5.840
10122SOL     OW31264   5.491   3.110   0.715
10122SOL    HW131265   5.470   3.183   0.781
10122SOL    HW231266   5.590   3.095   0.712
10123SOL     OW31267   6.369   6.254   0.478
10123SOL    HW131268   6.329   6.167   0.449
10123SOL    HW231269   6.297   6.315   0.509
10124SOL     OW31270   1.725   3.382   6.934
10124SOL    HW131271   1.712   3.476   6.904
10124SOL    HW231272   1.820   3.355   6.919
10125SOL     OW31273   1.374   0.728   2.465
10125SOL    HW131274   1.301   0.782   2.507
10125SOL    HW231275   1.444   0.790   2.428
10126SOL     OW31276   0.421   0.235   6.756
10126SOL    HW131277   0.331   0.209   6.790
10126SOL    HW231278   0.418   0.329   6.723
10127SOL     OW31279   3.037   4.906   5.700
10127SOL    HW131280   2.946   4.938   5.726
10127SOL    HW231281   3.052   4.815   5.740
10128SOL     OW31282   0.875   1.567   1.350
10128SOL    HW131283   0.939   1.640   1.326
10128SOL    HW231284   0.784   1.588   1.312
10129SOL     OW31285   5.121   2.867   4.139
10129SOL    HW131286   5.133   2.957   4.098
10129SOL    HW231287   5.167   2.798   4.083
10130SOL     OW31288   2.199   4.287   2.529
10130SOL    HW131289   2.286   4.262   2.485
10130SOL    HW231290   2.174   4.217   2.595
10131SOL     OW31291   0.588   0.649   2.814
10131SOL    HW131292   0.622   0.734   2.855
10131SOL    HW231293   0.652   0.619   2.743
10132SOL     OW31294   2.728   6.822   4.071
10132SOL    HW131295   2.704   6.866   3.985
10132SOL    HW231296   2.752   6.726   4.054
10133SOL     OW31297   4.874   6.133   1.531
10133SOL    HW131298   4.789   6.179   1.557
10133SOL    HW231299   4.949   6.168   1.587
10134SOL     OW31300   6.737   0.044   4.075
10134SOL    HW131301   6.810   0.111   4.062
10134SOL    HW231302   6.685   0.067   4.158
10135SOL     OW31303   5.193   3.011   3.229
10135SOL    HW131304   5.167   2.942   3.297
10135SOL    HW231305   5.293   3.019   3.227
10136SOL     OW31306   5.785   0.416   2.769
10136SOL    HW131307   5.882   0.421   2.792
10136SOL    HW231308   5.761   0.491   2.707
10137SOL     OW31309   6.070   4.463   4.150
10137SOL    HW131310   6.114   4.550   4.127
10137SOL    HW231311   6.090   4.396   4.079
10138SOL     OW31312   5.277   2.352   0.911
10138SOL    HW131313   5.368   2.313   0.914
10138SOL    HW231314   5.264   2.403   0.825
10139SOL     OW31315   3.640   3.854   3.411
10139SOL    HW131316   3.629   3.953   3.413
10139SOL    HW231317   3.610   3.814   3.498
10140SOL     OW31318   6.426   6.143   5.880
10140SOL    HW131319   6.470   6.183   5.800
10140SOL    HW231320   6.347   6.090   5.851
10141SOL     OW31321   3.255   1.192   4.098
10141SOL    HW131322   3.179   1.130   4.080
10141SOL    HW231323   3.222   1.274   4.145
10142SOL     OW31324   6.469   6.635   4.952
10142SOL    HW131325   6.388   6.579   4.935
10142SOL    HW231326   6.550   6.587   4.921
10143SOL     OW31327   4.458   0.721   0.387
10143SOL    HW131328   4.492   0.690   0.476
10143SOL    HW231329   4.531   0.768   0.338
10144SOL     OW31330   4.353   0.005   5.976
10144SOL    HW131331   4.430   6.973   5.939
10144SOL    HW231332   4.371   0.103   5.966
10145SOL     OW31333   3.373   5.855   5.792
10145SOL    HW131334   3.276   5.875   5.810
10145SOL    HW231335   3.381   5.812   5.702
10146SOL     OW31336   3.858   4.883   4.686
10146SOL    HW131337   3.825   4.793   4.715
10146SOL    HW231338   3.946   4.873   4.640
10147SOL     OW31339   5.268   4.350   5.053
10147SOL    HW131340   5.256   4.354   4.954
10147SOL    HW231341   5.193   4.299   5.094
10148SOL     OW31342   5.840   5.449   6.703
10148SOL    HW131343   5.817   5.379   6.635
10148SOL    HW231344   5.844   5.538   6.660
10149SOL     OW31345   5.813   1.893   0.998
10149SOL    HW131346   5.774   1.809   1.035
10149SOL    HW231347   5.848   1.949   1.073
10150SOL     OW31348   4.385   3.539   0.432
10150SOL    HW131349   4.445   3.520   0.355
10150SOL    HW231350   4.306   3.477   0.428
10151SOL     OW31351   1.296   6.604   0.094
10151SOL    HW131352   1.300   6.532   0.025
10151SOL    HW231353   1.285   6.693   0.050
10152SOL     OW31354   0.839   6.590   5.037
10152SOL    HW131355   0.888   6.570   5.122
10152SOL    HW231356   0.760   6.528   5.029
10153SOL     OW31357   5.241   5.901   3.813
10153SOL    HW131358   5.233   5.991   3.854
10153SOL    HW231359   5.197   5.901   3.723
10154SOL     OW31360   5.832   0.134   4.818
10154SOL    HW131361   5.860   0.149   4.913
10154SOL    HW231362   5.796   0.041   4.809
10155SOL     OW31363   3.591   2.093   5.781
10155SOL    HW131364   3.558   2.004   5.753
10155SOL    HW231365   3.650   2.131   5.710
10156SOL     OW31366   6.036   1.000   2.056
10156SOL    HW131367   6.085   0.919   2.087
10156SOL    HW231368   6.013   1.058   2.134
10157SOL     OW31369   6.178   2.974   6.341
10157SOL    HW131370   6.174   3.021   6.253
10157SOL    HW231371   6.088   2.934   6.361
10158SOL     OW31372   5.598   3.436   0.718
10158SOL    HW131373   5.683   3.447   0.769
10158SOL    HW231374   5.539   3.515   0.734
10159SOL     OW31375   3.102   3.186   6.093
10159SOL    HW131376   3.034   3.123   6.130
10159SOL    HW231377   3.175   3.135   6.048
10160SOL     OW31378   2.014   3.118   2.280
10160SOL    HW131379   2.074   3.197   2.264
10160SOL    HW231380   1.980   3.083   2.193
10161SOL     OW31381   3.753   3.307   6.348
10161SOL    HW131382   3.670   3.252   6.343
10161SOL    HW231383   3.772   3.331   6.443
10162SOL     OW31384   3.385   4.468   0.146
10162SOL    HW131385   3.468   4.456   0.091
10162SOL    HW231386   3.410   4.488   0.241
10163SOL     OW31387   5.449   5.187   5.686
10163SOL    HW131388   5.406   5.238   5.612
10163SOL    HW231389   5.548   5.190   5.677
10164SOL     OW31390   5.678   3.091   4.692
10164SOL    HW131391   5.640   3.180   4.671
10164SOL    HW231392   5.699   3.085   4.789
10165SOL     OW31393   0.559   1.605   3.071
10165SOL    HW131394   0.598   1.557   3.149
10165SOL    HW231395   0.584   1.557   2.986
10166SOL     OW31396   3.588   1.146   1.653
10166SOL    HW131397   3.523   1.221   1.665
10166SOL    HW231398   3.611   1.137   1.556
10167SOL     OW31399   2.708   2.627   6.482
10167SOL    HW131400   2.670   2.719   6.496
10167SOL    HW231401   2.636   2.566   6.450
10168SOL     OW31402   6.004   3.828   5.536
10168SOL    HW131403   5.986   3.835   5.437
10168SOL    HW231404   6.020   3.919   5.573
10169SOL     OW31405   6.261   3.751   3.323
10169SOL    HW131406   6.275   3.823   3.255
10169SOL    HW231407   6.173   3.707   3.307
10170SOL     OW31408   1.000   5.071   5.899
10170SOL    HW131409   0.975   5.026   5.814
10170SOL    HW231410   1.029   5.165   5.881
10171SOL     OW31411   6.708   3.274   5.659
10171SOL    HW131412   6.789   3.221   5.685
10171SOL    HW231413   6.635   3.258   5.725
10172SOL     OW31414   6.652   6.467   4.858
10172SOL    HW131415   6.639   6.495   4.763
10172SOL    HW231416   6.732   6.407   4.864
10173SOL     OW31417   0.786   2.564   0.926
10173SOL    HW131418   0.793   2.557   1.025
10173SOL    HW231419   0.751   2.654   0.902
10174SOL     OW31420   5.523   5.373   2.163
10174SOL    HW131421   5.519   5.471   2.143
10174SOL    HW231422   5.614   5.349   2.197
10175SOL     OW31423   5.891   2.263   4.135
10175SOL    HW131424   5.988   2.285   4.146
10175SOL    HW231425   5.877   2.165   4.150
10176SOL     OW31426   1.231   3.213   5.559
10176SOL    HW131427   1.323   3.240   5.532
10176SOL    HW231428   1.201   3.270   5.636
10177SOL     OW31429   2.129   0.652   0.665
10177SOL    HW131430   2.204   0.592   0.638
10177SOL    HW231431   2.097   0.627   0.757
10178SOL     OW31432   6.524   1.391   4.997
10178SOL    HW131433   6.473   1.326   4.941
10178SOL    HW231434   6.498   1.380   5.093
10179SOL     OW31435   0.585   2.035   6.234
10179SOL    HW131436   0.596   2.087   6.319
10179SOL    HW231437   0.667   1.980   6.218
10180SOL     OW31438   4.265   0.445   6.963
10180SOL    HW131439   4.271   0.347   6.942
10180SOL    HW231440   4.194   0.460   0.011
10181SOL     OW31441   5.419   2.699   2.224
10181SOL    HW131442   5.334   2.657   2.193
10181SOL    HW231443   5.408   2.799   2.226
10182SOL     OW31444   4.451   0.811   1.659
10182SOL    HW131445   4.450   0.770   1.568
10182SOL    HW231446   4.534   0.784   1.707
10183SOL     OW31447   0.025   2.293   6.276
10183SOL    HW131448   0.123   2.286   6.260
10183SOL    HW231449   0.007   2.311   6.372
10184SOL     OW31450   3.517   1.245   6.882
10184SOL    HW131451   3.536   1.288   6.794
10184SOL    HW231452   3.437   1.186   6.874
10185SOL     OW31453   5.635   5.881   1.903
10185SOL    HW131454   5.555   5.867   1.844
10185SOL    HW231455   5.715   5.838   1.862
10186SOL     OW31456   6.072   4.014   3.522
10186SOL    HW131457   5.994   3.952   3.521
10186SOL    HW231458   6.134   3.991   3.597
10187SOL     OW31459   0.790   3.011   0.884
10187SOL    HW131460   0.718   3.072   0.916
10187SOL    HW231461   0.833   3.049   0.802
10188SOL     OW31462   3.556   5.804   0.942
10188SOL    HW131463   3.581   5.810   0.846
10188SOL    HW231464   3.480   5.867   0.960
10189SOL     OW31465   0.955   0.570   6.317
10189SOL    HW131466   1.053   0.556   6.332
10189SOL    HW231467   0.903   0.496   6.359
10190SOL     OW31468   4.797   3.342   1.795
10190SOL    HW131469   4.786   3.252   1.753
10190SOL    HW231470   4.827   3.331   1.889
10191SOL     OW31471   5.339   5.264   5.451
10191SOL    HW131472   5.257   5.322   5.448
10191SOL    HW231473   5.312   5.168   5.449
10192SOL     OW31474   4.338   1.449   5.834
10192SOL    HW131475   4.347   1.419   5.929
10192SOL    HW231476   4.387   1.385   5.774
10193SOL     OW31477   4.158   3.452   2.034
10193SOL    HW131478   4.193   3.544   2.050
10193SOL    HW231479   4.112   3.418   2.116
10194SOL     OW31480   5.841   5.514   4.707
10194SOL    HW131481   5.753   5.473   4.730
10194SOL    HW231482   5.844   5.608   4.739
10195SOL     OW31483   6.229   5.435   0.951
10195SOL    HW131484   6.320   5.474   0.965
10195SOL    HW231485   6.188   5.415   1.040
10196SOL     OW31486   4.057   1.558   4.169
10196SOL    HW131487   3.982   1.598   4.222
10196SOL    HW231488   4.021   1.484   4.112
10197SOL     OW31489   6.512   2.103   5.667
10197SOL    HW131490   6.486   2.158   5.588
10197SOL    HW231491   6.578   2.153   5.723
10198SOL     OW31492   3.111   0.800   2.097
10198SOL    HW131493   3.163   0.753   2.025
10198SOL    HW231494   3.104   0.897   2.074
10199SOL     OW31495   2.509   2.230   6.893
10199SOL    HW131496   2.454   2.153   6.860
10199SOL    HW231497   2.568   2.198   6.968
10200SOL     OW31498   5.226   1.829   0.657
10200SOL    HW131499   5.289   1.907   0.659
10200SOL    HW231500   5.269   1.750   0.701
10201SOL     OW31501   1.599   4.396   0.806
10201SOL    HW131502   1.661   4.458   0.759
10201SOL    HW231503   1.507   4.404   0.766
10202SOL     OW31504   3.795   3.179   0.717
10202SOL    HW131505   3.858   3.248   0.751
10202SOL    HW231506   3.737   3.219   0.645
10203SOL     OW31507   6.561   3.014   3.791
10203SOL    HW131508   6.580   2.959   3.710
10203SOL    HW231509   6.628   3.088   3.796
10204SOL     OW31510   4.953   6.469   6.824
10204SOL    HW131511   4.892   6.540   6.859
10204SOL    HW231512   5.041   6.510   6.799
10205SOL     OW31513   2.165   0.964   1.492
10205SOL    HW131514   2.155   0.890   1.558
10205SOL    HW231515   2.095   0.955   1.421
10206SOL     OW31516   0.668   0.839   0.229
10206SOL    HW131517   0.699   0.774   0.161
10206SOL    HW231518   0.734   0.845   0.304
10207SOL     OW31519   1.367   1.768   6.531
10207SOL    HW131520   1.407   1.692   6.582
10207SOL    HW231521   1.281   1.738   6.489
10208SOL     OW31522   5.724   4.483   3.901
10208SOL    HW131523   5.744   4.511   3.807
10208SOL    HW231524   5.775   4.541   3.965
10209SOL     OW31525   0.027   0.519   6.635
10209SOL    HW131526   0.120   0.493   6.608
10209SOL    HW231527   6.984   0.447   6.608
10210SOL     OW31528   4.827   6.454   2.053
10210SOL    HW131529   4.851   6.463   2.149
10210SOL    HW231530   4.730   6.431   2.044
10211SOL     OW31531   4.408   6.310   4.354
10211SOL    HW131532   4.382   6.405   4.365
10211SOL    HW231533   4.383   6.278   4.262
10212SOL     OW31534   1.088   0.151   5.398
10212SOL    HW131535   1.185   0.165   5.376
10212SOL    HW231536   1.039   0.237   5.389
10213SOL     OW31537   5.154   3.096   0.927
10213SOL    HW131538   5.153   3.171   0.861
10213SOL    HW231539   5.246   3.084   0.964
10214SOL     OW31540   0.975   1.364   2.352
10214SOL    HW131541   0.960   1.455   2.312
10214SOL    HW231542   0.954   1.294   2.283
10215SOL     OW31543   4.090   3.191   3.370
10215SOL    HW131544   4.099   3.242   3.455
10215SOL    HW231545   4.070   3.254   3.295
10216SOL     OW31546   0.057   0.596   0.890
10216SOL    HW131547   0.044   0.515   0.832
10216SOL    HW231548   6.997   0.608   0.948
10217SOL     OW31549   2.996   1.583   3.462
10217SOL    HW131550   3.094   1.598   3.478
10217SOL    HW231551   2.952   1.669   3.437
10218SOL     OW31552   1.383   1.486   1.985
10218SOL    HW131553   1.386   1.584   1.963
10218SOL    HW231554   1.462   1.463   2.042
10219SOL     OW31555   0.011   2.588   3.177
10219SOL    HW131556   6.943   2.564   3.215
10219SOL    HW231557   0.032   2.529   3.099
10220SOL     OW31558   4.206   2.535   1.488
10220SOL    HW131559   4.274   2.462   1.488
10220SOL    HW231560   4.136   2.516   1.557
10221SOL     OW31561   0.456   5.418   3.228
10221SOL    HW131562   0.516   5.441   3.151
10221SOL    HW231563   0.465   5.321   3.250
10222SOL     OW31564   3.289   3.142   5.706
10222SOL    HW131565   3.288   3.084   5.787
10222SOL    HW231566   3.269   3.237   5.733
10223SOL     OW31567   0.441   4.736   1.431
10223SOL    HW131568   0.513   4.666   1.430
10223SOL    HW231569   0.443   4.785   1.518
10224SOL     OW31570   6.908   2.918   3.844
10224SOL    HW131571   6.940   2.984   3.913
10224SOL    HW231572   6.970   2.839   3.843
10225SOL     OW31573   1.689   4.813   5.850
10225SOL    HW131574   1.730   4.742   5.793
10225SOL    HW231575   1.615   4.773   5.905
10226SOL     OW31576   2.785   0.442   6.918
10226SOL    HW131577   2.751   0.535   6.900
10226SOL    HW231578   2.884   0.444   6.926
10227SOL     OW31579   4.994   4.687   0.241
10227SOL    HW131580   4.895   4.696   0.251
10227SOL    HW231581   5.015   4.616   0.175
10228SOL     OW31582   6.587   6.809   1.544
10228SOL    HW131583   6.677   6.792   1.583
10228SOL    HW231584   6.596   6.826   1.445
10229SOL     OW31585   1.382   2.778   5.105
10229SOL    HW131586   1.396   2.828   5.191
10229SOL    HW231587   1.389   2.842   5.028
10230SOL     OW31588   6.306   5.764   2.887
10230SOL    HW131589   6.401   5.793   2.895
10230SOL    HW231590   6.291   5.681   2.941
10231SOL     OW31591   0.672   5.700   4.958
10231SOL    HW131592   0.666   5.672   4.862
10231SOL    HW231593   0.742   5.646   5.004
10232SOL     OW31594   2.715   1.231   3.628
10232SOL    HW131595   2.783   1.295   3.594
10232SOL    HW231596   2.737   1.138   3.597
10233SOL     OW31597   3.868   4.066   5.024
10233SOL    HW131598   3.900   4.091   5.115
10233SOL    HW231599   3.775   4.099   5.010
10234SOL     OW31600   6.407   0.936   1.084
10234SOL    HW131601   6.362   0.923   1.172
10234SOL    HW231602   6.369   1.017   1.039
10235SOL     OW31603   1.880   2.385   1.968
10235SOL    HW131604   1.832   2.339   2.043
10235SOL    HW231605   1.831   2.368   1.882
10236SOL     OW31606   2.702   6.388   0.515
10236SOL    HW131607   2.662   6.381   0.606
10236SOL    HW231608   2.646   6.337   0.450
10237SOL     OW31609   6.771   2.914   0.333
10237SOL    HW131610   6.753   2.986   0.266
10237SOL    HW231611   6.862   2.875   0.316
10238SOL     OW31612   4.366   4.184   1.458
10238SOL    HW131613   4.338   4.130   1.538
10238SOL    HW231614   4.285   4.214   1.408
10239SOL     OW31615   1.287   2.507   5.079
10239SOL    HW131616   1.302   2.606   5.074
10239SOL    HW231617   1.227   2.479   5.005
10240SOL     OW31618   2.629   5.826   2.345
10240SOL    HW131619   2.576   5.900   2.304
10240SOL    HW231620   2.620   5.830   2.445
10241SOL     OW31621   5.172   0.865   2.229
10241SOL    HW131622   5.111   0.937   2.263
10241SOL    HW231623   5.198   0.805   2.304
10242SOL     OW31624   6.556   1.817   1.015
10242SOL    HW131625   6.602   1.901   1.043
10242SOL    HW231626   6.613   1.738   1.038
10243SOL     OW31627   2.357   4.139   1.788
10243SOL    HW131628   2.275   4.119   1.735
10243SOL    HW231629   2.359   4.235   1.813
10244SOL     OW31630   2.697   3.945   0.666
10244SOL    HW131631   2.792   3.957   0.635
10244SOL    HW231632   2.692   3.868   0.729
10245SOL     OW31633   3.755   4.047   1.145
10245SOL    HW131634   3.757   3.964   1.089
10245SOL    HW231635   3.777   4.024   1.240
10246SOL     OW31636   3.196   4.118   4.294
10246SOL    HW131637   3.130   4.189   4.268
10246SOL    HW231638   3.225   4.068   4.213
10247SOL     OW31639   0.164   3.589   6.179
10247SOL    HW131640   0.156   3.689   6.180
10247SOL    HW231641   0.141   3.553   6.269
10248SOL     OW31642   0.940   0.155   3.083
10248SOL    HW131643   0.912   0.217   3.156
10248SOL    HW231644   0.867   0.150   3.014
10249SOL     OW31645   2.795   5.369   6.386
10249SOL    HW131646   2.714   5.316   6.410
10249SOL    HW231647   2.825   5.344   6.294
10250SOL     OW31648   6.777   4.000   1.050
10250SOL    HW131649   6.868   3.959   1.038
10250SOL    HW231650   6.766   4.076   0.987
10251SOL     OW31651   1.998   1.734   4.067
10251SOL    HW131652   1.935   1.657   4.078
10251SOL    HW231653   2.086   1.711   4.107
10252SOL     OW31654   4.397   3.483   5.855
10252SOL    HW131655   4.353   3.530   5.931
10252SOL    HW231656   4.389   3.384   5.867
10253SOL     OW31657   2.804   6.198   0.762
10253SOL    HW131658   2.729   6.133   0.746
10253SOL    HW231659   2.888   6.162   0.723
10254SOL     OW31660   4.548   1.594   5.416
10254SOL    HW131661   4.469   1.647   5.385
10254SOL    HW231662   4.545   1.585   5.516
10255SOL     OW31663   2.731   6.793   0.874
10255SOL    HW131664   2.782   6.769   0.792
10255SOL    HW231665   2.722   6.712   0.933
10256SOL     OW31666   3.975   0.803   2.625
10256SOL    HW131667   3.995   0.798   2.527
10256SOL    HW231668   4.003   0.892   2.661
10257SOL     OW31669   1.248   5.425   4.329
10257SOL    HW131670   1.312   5.497   4.301
10257SOL    HW231671   1.156   5.463   4.334
10258SOL     OW31672   3.790   1.881   3.216
10258SOL    HW131673   3.696   1.848   3.230
10258SOL    HW231674   3.788   1.961   3.157
10259SOL     OW31675   0.795   4.269   3.600
10259SOL    HW131676   0.702   4.237   3.579
10259SOL    HW231677   0.816   4.250   3.695
10260SOL     OW31678   0.553   1.582   3.526
10260SOL    HW131679   0.545   1.640   3.445
10260SOL    HW231680   0.462   1.567   3.565
10261SOL     OW31681   6.782   4.884   0.651
10261SOL    HW131682   6.749   4.827   0.726
10261SOL    HW231683   6.797   4.829   0.570
10262SOL     OW31684   3.276   6.859   6.503
10262SOL    HW131685   3.356   6.812   6.464
10262SOL    HW231686   3.195   6.839   6.448
10263SOL     OW31687   5.729   0.163   0.574
10263SOL    HW131688   5.649   0.150   0.632
10263SOL    HW231689   5.704   0.151   0.478
10264SOL     OW31690   6.589   5.595   6.393
10264SOL    HW131691   6.577   5.539   6.475
10264SOL    HW231692   6.501   5.631   6.363
10265SOL     OW31693   3.583   2.650   6.819
10265SOL    HW131694   3.640   2.612   6.892
10265SOL    HW231695   3.541   2.735   6.850
10266SOL     OW31696   3.838   3.504   3.272
10266SOL    HW131697   3.782   3.488   3.354
10266SOL    HW231698   3.864   3.416   3.232
10267SOL     OW31699   5.195   0.870   0.830
10267SOL    HW131700   5.293   0.890   0.838
10267SOL    HW231701   5.146   0.954   0.804
10268SOL     OW31702   5.748   6.678   2.139
10268SOL    HW131703   5.697   6.593   2.149
10268SOL    HW231704   5.686   6.751   2.110
10269SOL     OW31705   1.278   2.395   6.184
10269SOL    HW131706   1.197   2.419   6.130
10269SOL    HW231707   1.262   2.417   6.280
10270SOL     OW31708   3.441   5.313   2.870
10270SOL    HW131709   3.460   5.218   2.897
10270SOL    HW231710   3.345   5.334   2.889
10271SOL     OW31711   2.755   2.453   6.826
10271SOL    HW131712   2.715   2.475   6.916
10271SOL    HW231713   2.682   2.425   6.763
10272SOL     OW31714   1.346   0.981   4.490
10272SOL    HW131715   1.281   0.951   4.420
10272SOL    HW231716   1.371   1.076   4.474
10273SOL     OW31717   3.112   5.173   4.013
10273SOL    HW131718   3.105   5.272   4.009
10273SOL    HW231719   3.112   5.135   3.921
10274SOL     OW31720   1.297   4.642   5.937
10274SOL    HW131721   1.275   4.551   5.901
10274SOL    HW231722   1.310   4.706   5.861
10275SOL     OW31723   0.168   0.350   2.002
10275SOL    HW131724   0.180   0.254   1.980
10275SOL    HW231725   0.236   0.405   1.953
10276SOL     OW31726   4.809   5.878   5.576
10276SOL    HW131727   4.908   5.885   5.568
10276SOL    HW231728   4.785   5.820   5.654
10277SOL     OW31729   1.705   6.337   4.822
10277SOL    HW131730   1.724   6.312   4.728
10277SOL    HW231731   1.646   6.268   4.864
10278SOL     OW31732   1.003   1.308   3.611
10278SOL    HW131733   1.013   1.229   3.672
10278SOL    HW231734   0.942   1.375   3.653
10279SOL     OW31735   2.071   5.113   4.234
10279SOL    HW131736   1.995   5.048   4.250
10279SOL    HW231737   2.149   5.063   4.196
10280SOL     OW31738   6.206   2.975   6.924
10280SOL    HW131739   6.200   3.034   6.843
10280SOL    HW231740   6.212   2.879   6.895
10281SOL     OW31741   6.264   2.110   3.910
10281SOL    HW131742   6.288   2.023   3.953
10281SOL    HW231743   6.212   2.166   3.974
10282SOL     OW31744   5.656   2.987   3.535
10282SOL    HW131745   5.712   2.944   3.606
10282SOL    HW231746   5.701   3.070   3.502
10283SOL     OW31747   1.472   3.200   0.907
10283SOL    HW131748   1.489   3.265   0.981
10283SOL    HW231749   1.469   3.107   0.943
10284SOL     OW31750   6.142   1.967   4.817
10284SOL    HW131751   6.233   1.979   4.775
10284SOL    HW231752   6.150   1.909   4.898
10285SOL     OW31753   4.583   6.470   2.583
10285SOL    HW131754   4.616   6.553   2.537
10285SOL    HW231755   4.661   6.421   2.622
10286SOL     OW31756   3.833   0.422   3.919
10286SOL    HW131757   3.797   0.338   3.960
10286SOL    HW231758   3.760   0.469   3.870
10287SOL     OW31759   2.437   5.499   2.110
10287SOL    HW131760   2.356   5.441   2.097
10287SOL    HW231761   2.502   5.481   2.036
10288SOL     OW31762   4.431   6.983   3.783
10288SOL    HW131763   4.371   7.016   3.710
10288SOL    HW231764   4.379   6.926   3.846
10289SOL     OW31765   2.986   6.138   0.576
10289SOL    HW131766   3.063   6.083   0.609
10289SOL    HW231767   3.021   6.220   0.530
10290SOL     OW31768   3.123   3.137   2.884
10290SOL    HW131769   3.044   3.113   2.939
10290SOL    HW231770   3.094   3.194   2.807
10291SOL     OW31771   3.774   2.074   3.026
10291SOL    HW131772   3.773   2.068   2.926
10291SOL    HW231773   3.680   2.085   3.060
10292SOL     OW31774   1.013   2.231   5.350
10292SOL    HW131775   1.029   2.205   5.445
10292SOL    HW231776   1.100   2.232   5.300
10293SOL     OW31777   1.161   3.325   3.591
10293SOL    HW131778   1.215   3.293   3.513
10293SOL    HW231779   1.201   3.291   3.676
10294SOL     OW31780   4.455   1.580   2.865
10294SOL    HW131781   4.534   1.608   2.811
10294SOL    HW231782   4.388   1.535   2.805
10295SOL     OW31783   1.059   3.140   5.357
10295SOL    HW131784   1.115   3.181   5.429
10295SOL    HW231785   1.005   3.065   5.397
10296SOL     OW31786   5.000   1.754   6.108
10296SOL    HW131787   5.044   1.843   6.100
10296SOL    HW231788   5.024   1.698   6.029
10297SOL     OW31789   1.969   1.033   6.985
10297SOL    HW131790   1.898   1.002   0.027
10297SOL    HW231791   1.936   1.024   6.891
10298SOL     OW31792   2.066   4.535   1.079
10298SOL    HW131793   2.065   4.437   1.059
10298SOL    HW231794   2.131   4.553   1.153
10299SOL     OW31795   3.835   5.335   2.921
10299SOL    HW131796   3.904   5.392   2.877
10299SOL    HW231797   3.866   5.310   3.013
10300SOL     OW31798   1.434   4.187   1.771
10300SOL    HW131799   1.406   4.132   1.850
10300SOL    HW231800   1.359   4.247   1.744
10301SOL     OW31801   4.406   1.993   5.347
10301SOL    HW131802   4.476   1.943   5.398
10301SOL    HW231803   4.342   1.929   5.306
10302SOL     OW31804   2.332   5.937   4.619
10302SOL    HW131805   2.289   5.852   4.586
10302SOL    HW231806   2.262   5.995   4.660
10303SOL     OW31807   1.349   5.776   4.014
10303SOL    HW131808   1.308   5.685   4.019
10303SOL    HW231809   1.391   5.789   3.924
10304SOL     OW31810   5.666   0.255   1.363
10304SOL    HW131811   5.723   0.328   1.399
10304SOL    HW231812   5.610   0.290   1.288
10305SOL     OW31813   1.732   3.928   5.468
10305SOL    HW131814   1.682   3.841   5.465
10305SOL    HW231815   1.807   3.925   5.402
10306SOL     OW31816   5.373   5.746   0.326
10306SOL    HW131817   5.390   5.706   0.236
10306SOL    HW231818   5.315   5.827   0.317
10307SOL     OW31819   3.104   1.343   4.988
10307SOL    HW131820   3.070   1.353   4.895
10307SOL    HW231821   3.194   1.386   4.996
10308SOL     OW31822   1.748   4.108   2.163
10308SOL    HW131823   1.761   4.061   2.075
10308SOL    HW231824   1.828   4.164   2.183
10309SOL     OW31825   0.300   1.452   0.072
10309SOL    HW131826   0.309   1.516   7.016
10309SOL    HW231827   0.223   1.479   0.130
10310SOL     OW31828   3.165   3.739   0.179
10310SOL    HW131829   3.155   3.662   0.241
10310SOL    HW231830   3.257   3.779   0.189
10311SOL     OW31831   6.700   5.605   0.177
10311SOL    HW131832   6.721   5.594   0.274
10311SOL    HW231833   6.760   5.674   0.137
10312SOL     OW31834   4.491   6.358   2.350
10312SOL    HW131835   4.412   6.420   2.351
10312SOL    HW231836   4.548   6.375   2.431
10313SOL     OW31837   3.608   5.980   2.041
10313SOL    HW131838   3.541   5.907   2.028
10313SOL    HW231839   3.700   5.941   2.043
10314SOL     OW31840   6.771   0.387   0.274
10314SOL    HW131841   6.722   0.301   0.289
10314SOL    HW231842   6.745   0.452   0.345
10315SOL     OW31843   5.641   6.233   4.487
10315SOL    HW131844   5.689   6.192   4.564
10315SOL    HW231845   5.705   6.248   4.412
10316SOL     OW31846   6.627   2.596   5.914
10316SOL    HW131847   6.712   2.555   5.948
10316SOL    HW231848   6.559   2.524   5.901
10317SOL     OW31849   4.133   6.141   6.595
10317SOL    HW131850   4.037   6.136   6.565
10317SOL    HW231851   4.159   6.236   6.609
10318SOL     OW31852   4.786   0.580   6.394
10318SOL    HW131853   4.710   0.515   6.383
10318SOL    HW231854   4.754   0.659   6.446
10319SOL     OW31855   0.606   3.481   5.616
10319SOL    HW131856   0.529   3.422   5.591
10319SOL    HW231857   0.591   3.572   5.579
10320SOL     OW31858   0.730   6.593   2.416
10320SOL    HW131859   0.640   6.552   2.402
10320SOL    HW231860   0.722   6.693   2.411
10321SOL     OW31861   5.730   2.286   1.609
10321SOL    HW131862   5.714   2.234   1.526
10321SOL    HW231863   5.824   2.273   1.639
10322SOL     OW31864   4.620   4.992   5.108
10322SOL    HW131865   4.549   4.946   5.161
10322SOL    HW231866   4.591   4.999   5.012
10323SOL     OW31867   5.915   4.575   5.260
10323SOL    HW131868   5.842   4.636   5.229
10323SOL    HW231869   5.982   4.564   5.186
10324SOL     OW31870   3.670   3.032   1.919
10324SOL    HW131871   3.669   2.989   2.010
10324SOL    HW231872   3.753   3.085   1.908
10325SOL     OW31873   6.193   4.333   2.002
10325SOL    HW131874   6.105   4.298   1.968
10325SOL    HW231875   6.191   4.336   2.102
10326SOL     OW31876   5.082   4.515   6.431
10326SOL    HW131877   5.095   4.416   6.433
10326SOL    HW231878   5.067   4.545   6.337
10327SOL     OW31879   2.468   2.794   0.892
10327SOL    HW131880   2.382   2.808   0.941
10327SOL    HW231881   2.457   2.721   0.826
10328SOL     OW31882   6.237   2.678   0.461
10328SOL    HW131883   6.208   2.601   0.405
10328SOL    HW231884   6.326   2.711   0.429
10329SOL     OW31885   2.388   0.783   3.714
10329SOL    HW131886   2.328   0.859   3.689
10329SOL    HW231887   2.418   0.735   3.631
10330SOL     OW31888   3.934   1.081   2.202
10330SOL    HW131889   4.029   1.053   2.194
10330SOL    HW231890   3.877   1.025   2.141
10331SOL     OW31891   6.585   6.652   6.202
10331SOL    HW131892   6.630   6.589   6.139
10331SOL    HW231893   6.636   6.655   6.288
10332SOL     OW31894   0.008   0.370   0.449
10332SOL    HW131895   0.006   0.346   0.352
10332SOL    HW231896   6.967   0.310   0.499
10333SOL     OW31897   1.166   4.467   5.346
10333SOL    HW131898   1.177   4.369   5.359
10333SOL    HW231899   1.125   4.484   5.256
10334SOL     OW31900   3.541   0.926   4.737
10334SOL    HW131901   3.457   0.953   4.784
10334SOL    HW231902   3.618   0.980   4.772
10335SOL     OW31903   2.587   4.060   0.225
10335SOL    HW131904   2.639   3.975   0.227
10335SOL    HW231905   2.580   4.092   0.130
10336SOL     OW31906   6.387   0.201   1.578
10336SOL    HW131907   6.388   0.124   1.643
10336SOL    HW231908   6.379   0.165   1.485
10337SOL     OW31909   0.395   6.360   6.587
10337SOL    HW131910   0.329   6.343   6.660
10337SOL    HW231911   0.353   6.339   6.499
10338SOL     OW31912   2.022   6.315   2.447
10338SOL    HW131913   2.062   6.369   2.372
10338SOL    HW231914   2.024   6.369   2.531
10339SOL     OW31915   5.280   3.348   5.726
10339SOL    HW131916   5.371   3.330   5.764
10339SOL    HW231917   5.211   3.309   5.786
10340SOL     OW31918   1.568   3.466   0.395
10340SOL    HW131919   1.612   3.551   0.369
10340SOL    HW231920   1.554   3.463   0.494
10341SOL     OW31921   2.123   3.380   2.245
10341SOL    HW131922   2.179   3.439   2.187
10341SOL    HW231923   2.128   3.412   2.340
10342SOL     OW31924   2.045   6.933   4.233
10342SOL    HW131925   1.977   6.978   4.176
10342SOL    HW231926   2.072   6.994   4.308
10343SOL     OW31927   3.328   5.074   6.111
10343SOL    HW131928   3.364   4.987   6.076
10343SOL    HW231929   3.329   5.072   6.211
10344SOL     OW31930   4.532   3.066   0.345
10344SOL    HW131931   4.483   3.051   0.431
10344SOL    HW231932   4.629   3.044   0.356
10345SOL     OW31933   1.897   1.568   6.592
10345SOL    HW131934   1.852   1.653   6.566
10345SOL    HW231935   1.874   1.496   6.526
10346SOL     OW31936   0.467   5.078   1.608
10346SOL    HW131937   0.377   5.121   1.614
10346SOL    HW231938   0.507   5.096   1.518
10347SOL     OW31939   3.721   0.975   2.972
10347SOL    HW131940   3.808   1.005   3.010
10347SOL    HW231941   3.701   1.028   2.889
10348SOL     OW31942   6.578   2.769   6.930
10348SOL    HW131943   6.480   2.768   6.950
10348SOL    HW231944   6.623   2.695   6.979
10349SOL     OW31945   1.598   0.395   0.299
10349SOL    HW131946   1.504   0.426   0.307
10349SOL    HW231947   1.621   0.382   0.203
10350SOL     OW31948   2.486   5.699   5.310
10350SOL    HW131949   2.559   5.636   5.284
10350SOL    HW231950   2.408   5.687   5.248
10351SOL     OW31951   4.270   4.732   6.463
10351SOL    HW131952   4.244   4.784   6.382
10351SOL    HW231953   4.276   4.793   6.542
10352SOL     OW31954   3.531   1.308   6.350
10352SOL    HW131955   3.609   1.244   6.349
10352SOL    HW231956   3.555   1.389   6.296
10353SOL     OW31957   6.732   3.384   5.099
10353SOL    HW131958   6.699   3.422   5.186
10353SOL    HW231959   6.713   3.449   5.025
10354SOL     OW31960   5.698   1.873   2.105
10354SOL    HW131961   5.599   1.881   2.121
10354SOL    HW231962   5.739   1.964   2.107
10355SOL     OW31963   2.378   6.594   1.499
10355SOL    HW131964   2.405   6.684   1.534
10355SOL    HW231965   2.373   6.598   1.399
10356SOL     OW31966   0.511   4.866   4.661
10356SOL    HW131967   0.468   4.941   4.610
10356SOL    HW231968   0.496   4.780   4.613
10357SOL     OW31969   1.465   2.926   6.250
10357SOL    HW131970   1.447   2.923   6.152
10357SOL    HW231971   1.385   2.892   6.300
10358SOL     OW31972   6.761   2.880   3.620
10358SOL    HW131973   6.795   2.903   3.712
10358SOL    HW231974   6.741   2.782   3.617
10359SOL     OW31975   0.729   1.902   1.338
10359SOL    HW131976   0.644   1.925   1.385
10359SOL    HW231977   0.787   1.847   1.398
10360SOL     OW31978   4.460   4.646   3.200
10360SOL    HW131979   4.545   4.698   3.191
10360SOL    HW231980   4.436   4.637   3.296
10361SOL     OW31981   2.418   6.271   3.240
10361SOL    HW131982   2.510   6.249   3.206
10361SOL    HW231983   2.355   6.197   3.215
10362SOL     OW31984   1.410   4.802   4.895
10362SOL    HW131985   1.478   4.867   4.929
10362SOL    HW231986   1.394   4.731   4.963
10363SOL     OW31987   4.494   1.085   2.292
10363SOL    HW131988   4.527   1.090   2.387
10363SOL    HW231989   4.416   1.024   2.287
10364SOL     OW31990   3.231   3.129   1.522
10364SOL    HW131991   3.287   3.158   1.600
10364SOL    HW231992   3.139   3.106   1.553
10365SOL     OW31993   4.030   5.272   6.202
10365SOL    HW131994   4.023   5.173   6.211
10365SOL    HW231995   3.938   5.312   6.205
10366SOL     OW31996   2.754   0.393   4.314
10366SOL    HW131997   2.754   0.294   4.300
10366SOL    HW231998   2.672   0.433   4.271
10367SOL     OW31999   5.982   2.213   2.385
10367SOL    HW132000   5.965   2.178   2.477
10367SOL    HW232001   6.016   2.307   2.390
10368SOL     OW32002   2.121   1.935   1.387
10368SOL    HW132003   2.036   1.892   1.419
10368SOL    HW232004   2.184   1.865   1.355
10369SOL     OW32005   4.362   1.109   6.066
10369SOL    HW132006   4.317   1.157   5.991
10369SOL    HW232007   4.456   1.140   6.074
10370SOL     OW32008   4.820   1.503   5.054
10370SOL    HW132009   4.867   1.499   5.142
10370SOL    HW232010   4.807   1.598   5.027
10371SOL     OW32011   3.700   5.683   4.973
10371SOL    HW132012   3.779   5.697   4.913
10371SOL    HW232013   3.622   5.651   4.918
10372SOL     OW32014   1.573   1.407   6.006
10372SOL    HW132015   1.570   1.384   5.908
10372SOL    HW232016   1.667   1.401   6.038
10373SOL     OW32017   2.247   6.459   4.889
10373SOL    HW132018   2.280   6.510   4.809
10373SOL    HW232019   2.326   6.421   4.938
10374SOL     OW32020   3.431   1.086   2.861
10374SOL    HW132021   3.516   1.099   2.810
10374SOL    HW232022   3.384   1.174   2.872
10375SOL     OW32023   4.107   1.882   6.916
10375SOL    HW132024   4.055   1.956   6.958
10375SOL    HW232025   4.174   1.847   6.981
10376SOL     OW32026   1.162   6.454   3.689
10376SOL    HW132027   1.126   6.366   3.656
10376SOL    HW232028   1.183   6.447   3.786
10377SOL     OW32029   6.615   1.061   3.973
10377SOL    HW132030   6.630   0.995   3.899
10377SOL    HW232031   6.638   1.153   3.941
10378SOL     OW32032   6.525   0.681   5.848
10378SOL    HW132033   6.521   0.589   5.887
10378SOL    HW232034   6.461   0.688   5.771
10379SOL     OW32035   4.491   0.575   4.962
10379SOL    HW132036   4.443   0.617   4.885
10379SOL    HW232037   4.590   0.579   4.946
10380SOL     OW32038   6.466   1.225   3.188
10380SOL    HW132039   6.368   1.235   3.172
10380SOL    HW232040   6.482   1.177   3.274
10381SOL     OW32041   5.000   5.735   5.798
10381SOL    HW132042   5.046   5.808   5.848
10381SOL    HW232043   4.908   5.721   5.835
10382SOL     OW32044   2.597   4.549   6.124
10382SOL    HW132045   2.692   4.521   6.129
10382SOL    HW232046   2.592   4.648   6.109
10383SOL     OW32047   0.860   3.359   0.426
10383SOL    HW132048   0.812   3.446   0.427
10383SOL    HW232049   0.885   3.335   0.332
10384SOL     OW32050   0.505   6.806   0.477
10384SOL    HW132051   0.475   6.729   0.421
10384SOL    HW232052   0.426   6.851   0.518
10385SOL     OW32053   4.945   7.002   6.099
10385SOL    HW132054   4.979   0.049   6.163
10385SOL    HW232055   4.891   0.026   6.028
10386SOL     OW32056   0.048   3.838   5.421
10386SOL    HW132057   6.978   3.862   5.456
10386SOL    HW232058   0.050   3.739   5.402
10387SOL     OW32059   3.248   1.849   2.541
10387SOL    HW132060   3.197   1.912   2.599
10387SOL    HW232061   3.297   1.900   2.471
10388SOL     OW32062   0.853   5.747   4.214
10388SOL    HW132063   0.902   5.696   4.284
10388SOL    HW232064   0.900   5.834   4.197
10389SOL     OW32065   0.566   5.643   2.623
10389SOL    HW132066   0.526   5.629   2.532
10389SOL    HW232067   0.573   5.740   2.642
10390SOL     OW32068   1.608   3.852   2.154
10390SOL    HW132069   1.671   3.922   2.186
10390SOL    HW232070   1.526   3.852   2.210
10391SOL     OW32071   1.239   5.839   6.287
10391SOL    HW132072   1.222   5.929   6.329
10391SOL    HW232073   1.334   5.813   6.303
10392SOL     OW32074   6.549   3.614   0.376
10392SOL    HW132075   6.478   3.630   0.444
10392SOL    HW232076   6.589   3.523   0.390
10393SOL     OW32077   0.436   1.681   3.303
10393SOL    HW132078   0.466   1.649   3.213
10393SOL    HW232079   0.337   1.671   3.312
10394SOL     OW32080   2.714   6.568   6.333
10394SOL    HW132081   2.705   6.488   6.274
10394SOL    HW232082   2.765   6.639   6.285
10395SOL     OW32083   6.657   0.890   4.395
10395SOL    HW132084   6.701   0.949   4.327
10395SOL    HW232085   6.653   0.797   4.360
10396SOL     OW32086   1.067   0.890   3.557
10396SOL    HW132087   0.969   0.906   3.568
10396SOL    HW232088   1.081   0.816   3.490
10397SOL     OW32089   3.689   0.821   3.200
10397SOL    HW132090   3.612   0.758   3.211
10397SOL    HW232091   3.680   0.870   3.113
10398SOL     OW32092   6.433   2.488   0.391
10398SOL    HW132093   6.421   2.492   0.491
10398SOL    HW232094   6.378   2.414   0.354
10399SOL     OW32095   4.373   1.900   5.752
10399SOL    HW132096   4.452   1.839   5.753
10399SOL    HW232097   4.292   1.851   5.782
10400SOL     OW32098   3.225   5.972   3.060
10400SOL    HW132099   3.311   6.016   3.035
10400SOL    HW232100   3.245   5.893   3.119
10401SOL     OW32101   6.182   6.302   2.317
10401SOL    HW132102   6.093   6.274   2.353
10401SOL    HW232103   6.250   6.232   2.338
10402SOL     OW32104   0.305   2.866   5.840
10402SOL    HW132105   0.250   2.932   5.789
10402SOL    HW232106   0.274   2.862   5.935
10403SOL     OW32107   5.105   1.574   2.366
10403SOL    HW132108   5.007   1.572   2.346
10403SOL    HW232109   5.141   1.481   2.367
10404SOL     OW32110   1.183   6.608   4.188
10404SOL    HW132111   1.219   6.702   4.192
10404SOL    HW232112   1.093   6.605   4.230
10405SOL     OW32113   1.597   5.484   5.046
10405SOL    HW132114   1.638   5.540   5.118
10405SOL    HW232115   1.560   5.544   4.975
10406SOL     OW32116   2.026   4.777   5.292
10406SOL    HW132117   2.006   4.689   5.335
10406SOL    HW232118   1.989   4.851   5.348
10407SOL     OW32119   1.260   0.795   6.312
10407SOL    HW132120   1.177   0.849   6.328
10407SOL    HW232121   1.309   0.832   6.232
10408SOL     OW32122   4.710   5.257   3.024
10408SOL    HW132123   4.694   5.310   2.940
10408SOL    HW232124   4.807   5.237   3.033
10409SOL     OW32125   0.236   4.153   1.827
10409SOL    HW132126   0.259   4.102   1.909
10409SOL    HW232127   0.186   4.094   1.764
10410SOL     OW32128   4.796   1.377   1.545
10410SOL    HW132129   4.701   1.404   1.558
10410SOL    HW232130   4.800   1.293   1.490
10411SOL     OW32131   1.740   4.729   3.638
10411SOL    HW132132   1.778   4.821   3.647
10411SOL    HW232133   1.756   4.696   3.545
10412SOL     OW32134   0.679   2.273   6.714
10412SOL    HW132135   0.773   2.303   6.733
10412SOL    HW232136   0.629   2.347   6.669
10413SOL     OW32137   1.042   1.837   0.984
10413SOL    HW132138   1.071   1.910   0.922
10413SOL    HW232139   0.949   1.856   1.015
10414SOL     OW32140   5.198   6.155   6.390
10414SOL    HW132141   5.163   6.246   6.367
10414SOL    HW232142   5.260   6.123   6.318
10415SOL     OW32143   1.138   5.544   3.947
10415SOL    HW132144   1.120   5.473   4.016
10415SOL    HW232145   1.053   5.592   3.926
10416SOL     OW32146   6.684   2.149   5.883
10416SOL    HW132147   6.674   2.051   5.900
10416SOL    HW232148   6.640   2.200   5.957
10417SOL     OW32149   4.097   5.083   2.902
10417SOL    HW132150   4.016   5.052   2.952
10417SOL    HW232151   4.068   5.136   2.822
10418SOL     OW32152   6.545   3.614   5.856
10418SOL    HW132153   6.481   3.686   5.831
10418SOL    HW232154   6.637   3.652   5.864
10419SOL     OW32155   3.134   0.822   5.638
10419SOL    HW132156   3.071   0.856   5.708
10419SOL    HW232157   3.175   0.736   5.668
10420SOL     OW32158   6.479   2.995   2.811
10420SOL    HW132159   6.518   3.033   2.894
10420SOL    HW232160   6.520   2.905   2.793
10421SOL     OW32161   1.345   4.673   3.971
10421SOL    HW132162   1.254   4.632   3.969
10421SOL    HW232163   1.414   4.601   3.968
10422SOL     OW32164   6.504   3.966   5.095
10422SOL    HW132165   6.477   3.907   5.018
10422SOL    HW232166   6.432   4.033   5.112
10423SOL     OW32167   3.638   4.930   4.427
10423SOL    HW132168   3.592   4.855   4.475
10423SOL    HW232169   3.736   4.927   4.445
10424SOL     OW32170   3.808   1.281   6.862
10424SOL    HW132171   3.853   1.201   6.901
10424SOL    HW232172   3.736   1.252   6.799
10425SOL     OW32173   1.371   0.081   1.261
10425SOL    HW132174   1.424   0.013   1.312
10425SOL    HW232175   1.414   0.171   1.271
10426SOL     OW32176   5.137   2.780   5.453
10426SOL    HW132177   5.186   2.699   5.422
10426SOL    HW232178   5.128   2.845   5.377
10427SOL     OW32179   4.786   5.656   5.107
10427SOL    HW132180   4.865   5.717   5.116
10427SOL    HW232181   4.754   5.658   5.013
10428SOL     OW32182   1.799   1.590   3.289
10428SOL    HW132183   1.798   1.679   3.242
10428SOL    HW232184   1.764   1.601   3.382
10429SOL     OW32185   0.989   3.310   2.549
10429SOL    HW132186   0.899   3.314   2.593
10429SOL    HW232187   1.046   3.243   2.598
10430SOL     OW32188   3.962   6.084   3.931
10430SOL    HW132189   3.960   6.113   3.835
10430SOL    HW232190   3.965   5.985   3.936
10431SOL     OW32191   2.499   1.703   4.603
10431SOL    HW132192   2.573   1.770   4.609
10431SOL    HW232193   2.431   1.735   4.536
10432SOL     OW32194   0.074   0.108   5.626
10432SOL    HW132195   0.055   0.200   5.590
10432SOL    HW232196   0.166   0.106   5.665
10433SOL     OW32197   2.102   0.070   1.486
10433SOL    HW132198   2.048   7.012   1.517
10433SOL    HW232199   2.045   0.130   1.430
10434SOL     OW32200   4.800   0.600   6.069
10434SOL    HW132201   4.868   0.641   6.129
10434SOL    HW232202   4.772   0.512   6.106
10435SOL     OW32203   0.892   2.093   6.203
10435SOL    HW132204   0.816   2.156   6.186
10435SOL    HW232205   0.975   2.145   6.220
10436SOL     OW32206   0.175   3.967   5.635
10436SOL    HW132207   0.112   4.034   5.675
10436SOL    HW232208   0.139   3.935   5.548
10437SOL     OW32209   4.764   5.297   5.110
10437SOL    HW132210   4.817   5.236   5.050
10437SOL    HW232211   4.822   5.327   5.186
10438SOL     OW32212   6.774   6.401   6.598
10438SOL    HW132213   6.835   6.480   6.592
10438SOL    HW232214   6.827   6.321   6.625
10439SOL     OW32215   6.653   0.643   4.299
10439SOL    HW132216   6.673   0.580   4.225
10439SOL    HW232217   6.652   0.594   4.386
10440SOL     OW32218   0.582   1.363   6.876
10440SOL    HW132219   0.666   1.352   6.931
10440SOL    HW232220   0.518   1.289   6.899
10441SOL     OW32221   3.193   1.395   0.917
10441SOL    HW132222   3.283   1.438   0.923
10441SOL    HW232223   3.189   1.315   0.977
10442SOL     OW32224   2.908   0.968   5.552
10442SOL    HW132225   2.867   1.019   5.476
10442SOL    HW232226   2.898   0.870   5.536
10443SOL     OW32227   0.172   1.716   3.714
10443SOL    HW132228   0.113   1.659   3.657
10443SOL    HW232229   0.184   1.805   3.670
10444SOL     OW32230   3.564   5.408   3.619
10444SOL    HW132231   3.649   5.450   3.650
10444SOL    HW232232   3.521   5.360   3.696
10445SOL     OW32233   1.391   3.918   2.300
10445SOL    HW132234   1.315   3.979   2.275
10445SOL    HW232235   1.354   3.833   2.338
10446SOL     OW32236   1.936   3.894   5.306
10446SOL    HW132237   2.032   3.899   5.335
10446SOL    HW232238   1.923   3.818   5.243
10447SOL     OW32239   6.366   2.268   3.167
10447SOL    HW132240   6.438   2.219   3.216
10447SOL    HW232241   6.325   2.207   3.099
10448SOL     OW32242   2.437   0.319   3.123
10448SOL    HW132243   2.422   0.345   3.219
10448SOL    HW232244   2.399   0.388   3.063
10449SOL     OW32245   3.440   5.797   6.729
10449SOL    HW132246   3.474   5.756   6.644
10449SOL    HW232247   3.344   5.772   6.743
10450SOL     OW32248   6.501   0.409   5.919
10450SOL    HW132249   6.470   0.353   5.841
10450SOL    HW232250   6.584   0.369   5.958
10451SOL     OW32251   1.814   0.822   4.405
10451SOL    HW132252   1.726   0.792   4.368
10451SOL    HW232253   1.818   0.922   4.405
10452SOL     OW32254   6.868   3.586   3.581
10452SOL    HW132255   6.808   3.636   3.518
10452SOL    HW232256   6.896   3.500   3.538
10453SOL     OW32257   4.326   6.063   3.421
10453SOL    HW132258   4.402   6.125   3.440
10453SOL    HW232259   4.314   6.000   3.497
10454SOL     OW32260   6.625   1.587   6.736
10454SOL    HW132261   6.553   1.553   6.676
10454SOL    HW232262   6.660   1.674   6.701
10455SOL     OW32263   6.160   6.415   4.373
10455SOL    HW132264   6.214   6.424   4.457
10455SOL    HW232265   6.121   6.504   4.349
10456SOL     OW32266   6.631   5.415   7.008
10456SOL    HW132267   6.531   5.411   7.009
10456SOL    HW232268   6.662   5.481   0.056
10457SOL     OW32269   3.894   2.864   6.993
10457SOL    HW132270   3.892   2.765   6.998
10457SOL    HW232271   3.844   2.895   6.912
10458SOL     OW32272   6.805   0.162   6.375
10458SOL    HW132273   6.769   0.146   6.284
10458SOL    HW232274   6.782   0.084   6.434
10459SOL     OW32275   6.839   5.273   0.375
10459SOL    HW132276   6.777   5.198   0.399
10459SOL    HW232277   6.820   5.352   0.433
10460SOL     OW32278   0.110   4.164   1.345
10460SOL    HW132279   0.127   4.263   1.344
10460SOL    HW232280   0.011   4.147   1.340
10461SOL     OW32281   6.663   4.815   5.146
10461SOL    HW132282   6.763   4.812   5.150
10461SOL    HW232283   6.627   4.722   5.139
10462SOL     OW32284   5.101   1.848   1.508
10462SOL    HW132285   5.068   1.821   1.599
10462SOL    HW232286   5.063   1.937   1.483
10463SOL     OW32287   4.538   2.618   6.292
10463SOL    HW132288   4.610   2.577   6.236
10463SOL    HW232289   4.546   2.584   6.386
10464SOL     OW32290   5.347   5.264   2.604
10464SOL    HW132291   5.332   5.216   2.690
10464SOL    HW232292   5.258   5.280   2.559
10465SOL     OW32293   5.035   3.897   2.450
10465SOL    HW132294   4.999   3.805   2.434
10465SOL    HW232295   5.117   3.911   2.394
10466SOL     OW32296   5.756   4.485   5.942
10466SOL    HW132297   5.784   4.436   6.024
10466SOL    HW232298   5.685   4.552   5.965
10467SOL     OW32299   1.999   2.634   6.813
10467SOL    HW132300   2.044   2.665   6.897
10467SOL    HW232301   2.002   2.707   6.745
10468SOL     OW32302   2.648   4.620   3.622
10468SOL    HW132303   2.708   4.674   3.564
10468SOL    HW232304   2.681   4.623   3.716
10469SOL     OW32305   5.692   2.294   5.694
10469SOL    HW132306   5.784   2.321   5.665
10469SOL    HW232307   5.697   2.206   5.742
10470SOL     OW32308   2.205   2.240   4.271
10470SOL    HW132309   2.210   2.149   4.229
10470SOL    HW232310   2.226   2.309   4.203
10471SOL     OW32311   2.566   0.645   0.322
10471SOL    HW132312   2.618   0.663   0.406
10471SOL    HW232313   2.615   0.579   0.265
10472SOL     OW32314   3.355   4.468   0.693
10472SOL    HW132315   3.263   4.493   0.722
10472SOL    HW232316   3.419   4.541   0.717
10473SOL     OW32317   5.362   6.068   6.205
10473SOL    HW132318   5.431   6.117   6.152
10473SOL    HW232319   5.360   5.972   6.176
10474SOL     OW32320   5.389   1.044   3.748
10474SOL    HW132321   5.375   1.142   3.732
10474SOL    HW232322   5.365   1.023   3.843
10475SOL     OW32323   2.218   6.073   1.986
10475SOL    HW132324   2.314   6.099   1.988
10475SOL    HW232325   2.209   5.974   1.978
10476SOL     OW32326   4.152   5.974   6.194
10476SOL    HW132327   4.066   5.930   6.219
10476SOL    HW232328   4.227   5.907   6.201
10477SOL     OW32329   0.126   6.155   4.110
10477SOL    HW132330   0.069   6.155   4.027
10477SOL    HW232331   0.223   6.158   4.083
10478SOL     OW32332   5.997   6.859   0.015
10478SOL    HW132333   6.036   6.934   0.070
10478SOL    HW232334   5.947   6.797   0.075
10479SOL     OW32335   6.780   3.019   2.388
10479SOL    HW132336   6.707   3.086   2.371
10479SOL    HW232337   6.866   3.055   2.353
10480SOL     OW32338   1.682   0.377   2.413
10480SOL    HW132339   1.721   0.382   2.321
10480SOL    HW232340   1.672   0.469   2.450
10481SOL     OW32341   0.763   6.835   2.904
10481SOL    HW132342   0.666   6.828   2.881
10481SOL    HW232343   0.804   6.911   2.853
10482SOL     OW32344   6.092   4.551   4.572
10482SOL    HW132345   6.170   4.505   4.528
10482SOL    HW232346   6.105   4.550   4.671
10483SOL     OW32347   5.789   5.370   6.987
10483SOL    HW132348   5.865   5.347   0.028
10483SOL    HW232349   5.824   5.377   6.893
10484SOL     OW32350   5.344   1.210   0.991
10484SOL    HW132351   5.414   1.209   1.063
10484SOL    HW232352   5.255   1.192   1.032
10485SOL     OW32353   4.100   4.560   6.253
10485SOL    HW132354   4.032   4.486   6.250
10485SOL    HW232355   4.163   4.544   6.329
10486SOL     OW32356   6.543   2.456   0.663
10486SOL    HW132357   6.560   2.553   0.679
10486SOL    HW232358   6.606   2.402   0.718
10487SOL     OW32359   5.726   6.887   1.856
10487SOL    HW132360   5.815   6.915   1.891
10487SOL    HW232361   5.713   6.922   1.764
10488SOL     OW32362   2.604   3.291   6.588
10488SOL    HW132363   2.563   3.228   6.654
10488SOL    HW232364   2.699   3.265   6.572
10489SOL     OW32365   0.546   6.806   6.019
10489SOL    HW132366   0.446   6.801   6.019
10489SOL    HW232367   0.582   6.754   5.942
10490SOL     OW32368   6.201   1.453   2.890
10490SOL    HW132369   6.214   1.369   2.838
10490SOL    HW232370   6.280   1.512   2.880
10491SOL     OW32371   1.551   3.464   6.520
10491SOL    HW132372   1.491   3.505   6.589
10491SOL    HW232373   1.642   3.450   6.560
10492SOL     OW32374   4.878   3.818   5.489
10492SOL    HW132375   4.824   3.734   5.501
10492SOL    HW232376   4.850   3.863   5.404
10493SOL     OW32377   3.397   0.611   1.369
10493SOL    HW132378   3.338   0.566   1.437
10493SOL    HW232379   3.473   0.656   1.416
10494SOL     OW32380   5.633   2.216   4.875
10494SOL    HW132381   5.621   2.313   4.854
10494SOL    HW232382   5.729   2.190   4.860
10495SOL     OW32383   1.205   6.833   0.926
10495SOL    HW132384   1.239   6.866   0.838
10495SOL    HW232385   1.275   6.848   0.996
10496SOL     OW32386   0.154   6.681   0.286
10496SOL    HW132387   0.241   6.639   0.263
10496SOL    HW232388   0.136   6.670   0.384
10497SOL     OW32389   1.919   0.234   1.064
10497SOL    HW132390   1.910   0.327   1.100
10497SOL    HW232391   1.862   0.225   0.982
10498SOL     OW32392   2.617   6.595   0.344
10498SOL    HW132393   2.668   6.534   0.404
10498SOL    HW232394   2.651   6.585   0.250
10499SOL     OW32395   2.657   6.424   2.735
10499SOL    HW132396   2.654   6.498   2.668
10499SOL    HW232397   2.725   6.445   2.805
10500SOL     OW32398   0.571   0.889   5.577
10500SOL    HW132399   0.543   0.974   5.622
10500SOL    HW232400   0.659   0.859   5.614
10501SOL     OW32401   1.787   5.312   3.345
10501SOL    HW132402   1.826   5.222   3.324
10501SOL    HW232403   1.848   5.383   3.311
10502SOL     OW32404   3.298   6.472   1.189
10502SOL    HW132405   3.247   6.477   1.103
10502SOL    HW232406   3.382   6.421   1.174
10503SOL     OW32407   4.509   2.682   0.541
10503SOL    HW132408   4.463   2.657   0.626
10503SOL    HW232409   4.548   2.600   0.498
10504SOL     OW32410   1.631   2.611   0.500
10504SOL    HW132411   1.636   2.664   0.585
10504SOL    HW232412   1.620   2.673   0.423
10505SOL     OW32413   5.839   6.180   0.652
10505SOL    HW132414   5.803   6.273   0.638
10505SOL    HW232415   5.837   6.131   0.565
10506SOL     OW32416   0.491   4.989   6.201
10506SOL    HW132417   0.422   4.930   6.242
10506SOL    HW232418   0.524   5.055   6.268
10507SOL     OW32419   2.208   6.766   0.538
10507SOL    HW132420   2.211   6.755   0.638
10507SOL    HW232421   2.184   6.861   0.517
10508SOL     OW32422   5.855   5.812   4.008
10508SOL    HW132423   5.867   5.740   3.940
10508SOL    HW232424   5.936   5.871   4.009
10509SOL     OW32425   0.984   6.644   6.186
10509SOL    HW132426   1.002   6.661   6.090
10509SOL    HW232427   0.894   6.680   6.211
10510SOL     OW32428   5.961   4.951   5.926
10510SOL    HW132429   5.871   4.939   5.885
10510SOL    HW232430   6.029   4.901   5.873
10511SOL     OW32431   4.588   2.899   0.740
10511SOL    HW132432   4.684   2.895   0.768
10511SOL    HW232433   4.530   2.882   0.819
10512SOL     OW32434   3.733   1.136   6.567
10512SOL    HW132435   3.810   1.200   6.558
10512SOL    HW232436   3.755   1.051   6.519
10513SOL     OW32437   6.882   2.396   6.015
10513SOL    HW132438   6.959   2.421   5.957
10513SOL    HW232439   6.915   2.339   6.091
10514SOL     OW32440   6.583   3.870   0.351
10514SOL    HW132441   6.582   3.770   0.346
10514SOL    HW232442   6.542   3.907   0.267
10515SOL     OW32443   5.967   2.806   2.902
10515SOL    HW132444   5.905   2.884   2.895
10515SOL    HW232445   5.915   2.724   2.925
10516SOL     OW32446   4.870   1.007   6.544
10516SOL    HW132447   4.920   0.928   6.580
10516SOL    HW232448   4.908   1.091   6.583
10517SOL     OW32449   0.901   2.221   2.210
10517SOL    HW132450   0.963   2.289   2.172
10517SOL    HW232451   0.850   2.261   2.286
10518SOL     OW32452   0.710   5.140   0.019
10518SOL    HW132453   0.682   5.219   0.073
10518SOL    HW232454   0.631   5.101   6.994
10519SOL     OW32455   3.336   2.454   5.641
10519SOL    HW132456   3.344   2.438   5.739
10519SOL    HW232457   3.269   2.526   5.625
10520SOL     OW32458   2.343   2.710   6.669
10520SOL    HW132459   2.392   2.721   6.756
10520SOL    HW232460   2.378   2.629   6.621
10521SOL     OW32461   6.334   5.745   1.441
10521SOL    HW132462   6.361   5.841   1.452
10521SOL    HW232463   6.389   5.703   1.369
10522SOL     OW32464   6.196   0.424   0.422
10522SOL    HW132465   6.289   0.455   0.443
10522SOL    HW232466   6.167   0.464   0.335
10523SOL     OW32467   0.394   6.208   4.533
10523SOL    HW132468   0.371   6.240   4.442
10523SOL    HW232469   0.418   6.110   4.530
10524SOL     OW32470   1.869   0.886   5.384
10524SOL    HW132471   1.906   0.797   5.355
10524SOL    HW232472   1.813   0.924   5.310
10525SOL     OW32473   2.861   6.562   5.617
10525SOL    HW132474   2.869   6.476   5.667
10525SOL    HW232475   2.783   6.558   5.554
10526SOL     OW32476   0.425   0.240   2.617
10526SOL    HW132477   0.389   0.155   2.579
10526SOL    HW232478   0.378   0.318   2.575
10527SOL     OW32479   1.211   3.037   4.048
10527SOL    HW132480   1.267   2.976   3.992
10527SOL    HW232481   1.259   3.057   4.134
10528SOL     OW32482   1.379   3.798   5.249
10528SOL    HW132483   1.379   3.798   5.149
10528SOL    HW232484   1.358   3.889   5.283
10529SOL     OW32485   1.126   6.007   2.763
10529SOL    HW132486   1.085   6.011   2.672
10529SOL    HW232487   1.131   6.099   2.802
10530SOL     OW32488   1.952   1.161   6.407
10530SOL    HW132489   2.024   1.196   6.347
10530SOL    HW232490   1.929   1.067   6.381
10531SOL     OW32491   2.066   3.499   4.452
10531SOL    HW132492   2.044   3.404   4.477
10531SOL    HW232493   2.080   3.504   4.353
10532SOL     OW32494   2.336   3.164   0.513
10532SOL    HW132495   2.380   3.090   0.566
10532SOL    HW232496   2.288   3.225   0.576
10533SOL     OW32497   3.130   1.412   4.244
10533SOL    HW132498   3.178   1.407   4.332
10533SOL    HW232499   3.039   1.451   4.258
10534SOL     OW32500   0.045   5.739   0.774
10534SOL    HW132501   7.005   5.671   0.813
10534SOL    HW232502   0.135   5.698   0.758
10535SOL     OW32503   0.474   2.459   2.139
10535SOL    HW132504   0.444   2.408   2.220
10535SOL    HW232505   0.420   2.542   2.129
10536SOL     OW32506   3.677   0.189   2.807
10536SOL    HW132507   3.759   0.235   2.839
10536SOL    HW232508   3.685   0.090   2.823
10537SOL     OW32509   3.388   5.567   3.454
10537SOL    HW132510   3.454   5.526   3.518
10537SOL    HW232511   3.353   5.496   3.392
10538SOL     OW32512   4.635   2.941   6.616
10538SOL    HW132513   4.725   2.904   6.639
10538SOL    HW232514   4.634   2.970   6.520
10539SOL     OW32515   0.739   4.161   6.469
10539SOL    HW132516   0.808   4.089   6.465
10539SOL    HW232517   0.731   4.205   6.379
10540SOL     OW32518   1.353   0.890   6.070
10540SOL    HW132519   1.302   0.898   5.984
10540SOL    HW232520   1.399   0.977   6.090
10541SOL     OW32521   3.514   3.814   1.692
10541SOL    HW132522   3.461   3.837   1.610
10541SOL    HW232523   3.542   3.898   1.738
10542SOL     OW32524   6.971   1.214   0.632
10542SOL    HW132525   6.966   1.205   0.532
10542SOL    HW232526   6.967   1.311   0.656
10543SOL     OW32527   0.075   1.381   5.114
10543SOL    HW132528   7.021   1.409   5.173
10543SOL    HW232529   0.046   1.386   5.018
10544SOL     OW32530   2.222   1.095   2.909
10544SOL    HW132531   2.165   1.075   2.989
10544SOL    HW232532   2.208   1.024   2.840
10545SOL     OW32533   6.848   6.771   2.803
10545SOL    HW132534   6.761   6.756   2.850
10545SOL    HW232535   6.846   6.858   2.755
10546SOL     OW32536   1.126   0.794   5.300
10546SOL    HW132537   1.225   0.790   5.285
10546SOL    HW232538   1.079   0.755   5.221
10547SOL     OW32539   4.625   1.430   2.241
10547SOL    HW132540   4.567   1.479   2.307
10547SOL    HW232541   4.608   1.332   2.248
10548SOL     OW32542   5.241   3.716   5.047
10548SOL    HW132543   5.154   3.755   5.016
10548SOL    HW232544   5.248   3.622   5.014
10549SOL     OW32545   6.641   0.396   2.393
10549SOL    HW132546   6.642   0.495   2.412
10549SOL    HW232547   6.630   0.381   2.295
10550SOL     OW32548   4.664   6.587   4.238
10550SOL    HW132549   4.620   6.636   4.314
10550SOL    HW232550   4.654   6.640   4.154
10551SOL     OW32551   1.744   2.357   5.166
10551SOL    HW132552   1.652   2.375   5.201
10551SOL    HW232553   1.803   2.331   5.242
10552SOL     OW32554   3.576   2.069   5.335
10552SOL    HW132555   3.486   2.107   5.310
10552SOL    HW232556   3.587   1.979   5.293
10553SOL     OW32557   1.099   4.975   1.338
10553SOL    HW132558   1.061   4.882   1.334
10553SOL    HW232559   1.181   4.975   1.394
10554SOL     OW32560   5.444   4.696   6.617
10554SOL    HW132561   5.368   4.756   6.592
10554SOL    HW232562   5.408   4.613   6.660
10555SOL     OW32563   2.862   2.123   1.575
10555SOL    HW132564   2.915   2.073   1.507
10555SOL    HW232565   2.820   2.203   1.533
10556SOL     OW32566   1.948   3.064   4.996
10556SOL    HW132567   1.905   3.040   5.083
10556SOL    HW232568   2.014   3.137   5.010
10557SOL     OW32569   1.148   2.467   3.281
10557SOL    HW132570   1.166   2.426   3.370
10557SOL    HW232571   1.146   2.567   3.290
10558SOL     OW32572   4.199   0.138   5.026
10558SOL    HW132573   4.169   0.043   5.014
10558SOL    HW232574   4.140   0.198   4.971
10559SOL     OW32575   4.155   1.114   0.990
10559SOL    HW132576   4.118   1.032   0.946
10559SOL    HW232577   4.114   1.195   0.949
10560SOL     OW32578   2.376   5.558   4.625
10560SOL    HW132579   2.372   5.472   4.574
10560SOL    HW232580   2.311   5.623   4.587
10561SOL     OW32581   2.074   4.982   0.173
10561SOL    HW132582   2.143   4.920   0.137
10561SOL    HW232583   2.024   5.025   0.097
10562SOL     OW32584   4.866   0.175   0.555
10562SOL    HW132585   4.861   0.112   0.477
10562SOL    HW232586   4.949   0.230   0.548
10563SOL     OW32587   1.972   1.172   4.705
10563SOL    HW132588   1.955   1.252   4.647
10563SOL    HW232589   2.060   1.131   4.680
10564SOL     OW32590   5.896   0.494   1.952
10564SOL    HW132591   5.933   0.401   1.958
10564SOL    HW232592   5.799   0.490   1.930
10565SOL     OW32593   0.963   0.655   5.458
10565SOL    HW132594   0.925   0.726   5.517
10565SOL    HW232595   1.050   0.687   5.419
10566SOL     OW32596   4.195   3.646   6.753
10566SOL    HW132597   4.206   3.547   6.764
10566SOL    HW232598   4.109   3.674   6.795
10567SOL     OW32599   2.149   3.476   3.914
10567SOL    HW132600   2.154   3.389   3.864
10567SOL    HW232601   2.238   3.521   3.911
10568SOL     OW32602   5.467   1.233   1.852
10568SOL    HW132603   5.429   1.317   1.892
10568SOL    HW232604   5.547   1.204   1.905
10569SOL     OW32605   6.619   3.199   2.319
10569SOL    HW132606   6.626   3.297   2.336
10569SOL    HW232607   6.525   3.176   2.294
10570SOL     OW32608   1.433   4.988   2.656
10570SOL    HW132609   1.354   4.960   2.710
10570SOL    HW232610   1.498   4.911   2.650
10571SOL     OW32611   6.807   5.590   4.010
10571SOL    HW132612   6.807   5.597   4.110
10571SOL    HW232613   6.784   5.496   3.983
10572SOL     OW32614   6.032   3.609   3.223
10572SOL    HW132615   6.013   3.513   3.241
10572SOL    HW232616   6.047   3.624   3.126
10573SOL     OW32617   5.573   6.326   2.997
10573SOL    HW132618   5.590   6.423   2.983
10573SOL    HW232619   5.653   6.273   2.969
10574SOL     OW32620   1.528   1.753   3.792
10574SOL    HW132621   1.433   1.741   3.818
10574SOL    HW232622   1.586   1.698   3.853
10575SOL     OW32623   0.417   0.759   4.106
10575SOL    HW132624   0.355   0.692   4.066
10575SOL    HW232625   0.462   0.719   4.186
10576SOL     OW32626   0.958   6.674   4.780
10576SOL    HW132627   0.886   6.625   4.830
10576SOL    HW232628   1.019   6.607   4.737
10577SOL     OW32629   0.997   3.128   6.603
10577SOL    HW132630   0.985   3.032   6.630
10577SOL    HW232631   1.062   3.133   6.527
10578SOL     OW32632   6.243   0.710   4.344
10578SOL    HW132633   6.276   0.643   4.278
10578SOL    HW232634   6.208   0.790   4.296
10579SOL     OW32635   4.133   1.646   0.589
10579SOL    HW132636   4.059   1.590   0.551
10579SOL    HW232637   4.213   1.588   0.604
10580SOL     OW32638   6.313   6.409   0.246
10580SOL    HW132639   6.359   6.371   0.166
10580SOL    HW232640   6.336   6.354   0.327
10581SOL     OW32641   6.018   0.126   2.626
10581SOL    HW132642   5.920   0.111   2.636
10581SOL    HW232643   6.042   0.217   2.659
10582SOL     OW32644   3.613   4.645   6.186
10582SOL    HW132645   3.649   4.555   6.161
10582SOL    HW232646   3.622   4.658   6.285
10583SOL     OW32647   4.180   0.925   6.594
10583SOL    HW132648   4.262   0.892   6.549
10583SOL    HW232649   4.111   0.949   6.526
10584SOL     OW32650   5.474   6.565   1.415
10584SOL    HW132651   5.519   6.479   1.389
10584SOL    HW232652   5.401   6.546   1.481
10585SOL     OW32653   1.692   2.975   5.870
10585SOL    HW132654   1.747   2.897   5.840
10585SOL    HW232655   1.616   2.943   5.926
10586SOL     OW32656   1.550   5.952   5.842
10586SOL    HW132657   1.570   5.942   5.745
10586SOL    HW232658   1.492   6.032   5.857
10587SOL     OW32659   5.756   3.260   0.124
10587SOL    HW132660   5.676   3.277   0.181
10587SOL    HW232661   5.801   3.347   0.102
10588SOL     OW32662   1.390   4.149   2.105
10588SOL    HW132663   1.447   4.207   2.162
10588SOL    HW232664   1.308   4.123   2.156
10589SOL     OW32665   5.406   1.571   4.478
10589SOL    HW132666   5.366   1.634   4.544
10589SOL    HW232667   5.382   1.477   4.502
10590SOL     OW32668   1.305   0.219   2.122
10590SOL    HW132669   1.261   0.134   2.096
10590SOL    HW232670   1.400   0.219   2.090
10591SOL     OW32671   1.201   1.625   5.546
10591SOL    HW132672   1.220   1.692   5.475
10591SOL    HW232673   1.102   1.614   5.557
10592SOL     OW32674   4.997   2.280   0.385
10592SOL    HW132675   4.970   2.362   0.334
10592SOL    HW232676   4.949   2.278   0.472
10593SOL     OW32677   2.744   5.410   0.742
10593SOL    HW132678   2.653   5.452   0.741
10593SOL    HW232679   2.789   5.434   0.828
10594SOL     OW32680   5.668   2.191   3.800
10594SOL    HW132681   5.617   2.232   3.876
10594SOL    HW232682   5.757   2.159   3.833
10595SOL     OW32683   3.173   6.831   5.745
10595SOL    HW132684   3.155   6.746   5.695
10595SOL    HW232685   3.101   6.846   5.812
10596SOL     OW32686   4.131   6.887   1.736
10596SOL    HW132687   4.182   6.920   1.815
10596SOL    HW232688   4.079   6.963   1.696
10597SOL     OW32689   2.793   1.301   4.419
10597SOL    HW132690   2.719   1.251   4.374
10597SOL    HW232691   2.764   1.395   4.437
10598SOL     OW32692   2.452   1.975   6.820
10598SOL    HW132693   2.382   1.926   6.870
10598SOL    HW232694   2.540   1.967   6.868
10599SOL     OW32695   5.584   1.010   0.313
10599SOL    HW132696   5.516   0.945   0.281
10599SOL    HW232697   5.556   1.103   0.288
10600SOL     OW32698   2.030   3.082   6.869
10600SOL    HW132699   2.063   3.006   6.813
10600SOL    HW232700   2.040   3.059   6.966
10601SOL     OW32701   2.562   5.011   6.204
10601SOL    HW132702   2.633   4.969   6.260
10601SOL    HW232703   2.487   4.945   6.190
10602SOL     OW32704   5.305   1.708   2.142
10602SOL    HW132705   5.220   1.657   2.130
10602SOL    HW232706   5.292   1.802   2.113
10603SOL     OW32707   1.855   6.277   3.447
10603SOL    HW132708   1.882   6.181   3.439
10603SOL    HW232709   1.937   6.334   3.454
10604SOL     OW32710   5.686   4.405   4.321
10604SOL    HW132711   5.661   4.400   4.225
10604SOL    HW232712   5.785   4.407   4.330
10605SOL     OW32713   0.543   5.478   6.677
10605SOL    HW132714   0.628   5.480   6.731
10605SOL    HW232715   0.521   5.384   6.653
10606SOL     OW32716   6.235   0.530   1.796
10606SOL    HW132717   6.299   0.565   1.727
10606SOL    HW232718   6.165   0.598   1.814
10607SOL     OW32719   3.958   4.103   6.028
10607SOL    HW132720   3.881   4.070   5.973
10607SOL    HW232721   4.044   4.086   5.980
10608SOL     OW32722   5.915   2.167   4.859
10608SOL    HW132723   5.892   2.144   4.954
10608SOL    HW232724   5.972   2.094   4.820
10609SOL     OW32725   3.389   5.337   1.161
10609SOL    HW132726   3.439   5.413   1.120
10609SOL    HW232727   3.361   5.273   1.090
10610SOL     OW32728   1.009   4.347   0.112
10610SOL    HW132729   1.005   4.446   0.125
10610SOL    HW232730   1.082   4.325   0.047
10611SOL     OW32731   5.487   3.331   0.008
10611SOL    HW132732   5.531   3.337   6.939
10611SOL    HW232733   5.499   3.238   0.044
10612SOL     OW32734   2.401   6.614   6.248
10612SOL    HW132735   2.491   6.572   6.246
10612SOL    HW232736   2.410   6.713   6.251
10613SOL     OW32737   0.095   6.898   6.160
10613SOL    HW132738   0.016   6.878   6.102
10613SOL    HW232739   0.065   6.908   6.255
10614SOL     OW32740   6.980   1.369   4.010
10614SOL    HW132741   6.986   1.357   3.911
10614SOL    HW232742   7.004   1.463   4.034
10615SOL     OW32743   3.994   5.530   5.242
10615SOL    HW132744   3.904   5.490   5.260
10615SOL    HW232745   4.027   5.576   5.324
10616SOL     OW32746   3.253   6.626   0.302
10616SOL    HW132747   3.255   6.557   0.229
10616SOL    HW232748   3.182   6.694   0.282
10617SOL     OW32749   2.150   2.180   1.000
10617SOL    HW132750   2.123   2.158   0.906
10617SOL    HW232751   2.070   2.174   1.060
10618SOL     OW32752   6.700   2.617   0.409
10618SOL    HW132753   6.611   2.586   0.440
10618SOL    HW232754   6.692   2.661   0.320
10619SOL     OW32755   0.664   3.850   2.568
10619SOL    HW132756   0.739   3.894   2.616
10619SOL    HW232757   0.583   3.847   2.627
10620SOL     OW32758   1.159   5.515   5.609
10620SOL    HW132759   1.098   5.557   5.675
10620SOL    HW232760   1.229   5.462   5.657
10621SOL     OW32761   1.587   5.578   0.199
10621SOL    HW132762   1.582   5.482   0.226
10621SOL    HW232763   1.595   5.635   0.281
10622SOL     OW32764   4.182   0.984   2.137
10622SOL    HW132765   4.124   0.905   2.117
10622SOL    HW232766   4.245   0.999   2.061
10623SOL     OW32767   5.671   2.689   3.880
10623SOL    HW132768   5.654   2.624   3.954
10623SOL    HW232769   5.597   2.683   3.813
10624SOL     OW32770   0.886   1.214   5.331
10624SOL    HW132771   0.859   1.235   5.236
10624SOL    HW232772   0.817   1.156   5.373
10625SOL     OW32773   0.678   4.464   6.953
10625SOL    HW132774   0.691   4.513   6.867
10625SOL    HW232775   0.766   4.447   6.996
10626SOL     OW32776   1.249   2.244   1.573
10626SOL    HW132777   1.213   2.333   1.599
10626SOL    HW232778   1.174   2.179   1.562
10627SOL     OW32779   6.469   6.308   2.716
10627SOL    HW132780   6.543   6.300   2.650
10627SOL    HW232781   6.490   6.379   2.782
10628SOL     OW32782   5.802   5.513   5.293
10628SOL    HW132783   5.793   5.489   5.390
10628SOL    HW232784   5.783   5.610   5.280
10629SOL     OW32785   2.458   4.214   5.885
10629SOL    HW132786   2.366   4.228   5.846
10629SOL    HW232787   2.495   4.301   5.915
10630SOL     OW32788   6.211   0.692   3.633
10630SOL    HW132789   6.256   0.610   3.596
10630SOL    HW232790   6.133   0.663   3.689
10631SOL     OW32791   1.271   6.233   4.279
10631SOL    HW132792   1.319   6.317   4.251
10631SOL    HW232793   1.291   6.160   4.213
10632SOL     OW32794   6.083   2.354   4.442
10632SOL    HW132795   6.013   2.380   4.509
10632SOL    HW232796   6.161   2.314   4.490
10633SOL     OW32797   2.682   4.392   1.293
10633SOL    HW132798   2.737   4.335   1.354
10633SOL    HW232799   2.622   4.334   1.239
10634SOL     OW32800   2.801   5.542   0.186
10634SOL    HW132801   2.804   5.642   0.189
10634SOL    HW232802   2.824   5.506   0.276
10635SOL     OW32803   3.100   0.888   1.161
10635SOL    HW132804   3.175   0.827   1.135
10635SOL    HW232805   3.031   0.836   1.211
10636SOL     OW32806   0.595   1.925   1.862
10636SOL    HW132807   0.589   2.015   1.904
10636SOL    HW232808   0.683   1.883   1.885
10637SOL     OW32809   3.599   4.046   5.510
10637SOL    HW132810   3.538   4.034   5.589
10637SOL    HW232811   3.690   4.073   5.542
10638SOL     OW32812   0.556   6.758   3.579
10638SOL    HW132813   0.552   6.769   3.679
10638SOL    HW232814   0.476   6.800   3.538
10639SOL     OW32815   0.960   1.613   3.820
10639SOL    HW132816   0.945   1.711   3.817
10639SOL    HW232817   1.056   1.594   3.844
10640SOL     OW32818   4.472   0.308   6.753
10640SOL    HW132819   4.381   0.274   6.775
10640SOL    HW232820   4.520   0.242   6.695
10641SOL     OW32821   4.604   1.562   0.264
10641SOL    HW132822   4.702   1.551   0.283
10641SOL    HW232823   4.585   1.658   0.243
10642SOL     OW32824   0.467   2.270   1.300
10642SOL    HW132825   0.371   2.242   1.300
10642SOL    HW232826   0.474   2.365   1.269
10643SOL     OW32827   2.344   3.920   5.899
10643SOL    HW132828   2.365   3.991   5.832
10643SOL    HW232829   2.273   3.954   5.962
10644SOL     OW32830   4.469   1.764   4.303
10644SOL    HW132831   4.399   1.721   4.245
10644SOL    HW232832   4.549   1.787   4.247
10645SOL     OW32833   0.919   1.175   4.323
10645SOL    HW132834   0.882   1.084   4.345
10645SOL    HW232835   1.008   1.186   4.366
10646SOL     OW32836   0.613   2.091   5.922
10646SOL    HW132837   0.524   2.126   5.952
10646SOL    HW232838   0.683   2.162   5.937
10647SOL     OW32839   5.769   5.315   6.496
10647SOL    HW132840   5.829   5.237   6.474
10647SOL    HW232841   5.675   5.284   6.503
10648SOL     OW32842   5.299   3.576   6.656
10648SOL    HW132843   5.314   3.631   6.739
10648SOL    HW232844   5.203   3.578   6.631
10649SOL     OW32845   6.943   4.713   4.479
10649SOL    HW132846   6.896   4.774   4.543
10649SOL    HW232847   0.003   4.759   4.441
10650SOL     OW32848   1.469   6.480   3.941
10650SOL    HW132849   1.557   6.445   3.972
10650SOL    HW232850   1.481   6.527   3.853
10651SOL     OW32851   4.525   6.772   5.238
10651SOL    HW132852   4.425   6.776   5.238
10651SOL    HW232853   4.561   6.829   5.312
10652SOL     OW32854   3.485   0.109   6.272
10652SOL    HW132855   3.416   0.066   6.212
10652SOL    HW232856   3.443   0.135   6.358
10653SOL     OW32857   5.267   4.382   4.784
10653SOL    HW132858   5.300   4.338   4.700
10653SOL    HW232859   5.225   4.469   4.761
10654SOL     OW32860   3.214   0.251   1.706
10654SOL    HW132861   3.121   0.214   1.716
10654SOL    HW232862   3.280   0.176   1.711
10655SOL     OW32863   3.136   5.309   2.105
10655SOL    HW132864   3.052   5.284   2.154
10655SOL    HW232865   3.115   5.321   2.008
10656SOL     OW32866   6.359   2.569   6.698
10656SOL    HW132867   6.400   2.653   6.733
10656SOL    HW232868   6.352   2.502   6.772
10657SOL     OW32869   6.090   6.716   1.126
10657SOL    HW132870   6.073   6.687   1.032
10657SOL    HW232871   6.155   6.653   1.169
10658SOL     OW32872   0.972   4.320   5.000
10658SOL    HW132873   0.977   4.367   5.088
10658SOL    HW232874   0.977   4.387   4.926
10659SOL     OW32875   5.837   0.058   1.054
10659SOL    HW132876   5.930   0.078   1.088
10659SOL    HW232877   5.841   0.043   0.955
10660SOL     OW32878   4.840   3.772   5.955
10660SOL    HW132879   4.881   3.833   5.887
10660SOL    HW232880   4.790   3.699   5.909
10661SOL     OW32881   0.243   6.665   2.343
10661SOL    HW132882   0.237   6.572   2.307
10661SOL    HW232883   0.331   6.705   2.317
10662SOL     OW32884   6.886   0.853   0.710
10662SOL    HW132885   6.986   0.849   0.700
10662SOL    HW232886   6.851   0.934   0.663
10663SOL     OW32887   0.879   0.169   1.344
10663SOL    HW132888   0.880   0.090   1.406
10663SOL    HW232889   0.948   0.156   1.273
10664SOL     OW32890   1.959   4.120   6.538
10664SOL    HW132891   2.019   4.086   6.465
10664SOL    HW232892   1.866   4.087   6.523
10665SOL     OW32893   1.033   1.467   0.171
10665SOL    HW132894   1.061   1.404   0.243
10665SOL    HW232895   0.964   1.424   0.113
10666SOL     OW32896   3.634   5.036   0.119
10666SOL    HW132897   3.660   4.946   0.084
10666SOL    HW232898   3.534   5.040   0.130
10667SOL     OW32899   3.714   2.181   5.530
10667SOL    HW132900   3.657   2.124   5.471
10667SOL    HW232901   3.670   2.270   5.544
10668SOL     OW32902   1.557   1.711   6.297
10668SOL    HW132903   1.549   1.703   6.198
10668SOL    HW232904   1.475   1.756   6.334
10669SOL     OW32905   0.548   6.785   0.746
10669SOL    HW132906   0.618   6.767   0.678
10669SOL    HW232907   0.458   6.775   0.704
10670SOL     OW32908   5.591   4.651   6.025
10670SOL    HW132909   5.604   4.661   6.124
10670SOL    HW232910   5.500   4.613   6.008
10671SOL     OW32911   2.205   2.918   2.905
10671SOL    HW132912   2.267   2.844   2.881
10671SOL    HW232913   2.202   2.928   3.005
10672SOL     OW32914   0.383   2.630   0.627
10672SOL    HW132915   0.326   2.603   0.549
10672SOL    HW232916   0.466   2.575   0.629
10673SOL     OW32917   2.848   2.767   5.733
10673SOL    HW132918   2.877   2.673   5.716
10673SOL    HW232919   2.830   2.812   5.646
10674SOL     OW32920   3.859   3.505   0.889
10674SOL    HW132921   3.924   3.544   0.823
10674SOL    HW232922   3.882   3.409   0.906
10675SOL     OW32923   0.563   0.555   5.876
10675SOL    HW132924   0.656   0.568   5.843
10675SOL    HW232925   0.498   0.581   5.805
10676SOL     OW32926   5.941   0.487   6.599
10676SOL    HW132927   5.975   0.392   6.601
10676SOL    HW232928   5.991   0.538   6.529
10677SOL     OW32929   0.203   0.798   2.525
10677SOL    HW132930   0.112   0.759   2.511
10677SOL    HW232931   0.248   0.808   2.436
10678SOL     OW32932   2.872   5.579   2.806
10678SOL    HW132933   2.867   5.479   2.813
10678SOL    HW232934   2.966   5.609   2.819
10679SOL     OW32935   5.728   5.426   4.452
10679SOL    HW132936   5.709   5.504   4.393
10679SOL    HW232937   5.772   5.458   4.536
10680SOL     OW32938   1.605   2.916   2.452
10680SOL    HW132939   1.630   3.005   2.414
10680SOL    HW232940   1.506   2.907   2.455
10681SOL     OW32941   6.363   4.056   6.540
10681SOL    HW132942   6.424   4.103   6.605
10681SOL    HW232943   6.411   3.979   6.499
10682SOL     OW32944   1.490   1.600   3.007
10682SOL    HW132945   1.572   1.620   2.953
10682SOL    HW232946   1.493   1.505   3.039
10683SOL     OW32947   1.907   2.348   4.276
10683SOL    HW132948   1.958   2.262   4.276
10683SOL    HW232949   1.955   2.414   4.334
10684SOL     OW32950   5.668   4.144   0.646
10684SOL    HW132951   5.592   4.169   0.586
10684SOL    HW232952   5.671   4.208   0.723
10685SOL     OW32953   1.101   3.912   3.289
10685SOL    HW132954   1.050   3.996   3.307
10685SOL    HW232955   1.186   3.913   3.342
10686SOL     OW32956   3.545   6.096   6.695
10686SOL    HW132957   3.517   6.009   6.655
10686SOL    HW232958   3.595   6.149   6.628
10687SOL     OW32959   0.202   5.377   2.767
10687SOL    HW132960   0.111   5.412   2.787
10687SOL    HW232961   0.224   5.303   2.830
10688SOL     OW32962   6.740   4.449   2.330
10688SOL    HW132963   6.707   4.376   2.271
10688SOL    HW232964   6.768   4.411   2.418
10689SOL     OW32965   0.075   0.188   2.801
10689SOL    HW132966   0.047   0.178   2.706
10689SOL    HW232967   0.073   0.098   2.845
10690SOL     OW32968   4.153   5.304   2.698
10690SOL    HW132969   4.188   5.307   2.604
10690SOL    HW232970   4.066   5.352   2.703
10691SOL     OW32971   6.821   1.283   1.682
10691SOL    HW132972   6.871   1.308   1.599
10691SOL    HW232973   6.873   1.311   1.762
10692SOL     OW32974   3.234   5.937   3.849
10692SOL    HW132975   3.257   5.957   3.945
10692SOL    HW232976   3.317   5.922   3.797
10693SOL     OW32977   0.633   1.758   0.906
10693SOL    HW132978   0.672   1.674   0.945
10693SOL    HW232979   0.697   1.834   0.920
10694SOL     OW32980   3.536   6.153   0.914
10694SOL    HW132981   3.506   6.224   0.851
10694SOL    HW232982   3.632   6.168   0.939
10695SOL     OW32983   0.615   3.037   4.277
10695SOL    HW132984   0.635   2.953   4.327
10695SOL    HW232985   0.635   3.116   4.334
10696SOL     OW32986   6.970   5.962   1.534
10696SOL    HW132987   6.967   6.049   1.584
10696SOL    HW232988   6.967   5.980   1.436
10697SOL     OW32989   0.302   6.443   3.796
10697SOL    HW132990   0.391   6.421   3.836
10697SOL    HW232991   0.237   6.467   3.868
10698SOL     OW32992   2.703   0.293   3.088
10698SOL    HW132993   2.707   0.278   2.989
10698SOL    HW232994   2.608   0.303   3.116
10699SOL     OW32995   4.160   1.914   2.882
10699SOL    HW132996   4.112   2.001   2.867
10699SOL    HW232997   4.177   1.870   2.793
10700SOL     OW32998   0.008   6.570   0.895
10700SOL    HW132999   0.085   6.597   0.837
10700SOL    HW233000   6.944   6.577   0.841
10701SOL     OW33001   3.846   5.841   6.832
10701SOL    HW133002   3.753   5.839   6.869
10701SOL    HW233003   3.892   5.924   6.864
10702SOL     OW33004   6.112   2.464   0.335
10702SOL    HW133005   6.084   2.422   0.421
10702SOL    HW233006   6.039   2.525   0.303
10703SOL     OW33007   3.897   3.909   3.665
10703SOL    HW133008   3.912   3.935   3.570
10703SOL    HW233009   3.837   3.830   3.669
10704SOL     OW33010   4.874   0.016   2.400
10704SOL    HW133011   4.903   0.064   2.318
10704SOL    HW233012   4.793   0.061   2.438
10705SOL     OW33013   1.338   4.149   6.445
10705SOL    HW133014   1.380   4.186   6.528
10705SOL    HW233015   1.295   4.061   6.465
10706SOL     OW33016   4.103   0.533   1.678
10706SOL    HW133017   4.029   0.467   1.671
10706SOL    HW233018   4.184   0.488   1.718
10707SOL     OW33019   6.669   0.212   5.736
10707SOL    HW133020   6.686   0.178   5.643
10707SOL    HW233021   6.672   0.135   5.800
10708SOL     OW33022   4.943   1.110   1.205
10708SOL    HW133023   4.984   1.158   1.127
10708SOL    HW233024   4.899   1.026   1.173
10709SOL     OW33025   6.176   0.090   5.080
10709SOL    HW133026   6.209   0.024   5.012
10709SOL    HW233027   6.226   0.176   5.071
10710SOL     OW33028   6.390   5.648   4.038
10710SOL    HW133029   6.423   5.619   3.948
10710SOL    HW233030   6.321   5.583   4.070
10711SOL     OW33031   1.864   0.091   4.115
10711SOL    HW133032   1.796   0.038   4.164
10711SOL    HW233033   1.822   0.132   4.033
10712SOL     OW33034   3.886   1.567   4.900
10712SOL    HW133035   3.920   1.487   4.852
10712SOL    HW233036   3.929   1.649   4.862
10713SOL     OW33037   2.486   5.807   1.892
10713SOL    HW133038   2.461   5.814   1.796
10713SOL    HW233039   2.404   5.800   1.948
10714SOL     OW33040   0.745   4.645   5.058
10714SOL    HW133041   0.826   4.699   5.079
10714SOL    HW233042   0.751   4.612   4.964
10715SOL     OW33043   4.731   2.015   4.113
10715SOL    HW133044   4.769   1.935   4.159
10715SOL    HW233045   4.804   2.079   4.090
10716SOL     OW33046   6.460   1.246   4.558
10716SOL    HW133047   6.522   1.310   4.512
10716SOL    HW233048   6.450   1.163   4.502
10717SOL     OW33049   6.584   1.307   1.894
10717SOL    HW133050   6.643   1.241   1.848
10717SOL    HW233051   6.639   1.366   1.953
10718SOL     OW33052   6.533   5.169   6.788
10718SOL    HW133053   6.494   5.081   6.762
10718SOL    HW233054   6.496   5.197   6.877
10719SOL     OW33055   5.070   1.222   1.691
10719SOL    HW133056   5.081   1.248   1.595
10719SOL    HW233057   5.097   1.127   1.703
10720SOL     OW33058   6.994   3.537   6.605
10720SOL    HW133059   6.932   3.494   6.670
10720SOL    HW233060   7.004   3.634   6.627
10721SOL     OW33061   5.808   2.486   4.628
10721SOL    HW133062   5.725   2.528   4.665
10721SOL    HW233063   5.786   2.433   4.547
10722SOL     OW33064   6.628   3.342   0.384
10722SOL    HW133065   6.607   3.312   0.291
10722SOL    HW233066   6.724   3.370   0.389
10723SOL     OW33067   5.646   4.286   6.474
10723SOL    HW133068   5.566   4.261   6.420
10723SOL    HW233069   5.727   4.241   6.437
10724SOL     OW33070   4.100   6.413   6.178
10724SOL    HW133071   4.129   6.478   6.109
10724SOL    HW233072   4.179   6.381   6.230
10725SOL     OW33073   0.500   6.538   4.282
10725SOL    HW133074   0.544   6.506   4.366
10725SOL    HW233075   0.565   6.537   4.207
10726SOL     OW33076   5.873   0.571   4.590
10726SOL    HW133077   5.900   0.601   4.498
10726SOL    HW233078   5.850   0.474   4.588
10727SOL     OW33079   1.874   5.748   5.513
10727SOL    HW133080   1.863   5.656   5.477
10727SOL    HW233081   1.847   5.751   5.609
10728SOL     OW33082   4.446   6.846   3.088
10728SOL    HW133083   4.425   6.886   3.000
10728SOL    HW233084   4.422   6.910   3.161
10729SOL     OW33085   6.238   2.733   3.026
10729SOL    HW133086   6.157   2.756   2.972
10729SOL    HW233087   6.268   2.814   3.077
10730SOL     OW33088   2.280   6.532   2.533
10730SOL    HW133089   2.205   6.574   2.483
10730SOL    HW233090   2.243   6.474   2.606
10731SOL     OW33091   3.442   5.962   0.193
10731SOL    HW133092   3.399   6.049   0.167
10731SOL    HW233093   3.505   5.933   0.120
10732SOL     OW33094   5.694   5.969   2.761
10732SOL    HW133095   5.604   6.008   2.782
10732SOL    HW233096   5.721   5.906   2.833
10733SOL     OW33097   6.556   1.545   6.138
10733SOL    HW133098   6.488   1.481   6.103
10733SOL    HW233099   6.610   1.582   6.062
10734SOL     OW33100   1.635   0.600   6.513
10734SOL    HW133101   1.649   0.665   6.588
10734SOL    HW233102   1.630   0.508   6.550
10735SOL     OW33103   1.073   4.735   2.257
10735SOL    HW133104   1.134   4.769   2.328
10735SOL    HW233105   0.978   4.746   2.286
10736SOL     OW33106   6.969   0.799   3.732
10736SOL    HW133107   6.993   0.812   3.636
10736SOL    HW233108   0.031   0.796   3.788
10737SOL     OW33109   0.089   1.642   1.014
10737SOL    HW133110   0.028   1.564   1.026
10737SOL    HW233111   0.178   1.611   0.981
10738SOL     OW33112   2.751   0.888   2.831
10738SOL    HW133113   2.677   0.953   2.817
10738SOL    HW233114   2.837   0.938   2.843
10739SOL     OW33115   5.847   1.410   2.011
10739SOL    HW133116   5.889   1.444   1.927
10739SOL    HW233117   5.788   1.482   2.050
10740SOL     OW33118   1.614   6.679   5.754
10740SOL    HW133119   1.617   6.586   5.718
10740SOL    HW233120   1.596   6.676   5.853
10741SOL     OW33121   1.614   2.703   3.090
10741SOL    HW133122   1.532   2.656   3.059
10741SOL    HW233123   1.672   2.640   3.141
10742SOL     OW33124   6.139   5.480   2.353
10742SOL    HW133125   6.161   5.481   2.256
10742SOL    HW233126   6.078   5.556   2.375
10743SOL     OW33127   3.173   1.511   5.673
10743SOL    HW133128   3.112   1.435   5.652
10743SOL    HW233129   3.266   1.476   5.688
10744SOL     OW33130   2.698   0.395   1.102
10744SOL    HW133131   2.642   0.467   1.143
10744SOL    HW233132   2.642   0.314   1.085
10745SOL     OW33133   2.121   4.314   0.974
10745SOL    HW133134   2.076   4.302   0.885
10745SOL    HW233135   2.153   4.225   1.007
10746SOL     OW33136   2.189   6.356   7.008
10746SOL    HW133137   2.108   6.415   7.007
10746SOL    HW233138   2.271   6.411   7.018
10747SOL     OW33139   6.265   2.051   4.389
10747SOL    HW133140   6.251   2.107   4.471
10747SOL    HW233141   6.181   2.002   4.367
10748SOL     OW33142   3.961   5.152   1.188
10748SOL    HW133143   3.937   5.057   1.165
10748SOL    HW233144   4.047   5.152   1.239
10749SOL     OW33145   6.656   5.108   2.579
10749SOL    HW133146   6.591   5.150   2.516
10749SOL    HW233147   6.611   5.033   2.628
10750SOL     OW33148   4.966   3.208   3.936
10750SOL    HW133149   4.928   3.140   3.998
10750SOL    HW233150   4.987   3.165   3.848
10751SOL     OW33151   1.493   3.397   4.878
10751SOL    HW133152   1.513   3.299   4.869
10751SOL    HW233153   1.395   3.412   4.866
10752SOL     OW33154   5.611   5.416   0.358
10752SOL    HW133155   5.589   5.416   0.260
10752SOL    HW233156   5.557   5.486   0.404
10753SOL     OW33157   5.191   6.152   3.951
10753SOL    HW133158   5.107   6.195   3.919
10753SOL    HW233159   5.193   6.153   4.051
10754SOL     OW33160   1.251   2.726   1.523
10754SOL    HW133161   1.323   2.671   1.481
10754SOL    HW233162   1.177   2.740   1.458
10755SOL     OW33163   6.704   2.902   1.225
10755SOL    HW133164   6.663   2.961   1.156
10755SOL    HW233165   6.649   2.819   1.234
10756SOL     OW33166   6.837   2.638   0.752
10756SOL    HW133167   6.831   2.541   0.775
10756SOL    HW233168   6.754   2.666   0.703
10757SOL     OW33169   6.553   4.073   0.515
10757SOL    HW133170   6.611   4.061   0.595
10757SOL    HW233171   6.567   3.997   0.452
10758SOL     OW33172   0.477   6.814   6.702
10758SOL    HW133173   0.503   6.806   6.798
10758SOL    HW233174   0.504   6.732   6.652
10759SOL     OW33175   1.792   1.760   6.417
10759SOL    HW133176   1.712   1.733   6.364
10759SOL    HW233177   1.781   1.854   6.450
10760SOL     OW33178   0.547   6.047   0.262
10760SOL    HW133179   0.618   5.999   0.210
10760SOL    HW233180   0.459   6.037   0.215
10761SOL     OW33181   0.971   1.733   6.216
10761SOL    HW133182   0.873   1.722   6.201
10761SOL    HW233183   1.016   1.757   6.129
10762SOL     OW33184   4.130   0.689   5.702
10762SOL    HW133185   4.127   0.717   5.606
10762SOL    HW233186   4.058   0.737   5.753
10763SOL     OW33187   5.899   0.350   3.395
10763SOL    HW133188   5.831   0.291   3.351
10763SOL    HW233189   5.961   0.386   3.326
10764SOL     OW33190   4.467   1.145   5.266
10764SOL    HW133191   4.479   1.047   5.254
10764SOL    HW233192   4.554   1.192   5.253
10765SOL     OW33193   6.193   2.462   2.004
10765SOL    HW133194   6.261   2.410   2.056
10765SOL    HW233195   6.114   2.481   2.063
10766SOL     OW33196   1.299   4.823   0.067
10766SOL    HW133197   1.211   4.776   0.063
10766SOL    HW233198   1.293   4.909   0.016
10767SOL     OW33199   1.574   5.819   0.623
10767SOL    HW133200   1.584   5.748   0.693
10767SOL    HW233201   1.576   5.909   0.667
10768SOL     OW33202   5.623   5.780   0.166
10768SOL    HW133203   5.551   5.734   0.115
10768SOL    HW233204   5.600   5.877   0.177
10769SOL     OW33205   3.148   3.648   5.102
10769SOL    HW133206   3.199   3.563   5.117
10769SOL    HW233207   3.179   3.718   5.166
10770SOL     OW33208   5.267   0.068   4.279
10770SOL    HW133209   5.291   0.028   4.190
10770SOL    HW233210   5.327   0.031   4.349
10771SOL     OW33211   5.609   0.079   5.390
10771SOL    HW133212   5.568   7.016   5.426
10771SOL    HW233213   5.703   0.060   5.362
10772SOL     OW33214   5.491   5.842   3.376
10772SOL    HW133215   5.460   5.760   3.425
10772SOL    HW233216   5.415   5.905   3.366
10773SOL     OW33217   6.951   4.545   0.544
10773SOL    HW133218   6.998   4.466   0.583
10773SOL    HW233219   6.972   4.626   0.598
10774SOL     OW33220   1.221   2.468   0.811
10774SOL    HW133221   1.136   2.418   0.823
10774SOL    HW233222   1.284   2.445   0.886
10775SOL     OW33223   1.790   4.597   1.013
10775SOL    HW133224   1.706   4.560   1.051
10775SOL    HW233225   1.868   4.548   1.051
10776SOL     OW33226   0.086   0.729   2.945
10776SOL    HW133227   0.083   0.829   2.938
10776SOL    HW233228   0.161   0.694   2.888
10777SOL     OW33229   2.962   0.811   3.652
10777SOL    HW133230   3.015   0.884   3.607
10777SOL    HW233231   3.013   0.725   3.646
10778SOL     OW33232   6.542   6.626   4.275
10778SOL    HW133233   6.500   6.592   4.359
10778SOL    HW233234   6.603   6.701   4.296
10779SOL     OW33235   5.747   4.544   3.537
10779SOL    HW133236   5.796   4.631   3.527
10779SOL    HW233237   5.651   4.557   3.510
10780SOL     OW33238   0.585   5.885   4.478
10780SOL    HW133239   0.507   5.890   4.541
10780SOL    HW233240   0.566   5.939   4.397
10781SOL     OW33241   5.808   2.740   4.919
10781SOL    HW133242   5.893   2.714   4.873
10781SOL    HW233243   5.830   2.785   5.006
10782SOL     OW33244   0.914   2.909   5.497
10782SOL    HW133245   0.950   2.816   5.485
10782SOL    HW233246   0.829   2.905   5.550
10783SOL     OW33247   1.171   2.539   2.519
10783SOL    HW133248   1.192   2.605   2.591
10783SOL    HW233249   1.240   2.544   2.447
10784SOL     OW33250   2.719   6.201   2.618
10784SOL    HW133251   2.801   6.150   2.646
10784SOL    HW233252   2.714   6.287   2.668
10785SOL     OW33253   1.654   5.620   1.631
10785SOL    HW133254   1.699   5.531   1.636
10785SOL    HW233255   1.620   5.645   1.722
10786SOL     OW33256   4.809   2.054   1.962
10786SOL    HW133257   4.745   2.104   2.020
10786SOL    HW233258   4.773   1.962   1.945
10787SOL     OW33259   3.647   0.964   3.691
10787SOL    HW133260   3.720   0.943   3.755
10787SOL    HW233261   3.681   1.028   3.622
10788SOL     OW33262   0.719   4.270   0.485
10788SOL    HW133263   0.657   4.227   0.419
10788SOL    HW233264   0.813   4.245   0.464
10789SOL     OW33265   6.387   1.531   6.959
10789SOL    HW133266   6.356   1.437   6.966
10789SOL    HW233267   6.475   1.542   7.004
10790SOL     OW33268   0.757   2.515   4.772
10790SOL    HW133269   0.763   2.415   4.772
10790SOL    HW233270   0.745   2.548   4.678
10791SOL     OW33271   2.324   1.328   2.781
10791SOL    HW133272   2.262   1.255   2.807
10791SOL    HW233273   2.357   1.375   2.863
10792SOL     OW33274   3.661   2.238   1.467
10792SOL    HW133275   3.745   2.209   1.423
10792SOL    HW233276   3.666   2.335   1.489
10793SOL     OW33277   4.659   1.742   4.803
10793SOL    HW133278   4.643   1.668   4.737
10793SOL    HW233279   4.574   1.760   4.854
10794SOL     OW33280   4.387   3.041   1.644
10794SOL    HW133281   4.449   3.034   1.722
10794SOL    HW233282   4.325   3.119   1.657
10795SOL     OW33283   0.046   3.703   2.987
10795SOL    HW133284   0.014   3.618   3.029
10795SOL    HW233285   0.080   3.684   2.895
10796SOL     OW33286   6.244   6.336   6.813
10796SOL    HW133287   6.228   6.427   6.773
10796SOL    HW233288   6.307   6.286   6.754
10797SOL     OW33289   4.392   3.016   0.572
10797SOL    HW133290   4.456   2.966   0.630
10797SOL    HW233291   4.298   3.002   0.605
10798SOL     OW33292   3.031   6.901   6.367
10798SOL    HW133293   2.972   6.967   6.321
10798SOL    HW233294   3.008   6.899   6.465
10799SOL     OW33295   2.901   1.186   2.753
10799SOL    HW133296   2.921   1.275   2.795
10799SOL    HW233297   2.808   1.187   2.716
10800SOL     OW33298   1.528   0.025   6.651
10800SOL    HW133299   1.563   0.118   6.657
10800SOL    HW233300   1.464   0.018   6.575
10801SOL     OW33301   1.990   5.677   6.524
10801SOL    HW133302   1.937   5.704   6.605
10801SOL    HW233303   2.084   5.711   6.533
10802SOL     OW33304   1.229   3.622   3.994
10802SOL    HW133305   1.304   3.588   4.052
10802SOL    HW233306   1.192   3.705   4.034
10803SOL     OW33307   6.027   4.771   5.438
10803SOL    HW133308   6.114   4.797   5.396
10803SOL    HW233309   5.960   4.751   5.366
10804SOL     OW33310   5.916   4.455   1.755
10804SOL    HW133311   5.949   4.422   1.667
10804SOL    HW233312   5.964   4.540   1.779
10805SOL     OW33313   4.076   6.704   0.693
10805SOL    HW133314   4.124   6.791   0.680
10805SOL    HW233315   3.986   6.710   0.650
10806SOL     OW33316   5.600   3.755   0.496
10806SOL    HW133317   5.542   3.722   0.571
10806SOL    HW233318   5.651   3.836   0.527
10807SOL     OW33319   3.677   6.036   3.079
10807SOL    HW133320   3.596   6.019   3.136
10807SOL    HW233321   3.740   5.959   3.086
10808SOL     OW33322   0.659   2.398   5.910
10808SOL    HW133323   0.569   2.414   5.868
10808SOL    HW233324   0.714   2.481   5.903
10809SOL     OW33325   2.893   0.502   3.877
10809SOL    HW133326   2.796   0.481   3.868
10809SOL    HW233327   2.903   0.597   3.909
10810SOL     OW33328   0.371   1.541   5.091
10810SOL    HW133329   0.324   1.574   5.009
10810SOL    HW233330   0.399   1.446   5.077
10811SOL     OW33331   4.785   5.039   5.327
10811SOL    HW133332   4.746   5.109   5.387
10811SOL    HW233333   4.723   5.022   5.250
10812SOL     OW33334   6.587   2.754   2.790
10812SOL    HW133335   6.571   2.747   2.889
10812SOL    HW233336   6.667   2.700   2.765
10813SOL     OW33337   2.826   6.058   2.092
10813SOL    HW133338   2.844   6.017   2.181
10813SOL    HW233339   2.809   5.986   2.025
10814SOL     OW33340   1.933   0.026   5.338
10814SOL    HW133341   1.948   0.125   5.345
10814SOL    HW233342   1.962   7.002   5.423
10815SOL     OW33343   5.640   4.352   2.587
10815SOL    HW133344   5.703   4.281   2.555
10815SOL    HW233345   5.610   4.408   2.510
10816SOL     OW33346   1.391   0.867   2.044
10816SOL    HW133347   1.394   0.779   2.093
10816SOL    HW233348   1.354   0.853   1.952
10817SOL     OW33349   4.933   0.355   2.861
10817SOL    HW133350   4.874   0.390   2.934
10817SOL    HW233351   4.932   0.255   2.861
10818SOL     OW33352   5.174   2.932   6.709
10818SOL    HW133353   5.140   2.932   6.803
10818SOL    HW233354   5.271   2.907   6.709
10819SOL     OW33355   0.429   4.326   6.564
10819SOL    HW133356   0.473   4.389   6.500
10819SOL    HW233357   0.488   4.312   6.643
10820SOL     OW33358   6.884   6.596   3.998
10820SOL    HW133359   6.873   6.501   4.029
10820SOL    HW233360   6.806   6.621   3.941
10821SOL     OW33361   6.687   0.436   1.749
10821SOL    HW133362   6.639   0.375   1.686
10821SOL    HW233363   6.725   0.383   1.825
10822SOL     OW33364   1.065   3.798   2.418
10822SOL    HW133365   1.083   3.745   2.501
10822SOL    HW233366   0.974   3.774   2.383
10823SOL     OW33367   2.398   6.103   1.240
10823SOL    HW133368   2.427   6.198   1.240
10823SOL    HW233369   2.304   6.096   1.272
10824SOL     OW33370   4.850   1.054   2.730
10824SOL    HW133371   4.874   1.013   2.819
10824SOL    HW233372   4.931   1.101   2.693
10825SOL     OW33373   3.418   0.862   0.612
10825SOL    HW133374   3.507   0.875   0.655
10825SOL    HW233375   3.349   0.915   0.662
10826SOL     OW33376   0.184   3.539   2.267
10826SOL    HW133377   0.135   3.453   2.281
10826SOL    HW233378   0.278   3.530   2.298
10827SOL     OW33379   0.333   3.345   4.363
10827SOL    HW133380   0.309   3.376   4.271
10827SOL    HW233381   0.318   3.418   4.429
10828SOL     OW33382   1.457   5.827   0.331
10828SOL    HW133383   1.447   5.912   0.280
10828SOL    HW233384   1.524   5.841   0.404
10829SOL     OW33385   3.233   4.099   2.129
10829SOL    HW133386   3.154   4.038   2.127
10829SOL    HW233387   3.246   4.133   2.222
10830SOL     OW33388   5.229   2.954   4.686
10830SOL    HW133389   5.179   2.993   4.609
10830SOL    HW233390   5.211   3.008   4.768
10831SOL     OW33391   5.305   1.226   2.473
10831SOL    HW133392   5.397   1.209   2.508
10831SOL    HW233393   5.307   1.227   2.373
10832SOL     OW33394   1.022   2.081   0.483
10832SOL    HW133395   1.014   2.095   0.384
10832SOL    HW233396   0.953   2.134   0.530
10833SOL     OW33397   2.832   0.889   4.561
10833SOL    HW133398   2.877   0.937   4.486
10833SOL    HW233399   2.859   0.930   4.648
10834SOL     OW33400   0.424   1.798   5.663
10834SOL    HW133401   0.433   1.699   5.674
10834SOL    HW233402   0.443   1.823   5.568
10835SOL     OW33403   5.722   1.606   2.130
10835SOL    HW133404   5.717   1.703   2.106
10835SOL    HW233405   5.638   1.579   2.178
10836SOL     OW33406   1.496   1.986   6.557
10836SOL    HW133407   1.481   2.041   6.475
10836SOL    HW233408   1.451   1.898   6.546
10837SOL     OW33409   0.031   4.697   0.761
10837SOL    HW133410   0.066   4.773   0.815
10837SOL    HW233411   6.954   4.684   0.779
10838SOL     OW33412   5.424   6.857   6.665
10838SOL    HW133413   5.440   6.897   6.575
10838SOL    HW233414   5.453   6.762   6.664
10839SOL     OW33415   1.680   2.134   0.064
10839SOL    HW133416   1.638   2.063   0.120
10839SOL    HW233417   1.750   2.093   0.006
10840SOL     OW33418   3.541   5.240   1.852
10840SOL    HW133419   3.456   5.267   1.806
10840SOL    HW233420   3.528   5.151   1.896
10841SOL     OW33421   4.081   5.463   5.587
10841SOL    HW133422   4.127   5.407   5.518
10841SOL    HW233423   4.076   5.412   5.673
10842SOL     OW33424   6.299   3.445   1.027
10842SOL    HW133425   6.319   3.542   1.041
10842SOL    HW233426   6.233   3.415   1.096
10843SOL     OW33427   0.631   1.987   2.166
10843SOL    HW133428   0.570   1.908   2.166
10843SOL    HW233429   0.653   2.013   2.260
10844SOL     OW33430   5.348   0.265   2.846
10844SOL    HW133431   5.293   0.202   2.901
10844SOL    HW233432   5.361   0.350   2.896
10845SOL     OW33433   1.156   0.759   1.614
10845SOL    HW133434   1.145   0.675   1.561
10845SOL    HW233435   1.107   0.833   1.569
10846SOL     OW33436   4.186   1.868   1.260
10846SOL    HW133437   4.198   1.924   1.178
10846SOL    HW233438   4.089   1.867   1.285
10847SOL     OW33439   3.832   2.545   6.017
10847SOL    HW133440   3.827   2.626   5.958
10847SOL    HW233441   3.748   2.492   6.008
10848SOL     OW33442   1.334   0.510   0.327
10848SOL    HW133443   1.341   0.543   0.233
10848SOL    HW233444   1.359   0.583   0.391
10849SOL     OW33445   2.914   4.819   4.497
10849SOL    HW133446   2.886   4.865   4.582
10849SOL    HW233447   2.834   4.778   4.454
10850SOL     OW33448   5.236   6.752   0.109
10850SOL    HW133449   5.243   6.817   0.034
10850SOL    HW233450   5.302   6.775   0.180
10851SOL     OW33451   2.837   2.170   6.727
10851SOL    HW133452   2.808   2.245   6.786
10851SOL    HW233453   2.830   2.198   6.631
10852SOL     OW33454   0.157   0.887   6.609
10852SOL    HW133455   0.106   0.831   6.675
10852SOL    HW233456   0.093   0.926   6.542
10853SOL     OW33457   3.048   1.412   4.708
10853SOL    HW133458   3.018   1.338   4.649
10853SOL    HW233459   2.991   1.492   4.693
10854SOL     OW33460   6.223   6.591   6.713
10854SOL    HW133461   6.255   6.594   6.618
10854SOL    HW233462   6.298   6.610   6.775
10855SOL     OW33463   1.810   6.254   1.773
10855SOL    HW133464   1.819   6.160   1.807
10855SOL    HW233465   1.870   6.266   1.694
10856SOL     OW33466   6.063   6.816   6.752
10856SOL    HW133467   6.090   6.868   6.832
10856SOL    HW233468   6.119   6.734   6.745
10857SOL     OW33469   6.300   1.558   3.969
10857SOL    HW133470   6.244   1.598   3.896
10857SOL    HW233471   6.256   1.476   4.005
10858SOL     OW33472   1.253   3.145   6.814
10858SOL    HW133473   1.257   3.067   6.750
10858SOL    HW233474   1.345   3.181   6.828
10859SOL     OW33475   0.775   4.851   3.391
10859SOL    HW133476   0.865   4.855   3.434
10859SOL    HW233477   0.706   4.827   3.459
10860SOL     OW33478   6.277   1.910   0.098
10860SOL    HW133479   6.239   1.818   0.093
10860SOL    HW233480   6.283   1.939   0.194
10861SOL     OW33481   3.175   2.924   1.766
10861SOL    HW133482   3.214   2.884   1.849
10861SOL    HW233483   3.135   3.013   1.788
10862SOL     OW33484   3.341   2.414   5.917
10862SOL    HW133485   3.357   2.320   5.946
10862SOL    HW233486   3.281   2.460   5.982
10863SOL     OW33487   2.582   0.954   3.319
10863SOL    HW133488   2.558   0.857   3.310
10863SOL    HW233489   2.501   1.009   3.297
10864SOL     OW33490   2.411   4.410   1.919
10864SOL    HW133491   2.475   4.410   1.842
10864SOL    HW233492   2.447   4.468   1.992
10865SOL     OW33493   4.762   2.359   3.153
10865SOL    HW133494   4.709   2.294   3.099
10865SOL    HW233495   4.857   2.328   3.159
10866SOL     OW33496   6.946   4.133   2.447
10866SOL    HW133497   6.851   4.105   2.434
10866SOL    HW233498   6.965   4.141   2.545
10867SOL     OW33499   3.417   2.647   0.504
10867SOL    HW133500   3.467   2.560   0.508
10867SOL    HW233501   3.424   2.693   0.592
10868SOL     OW33502   1.438   1.982   3.915
10868SOL    HW133503   1.349   1.991   3.870
10868SOL    HW233504   1.503   1.937   3.853
10869NA      NA33505   0.128   1.899   5.974
10870NA      NA33506   4.433   4.654   5.197
10871NA      NA33507   1.299   5.471   2.394
10872NA      NA33508   5.180   4.046   3.285
10873NA      NA33509   4.331   2.391   5.233
10874NA      NA33510   2.471   5.051   0.762
10875NA      NA33511   0.977   5.188   6.713
10876NA      NA33512   3.316   3.969   1.230
10877NA      NA33513   4.459   5.029   0.776
10878NA      NA33514   3.377   1.356   6.524
10879NA      NA33515   5.608   5.766   2.119
10880NA      NA33516   1.331   6.725   5.393
10881NA      NA33517   4.405   5.011   1.800
10882NA      NA33518   3.032   3.057   6.901
   7.02056   7.02056   7.02056
