Generated by trjconv : CNT in water t= 589.00000
33518
    1C        C    1   2.837   2.766   4.744
    1C        C    2   2.893   2.717   4.864
    1C        C    3   2.838   2.772   4.980
    1C        C    4   2.848   2.775   4.260
    1C        C    5   2.897   2.726   4.383
    1C        C    6   2.840   2.771   4.504
    1C        C    7   3.012   2.643   4.626
    1C        C    8   2.891   2.715   4.624
    1C        C    9   3.078   2.605   4.745
    1C        C   10   3.006   2.633   4.864
    1C        C   11   3.176   2.490   4.976
    1C        C   12   3.055   2.560   4.973
    1C        C   13   2.854   2.773   3.772
    1C        C   14   2.904   2.724   3.895
    1C        C   15   2.852   2.775   4.016
    1C        C   16   3.018   2.644   4.140
    1C        C   17   2.903   2.726   4.139
    1C        C   18   3.081   2.616   4.262
    1C        C   19   3.016   2.650   4.383
    1C        C   20   3.204   2.550   4.505
    1C        C   21   3.075   2.608   4.504
    1C        C   22   3.275   2.531   4.625
    1C        C   23   3.208   2.547   4.749
    1C        C   24   3.411   2.484   4.866
    1C        C   25   3.268   2.496   4.867
    1C        C   26   3.490   2.483   4.982
    1C        C   27   2.850   2.770   3.283
    1C        C   28   2.904   2.722   3.404
    1C        C   29   2.854   2.773   3.526
    1C        C   30   3.022   2.645   3.649
    1C        C   31   2.908   2.730   3.649
    1C        C   32   3.079   2.606   3.772
    1C        C   33   3.018   2.641   3.895
    1C        C   34   3.209   2.551   4.017
    1C        C   35   3.079   2.607   4.018
    1C        C   36   3.277   2.535   4.140
    1C        C   37   3.212   2.561   4.262
    1C        C   38   3.415   2.509   4.383
    1C        C   39   3.275   2.530   4.384
    1C        C   40   3.484   2.499   4.505
    1C        C   41   3.414   2.506   4.628
    1C        C   42   3.630   2.484   4.743
    1C        C   43   3.488   2.487   4.747
    1C        C   44   3.704   2.487   4.862
    1C        C   45   3.629   2.478   4.980
    1C        C   46   2.843   2.757   2.792
    1C        C   47   2.899   2.716   2.915
    1C        C   48   2.849   2.764   3.038
    1C        C   49   3.020   2.642   3.160
    1C        C   50   2.906   2.725   3.162
    1C        C   51   3.082   2.606   3.282
    1C        C   52   3.019   2.640   3.404
    1C        C   53   3.206   2.542   3.529
    1C        C   54   3.079   2.604   3.527
    1C        C   55   3.275   2.521   3.651
    1C        C   56   3.207   2.546   3.772
    1C        C   57   3.414   2.502   3.892
    1C        C   58   3.275   2.529   3.895
    1C        C   59   3.483   2.501   4.016
    1C        C   60   3.416   2.508   4.140
    1C        C   61   3.627   2.500   4.259
    1C        C   62   3.486   2.495   4.262
    1C        C   63   3.699   2.504   4.380
    1C        C   64   3.625   2.501   4.500
    1C        C   65   3.834   2.546   4.619
    1C        C   66   3.698   2.506   4.621
    1C        C   67   3.903   2.564   4.741
    1C        C   68   3.840   2.528   4.861
    1C        C   69   4.053   2.586   4.974
    1C        C   70   3.925   2.529   4.972
    1C        C   71   2.826   2.736   2.306
    1C        C   72   2.884   2.692   2.427
    1C        C   73   2.833   2.746   2.547
    1C        C   74   3.008   2.627   2.673
    1C        C   75   2.891   2.705   2.669
    1C        C   76   3.074   2.596   2.795
    1C        C   77   3.015   2.635   2.917
    1C        C   78   3.207   2.543   3.038
    1C        C   79   3.079   2.602   3.038
    1C        C   80   3.274   2.527   3.162
    1C        C   81   3.210   2.547   3.286
    1C        C   82   3.415   2.494   3.403
    1C        C   83   3.275   2.518   3.408
    1C        C   84   3.485   2.490   3.526
    1C        C   85   3.414   2.498   3.648
    1C        C   86   3.626   2.491   3.769
    1C        C   87   3.485   2.490   3.771
    1C        C   88   3.696   2.506   3.891
    1C        C   89   3.624   2.505   4.013
    1C        C   90   3.832   2.545   4.135
    1C        C   91   3.695   2.510   4.135
    1C        C   92   3.901   2.570   4.255
    1C        C   93   3.836   2.541   4.377
    1C        C   94   4.026   2.638   4.497
    1C        C   95   3.902   2.570   4.498
    1C        C   96   4.086   2.676   4.619
    1C        C   97   4.028   2.632   4.741
    1C        C   98   4.193   2.766   4.863
    1C        C   99   4.104   2.655   4.859
    1C        C  100   4.214   2.844   4.977
    1C        C  101   2.823   2.734   2.070
    1C        C  102   2.992   2.593   2.190
    1C        C  103   2.879   2.680   2.187
    1C        C  104   3.066   2.578   2.310
    1C        C  105   3.001   2.613   2.431
    1C        C  106   3.197   2.530   2.551
    1C        C  107   3.065   2.581   2.552
    1C        C  108   3.271   2.521   2.671
    1C        C  109   3.204   2.541   2.794
    1C        C  110   3.410   2.491   2.914
    1C        C  111   3.271   2.514   2.916
    1C        C  112   3.482   2.485   3.036
    1C        C  113   3.413   2.500   3.159
    1C        C  114   3.626   2.495   3.276
    1C        C  115   3.484   2.492   3.280
    1C        C  116   3.692   2.502   3.401
    1C        C  117   3.626   2.492   3.525
    1C        C  118   3.832   2.541   3.646
    1C        C  119   3.697   2.499   3.648
    1C        C  120   3.898   2.565   3.768
    1C        C  121   3.832   2.544   3.891
    1C        C  122   4.022   2.639   4.011
    1C        C  123   3.896   2.574   4.013
    1C        C  124   4.083   2.677   4.133
    1C        C  125   4.026   2.637   4.255
    1C        C  126   4.193   2.770   4.376
    1C        C  127   4.088   2.675   4.376
    1C        C  128   4.243   2.821   4.498
    1C        C  129   4.192   2.769   4.619
    1C        C  130   4.330   2.932   4.740
    1C        C  131   4.244   2.819   4.741
    1C        C  132   4.354   3.005   4.858
    1C        C  133   4.275   2.969   4.969
    1C        C  134   3.170   2.467   2.084
    1C        C  135   3.036   2.506   2.085
    1C        C  136   3.261   2.474   2.191
    1C        C  137   3.197   2.522   2.308
    1C        C  138   3.404   2.480   2.429
    1C        C  139   3.265   2.504   2.430
    1C        C  140   3.480   2.482   2.548
    1C        C  141   3.409   2.492   2.669
    1C        C  142   3.621   2.496   2.791
    1C        C  143   3.480   2.488   2.791
    1C        C  144   3.693   2.501   2.912
    1C        C  145   3.623   2.490   3.034
    1C        C  146   3.833   2.535   3.154
    1C        C  147   3.697   2.495   3.154
    1C        C  148   3.897   2.560   3.277
    1C        C  149   3.829   2.537   3.399
    1C        C  150   4.018   2.631   3.524
    1C        C  151   3.892   2.567   3.521
    1C        C  152   4.083   2.668   3.644
    1C        C  153   4.023   2.631   3.767
    1C        C  154   4.189   2.767   3.887
    1C        C  155   4.078   2.679   3.888
    1C        C  156   4.239   2.816   4.009
    1C        C  157   4.193   2.766   4.133
    1C        C  158   4.341   2.921   4.251
    1C        C  159   4.248   2.815   4.254
    1C        C  160   4.375   2.986   4.372
    1C        C  161   4.332   2.930   4.495
    1C        C  162   4.438   3.113   4.613
    1C        C  163   4.372   2.989   4.617
    1C        C  164   4.464   3.183   4.733
    1C        C  165   4.434   3.121   4.856
    1C        C  166   4.519   3.317   4.971
    1C        C  167   4.474   3.185   4.973
    1C        C  168   3.476   2.424   2.074
    1C        C  169   3.399   2.446   2.190
    1C        C  170   3.616   2.463   2.307
    1C        C  171   3.474   2.455   2.309
    1C        C  172   3.692   2.485   2.424
    1C        C  173   3.622   2.480   2.546
    1C        C  174   3.824   2.544   2.667
    1C        C  175   3.689   2.502   2.668
    1C        C  176   3.895   2.565   2.788
    1C        C  177   3.830   2.535   2.910
    1C        C  178   4.024   2.625   3.032
    1C        C  179   3.899   2.560   3.031
    1C        C  180   4.084   2.659   3.155
    1C        C  181   4.023   2.623   3.278
    1C        C  182   4.191   2.751   3.397
    1C        C  183   4.080   2.664   3.401
    1C        C  184   4.240   2.806   3.518
    1C        C  185   4.190   2.760   3.641
    1C        C  186   4.333   2.918   3.762
    1C        C  187   4.243   2.809   3.763
    1C        C  188   4.373   2.978   3.883
    1C        C  189   4.332   2.923   4.006
    1C        C  190   4.441   3.105   4.125
    1C        C  191   4.378   2.978   4.128
    1C        C  192   4.468   3.172   4.246
    1C        C  193   4.443   3.109   4.370
    1C        C  194   4.512   3.312   4.490
    1C        C  195   4.470   3.178   4.491
    1C        C  196   4.527   3.385   4.610
    1C        C  197   4.508   3.319   4.733
    1C        C  198   4.555   3.532   4.848
    1C        C  199   4.539   3.389   4.853
    1C        C  200   4.579   3.615   4.962
    1C        C  201   3.615   2.411   2.074
    1C        C  202   3.826   2.506   2.183
    1C        C  203   3.691   2.458   2.186
    1C        C  204   3.899   2.538   2.301
    1C        C  205   3.829   2.519   2.422
    1C        C  206   4.020   2.613   2.542
    1C        C  207   3.892   2.554   2.544
    1C        C  208   4.081   2.657   2.662
    1C        C  209   4.023   2.625   2.787
    1C        C  210   4.194   2.750   2.908
    1C        C  211   4.082   2.665   2.909
    1C        C  212   4.243   2.798   3.031
    1C        C  213   4.193   2.750   3.154
    1C        C  214   4.333   2.910   3.271
    1C        C  215   4.244   2.800   3.276
    1C        C  216   4.365   2.974   3.393
    1C        C  217   4.329   2.915   3.516
    1C        C  218   4.437   3.099   3.637
    1C        C  219   4.373   2.973   3.638
    1C        C  220   4.459   3.169   3.757
    1C        C  221   4.437   3.104   3.881
    1C        C  222   4.506   3.305   4.004
    1C        C  223   4.470   3.169   4.002
    1C        C  224   4.519   3.378   4.124
    1C        C  225   4.505   3.308   4.247
    1C        C  226   4.519   3.522   4.366
    1C        C  227   4.522   3.380   4.367
    1C        C  228   4.520   3.597   4.485
    1C        C  229   4.536   3.526   4.606
    1C        C  230   4.500   3.738   4.725
    1C        C  231   4.541   3.602   4.725
    1C        C  232   4.496   3.817   4.842
    1C        C  233   4.538   3.749   4.956
    1C        C  234   4.015   2.606   2.061
    1C        C  235   3.892   2.541   2.064
    1C        C  236   4.082   2.646   2.178
    1C        C  237   4.023   2.607   2.301
    1C        C  238   4.196   2.736   2.420
    1C        C  239   4.085   2.648   2.421
    1C        C  240   4.247   2.789   2.541
    1C        C  241   4.190   2.747   2.663
    1C        C  242   4.332   2.906   2.782
    1C        C  243   4.244   2.796   2.784
    1C        C  244   4.374   2.962   2.905
    1C        C  245   4.334   2.907   3.028
    1C        C  246   4.441   3.093   3.147
    1C        C  247   4.375   2.968   3.149
    1C        C  248   4.462   3.161   3.269
    1C        C  249   4.430   3.099   3.392
    1C        C  250   4.490   3.303   3.512
    1C        C  251   4.458   3.165   3.514
    1C        C  252   4.503   3.372   3.634
    1C        C  253   4.493   3.306   3.759
    1C        C  254   4.524   3.514   3.879
    1C        C  255   4.519   3.373   3.880
    1C        C  256   4.523   3.588   4.000
    1C        C  257   4.530   3.518   4.123
    1C        C  258   4.501   3.732   4.239
    1C        C  259   4.520   3.592   4.243
    1C        C  260   4.480   3.805   4.359
    1C        C  261   4.494   3.736   4.481
    1C        C  262   4.422   3.936   4.602
    1C        C  263   4.476   3.806   4.603
    1C        C  264   4.391   4.003   4.723
    1C        C  265   4.432   3.943   4.843
    1C        C  266   4.316   4.128   4.958
    1C        C  267   4.386   4.008   4.959
    1C        C  268   4.261   2.772   2.061
    1C        C  269   4.195   2.731   2.177
    1C        C  270   4.343   2.887   2.297
    1C        C  271   4.251   2.779   2.298
    1C        C  272   4.382   2.951   2.417
    1C        C  273   4.341   2.895   2.539
    1C        C  274   4.448   3.082   2.660
    1C        C  275   4.376   2.960   2.659
    1C        C  276   4.476   3.150   2.780
    1C        C  277   4.441   3.086   2.901
    1C        C  278   4.501   3.290   3.023
    1C        C  279   4.471   3.153   3.023
    1C        C  280   4.510   3.364   3.144
    1C        C  281   4.500   3.297   3.268
    1C        C  282   4.521   3.510   3.389
    1C        C  283   4.509   3.369   3.389
    1C        C  284   4.513   3.580   3.511
    1C        C  285   4.515   3.513   3.635
    1C        C  286   4.496   3.724   3.752
    1C        C  287   4.517   3.585   3.757
    1C        C  288   4.481   3.795   3.873
    1C        C  289   4.499   3.727   3.996
    1C        C  290   4.425   3.928   4.116
    1C        C  291   4.479   3.798   4.116
    1C        C  292   4.391   3.992   4.237
    1C        C  293   4.423   3.934   4.362
    1C        C  294   4.319   4.123   4.480
    1C        C  295   4.393   4.003   4.481
    1C        C  296   4.278   4.185   4.600
    1C        C  297   4.318   4.126   4.722
    1C        C  298   4.197   4.312   4.836
    1C        C  299   4.274   4.191   4.841
    1C        C  300   4.171   4.402   4.944
    1C        C  301   4.349   2.880   2.060
    1C        C  302   4.463   3.068   2.175
    1C        C  303   4.396   2.941   2.177
    1C        C  304   4.478   3.142   2.296
    1C        C  305   4.453   3.073   2.417
    1C        C  306   4.507   3.283   2.532
    1C        C  307   4.478   3.144   2.537
    1C        C  308   4.512   3.355   2.653
    1C        C  309   4.502   3.289   2.777
    1C        C  310   4.521   3.499   2.897
    1C        C  311   4.512   3.358   2.900
    1C        C  312   4.515   3.572   3.018
    1C        C  313   4.515   3.505   3.142
    1C        C  314   4.489   3.714   3.263
    1C        C  315   4.517   3.576   3.264
    1C        C  316   4.474   3.786   3.385
    1C        C  317   4.493   3.720   3.508
    1C        C  318   4.419   3.921   3.626
    1C        C  319   4.473   3.791   3.629
    1C        C  320   4.390   3.985   3.749
    1C        C  321   4.420   3.922   3.872
    1C        C  322   4.312   4.107   3.991
    1C        C  323   4.387   3.987   3.993
    1C        C  324   4.269   4.164   4.112
    1C        C  325   4.314   4.111   4.235
    1C        C  326   4.181   4.278   4.352
    1C        C  327   4.276   4.174   4.355
    1C        C  328   4.130   4.332   4.472
    1C        C  329   4.182   4.288   4.596
    1C        C  330   4.021   4.434   4.712
    1C        C  331   4.134   4.348   4.714
    1C        C  332   3.966   4.485   4.832
    1C        C  333   4.049   4.471   4.944
    1C        C  334   4.544   3.265   2.058
    1C        C  335   4.526   3.126   2.061
    1C        C  336   4.537   3.348   2.171
    1C        C  337   4.517   3.278   2.292
    1C        C  338   4.523   3.495   2.409
    1C        C  339   4.524   3.354   2.411
    1C        C  340   4.519   3.567   2.530
    1C        C  341   4.522   3.496   2.652
    1C        C  342   4.502   3.707   2.772
    1C        C  343   4.524   3.568   2.773
    1C        C  344   4.481   3.779   2.892
    1C        C  345   4.492   3.712   3.016
    1C        C  346   4.420   3.910   3.137
    1C        C  347   4.468   3.777   3.139
    1C        C  348   4.388   3.977   3.258
    1C        C  349   4.423   3.917   3.381
    1C        C  350   4.313   4.100   3.502
    1C        C  351   4.393   3.983   3.502
    1C        C  352   4.271   4.158   3.623
    1C        C  353   4.314   4.104   3.746
    1C        C  354   4.172   4.263   3.866
    1C        C  355   4.271   4.163   3.868
    1C        C  356   4.116   4.312   3.987
    1C        C  357   4.170   4.265   4.109
    1C        C  358   4.009   4.403   4.229
    1C        C  359   4.125   4.323   4.230
    1C        C  360   3.950   4.446   4.350
    1C        C  361   4.013   4.411   4.471
    1C        C  362   3.827   4.520   4.590
    1C        C  363   3.955   4.461   4.590
    1C        C  364   3.760   4.548   4.711
    1C        C  365   3.833   4.533   4.831
    1C        C  366   3.630   4.588   4.948
    1C        C  367   3.767   4.569   4.949
    1C        C  368   4.503   3.561   2.050
    1C        C  369   4.526   3.488   2.167
    1C        C  370   4.504   3.705   2.284
    1C        C  371   4.523   3.565   2.286
    1C        C  372   4.483   3.774   2.405
    1C        C  373   4.496   3.707   2.528
    1C        C  374   4.417   3.903   2.648
    1C        C  375   4.475   3.774   2.651
    1C        C  376   4.387   3.969   2.769
    1C        C  377   4.422   3.907   2.891
    1C        C  378   4.310   4.087   3.011
    1C        C  379   4.387   3.969   3.013
    1C        C  380   4.268   4.148   3.131
    1C        C  381   4.310   4.094   3.255
    1C        C  382   4.168   4.250   3.376
    1C        C  383   4.267   4.149   3.378
    1C        C  384   4.115   4.300   3.497
    1C        C  385   4.173   4.260   3.620
    1C        C  386   4.005   4.391   3.739
    1C        C  387   4.120   4.308   3.742
    1C        C  388   3.944   4.431   3.860
    1C        C  389   4.003   4.396   3.983
    1C        C  390   3.819   4.496   4.106
    1C        C  391   3.946   4.434   4.106
    1C        C  392   3.750   4.522   4.227
    1C        C  393   3.821   4.505   4.348
    1C        C  394   3.616   4.561   4.473
    1C        C  395   3.755   4.536   4.469
    1C        C  396   3.544   4.568   4.594
    1C        C  397   3.621   4.569   4.713
    1C        C  398   3.410   4.552   4.839
    1C        C  399   3.549   4.575   4.834
    1C        C  400   3.342   4.517   4.957
    1C        C  401   4.499   3.700   2.048
    1C        C  402   4.451   3.914   2.167
    1C        C  403   4.489   3.778   2.164
    1C        C  404   4.411   3.978   2.286
    1C        C  405   4.431   3.906   2.406
    1C        C  406   4.320   4.090   2.523
    1C        C  407   4.394   3.970   2.526
    1C        C  408   4.274   4.146   2.645
    1C        C  409   4.311   4.088   2.768
    1C        C  410   4.167   4.246   2.888
    1C        C  411   4.267   4.146   2.889
    1C        C  412   4.115   4.294   3.010
    1C        C  413   4.168   4.248   3.133
    1C        C  414   3.996   4.375   3.251
    1C        C  415   4.114   4.297   3.254
    1C        C  416   3.939   4.414   3.374
    1C        C  417   4.000   4.381   3.498
    1C        C  418   3.809   4.479   3.618
    1C        C  419   3.939   4.422   3.618
    1C        C  420   3.746   4.507   3.741
    1C        C  421   3.816   4.490   3.863
    1C        C  422   3.611   4.543   3.984
    1C        C  423   3.749   4.515   3.985
    1C        C  424   3.541   4.548   4.106
    1C        C  425   3.611   4.547   4.229
    1C        C  426   3.402   4.556   4.354
    1C        C  427   3.543   4.562   4.352
    1C        C  428   3.333   4.547   4.477
    1C        C  429   3.403   4.568   4.598
    1C        C  430   3.194   4.521   4.720
    1C        C  431   3.333   4.551   4.720
    1C        C  432   3.126   4.498   4.843
    1C        C  433   3.204   4.502   4.959
    1C        C  434   4.380   4.119   2.049
    1C        C  435   4.446   3.996   2.053
    1C        C  436   4.301   4.163   2.160
    1C        C  437   4.333   4.097   2.282
    1C        C  438   4.177   4.247   2.403
    1C        C  439   4.279   4.149   2.402
    1C        C  440   4.122   4.294   2.524
    1C        C  441   4.174   4.246   2.646
    1C        C  442   4.006   4.381   2.763
    1C        C  443   4.117   4.295   2.765
    1C        C  444   3.940   4.412   2.884
    1C        C  445   3.997   4.371   3.007
    1C        C  446   3.810   4.474   3.129
    1C        C  447   3.935   4.408   3.128
    1C        C  448   3.745   4.499   3.252
    1C        C  449   3.812   4.475   3.374
    1C        C  450   3.608   4.537   3.493
    1C        C  451   3.745   4.504   3.495
    1C        C  452   3.539   4.544   3.617
    1C        C  453   3.608   4.541   3.740
    1C        C  454   3.398   4.549   3.863
    1C        C  455   3.539   4.553   3.863
    1C        C  456   3.330   4.536   3.987
    1C        C  457   3.400   4.538   4.110
    1C        C  458   3.194   4.505   4.233
    1C        C  459   3.331   4.537   4.233
    1C        C  460   3.129   4.484   4.356
    1C        C  461   3.197   4.512   4.477
    1C        C  462   2.999   4.432   4.603
    1C        C  463   3.128   4.491   4.599
    1C        C  464   2.934   4.399   4.723
    1C        C  465   2.995   4.441   4.845
    1C        C  466   2.810   4.331   4.957
    1C        C  467   2.913   4.426   4.961
    1C        C  468   4.124   4.289   2.043
    1C        C  469   4.189   4.252   2.161
    1C        C  470   4.006   4.371   2.276
    1C        C  471   4.124   4.292   2.281
    1C        C  472   3.943   4.407   2.398
    1C        C  473   4.004   4.372   2.520
    1C        C  474   3.812   4.468   2.641
    1C        C  475   3.942   4.411   2.641
    1C        C  476   3.745   4.498   2.762
    1C        C  477   3.812   4.472   2.883
    1C        C  478   3.608   4.526   3.007
    1C        C  479   3.747   4.498   3.005
    1C        C  480   3.535   4.535   3.128
    1C        C  481   3.607   4.531   3.249
    1C        C  482   3.397   4.532   3.374
    1C        C  483   3.537   4.543   3.371
    1C        C  484   3.327   4.525   3.497
    1C        C  485   3.398   4.541   3.619
    1C        C  486   3.191   4.504   3.744
    1C        C  487   3.328   4.538   3.741
    1C        C  488   3.127   4.477   3.867
    1C        C  489   3.194   4.501   3.990
    1C        C  490   2.999   4.417   4.112
    1C        C  491   3.125   4.482   4.112
    1C        C  492   2.946   4.378   4.237
    1C        C  493   3.004   4.418   4.360
    1C        C  494   2.832   4.298   4.483
    1C        C  495   2.941   4.387   4.482
    1C        C  496   2.773   4.254   4.604
    1C        C  497   2.821   4.313   4.723
    1C        C  498   2.668   4.162   4.842
    1C        C  499   2.758   4.270   4.842
    1C        C  500   2.594   4.120   4.953
    1C        C  501   4.000   4.352   2.042
    1C        C  502   3.815   4.472   2.156
    1C        C  503   3.940   4.405   2.156
    1C        C  504   3.745   4.485   2.278
    1C        C  505   3.813   4.463   2.400
    1C        C  506   3.604   4.514   2.521
    1C        C  507   3.742   4.486   2.520
    1C        C  508   3.532   4.527   2.642
    1C        C  509   3.605   4.523   2.763
    1C        C  510   3.396   4.535   2.883
    1C        C  511   3.537   4.535   2.886
    1C        C  512   3.326   4.523   3.005
    1C        C  513   3.393   4.531   3.129
    1C        C  514   3.187   4.494   3.252
    1C        C  515   3.325   4.526   3.253
    1C        C  516   3.124   4.467   3.375
    1C        C  517   3.191   4.489   3.498
    1C        C  518   3.004   4.402   3.623
    1C        C  519   3.127   4.471   3.623
    1C        C  520   2.946   4.365   3.746
    1C        C  521   3.006   4.404   3.868
    1C        C  522   2.840   4.276   3.994
    1C        C  523   2.945   4.370   3.990
    1C        C  524   2.792   4.232   4.120
    1C        C  525   2.839   4.287   4.241
    1C        C  526   2.697   4.130   4.364
    1C        C  527   2.786   4.239   4.363
    1C        C  528   2.649   4.075   4.485
    1C        C  529   2.683   4.145   4.603
    1C        C  530   2.576   3.961   4.731
    1C        C  531   2.643   4.087   4.725
    1C        C  532   2.533   3.903   4.853
    1C        C  533   2.526   3.997   4.961
    1C        C  534   3.617   4.553   2.037
    1C        C  535   3.750   4.509   2.038
    1C        C  536   3.536   4.535   2.154
    1C        C  537   3.607   4.520   2.276
    1C        C  538   3.394   4.518   2.398
    1C        C  539   3.535   4.522   2.398
    1C        C  540   3.322   4.508   2.519
    1C        C  541   3.391   4.518   2.642
    1C        C  542   3.184   4.481   2.764
    1C        C  543   3.321   4.517   2.764
    1C        C  544   3.120   4.460   2.888
    1C        C  545   3.190   4.485   3.008
    1C        C  546   2.999   4.396   3.132
    1C        C  547   3.123   4.462   3.130
    1C        C  548   2.941   4.358   3.255
    1C        C  549   2.999   4.400   3.377
    1C        C  550   2.835   4.273   3.504
    1C        C  551   2.942   4.366   3.502
    1C        C  552   2.785   4.225   3.627
    1C        C  553   2.835   4.277   3.748
    1C        C  554   2.699   4.119   3.873
    1C        C  555   2.786   4.230   3.872
    1C        C  556   2.658   4.063   3.996
    1C        C  557   2.703   4.122   4.116
    1C        C  558   2.599   3.942   4.244
    1C        C  559   2.665   4.067   4.241
    1C        C  560   2.568   3.880   4.367
    1C        C  561   2.585   3.950   4.489
    1C        C  562   2.525   3.750   4.614
    1C        C  563   2.553   3.888   4.612
    1C        C  564   2.511   3.683   4.738
    1C        C  565   2.514   3.761   4.856
    1C        C  566   2.526   3.549   4.974
    1C        C  567   2.527   3.688   4.975
    1C        C  568   3.329   4.472   2.039
    1C        C  569   3.396   4.514   2.156
    1C        C  570   3.183   4.483   2.276
    1C        C  571   3.322   4.511   2.277
    1C        C  572   3.113   4.463   2.398
    1C        C  573   3.183   4.479   2.519
    1C        C  574   2.991   4.398   2.646
    1C        C  575   3.116   4.463   2.642
    1C        C  576   2.929   4.361   2.768
    1C        C  577   2.994   4.397   2.888
    1C        C  578   2.826   4.268   3.013
    1C        C  579   2.936   4.357   3.011
    1C        C  580   2.777   4.220   3.137
    1C        C  581   2.831   4.270   3.258
    1C        C  582   2.702   4.107   3.383
    1C        C  583   2.786   4.220   3.383
    1C        C  584   2.661   4.053   3.507
    1C        C  585   2.698   4.114   3.629
    1C        C  586   2.592   3.932   3.753
    1C        C  587   2.658   4.057   3.753
    1C        C  588   2.567   3.871   3.878
    1C        C  589   2.596   3.936   4.000
    1C        C  590   2.530   3.739   4.127
    1C        C  591   2.568   3.874   4.124
    1C        C  592   2.523   3.673   4.252
    1C        C  593   2.531   3.744   4.374
    1C        C  594   2.507   3.533   4.497
    1C        C  595   2.513   3.674   4.496
    1C        C  596   2.514   3.465   4.621
    1C        C  597   2.512   3.541   4.740
    1C        C  598   2.532   3.327   4.863
    1C        C  599   2.525   3.468   4.860
    1C        C  600   2.531   3.251   4.980
    1C        C  601   3.197   4.433   2.046
    1C        C  602   2.982   4.390   2.158
    1C        C  603   3.114   4.446   2.158
    1C        C  604   2.929   4.350   2.283
    1C        C  605   2.989   4.395   2.403
    1C        C  606   2.822   4.265   2.527
    1C        C  607   2.929   4.357   2.525
    1C        C  608   2.770   4.217   2.649
    1C        C  609   2.820   4.271   2.769
    1C        C  610   2.685   4.109   2.893
    1C        C  611   2.771   4.221   2.892
    1C        C  612   2.649   4.051   3.017
    1C        C  613   2.688   4.111   3.139
    1C        C  614   2.590   3.925   3.265
    1C        C  615   2.657   4.049   3.262
    1C        C  616   2.562   3.862   3.389
    1C        C  617   2.593   3.929   3.509
    1C        C  618   2.524   3.731   3.636
    1C        C  619   2.560   3.868   3.632
    1C        C  620   2.513   3.663   3.760
    1C        C  621   2.529   3.735   3.880
    1C        C  622   2.499   3.529   4.009
    1C        C  623   2.514   3.670   4.005
    1C        C  624   2.506   3.459   4.131
    1C        C  625   2.511   3.532   4.252
    1C        C  626   2.538   3.323   4.376
    1C        C  627   2.515   3.462   4.375
    1C        C  628   2.554   3.255   4.499
    1C        C  629   2.533   3.325   4.620
    1C        C  630   2.596   3.122   4.744
    1C        C  631   2.544   3.254   4.742
    1C        C  632   2.619   3.054   4.867
    1C        C  633   2.561   3.114   4.983
    1C        C  634   2.783   4.299   2.055
    1C        C  635   2.896   4.381   2.043
    1C        C  636   2.743   4.228   2.169
    1C        C  637   2.813   4.268   2.285
    1C        C  638   2.677   4.107   2.409
    1C        C  639   2.763   4.219   2.407
    1C        C  640   2.643   4.044   2.531
    1C        C  641   2.687   4.102   2.652
    1C        C  642   2.581   3.919   2.777
    1C        C  643   2.645   4.045   2.774
    1C        C  644   2.554   3.857   2.900
    1C        C  645   2.585   3.925   3.020
    1C        C  646   2.527   3.723   3.147
    1C        C  647   2.564   3.859   3.143
    1C        C  648   2.510   3.655   3.270
    1C        C  649   2.522   3.726   3.392
    1C        C  650   2.500   3.518   3.517
    1C        C  651   2.511   3.659   3.516
    1C        C  652   2.508   3.451   3.642
    1C        C  653   2.505   3.522   3.764
    1C        C  654   2.528   3.317   3.891
    1C        C  655   2.499   3.455   3.888
    1C        C  656   2.550   3.248   4.012
    1C        C  657   2.531   3.320   4.132
    1C        C  658   2.603   3.121   4.258
    1C        C  659   2.555   3.254   4.254
    1C        C  660   2.638   3.059   4.380
    1C        C  661   2.606   3.124   4.501
    1C        C  662   2.703   2.937   4.626
    1C        C  663   2.627   3.056   4.623
    1C        C  664   2.744   2.874   4.745
    1C        C  665   2.696   2.933   4.866
    1C        C  666   2.742   2.872   4.983
    1C        C  667   2.678   4.022   2.052
    1C        C  668   2.680   4.102   2.167
    1C        C  669   2.585   3.912   2.292
    1C        C  670   2.637   4.045   2.288
    1C        C  671   2.551   3.848   2.413
    1C        C  672   2.579   3.918   2.532
    1C        C  673   2.510   3.719   2.657
    1C        C  674   2.551   3.854   2.655
    1C        C  675   2.507   3.650   2.780
    1C        C  676   2.519   3.720   2.902
    1C        C  677   2.502   3.511   3.029
    1C        C  678   2.509   3.652   3.026
    1C        C  679   2.504   3.441   3.152
    1C        C  680   2.505   3.514   3.273
    1C        C  681   2.526   3.306   3.401
    1C        C  682   2.504   3.445   3.397
    1C        C  683   2.544   3.241   3.525
    1C        C  684   2.531   3.312   3.647
    1C        C  685   2.612   3.118   3.771
    1C        C  686   2.553   3.247   3.771
    1C        C  687   2.643   3.054   3.893
    1C        C  688   2.609   3.120   4.013
    1C        C  689   2.713   2.938   4.138
    1C        C  690   2.639   3.058   4.137
    1C        C  691   2.756   2.882   4.261
    1C        C  692   2.712   2.938   4.383
    1C        C  693   2.752   2.881   4.506
    1C        C  694   2.630   3.891   2.057
    1C        C  695   2.523   3.704   2.174
    1C        C  696   2.580   3.833   2.175
    1C        C  697   2.502   3.637   2.296
    1C        C  698   2.514   3.712   2.415
    1C        C  699   2.483   3.504   2.542
    1C        C  700   2.496   3.644   2.538
    1C        C  701   2.500   3.434   2.664
    1C        C  702   2.502   3.509   2.784
    1C        C  703   2.526   3.300   2.910
    1C        C  704   2.508   3.440   2.908
    1C        C  705   2.544   3.233   3.034
    1C        C  706   2.526   3.302   3.156
    1C        C  707   2.597   3.105   3.279
    1C        C  708   2.544   3.236   3.279
    1C        C  709   2.635   3.049   3.403
    1C        C  710   2.600   3.111   3.525
    1C        C  711   2.719   2.938   3.648
    1C        C  712   2.638   3.053   3.648
    1C        C  713   2.766   2.884   3.770
    1C        C  714   2.723   2.938   3.893
    1C        C  715   2.756   2.879   4.017
    1C        C  716   2.448   3.498   2.058
    1C        C  717   2.495   3.630   2.059
    1C        C  718   2.461   3.423   2.179
    1C        C  719   2.474   3.497   2.300
    1C        C  720   2.508   3.290   2.424
    1C        C  721   2.477   3.428   2.423
    1C        C  722   2.533   3.222   2.545
    1C        C  723   2.526   3.296   2.665
    1C        C  724   2.597   3.100   2.791
    1C        C  725   2.542   3.230   2.789
    1C        C  726   2.626   3.036   2.913
    1C        C  727   2.598   3.103   3.034
    1C        C  728   2.706   2.922   3.158
    1C        C  729   2.629   3.041   3.157
    1C        C  730   2.754   2.874   3.282
    1C        C  731   2.713   2.931   3.405
    1C        C  732   2.757   2.875   3.527
    1C        C  733   2.489   3.200   2.070
    1C        C  734   2.485   3.282   2.184
    1C        C  735   2.581   3.087   2.306
    1C        C  736   2.525   3.217   2.304
    1C        C  737   2.615   3.021   2.426
    1C        C  738   2.591   3.093   2.545
    1C        C  739   2.698   2.913   2.671
    1C        C  740   2.627   3.035   2.669
    1C        C  741   2.747   2.860   2.792
    1C        C  742   2.708   2.920   2.914
    1C        C  743   2.751   2.866   3.037
    1C        C  744   2.544   3.072   2.072
    1C        C  745   2.685   2.901   2.186
    1C        C  746   2.608   3.019   2.185
    1C        C  747   2.730   2.842   2.306
    1C        C  748   2.688   2.900   2.428
    1C        C  749   2.736   2.849   2.550
    1C        C  750   2.736   2.843   2.069
    1C        C  751   3.665   2.313   1.975
    1C        O  752   3.669   2.191   2.004
    1C        O  753   3.714   2.357   1.852
    1C        C  754   4.640   3.058   1.994
    1C        O  755   4.650   3.060   1.869
    1C        O  756   4.725   2.959   2.044
    1C        C  757   4.451   4.223   1.970
    1C        O  758   4.555   4.281   2.010
    1C        O  759   4.434   4.229   1.831
    1C        C  760   3.605   4.661   1.937
    1C        O  761   3.597   4.779   1.981
    1C        O  762   3.545   4.645   1.811
    1C        C  763   2.881   4.493   1.947
    1C        O  764   2.885   4.476   1.823
    1C        O  765   2.853   4.622   1.993
    1C        C  766   2.371   3.466   1.936
    1C        O  767   2.413   3.462   1.817
    1C        O  768   2.243   3.414   1.956
    1C        C  769   4.708   3.598   5.032
    1C        O  770   4.720   3.565   5.154
    1C        O  771   4.832   3.599   4.968
    1C        C  772   4.277   4.481   5.010
    1C        O  773   4.303   4.447   5.128
    1C        O  774   4.390   4.535   4.947
    1C        C  775   4.146   2.518   5.067
    1C        O  776   4.132   2.393   5.079
    1C        O  777   4.151   2.568   5.198
    1C        C  778   2.881   4.542   5.048
    1C        O  779   2.830   4.647   5.000
    1C        O  780   2.945   4.544   5.172
    1C        C  781   2.485   3.045   5.089
    1C        O  782   2.359   3.035   5.094
    1C        O  783   2.523   3.061   5.222
    1C        C  784   2.407   3.995   5.049
    1C        O  785   2.290   3.993   5.004
    1C        O  786   2.411   3.999   5.189
    1C        C  787   2.942   2.431   1.998
    1C        O  788   2.951   2.440   1.873
    1C        O  789   2.892   2.306   2.030
    1C        C  790   3.182   2.394   5.088
    1C        O  791   3.164   2.270   5.073
    1C        O  792   3.231   2.435   5.213
    1C        H  793   4.261   3.036   5.051
    1C        H  794   4.174   2.813   5.071
    1C        H  795   4.453   3.137   5.066
    1C        H  796   4.538   3.365   5.064
    1C        H  797   4.521   3.796   5.051
    1C        H  798   4.443   3.989   5.048
    1C        H  799   4.267   4.148   5.051
    1C        H  800   4.033   4.534   5.029
    1C        H  801   3.819   4.587   5.041
    1C        H  802   3.590   4.655   5.022
    1C        H  803   3.398   4.493   5.045
    1C        H  804   3.175   4.430   5.033
    1C        H  805   3.894   2.494   5.069
    1C        H  806   3.679   2.477   5.075
    1C        H  807   3.006   2.577   5.067
    1C        H  808   3.442   2.487   5.078
    1C        H  809   2.849   2.716   5.071
    1C        H  810   2.672   2.865   5.064
    1C        H  811   2.473   3.288   5.063
    1C        H  812   2.509   3.502   5.069
    1C        H  813   2.571   3.736   5.060
    1C        H  814   2.589   4.181   5.040
    1C        H  815   2.748   4.316   5.043
    1C        H  816   2.741   2.908   1.984
    1C        H  817   2.854   2.686   1.980
    1C        H  818   3.207   2.433   1.990
    1C        H  819   3.436   2.465   1.984
    1C        H  820   3.835   2.551   1.975
    1C        H  821   4.066   2.609   1.967
    1C        H  822   4.255   2.706   1.978
    1C        H  823   4.366   2.926   1.965
    1C        H  824   4.551   3.314   1.963
    1C        H  825   4.447   3.517   1.970
    1C        H  826   4.505   3.751   1.954
    1C        H  827   3.791   4.481   1.944
    1C        H  828   3.943   4.348   1.951
    1C        H  829   4.141   4.233   1.953
    1C        H  830   4.510   3.966   1.973
    1C        H  831   2.653   3.828   1.973
    1C        H  832   2.733   4.052   1.965
    1C        H  833   2.730   4.287   1.963
    1C        H  834   3.358   4.505   1.942
    1C        H  835   3.150   4.411   1.953
    1C        H  836   2.498   2.997   2.012
    1C        H  837   2.405   3.216   2.005
    1C        H  838   2.529   3.665   1.963
    2V3OU   H29  839   2.806   3.551   6.404
    2V3OU   C27  840   2.777   3.507   6.502
    2V3OU   H27  841   2.718   3.579   6.565
    2V3OU   H28  842   2.730   3.409   6.475
    2V3OU   O11  843   2.906   3.468   6.548
    2V3OU   C15  844   2.919   3.396   6.666
    2V3OU   C13  845   3.049   3.379   6.718
    2V3OU   C14  846   3.077   3.270   6.800
    2V3OU   C16  847   2.969   3.187   6.829
    2V3OU    H6  848   2.991   3.100   6.893
    2V3OU   C12  849   3.214   3.233   6.842
    2V3OU    O2  850   3.240   3.127   6.901
    2V3OU   C10  851   3.324   3.313   6.785
    2V3OU    C8  852   3.454   3.267   6.799
    2V3OU   O10  853   3.488   3.149   6.859
    2V3OU   H26  854   3.402   3.115   6.886
    2V3OU    C6  855   3.564   3.340   6.744
    2V3OU    C5  856   3.539   3.462   6.683
    2V3OU    C4  857   3.705   3.291   6.750
    2V3OU    H4  858   3.723   3.224   6.839
    2V3OU    H5  859   3.710   3.224   6.660
    2V3OU    C2  860   3.814   3.398   6.742
    2V3OU    O6  861   3.809   3.479   6.860
    2V3OU   H21  862   3.760   3.553   6.819
    2V3OU    C3  863   3.781   3.492   6.626
    2V3OU    H2  864   3.857   3.572   6.610
    2V3OU    H3  865   3.781   3.435   6.529
    2V3OU   C25  866   3.951   3.332   6.733
    2V3OU    O7  867   4.006   3.293   6.631
    2V3OU   C26  868   4.029   3.291   6.858
    2V3OU   H22  869   4.069   3.384   6.907
    2V3OU   H23  870   4.117   3.227   6.830
    2V3OU    O8  871   3.961   3.207   6.948
    2V3OU   H24  872   3.921   3.265   7.014
    2V3OU    C1  873   3.645   3.558   6.640
    2V3OU    H1  874   3.622   3.613   6.544
    2V3OU    O3  875   3.657   3.655   6.744
    2V3OU   C19  876   3.617   3.791   6.725
    2V3OU    H9  877   3.523   3.803   6.663
    2V3OU    O4  878   3.711   3.846   6.636
    2V3OU   C20  879   3.841   3.864   6.694
    2V3OU   H10  880   3.889   3.764   6.713
    2V3OU   C24  881   3.607   3.856   6.863
    2V3OU   H16  882   3.544   3.793   6.931
    2V3OU   H17  883   3.561   3.958   6.856
    2V3OU   C23  884   3.747   3.878   6.921
    2V3OU   H15  885   3.788   3.775   6.948
    2V3OU    N1  886   3.737   3.958   0.021
    2V3OU   H19  887   3.802   3.922   0.088
    2V3OU   H20  888   3.653   3.934   0.070
    2V3OU   C21  889   3.845   3.947   6.822
    2V3OU   H11  890   3.945   3.926   6.869
    2V3OU    O5  891   3.826   4.088   6.816
    2V3OU   H18  892   3.780   4.102   6.900
    2V3OU   C22  893   3.909   3.944   6.584
    2V3OU   H12  894   3.862   4.046   6.573
    2V3OU   H13  895   3.908   3.889   6.486
    2V3OU   H14  896   4.016   3.959   6.610
    2V3OU   C11  897   3.160   3.470   6.685
    2V3OU    O1  898   3.131   3.584   6.641
    2V3OU    C9  899   3.300   3.431   6.709
    2V3OU    C7  900   3.405   3.510   6.663
    2V3OU    O9  901   3.387   3.625   6.590
    2V3OU   H25  902   3.291   3.639   6.585
    2V3OU   C17  903   2.812   3.313   6.705
    2V3OU    H7  904   2.714   3.341   6.667
    2V3OU   C18  905   2.837   3.206   6.790
    2V3OU    H8  906   2.754   3.150   6.837
    3SOL     OW  907   2.794   3.336   5.184
    3SOL    HW1  908   2.777   3.276   5.262
    3SOL    HW2  909   2.740   3.419   5.193
    4SOL     OW  910   0.783   0.357   0.459
    4SOL    HW1  911   0.810   0.275   0.409
    4SOL    HW2  912   0.822   0.354   0.551
    5SOL     OW  913   3.852   1.896   0.480
    5SOL    HW1  914   3.780   1.962   0.498
    5SOL    HW2  915   3.941   1.936   0.504
    6SOL     OW  916   3.122   2.155   1.939
    6SOL    HW1  917   3.037   2.206   1.952
    6SOL    HW2  918   3.136   2.093   2.016
    7SOL     OW  919   1.766   2.812   4.812
    7SOL    HW1  920   1.774   2.852   4.721
    7SOL    HW2  921   1.843   2.841   4.869
    8SOL     OW  922   1.261   1.819   6.046
    8SOL    HW1  923   1.294   1.834   5.953
    8SOL    HW2  924   1.162   1.835   6.050
    9SOL     OW  925   2.158   2.294   5.469
    9SOL    HW1  926   2.117   2.249   5.389
    9SOL    HW2  927   2.240   2.244   5.496
   10SOL     OW  928   5.840   4.943   0.707
   10SOL    HW1  929   5.835   4.844   0.697
   10SOL    HW2  930   5.933   4.969   0.734
   11SOL     OW  931   3.108   1.169   1.150
   11SOL    HW1  932   3.147   1.167   1.242
   11SOL    HW2  933   3.135   1.254   1.104
   12SOL     OW  934   5.628   4.564   1.018
   12SOL    HW1  935   5.585   4.618   0.945
   12SOL    HW2  936   5.723   4.546   0.994
   13SOL     OW  937   4.537   6.012   1.851
   13SOL    HW1  938   4.560   5.917   1.874
   13SOL    HW2  939   4.477   6.050   1.921
   14SOL     OW  940   4.645   5.929   1.049
   14SOL    HW1  941   4.628   6.023   1.077
   14SOL    HW2  942   4.719   5.927   0.982
   15SOL     OW  943   0.415   0.080   6.825
   15SOL    HW1  944   0.322   0.103   6.853
   15SOL    HW2  945   0.460   0.161   6.788
   16SOL     OW  946   1.594   5.094   5.433
   16SOL    HW1  947   1.561   5.041   5.354
   16SOL    HW2  948   1.597   5.191   5.408
   17SOL     OW  949   0.294   2.166   4.162
   17SOL    HW1  950   0.250   2.255   4.178
   17SOL    HW2  951   0.245   2.117   4.090
   18SOL     OW  952   2.266   6.938   5.184
   18SOL    HW1  953   2.304   6.852   5.218
   18SOL    HW2  954   2.340   6.998   5.155
   19SOL     OW  955   4.104   5.809   3.447
   19SOL    HW1  956   4.097   5.718   3.407
   19SOL    HW2  957   4.114   5.801   3.546
   20SOL     OW  958   0.183   1.461   4.378
   20SOL    HW1  959   0.093   1.503   4.363
   20SOL    HW2  960   0.180   1.408   4.463
   21SOL     OW  961   2.012   3.115   1.973
   21SOL    HW1  962   1.936   3.058   1.943
   21SOL    HW2  963   2.036   3.091   2.067
   22SOL     OW  964   0.506   0.432   0.418
   22SOL    HW1  965   0.568   0.388   0.482
   22SOL    HW2  966   0.513   0.388   0.328
   23SOL     OW  967   0.461   5.301   0.700
   23SOL    HW1  968   0.398   5.371   0.732
   23SOL    HW2  969   0.434   5.271   0.608
   24SOL     OW  970   4.436   0.638   6.715
   24SOL    HW1  971   4.450   0.676   6.807
   24SOL    HW2  972   4.454   0.709   6.647
   25SOL     OW  973   2.436   0.520   5.529
   25SOL    HW1  974   2.469   0.494   5.438
   25SOL    HW2  975   2.512   0.513   5.594
   26SOL     OW  976   2.355   6.556   5.324
   26SOL    HW1  977   2.281   6.502   5.363
   26SOL    HW2  978   2.389   6.621   5.392
   27SOL     OW  979   0.267   0.097   2.195
   27SOL    HW1  980   0.245   0.194   2.197
   27SOL    HW2  981   0.349   0.079   2.250
   28SOL     OW  982   2.257   0.472   5.200
   28SOL    HW1  983   2.350   0.508   5.208
   28SOL    HW2  984   2.215   0.469   5.290
   29SOL     OW  985   5.320   0.300   2.072
   29SOL    HW1  986   5.258   0.295   2.149
   29SOL    HW2  987   5.413   0.276   2.102
   30SOL     OW  988   4.893   6.804   4.700
   30SOL    HW1  989   4.823   6.735   4.679
   30SOL    HW2  990   4.918   6.798   4.797
   31SOL     OW  991   5.785   3.698   4.400
   31SOL    HW1  992   5.856   3.762   4.426
   31SOL    HW2  993   5.808   3.607   4.434
   32SOL     OW  994   3.659   1.712   1.555
   32SOL    HW1  995   3.619   1.622   1.538
   32SOL    HW2  996   3.729   1.731   1.486
   33SOL     OW  997   1.848   4.794   5.087
   33SOL    HW1  998   1.772   4.789   5.151
   33SOL    HW2  999   1.920   4.853   5.125
   34SOL     OW 1000   2.630   0.194   5.462
   34SOL    HW1 1001   2.532   0.183   5.444
   34SOL    HW2 1002   2.652   0.153   5.550
   35SOL     OW 1003   0.950   3.426   4.415
   35SOL    HW1 1004   1.017   3.410   4.342
   35SOL    HW2 1005   0.932   3.340   4.463
   36SOL     OW 1006   5.544   0.841   4.846
   36SOL    HW1 1007   5.505   0.779   4.915
   36SOL    HW2 1008   5.473   0.905   4.816
   37SOL     OW 1009   1.115   5.834   3.552
   37SOL    HW1 1010   1.033   5.792   3.513
   37SOL    HW2 1011   1.179   5.763   3.581
   38SOL     OW 1012   0.755   3.643   2.075
   38SOL    HW1 1013   0.667   3.617   2.114
   38SOL    HW2 1014   0.751   3.634   1.975
   39SOL     OW 1015   6.305   5.757   1.265
   39SOL    HW1 1016   6.255   5.677   1.298
   39SOL    HW2 1017   6.249   5.806   1.198
   40SOL     OW 1018   4.273   0.637   5.893
   40SOL    HW1 1019   4.268   0.723   5.944
   40SOL    HW2 1020   4.215   0.569   5.938
   41SOL     OW 1021   0.361   3.785   1.162
   41SOL    HW1 1022   0.396   3.712   1.221
   41SOL    HW2 1023   0.435   3.848   1.141
   42SOL     OW 1024   2.552   3.761   1.037
   42SOL    HW1 1025   2.563   3.757   1.136
   42SOL    HW2 1026   2.636   3.731   0.993
   43SOL     OW 1027   4.976   0.666   3.497
   43SOL    HW1 1028   4.966   0.583   3.553
   43SOL    HW2 1029   4.889   0.716   3.497
   44SOL     OW 1030   6.970   1.073   6.826
   44SOL    HW1 1031   7.002   1.166   6.844
   44SOL    HW2 1032   6.961   1.024   6.912
   45SOL     OW 1033   2.206   3.597   5.030
   45SOL    HW1 1034   2.301   3.628   5.028
   45SOL    HW2 1035   2.150   3.657   4.973
   46SOL     OW 1036   0.769   5.641   4.296
   46SOL    HW1 1037   0.739   5.734   4.276
   46SOL    HW2 1038   0.690   5.586   4.321
   47SOL     OW 1039   0.322   4.016   5.979
   47SOL    HW1 1040   0.388   4.075   5.932
   47SOL    HW2 1041   0.276   3.958   5.913
   48SOL     OW 1042   0.523   4.214   0.383
   48SOL    HW1 1043   0.556   4.130   0.426
   48SOL    HW2 1044   0.427   4.228   0.407
   49SOL     OW 1045   3.816   0.490   0.428
   49SOL    HW1 1046   3.718   0.472   0.421
   49SOL    HW2 1047   3.866   0.428   0.367
   50SOL     OW 1048   4.674   1.801   5.693
   50SOL    HW1 1049   4.763   1.759   5.708
   50SOL    HW2 1050   4.672   1.843   5.603
   51SOL     OW 1051   0.879   6.562   1.996
   51SOL    HW1 1052   0.917   6.625   1.928
   51SOL    HW2 1053   0.885   6.604   2.087
   52SOL     OW 1054   4.968   3.124   2.798
   52SOL    HW1 1055   4.976   3.063   2.720
   52SOL    HW2 1056   5.049   3.115   2.856
   53SOL     OW 1057   4.225   6.624   1.340
   53SOL    HW1 1058   4.257   6.702   1.394
   53SOL    HW2 1059   4.194   6.551   1.402
   54SOL     OW 1060   0.977   1.274   6.228
   54SOL    HW1 1061   1.069   1.309   6.247
   54SOL    HW2 1062   0.980   1.174   6.223
   55SOL     OW 1063   2.642   3.775   6.334
   55SOL    HW1 1064   2.545   3.750   6.338
   55SOL    HW2 1065   2.686   3.727   6.258
   56SOL     OW 1066   2.251   2.185   0.011
   56SOL    HW1 1067   2.296   2.163   6.945
   56SOL    HW2 1068   2.263   2.282   0.031
   57SOL     OW 1069   4.507   6.135   1.547
   57SOL    HW1 1070   4.467   6.057   1.499
   57SOL    HW2 1071   4.489   6.126   1.645
   58SOL     OW 1072   0.596   0.535   0.099
   58SOL    HW1 1073   0.550   0.617   0.132
   58SOL    HW2 1074   0.690   0.532   0.133
   59SOL     OW 1075   4.257   3.571   0.073
   59SOL    HW1 1076   4.269   3.659   0.119
   59SOL    HW2 1077   4.276   3.581   6.997
   60SOL     OW 1078   6.205   2.627   1.858
   60SOL    HW1 1079   6.270   2.565   1.899
   60SOL    HW2 1080   6.167   2.687   1.928
   61SOL     OW 1081   1.256   4.874   2.656
   61SOL    HW1 1082   1.325   4.908   2.592
   61SOL    HW2 1083   1.246   4.940   2.731
   62SOL     OW 1084   4.917   3.684   3.014
   62SOL    HW1 1085   4.954   3.666   2.923
   62SOL    HW2 1086   4.894   3.597   3.058
   63SOL     OW 1087   4.443   0.402   6.009
   63SOL    HW1 1088   4.376   0.375   5.940
   63SOL    HW2 1089   4.535   0.378   5.979
   64SOL     OW 1090   2.227   1.874   6.840
   64SOL    HW1 1091   2.131   1.893   6.859
   64SOL    HW2 1092   2.234   1.791   6.784
   65SOL     OW 1093   0.711   5.278   4.875
   65SOL    HW1 1094   0.713   5.269   4.975
   65SOL    HW2 1095   0.738   5.370   4.849
   66SOL     OW 1096   4.437   1.859   1.386
   66SOL    HW1 1097   4.447   1.911   1.301
   66SOL    HW2 1098   4.405   1.766   1.364
   67SOL     OW 1099   7.003   3.053   2.818
   67SOL    HW1 1100   0.011   3.093   2.905
   67SOL    HW2 1101   0.034   2.969   2.801
   68SOL     OW 1102   0.074   1.228   5.791
   68SOL    HW1 1103   0.029   1.297   5.848
   68SOL    HW2 1104   0.011   1.199   5.719
   69SOL     OW 1105   1.852   1.184   5.965
   69SOL    HW1 1106   1.921   1.243   5.924
   69SOL    HW2 1107   1.762   1.228   5.957
   70SOL     OW 1108   4.934   5.136   3.170
   70SOL    HW1 1109   5.019   5.103   3.212
   70SOL    HW2 1110   4.856   5.097   3.218
   71SOL     OW 1111   5.210   1.232   5.445
   71SOL    HW1 1112   5.170   1.187   5.365
   71SOL    HW2 1113   5.285   1.176   5.480
   72SOL     OW 1114   6.809   2.108   2.635
   72SOL    HW1 1115   6.864   2.190   2.652
   72SOL    HW2 1116   6.743   2.127   2.562
   73SOL     OW 1117   2.591   1.052   0.587
   73SOL    HW1 1118   2.686   1.083   0.591
   73SOL    HW2 1119   2.574   0.985   0.660
   74SOL     OW 1120   2.722   0.899   0.194
   74SOL    HW1 1121   2.689   0.856   0.110
   74SOL    HW2 1122   2.661   0.974   0.220
   75SOL     OW 1123   2.941   3.341   1.140
   75SOL    HW1 1124   2.936   3.357   1.042
   75SOL    HW2 1125   2.876   3.400   1.187
   76SOL     OW 1126   2.666   5.010   6.137
   76SOL    HW1 1127   2.643   4.975   6.228
   76SOL    HW2 1128   2.597   4.980   6.071
   77SOL     OW 1129   0.780   4.825   5.397
   77SOL    HW1 1130   0.860   4.771   5.424
   77SOL    HW2 1131   0.706   4.763   5.370
   78SOL     OW 1132   4.886   1.416   0.937
   78SOL    HW1 1133   4.850   1.478   1.007
   78SOL    HW2 1134   4.927   1.470   0.863
   79SOL     OW 1135   2.150   4.747   4.241
   79SOL    HW1 1136   2.222   4.794   4.190
   79SOL    HW2 1137   2.181   4.731   4.335
   80SOL     OW 1138   4.253   1.813   5.197
   80SOL    HW1 1139   4.260   1.714   5.210
   80SOL    HW2 1140   4.284   1.837   5.105
   81SOL     OW 1141   2.292   4.668   2.789
   81SOL    HW1 1142   2.358   4.599   2.820
   81SOL    HW2 1143   2.223   4.624   2.730
   82SOL     OW 1144   2.771   0.301   1.233
   82SOL    HW1 1145   2.817   0.384   1.264
   82SOL    HW2 1146   2.779   0.294   1.133
   83SOL     OW 1147   6.208   2.001   3.613
   83SOL    HW1 1148   6.261   1.938   3.556
   83SOL    HW2 1149   6.198   2.088   3.566
   84SOL     OW 1150   5.120   1.948   2.610
   84SOL    HW1 1151   5.105   2.016   2.538
   84SOL    HW2 1152   5.087   1.984   2.697
   85SOL     OW 1153   2.004   5.374   2.756
   85SOL    HW1 1154   1.948   5.292   2.755
   85SOL    HW2 1155   2.099   5.350   2.776
   86SOL     OW 1156   4.547   1.379   5.834
   86SOL    HW1 1157   4.483   1.304   5.849
   86SOL    HW2 1158   4.638   1.353   5.867
   87SOL     OW 1159   2.898   2.177   6.600
   87SOL    HW1 1160   2.833   2.206   6.530
   87SOL    HW2 1161   2.947   2.096   6.568
   88SOL     OW 1162   1.452   1.860   0.326
   88SOL    HW1 1163   1.487   1.775   0.366
   88SOL    HW2 1164   1.521   1.897   0.263
   89SOL     OW 1165   3.943   3.928   6.001
   89SOL    HW1 1166   3.843   3.924   6.010
   89SOL    HW2 1167   3.969   4.017   5.963
   90SOL     OW 1168   6.975   4.174   1.844
   90SOL    HW1 1169   0.042   4.168   1.797
   90SOL    HW2 1170   6.974   4.109   1.920
   91SOL     OW 1171   5.408   4.906   0.687
   91SOL    HW1 1172   5.438   5.000   0.705
   91SOL    HW2 1173   5.313   4.896   0.718
   92SOL     OW 1174   6.689   6.547   6.866
   92SOL    HW1 1175   6.751   6.624   6.882
   92SOL    HW2 1176   6.701   6.514   6.772
   93SOL     OW 1177   2.858   3.347   2.216
   93SOL    HW1 1178   2.918   3.270   2.239
   93SOL    HW2 1179   2.771   3.312   2.181
   94SOL     OW 1180   3.558   1.151   4.385
   94SOL    HW1 1181   3.649   1.109   4.381
   94SOL    HW2 1182   3.497   1.092   4.438
   95SOL     OW 1183   0.573   6.394   4.323
   95SOL    HW1 1184   0.510   6.467   4.351
   95SOL    HW2 1185   0.533   6.305   4.346
   96SOL     OW 1186   0.545   6.516   0.519
   96SOL    HW1 1187   0.511   6.424   0.497
   96SOL    HW2 1188   0.532   6.534   0.616
   97SOL     OW 1189   3.848   5.357   4.487
   97SOL    HW1 1190   3.850   5.276   4.428
   97SOL    HW2 1191   3.759   5.362   4.533
   98SOL     OW 1192   6.687   1.998   4.765
   98SOL    HW1 1193   6.735   1.972   4.681
   98SOL    HW2 1194   6.715   2.091   4.791
   99SOL     OW 1195   5.096   4.603   4.877
   99SOL    HW1 1196   5.094   4.568   4.783
   99SOL    HW2 1197   5.064   4.532   4.940
  100SOL     OW 1198   2.000   1.919   5.444
  100SOL    HW1 1199   1.911   1.961   5.459
  100SOL    HW2 1200   2.022   1.922   5.346
  101SOL     OW 1201   5.106   2.722   2.309
  101SOL    HW1 1202   5.097   2.734   2.408
  101SOL    HW2 1203   5.051   2.791   2.262
  102SOL     OW 1204   4.784   6.796   0.703
  102SOL    HW1 1205   4.882   6.815   0.705
  102SOL    HW2 1206   4.742   6.846   0.627
  103SOL     OW 1207   2.353   2.193   1.067
  103SOL    HW1 1208   2.406   2.112   1.090
  103SOL    HW2 1209   2.401   2.274   1.101
  104SOL     OW 1210   1.019   3.521   1.756
  104SOL    HW1 1211   0.960   3.451   1.717
  104SOL    HW2 1212   1.086   3.550   1.687
  105SOL     OW 1213   0.324   1.739   4.402
  105SOL    HW1 1214   0.251   1.670   4.407
  105SOL    HW2 1215   0.283   1.829   4.385
  106SOL     OW 1216   5.422   3.506   1.085
  106SOL    HW1 1217   5.385   3.463   1.167
  106SOL    HW2 1218   5.392   3.601   1.080
  107SOL     OW 1219   4.474   0.251   2.642
  107SOL    HW1 1220   4.458   0.331   2.699
  107SOL    HW2 1221   4.569   0.222   2.651
  108SOL     OW 1222   3.920   1.186   4.997
  108SOL    HW1 1223   3.914   1.260   4.929
  108SOL    HW2 1224   3.839   1.190   5.056
  109SOL     OW 1225   1.923   1.574   4.438
  109SOL    HW1 1226   1.966   1.629   4.368
  109SOL    HW2 1227   1.990   1.511   4.477
  110SOL     OW 1228   4.076   5.023   5.294
  110SOL    HW1 1229   4.133   5.006   5.213
  110SOL    HW2 1230   4.134   5.030   5.375
  111SOL     OW 1231   0.068   3.374   0.554
  111SOL    HW1 1232   0.103   3.305   0.490
  111SOL    HW2 1233   0.145   3.423   0.595
  112SOL     OW 1234   3.329   6.288   4.843
  112SOL    HW1 1235   3.382   6.205   4.822
  112SOL    HW2 1236   3.241   6.284   4.796
  113SOL     OW 1237   1.609   4.708   2.201
  113SOL    HW1 1238   1.633   4.798   2.238
  113SOL    HW2 1239   1.685   4.673   2.147
  114SOL     OW 1240   6.674   2.125   1.899
  114SOL    HW1 1241   6.630   2.206   1.860
  114SOL    HW2 1242   6.630   2.043   1.861
  115SOL     OW 1243   4.336   0.754   3.292
  115SOL    HW1 1244   4.342   0.816   3.370
  115SOL    HW2 1245   4.369   0.664   3.319
  116SOL     OW 1246   6.459   5.684   6.624
  116SOL    HW1 1247   6.376   5.724   6.663
  116SOL    HW2 1248   6.528   5.755   6.610
  117SOL     OW 1249   2.090   1.591   0.480
  117SOL    HW1 1250   2.078   1.690   0.475
  117SOL    HW2 1251   2.078   1.560   0.574
  118SOL     OW 1252   1.172   3.121   1.557
  118SOL    HW1 1253   1.087   3.086   1.518
  118SOL    HW2 1254   1.198   3.206   1.512
  119SOL     OW 1255   5.460   5.227   4.334
  119SOL    HW1 1256   5.404   5.213   4.416
  119SOL    HW2 1257   5.536   5.288   4.356
  120SOL     OW 1258   4.657   1.394   4.206
  120SOL    HW1 1259   4.591   1.457   4.249
  120SOL    HW2 1260   4.609   1.332   4.145
  121SOL     OW 1261   6.703   5.029   5.579
  121SOL    HW1 1262   6.622   4.978   5.605
  121SOL    HW2 1263   6.784   4.972   5.592
  122SOL     OW 1264   0.186   5.655   5.396
  122SOL    HW1 1265   0.283   5.637   5.412
  122SOL    HW2 1266   0.144   5.575   5.353
  123SOL     OW 1267   0.828   2.068   0.960
  123SOL    HW1 1268   0.863   2.098   0.871
  123SOL    HW2 1269   0.844   1.969   0.970
  124SOL     OW 1270   2.200   3.777   6.644
  124SOL    HW1 1271   2.259   3.821   6.576
  124SOL    HW2 1272   2.170   3.845   6.711
  125SOL     OW 1273   3.922   3.542   1.981
  125SOL    HW1 1274   3.862   3.469   1.947
  125SOL    HW2 1275   4.007   3.543   1.929
  126SOL     OW 1276   3.882   3.478   5.122
  126SOL    HW1 1277   3.858   3.558   5.177
  126SOL    HW2 1278   3.963   3.434   5.159
  127SOL     OW 1279   0.444   4.320   6.133
  127SOL    HW1 1280   0.453   4.220   6.124
  127SOL    HW2 1281   0.510   4.353   6.200
  128SOL     OW 1282   5.049   4.399   6.557
  128SOL    HW1 1283   4.973   4.419   6.495
  128SOL    HW2 1284   5.076   4.303   6.546
  129SOL     OW 1285   0.974   5.313   2.721
  129SOL    HW1 1286   0.917   5.235   2.695
  129SOL    HW2 1287   0.917   5.395   2.727
  130SOL     OW 1288   6.309   3.834   4.916
  130SOL    HW1 1289   6.407   3.830   4.938
  130SOL    HW2 1290   6.265   3.748   4.944
  131SOL     OW 1291   0.419   3.005   1.972
  131SOL    HW1 1292   0.458   3.089   2.011
  131SOL    HW2 1293   0.403   2.939   2.046
  132SOL     OW 1294   3.681   3.932   1.596
  132SOL    HW1 1295   3.765   3.909   1.644
  132SOL    HW2 1296   3.602   3.906   1.652
  133SOL     OW 1297   4.216   4.290   5.837
  133SOL    HW1 1298   4.121   4.273   5.863
  133SOL    HW2 1299   4.267   4.204   5.842
  134SOL     OW 1300   0.411   2.088   6.852
  134SOL    HW1 1301   0.335   2.153   6.851
  134SOL    HW2 1302   0.378   1.999   6.819
  135SOL     OW 1303   4.221   5.055   4.028
  135SOL    HW1 1304   4.284   5.123   3.990
  135SOL    HW2 1305   4.208   4.982   3.961
  136SOL     OW 1306   3.322   6.143   6.386
  136SOL    HW1 1307   3.349   6.104   6.474
  136SOL    HW2 1308   3.229   6.111   6.363
  137SOL     OW 1309   1.758   4.350   6.804
  137SOL    HW1 1310   1.660   4.350   6.787
  137SOL    HW2 1311   1.780   4.279   6.872
  138SOL     OW 1312   0.169   6.548   1.762
  138SOL    HW1 1313   0.172   6.482   1.686
  138SOL    HW2 1314   0.117   6.508   1.838
  139SOL     OW 1315   1.355   7.009   0.975
  139SOL    HW1 1316   1.280   6.988   0.912
  139SOL    HW2 1317   1.427   6.940   0.964
  140SOL     OW 1318   2.794   0.354   3.248
  140SOL    HW1 1319   2.716   0.297   3.226
  140SOL    HW2 1320   2.862   0.348   3.175
  141SOL     OW 1321   2.379   2.174   0.363
  141SOL    HW1 1322   2.329   2.100   0.319
  141SOL    HW2 1323   2.336   2.196   0.451
  142SOL     OW 1324   1.521   4.603   5.893
  142SOL    HW1 1325   1.427   4.605   5.926
  142SOL    HW2 1326   1.526   4.640   5.801
  143SOL     OW 1327   4.717   6.206   2.187
  143SOL    HW1 1328   4.716   6.265   2.106
  143SOL    HW2 1329   4.784   6.240   2.252
  144SOL     OW 1330   2.332   4.890   3.075
  144SOL    HW1 1331   2.423   4.847   3.076
  144SOL    HW2 1332   2.341   4.987   3.095
  145SOL     OW 1333   6.177   6.133   2.384
  145SOL    HW1 1334   6.268   6.155   2.349
  145SOL    HW2 1335   6.186   6.072   2.463
  146SOL     OW 1336   6.457   1.509   4.516
  146SOL    HW1 1337   6.430   1.525   4.421
  146SOL    HW2 1338   6.410   1.427   4.550
  147SOL     OW 1339   5.861   6.555   5.732
  147SOL    HW1 1340   5.843   6.554   5.830
  147SOL    HW2 1341   5.956   6.528   5.715
  148SOL     OW 1342   1.930   0.273   3.637
  148SOL    HW1 1343   1.939   0.370   3.660
  148SOL    HW2 1344   1.849   0.235   3.682
  149SOL     OW 1345   2.060   2.006   5.194
  149SOL    HW1 1346   2.036   2.000   5.097
  149SOL    HW2 1347   2.052   2.101   5.225
  150SOL     OW 1348   5.107   3.165   4.695
  150SOL    HW1 1349   5.022   3.171   4.748
  150SOL    HW2 1350   5.090   3.196   4.602
  151SOL     OW 1351   6.214   2.977   1.723
  151SOL    HW1 1352   6.313   2.964   1.732
  151SOL    HW2 1353   6.180   3.030   1.800
  152SOL     OW 1354   5.979   1.579   0.277
  152SOL    HW1 1355   6.055   1.568   0.212
  152SOL    HW2 1356   6.007   1.638   0.352
  153SOL     OW 1357   1.840   1.666   3.746
  153SOL    HW1 1358   1.920   1.686   3.802
  153SOL    HW2 1359   1.865   1.669   3.649
  154SOL     OW 1360   0.056   2.323   3.644
  154SOL    HW1 1361   6.991   2.332   3.695
  154SOL    HW2 1362   0.082   2.227   3.640
  155SOL     OW 1363   5.863   4.977   3.301
  155SOL    HW1 1364   5.934   4.966   3.232
  155SOL    HW2 1365   5.895   5.042   3.371
  156SOL     OW 1366   4.399   0.272   1.394
  156SOL    HW1 1367   4.409   0.199   1.327
  156SOL    HW2 1368   4.437   0.357   1.357
  157SOL     OW 1369   5.850   1.103   0.698
  157SOL    HW1 1370   5.777   1.103   0.630
  157SOL    HW2 1371   5.865   1.196   0.732
  158SOL     OW 1372   1.007   2.544   5.802
  158SOL    HW1 1373   0.933   2.545   5.735
  158SOL    HW2 1374   1.008   2.631   5.852
  159SOL     OW 1375   0.396   5.021   6.506
  159SOL    HW1 1376   0.322   4.991   6.566
  159SOL    HW2 1377   0.384   4.980   6.415
  160SOL     OW 1378   4.350   6.796   2.008
  160SOL    HW1 1379   4.427   6.734   1.996
  160SOL    HW2 1380   4.381   6.880   2.052
  161SOL     OW 1381   5.700   6.620   1.300
  161SOL    HW1 1382   5.600   6.620   1.292
  161SOL    HW2 1383   5.726   6.580   1.389
  162SOL     OW 1384   4.171   6.932   5.238
  162SOL    HW1 1385   4.261   6.894   5.259
  162SOL    HW2 1386   4.182   0.002   5.197
  163SOL     OW 1387   1.518   3.791   3.072
  163SOL    HW1 1388   1.467   3.798   3.158
  163SOL    HW2 1389   1.514   3.697   3.039
  164SOL     OW 1390   1.679   2.844   2.239
  164SOL    HW1 1391   1.748   2.798   2.184
  164SOL    HW2 1392   1.706   2.939   2.255
  165SOL     OW 1393   0.379   5.913   5.057
  165SOL    HW1 1394   0.364   5.864   4.972
  165SOL    HW2 1395   0.459   5.973   5.048
  166SOL     OW 1396   0.543   5.403   3.801
  166SOL    HW1 1397   0.592   5.486   3.773
  166SOL    HW2 1398   0.469   5.384   3.737
  167SOL     OW 1399   0.201   1.595   3.299
  167SOL    HW1 1400   0.220   1.500   3.325
  167SOL    HW2 1401   0.280   1.635   3.253
  168SOL     OW 1402   3.250   4.074   4.671
  168SOL    HW1 1403   3.217   4.016   4.745
  168SOL    HW2 1404   3.179   4.140   4.646
  169SOL     OW 1405   4.888   3.112   5.770
  169SOL    HW1 1406   4.853   3.191   5.820
  169SOL    HW2 1407   4.870   3.029   5.823
  170SOL     OW 1408   5.899   5.290   2.732
  170SOL    HW1 1409   5.909   5.206   2.680
  170SOL    HW2 1410   5.980   5.348   2.717
  171SOL     OW 1411   3.488   2.875   0.987
  171SOL    HW1 1412   3.468   2.778   0.996
  171SOL    HW2 1413   3.586   2.889   0.977
  172SOL     OW 1414   1.882   0.734   0.155
  172SOL    HW1 1415   1.847   0.826   0.175
  172SOL    HW2 1416   1.912   0.730   0.060
  173SOL     OW 1417   5.417   0.693   5.024
  173SOL    HW1 1418   5.510   0.657   5.022
  173SOL    HW2 1419   5.360   0.636   5.083
  174SOL     OW 1420   6.384   5.095   3.687
  174SOL    HW1 1421   6.311   5.028   3.673
  174SOL    HW2 1422   6.347   5.176   3.734
  175SOL     OW 1423   0.479   5.244   2.289
  175SOL    HW1 1424   0.484   5.145   2.300
  175SOL    HW2 1425   0.422   5.267   2.211
  176SOL     OW 1426   6.013   3.784   0.983
  176SOL    HW1 1427   5.926   3.754   0.945
  176SOL    HW2 1428   6.088   3.734   0.939
  177SOL     OW 1429   5.685   2.075   3.769
  177SOL    HW1 1430   5.594   2.115   3.775
  177SOL    HW2 1431   5.679   1.985   3.724
  178SOL     OW 1432   1.059   5.791   4.621
  178SOL    HW1 1433   1.070   5.871   4.563
  178SOL    HW2 1434   1.148   5.747   4.636
  179SOL     OW 1435   2.950   3.997   1.851
  179SOL    HW1 1436   2.971   4.093   1.830
  179SOL    HW2 1437   2.962   3.981   1.949
  180SOL     OW 1438   5.450   0.639   5.732
  180SOL    HW1 1439   5.430   0.721   5.784
  180SOL    HW2 1440   5.365   0.602   5.694
  181SOL     OW 1441   3.313   5.867   5.431
  181SOL    HW1 1442   3.310   5.929   5.353
  181SOL    HW2 1443   3.241   5.798   5.422
  182SOL     OW 1444   3.356   2.570   5.388
  182SOL    HW1 1445   3.309   2.657   5.397
  182SOL    HW2 1446   3.310   2.514   5.319
  183SOL     OW 1447   2.004   0.863   2.755
  183SOL    HW1 1448   1.989   0.812   2.840
  183SOL    HW2 1449   2.102   0.881   2.744
  184SOL     OW 1450   5.411   6.467   3.838
  184SOL    HW1 1451   5.508   6.490   3.837
  184SOL    HW2 1452   5.357   6.550   3.854
  185SOL     OW 1453   0.731   5.892   4.990
  185SOL    HW1 1454   0.645   5.938   4.974
  185SOL    HW2 1455   0.763   5.849   4.906
  186SOL     OW 1456   3.627   5.081   0.706
  186SOL    HW1 1457   3.708   5.065   0.763
  186SOL    HW2 1458   3.586   5.169   0.730
  187SOL     OW 1459   4.376   5.413   0.550
  187SOL    HW1 1460   4.302   5.462   0.503
  187SOL    HW2 1461   4.462   5.430   0.503
  188SOL     OW 1462   1.255   4.183   3.520
  188SOL    HW1 1463   1.231   4.225   3.433
  188SOL    HW2 1464   1.355   4.174   3.527
  189SOL     OW 1465   6.456   3.673   5.813
  189SOL    HW1 1466   6.501   3.761   5.795
  189SOL    HW2 1467   6.475   3.645   5.907
  190SOL     OW 1468   6.228   6.334   0.055
  190SOL    HW1 1469   6.140   6.289   0.039
  190SOL    HW2 1470   6.247   6.335   0.153
  191SOL     OW 1471   1.923   3.840   6.379
  191SOL    HW1 1472   1.992   3.908   6.354
  191SOL    HW2 1473   1.863   3.823   6.302
  192SOL     OW 1474   1.021   6.383   0.324
  192SOL    HW1 1475   1.089   6.425   0.264
  192SOL    HW2 1476   0.981   6.453   0.383
  193SOL     OW 1477   2.871   6.954   1.955
  193SOL    HW1 1478   2.894   6.906   1.870
  193SOL    HW2 1479   2.829   0.021   1.933
  194SOL     OW 1480   4.108   6.533   3.627
  194SOL    HW1 1481   4.106   6.438   3.597
  194SOL    HW2 1482   4.080   6.593   3.552
  195SOL     OW 1483   3.555   1.171   1.432
  195SOL    HW1 1484   3.566   1.152   1.530
  195SOL    HW2 1485   3.623   1.238   1.403
  196SOL     OW 1486   3.695   3.032   1.824
  196SOL    HW1 1487   3.613   3.004   1.775
  196SOL    HW2 1488   3.696   3.132   1.833
  197SOL     OW 1489   1.038   6.900   1.142
  197SOL    HW1 1490   1.024   6.988   1.187
  197SOL    HW2 1491   0.966   6.885   1.074
  198SOL     OW 1492   6.476   0.547   5.376
  198SOL    HW1 1493   6.574   0.530   5.389
  198SOL    HW2 1494   6.454   0.640   5.406
  199SOL     OW 1495   1.423   0.860   2.884
  199SOL    HW1 1496   1.418   0.821   2.793
  199SOL    HW2 1497   1.511   0.905   2.896
  200SOL     OW 1498   1.579   3.405   3.615
  200SOL    HW1 1499   1.601   3.307   3.611
  200SOL    HW2 1500   1.637   3.454   3.551
  201SOL     OW 1501   5.147   1.141   6.600
  201SOL    HW1 1502   5.197   1.223   6.575
  201SOL    HW2 1503   5.211   1.067   6.620
  202SOL     OW 1504   4.004   0.714   2.624
  202SOL    HW1 1505   4.049   0.798   2.656
  202SOL    HW2 1506   4.040   0.689   2.535
  203SOL     OW 1507   5.775   2.710   0.829
  203SOL    HW1 1508   5.830   2.632   0.798
  203SOL    HW2 1509   5.698   2.724   0.766
  204SOL     OW 1510   2.283   5.839   0.770
  204SOL    HW1 1511   2.358   5.850   0.834
  204SOL    HW2 1512   2.259   5.927   0.730
  205SOL     OW 1513   5.176   0.810   0.820
  205SOL    HW1 1514   5.117   0.891   0.815
  205SOL    HW2 1515   5.120   0.728   0.834
  206SOL     OW 1516   0.369   5.550   1.784
  206SOL    HW1 1517   0.355   5.646   1.762
  206SOL    HW2 1518   0.382   5.498   1.700
  207SOL     OW 1519   6.467   2.730   6.344
  207SOL    HW1 1520   6.399   2.790   6.386
  207SOL    HW2 1521   6.427   2.686   6.264
  208SOL     OW 1522   4.943   3.075   1.284
  208SOL    HW1 1523   5.024   3.045   1.335
  208SOL    HW2 1524   4.868   3.091   1.348
  209SOL     OW 1525   6.450   0.407   4.133
  209SOL    HW1 1526   6.547   0.401   4.112
  209SOL    HW2 1527   6.405   0.321   4.107
  210SOL     OW 1528   5.202   2.712   6.687
  210SOL    HW1 1529   5.286   2.766   6.676
  210SOL    HW2 1530   5.129   2.772   6.719
  211SOL     OW 1531   0.074   4.939   2.196
  211SOL    HW1 1532   0.089   4.910   2.102
  211SOL    HW2 1533   0.082   5.038   2.203
  212SOL     OW 1534   0.982   5.371   5.351
  212SOL    HW1 1535   1.041   5.364   5.270
  212SOL    HW2 1536   1.031   5.338   5.431
  213SOL     OW 1537   4.514   2.353   1.192
  213SOL    HW1 1538   4.532   2.451   1.202
  213SOL    HW2 1539   4.557   2.303   1.267
  214SOL     OW 1540   6.944   5.698   3.647
  214SOL    HW1 1541   7.001   5.619   3.626
  214SOL    HW2 1542   6.997   5.764   3.702
  215SOL     OW 1543   3.806   3.184   3.236
  215SOL    HW1 1544   3.737   3.121   3.202
  215SOL    HW2 1545   3.764   3.272   3.256
  216SOL     OW 1546   3.970   6.589   4.827
  216SOL    HW1 1547   3.943   6.684   4.808
  216SOL    HW2 1548   4.029   6.587   4.908
  217SOL     OW 1549   6.282   2.072   5.002
  217SOL    HW1 1550   6.197   2.057   5.052
  217SOL    HW2 1551   6.263   2.071   4.903
  218SOL     OW 1552   2.377   4.827   5.738
  218SOL    HW1 1553   2.387   4.728   5.742
  218SOL    HW2 1554   2.429   4.863   5.660
  219SOL     OW 1555   3.335   6.899   6.768
  219SOL    HW1 1556   3.362   6.889   6.864
  219SOL    HW2 1557   3.345   6.812   6.721
  220SOL     OW 1558   1.172   4.809   0.081
  220SOL    HW1 1559   1.268   4.795   0.103
  220SOL    HW2 1560   1.132   4.874   0.145
  221SOL     OW 1561   6.250   4.671   4.368
  221SOL    HW1 1562   6.251   4.737   4.293
  221SOL    HW2 1563   6.299   4.709   4.446
  222SOL     OW 1564   1.056   0.457   4.291
  222SOL    HW1 1565   1.061   0.428   4.195
  222SOL    HW2 1566   1.082   0.380   4.350
  223SOL     OW 1567   5.891   5.735   1.748
  223SOL    HW1 1568   5.805   5.783   1.731
  223SOL    HW2 1569   5.912   5.736   1.846
  224SOL     OW 1570   5.448   4.356   2.301
  224SOL    HW1 1571   5.544   4.350   2.272
  224SOL    HW2 1572   5.444   4.368   2.400
  225SOL     OW 1573   4.285   6.376   1.191
  225SOL    HW1 1574   4.258   6.472   1.186
  225SOL    HW2 1575   4.358   6.365   1.258
  226SOL     OW 1576   1.602   5.173   2.913
  226SOL    HW1 1577   1.502   5.170   2.915
  226SOL    HW2 1578   1.638   5.143   3.001
  227SOL     OW 1579   0.982   3.617   3.124
  227SOL    HW1 1580   0.914   3.649   3.189
  227SOL    HW2 1581   0.961   3.523   3.097
  228SOL     OW 1582   3.537   5.344   3.184
  228SOL    HW1 1583   3.487   5.311   3.104
  228SOL    HW2 1584   3.635   5.337   3.166
  229SOL     OW 1585   5.640   6.325   2.379
  229SOL    HW1 1586   5.618   6.297   2.286
  229SOL    HW2 1587   5.666   6.422   2.379
  230SOL     OW 1588   1.272   4.571   4.842
  230SOL    HW1 1589   1.194   4.509   4.838
  230SOL    HW2 1590   1.295   4.601   4.749
  231SOL     OW 1591   0.090   2.149   6.906
  231SOL    HW1 1592   0.103   2.050   6.904
  231SOL    HW2 1593   0.085   2.180   7.001
  232SOL     OW 1594   2.065   3.220   0.107
  232SOL    HW1 1595   2.027   3.296   0.160
  232SOL    HW2 1596   2.013   3.208   0.023
  233SOL     OW 1597   3.823   0.209   0.785
  233SOL    HW1 1598   3.771   0.293   0.770
  233SOL    HW2 1599   3.761   0.131   0.781
  234SOL     OW 1600   1.500   5.217   0.594
  234SOL    HW1 1601   1.585   5.240   0.547
  234SOL    HW2 1602   1.426   5.273   0.557
  235SOL     OW 1603   4.589   2.867   5.726
  235SOL    HW1 1604   4.569   2.953   5.680
  235SOL    HW2 1605   4.682   2.871   5.763
  236SOL     OW 1606   0.027   0.098   6.711
  236SOL    HW1 1607   6.955   0.134   6.699
  236SOL    HW2 1608   0.058   0.116   6.804
  237SOL     OW 1609   5.867   0.574   2.783
  237SOL    HW1 1610   5.856   0.546   2.687
  237SOL    HW2 1611   5.800   0.645   2.805
  238SOL     OW 1612   0.127   2.184   3.211
  238SOL    HW1 1613   0.190   2.197   3.288
  238SOL    HW2 1614   0.143   2.095   3.169
  239SOL     OW 1615   6.300   4.546   6.616
  239SOL    HW1 1616   6.328   4.450   6.621
  239SOL    HW2 1617   6.234   4.565   6.689
  240SOL     OW 1618   0.431   2.554   4.453
  240SOL    HW1 1619   0.504   2.521   4.513
  240SOL    HW2 1620   0.343   2.543   4.499
  241SOL     OW 1621   6.096   2.670   4.603
  241SOL    HW1 1622   6.124   2.753   4.651
  241SOL    HW2 1623   6.051   2.608   4.667
  242SOL     OW 1624   2.430   2.607   3.296
  242SOL    HW1 1625   2.526   2.586   3.284
  242SOL    HW2 1626   2.378   2.522   3.305
  243SOL     OW 1627   4.909   1.309   6.204
  243SOL    HW1 1628   4.989   1.318   6.145
  243SOL    HW2 1629   4.930   1.249   6.281
  244SOL     OW 1630   1.662   0.791   5.713
  244SOL    HW1 1631   1.657   0.833   5.622
  244SOL    HW2 1632   1.718   0.848   5.773
  245SOL     OW 1633   5.323   1.978   4.497
  245SOL    HW1 1634   5.300   1.943   4.406
  245SOL    HW2 1635   5.290   1.913   4.566
  246SOL     OW 1636   5.252   3.801   4.616
  246SOL    HW1 1637   5.176   3.792   4.681
  246SOL    HW2 1638   5.216   3.796   4.523
  247SOL     OW 1639   1.702   0.380   2.567
  247SOL    HW1 1640   1.689   0.281   2.564
  247SOL    HW2 1641   1.800   0.401   2.558
  248SOL     OW 1642   6.973   2.779   2.955
  248SOL    HW1 1643   6.905   2.835   2.907
  248SOL    HW2 1644   6.983   2.812   3.049
  249SOL     OW 1645   1.927   6.400   4.661
  249SOL    HW1 1646   1.911   6.456   4.742
  249SOL    HW2 1647   1.855   6.330   4.655
  250SOL     OW 1648   6.191   2.340   6.940
  250SOL    HW1 1649   6.175   2.285   0.000
  250SOL    HW2 1650   6.128   2.418   6.939
  251SOL     OW 1651   2.258   0.215   2.749
  251SOL    HW1 1652   2.314   0.292   2.719
  251SOL    HW2 1653   2.167   0.221   2.707
  252SOL     OW 1654   6.790   3.195   6.887
  252SOL    HW1 1655   6.792   3.107   6.935
  252SOL    HW2 1656   6.882   3.233   6.885
  253SOL     OW 1657   1.973   4.868   5.444
  253SOL    HW1 1658   1.876   4.853   5.465
  253SOL    HW2 1659   2.018   4.910   5.523
  254SOL     OW 1660   5.127   3.300   6.894
  254SOL    HW1 1661   5.086   3.303   6.985
  254SOL    HW2 1662   5.184   3.382   6.880
  255SOL     OW 1663   4.190   2.070   1.971
  255SOL    HW1 1664   4.127   2.136   1.930
  255SOL    HW2 1665   4.264   2.050   1.906
  256SOL     OW 1666   0.588   6.363   1.197
  256SOL    HW1 1667   0.637   6.402   1.274
  256SOL    HW2 1668   0.653   6.332   1.128
  257SOL     OW 1669   2.856   5.949   6.564
  257SOL    HW1 1670   2.818   5.866   6.523
  257SOL    HW2 1671   2.861   5.938   6.663
  258SOL     OW 1672   5.055   5.322   4.212
  258SOL    HW1 1673   5.137   5.276   4.179
  258SOL    HW2 1674   5.081   5.405   4.261
  259SOL     OW 1675   6.812   1.163   1.653
  259SOL    HW1 1676   6.782   1.093   1.719
  259SOL    HW2 1677   6.795   1.130   1.561
  260SOL     OW 1678   6.127   7.000   6.236
  260SOL    HW1 1679   6.083   0.006   6.150
  260SOL    HW2 1680   6.167   0.059   6.280
  261SOL     OW 1681   6.918   0.975   3.221
  261SOL    HW1 1682   6.955   0.885   3.244
  261SOL    HW2 1683   6.848   0.966   3.150
  262SOL     OW 1684   1.875   5.540   0.858
  262SOL    HW1 1685   1.938   5.611   0.826
  262SOL    HW2 1686   1.927   5.468   0.904
  263SOL     OW 1687   1.248   4.561   5.133
  263SOL    HW1 1688   1.186   4.640   5.123
  263SOL    HW2 1689   1.271   4.525   5.043
  264SOL     OW 1690   4.308   3.936   0.730
  264SOL    HW1 1691   4.345   3.882   0.655
  264SOL    HW2 1692   4.277   3.875   0.803
  265SOL     OW 1693   3.652   5.842   4.069
  265SOL    HW1 1694   3.622   5.781   3.995
  265SOL    HW2 1695   3.746   5.819   4.095
  266SOL     OW 1696   4.775   3.396   0.085
  266SOL    HW1 1697   4.766   3.451   0.167
  266SOL    HW2 1698   4.685   3.383   0.043
  267SOL     OW 1699   2.890   2.211   6.286
  267SOL    HW1 1700   2.914   2.166   6.200
  267SOL    HW2 1701   2.963   2.274   6.312
  268SOL     OW 1702   1.721   4.148   2.699
  268SOL    HW1 1703   1.776   4.190   2.626
  268SOL    HW2 1704   1.680   4.220   2.754
  269SOL     OW 1705   2.754   1.568   5.324
  269SOL    HW1 1706   2.780   1.549   5.419
  269SOL    HW2 1707   2.789   1.496   5.264
  270SOL     OW 1708   5.672   5.449   4.831
  270SOL    HW1 1709   5.591   5.413   4.877
  270SOL    HW2 1710   5.654   5.456   4.733
  271SOL     OW 1711   2.725   0.363   0.148
  271SOL    HW1 1712   2.758   0.411   0.230
  271SOL    HW2 1713   2.684   0.430   0.086
  272SOL     OW 1714   5.745   4.363   6.895
  272SOL    HW1 1715   5.809   4.318   6.833
  272SOL    HW2 1716   5.658   4.378   6.847
  273SOL     OW 1717   0.446   5.707   4.052
  273SOL    HW1 1718   0.506   5.786   4.040
  273SOL    HW2 1719   0.482   5.630   4.000
  274SOL     OW 1720   5.143   3.001   2.198
  274SOL    HW1 1721   5.110   3.048   2.279
  274SOL    HW2 1722   5.241   2.982   2.207
  275SOL     OW 1723   5.896   4.958   5.807
  275SOL    HW1 1724   5.913   5.031   5.741
  275SOL    HW2 1725   5.804   4.920   5.791
  276SOL     OW 1726   0.815   0.377   4.455
  276SOL    HW1 1727   0.880   0.346   4.386
  276SOL    HW2 1728   0.833   0.473   4.477
  277SOL     OW 1729   4.129   3.370   5.603
  277SOL    HW1 1730   4.151   3.433   5.529
  277SOL    HW2 1731   4.173   3.401   5.687
  278SOL     OW 1732   5.971   5.086   1.849
  278SOL    HW1 1733   5.917   5.019   1.900
  278SOL    HW2 1734   5.974   5.172   1.899
  279SOL     OW 1735   6.612   3.199   4.004
  279SOL    HW1 1736   6.673   3.266   4.046
  279SOL    HW2 1737   6.575   3.235   3.918
  280SOL     OW 1738   4.251   1.422   2.406
  280SOL    HW1 1739   4.332   1.437   2.349
  280SOL    HW2 1740   4.209   1.335   2.382
  281SOL     OW 1741   4.885   5.669   5.992
  281SOL    HW1 1742   4.835   5.604   6.050
  281SOL    HW2 1743   4.972   5.629   5.965
  282SOL     OW 1744   0.652   1.601   0.307
  282SOL    HW1 1745   0.696   1.673   0.254
  282SOL    HW2 1746   0.714   1.571   0.380
  283SOL     OW 1747   6.133   3.861   2.251
  283SOL    HW1 1748   6.204   3.808   2.297
  283SOL    HW2 1749   6.069   3.897   2.319
  284SOL     OW 1750   5.713   6.891   2.728
  284SOL    HW1 1751   5.646   6.849   2.789
  284SOL    HW2 1752   5.682   6.982   2.703
  285SOL     OW 1753   4.997   5.910   6.033
  285SOL    HW1 1754   4.946   5.824   6.028
  285SOL    HW2 1755   4.946   5.982   5.987
  286SOL     OW 1756   3.640   5.634   5.449
  286SOL    HW1 1757   3.643   5.596   5.541
  286SOL    HW2 1758   3.547   5.628   5.413
  287SOL     OW 1759   4.356   6.660   0.936
  287SOL    HW1 1760   4.438   6.639   0.884
  287SOL    HW2 1761   4.290   6.585   0.925
  288SOL     OW 1762   3.772   0.889   0.404
  288SOL    HW1 1763   3.685   0.845   0.427
  288SOL    HW2 1764   3.846   0.844   0.453
  289SOL     OW 1765   5.757   5.279   5.027
  289SOL    HW1 1766   5.748   5.356   4.965
  289SOL    HW2 1767   5.850   5.277   5.064
  290SOL     OW 1768   2.719   1.131   4.633
  290SOL    HW1 1769   2.638   1.154   4.687
  290SOL    HW2 1770   2.799   1.130   4.691
  291SOL     OW 1771   6.069   1.292   4.859
  291SOL    HW1 1772   6.004   1.223   4.825
  291SOL    HW2 1773   6.099   1.349   4.783
  292SOL     OW 1774   2.403   0.587   4.087
  292SOL    HW1 1775   2.479   0.639   4.048
  292SOL    HW2 1776   2.397   0.605   4.185
  293SOL     OW 1777   5.461   0.705   3.203
  293SOL    HW1 1778   5.558   0.679   3.195
  293SOL    HW2 1779   5.430   0.687   3.296
  294SOL     OW 1780   6.952   0.811   6.458
  294SOL    HW1 1781   6.856   0.839   6.466
  294SOL    HW2 1782   6.974   0.797   6.361
  295SOL     OW 1783   0.686   0.932   4.941
  295SOL    HW1 1784   0.630   0.932   5.024
  295SOL    HW2 1785   0.682   1.022   4.898
  296SOL     OW 1786   0.170   1.495   6.963
  296SOL    HW1 1787   0.209   1.509   0.033
  296SOL    HW2 1788   0.231   1.534   6.894
  297SOL     OW 1789   5.148   4.375   3.267
  297SOL    HW1 1790   5.169   4.419   3.180
  297SOL    HW2 1791   5.085   4.432   3.319
  298SOL     OW 1792   4.252   6.227   5.549
  298SOL    HW1 1793   4.288   6.257   5.461
  298SOL    HW2 1794   4.162   6.185   5.536
  299SOL     OW 1795   6.962   1.495   6.154
  299SOL    HW1 1796   0.022   1.550   6.134
  299SOL    HW2 1797   6.976   1.446   6.240
  300SOL     OW 1798   4.085   6.314   4.317
  300SOL    HW1 1799   4.011   6.323   4.384
  300SOL    HW2 1800   4.046   6.318   4.225
  301SOL     OW 1801   6.581   6.634   5.341
  301SOL    HW1 1802   6.523   6.706   5.380
  301SOL    HW2 1803   6.639   6.595   5.413
  302SOL     OW 1804   0.865   6.646   2.308
  302SOL    HW1 1805   0.794   6.593   2.356
  302SOL    HW2 1806   0.889   6.726   2.364
  303SOL     OW 1807   4.388   5.446   2.820
  303SOL    HW1 1808   4.334   5.504   2.880
  303SOL    HW2 1809   4.451   5.391   2.875
  304SOL     OW 1810   1.005   1.505   5.216
  304SOL    HW1 1811   1.089   1.456   5.195
  304SOL    HW2 1812   0.945   1.506   5.136
  305SOL     OW 1813   2.914   1.602   0.833
  305SOL    HW1 1814   2.984   1.673   0.833
  305SOL    HW2 1815   2.823   1.644   0.841
  306SOL     OW 1816   0.594   6.654   2.908
  306SOL    HW1 1817   0.680   6.704   2.895
  306SOL    HW2 1818   0.582   6.588   2.833
  307SOL     OW 1819   4.059   3.197   4.622
  307SOL    HW1 1820   4.102   3.286   4.636
  307SOL    HW2 1821   4.033   3.186   4.526
  308SOL     OW 1822   6.663   3.116   0.540
  308SOL    HW1 1823   6.672   3.131   0.638
  308SOL    HW2 1824   6.645   3.019   0.522
  309SOL     OW 1825   1.764   5.307   0.089
  309SOL    HW1 1826   1.803   5.399   0.091
  309SOL    HW2 1827   1.808   5.253   0.017
  310SOL     OW 1828   4.769   6.234   5.590
  310SOL    HW1 1829   4.718   6.309   5.548
  310SOL    HW2 1830   4.810   6.177   5.518
  311SOL     OW 1831   1.700   6.400   1.834
  311SOL    HW1 1832   1.649   6.333   1.888
  311SOL    HW2 1833   1.719   6.481   1.890
  312SOL     OW 1834   3.868   0.403   4.394
  312SOL    HW1 1835   3.967   0.394   4.396
  312SOL    HW2 1836   3.827   0.327   4.445
  313SOL     OW 1837   3.183   2.963   3.600
  313SOL    HW1 1838   3.101   3.020   3.609
  313SOL    HW2 1839   3.196   2.936   3.505
  314SOL     OW 1840   2.174   4.404   6.246
  314SOL    HW1 1841   2.169   4.504   6.244
  314SOL    HW2 1842   2.213   4.374   6.333
  315SOL     OW 1843   5.859   6.819   4.618
  315SOL    HW1 1844   5.793   6.751   4.586
  315SOL    HW2 1845   5.839   6.843   4.713
  316SOL     OW 1846   3.868   1.045   4.764
  316SOL    HW1 1847   3.945   1.065   4.824
  316SOL    HW2 1848   3.806   0.980   4.808
  317SOL     OW 1849   0.507   0.921   2.024
  317SOL    HW1 1850   0.418   0.913   1.980
  317SOL    HW2 1851   0.495   0.938   2.122
  318SOL     OW 1852   1.045   1.761   4.137
  318SOL    HW1 1853   1.138   1.796   4.150
  318SOL    HW2 1854   1.014   1.782   4.045
  319SOL     OW 1855   0.445   1.972   2.055
  319SOL    HW1 1856   0.390   1.934   2.130
  319SOL    HW2 1857   0.539   1.938   2.062
  320SOL     OW 1858   4.997   1.079   6.388
  320SOL    HW1 1859   4.958   0.997   6.431
  320SOL    HW2 1860   5.039   1.136   6.458
  321SOL     OW 1861   4.722   3.021   0.814
  321SOL    HW1 1862   4.744   3.010   0.717
  321SOL    HW2 1863   4.622   3.026   0.825
  322SOL     OW 1864   3.175   2.035   0.308
  322SOL    HW1 1865   3.125   1.984   0.238
  322SOL    HW2 1866   3.178   2.132   0.283
  323SOL     OW 1867   0.246   4.251   1.728
  323SOL    HW1 1868   0.256   4.152   1.744
  323SOL    HW2 1869   0.334   4.296   1.744
  324SOL     OW 1870   6.847   0.277   3.470
  324SOL    HW1 1871   6.811   0.360   3.427
  324SOL    HW2 1872   6.892   0.220   3.401
  325SOL     OW 1873   6.627   2.858   0.483
  325SOL    HW1 1874   6.595   2.803   0.559
  325SOL    HW2 1875   6.657   2.798   0.408
  326SOL     OW 1876   6.148   5.922   6.077
  326SOL    HW1 1877   6.171   5.915   5.980
  326SOL    HW2 1878   6.183   5.842   6.126
  327SOL     OW 1879   3.933   6.055   6.561
  327SOL    HW1 1880   3.922   5.955   6.571
  327SOL    HW2 1881   3.872   6.101   6.626
  328SOL     OW 1882   2.371   4.623   3.710
  328SOL    HW1 1883   2.302   4.557   3.680
  328SOL    HW2 1884   2.455   4.609   3.658
  329SOL     OW 1885   2.985   3.192   2.922
  329SOL    HW1 1886   3.072   3.234   2.894
  329SOL    HW2 1887   2.991   3.093   2.912
  330SOL     OW 1888   1.960   3.352   6.613
  330SOL    HW1 1889   1.870   3.360   6.569
  330SOL    HW2 1890   1.992   3.258   6.607
  331SOL     OW 1891   4.914   5.524   4.427
  331SOL    HW1 1892   4.979   5.593   4.395
  331SOL    HW2 1893   4.950   5.479   4.508
  332SOL     OW 1894   6.092   2.203   2.842
  332SOL    HW1 1895   6.010   2.185   2.896
  332SOL    HW2 1896   6.099   2.301   2.825
  333SOL     OW 1897   3.025   5.871   3.944
  333SOL    HW1 1898   2.983   5.961   3.928
  333SOL    HW2 1899   3.051   5.862   4.040
  334SOL     OW 1900   3.726   3.492   3.834
  334SOL    HW1 1901   3.662   3.415   3.836
  334SOL    HW2 1902   3.791   3.479   3.758
  335SOL     OW 1903   4.263   1.218   0.043
  335SOL    HW1 1904   4.254   1.257   0.135
  335SOL    HW2 1905   4.312   1.283   7.006
  336SOL     OW 1906   3.753   1.843   4.602
  336SOL    HW1 1907   3.752   1.943   4.596
  336SOL    HW2 1908   3.730   1.804   4.513
  337SOL     OW 1909   1.035   1.753   5.339
  337SOL    HW1 1910   1.023   1.656   5.316
  337SOL    HW2 1911   1.007   1.809   5.262
  338SOL     OW 1912   5.378   1.485   1.606
  338SOL    HW1 1913   5.316   1.477   1.684
  338SOL    HW2 1914   5.377   1.580   1.573
  339SOL     OW 1915   3.239   4.895   5.561
  339SOL    HW1 1916   3.324   4.849   5.535
  339SOL    HW2 1917   3.251   4.940   5.650
  340SOL     OW 1918   5.404   4.496   5.030
  340SOL    HW1 1919   5.374   4.589   5.049
  340SOL    HW2 1920   5.375   4.436   5.104
  341SOL     OW 1921   5.867   0.571   1.491
  341SOL    HW1 1922   5.836   0.655   1.536
  341SOL    HW2 1923   5.830   0.567   1.398
  342SOL     OW 1924   4.751   0.574   1.267
  342SOL    HW1 1925   4.672   0.607   1.215
  342SOL    HW2 1926   4.774   0.638   1.340
  343SOL     OW 1927   5.820   0.378   1.694
  343SOL    HW1 1928   5.848   0.453   1.755
  343SOL    HW2 1929   5.857   0.393   1.603
  344SOL     OW 1930   6.538   3.139   1.709
  344SOL    HW1 1931   6.628   3.099   1.688
  344SOL    HW2 1932   6.481   3.136   1.627
  345SOL     OW 1933   0.132   3.552   3.687
  345SOL    HW1 1934   0.134   3.480   3.617
  345SOL    HW2 1935   0.040   3.592   3.690
  346SOL     OW 1936   0.469   0.379   3.535
  346SOL    HW1 1937   0.485   0.352   3.630
  346SOL    HW2 1938   0.371   0.373   3.515
  347SOL     OW 1939   2.021   4.177   1.461
  347SOL    HW1 1940   2.063   4.198   1.549
  347SOL    HW2 1941   1.927   4.147   1.475
  348SOL     OW 1942   5.974   4.814   1.071
  348SOL    HW1 1943   5.898   4.875   1.096
  348SOL    HW2 1944   5.940   4.740   1.014
  349SOL     OW 1945   6.296   5.237   6.613
  349SOL    HW1 1946   6.224   5.242   6.543
  349SOL    HW2 1947   6.287   5.151   6.663
  350SOL     OW 1948   2.927   0.383   0.734
  350SOL    HW1 1949   2.847   0.343   0.689
  350SOL    HW2 1950   2.902   0.416   0.825
  351SOL     OW 1951   4.204   3.833   0.971
  351SOL    HW1 1952   4.300   3.832   0.999
  351SOL    HW2 1953   4.154   3.762   1.022
  352SOL     OW 1954   3.713   1.054   2.696
  352SOL    HW1 1955   3.754   1.039   2.786
  352SOL    HW2 1956   3.684   0.966   2.658
  353SOL     OW 1957   2.409   6.235   0.516
  353SOL    HW1 1958   2.480   6.283   0.465
  353SOL    HW2 1959   2.323   6.286   0.510
  354SOL     OW 1960   2.467   2.461   0.815
  354SOL    HW1 1961   2.456   2.366   0.787
  354SOL    HW2 1962   2.548   2.499   0.770
  355SOL     OW 1963   0.037   2.278   2.640
  355SOL    HW1 1964   0.056   2.248   2.546
  355SOL    HW2 1965   0.004   2.372   2.639
  356SOL     OW 1966   2.721   6.903   5.752
  356SOL    HW1 1967   2.798   6.952   5.792
  356SOL    HW2 1968   2.638   6.925   5.803
  357SOL     OW 1969   6.137   6.171   4.615
  357SOL    HW1 1970   6.225   6.199   4.575
  357SOL    HW2 1971   6.153   6.112   4.693
  358SOL     OW 1972   3.450   5.975   0.082
  358SOL    HW1 1973   3.494   6.024   0.158
  358SOL    HW2 1974   3.435   6.039   0.006
  359SOL     OW 1975   1.983   2.336   1.020
  359SOL    HW1 1976   2.055   2.405   1.030
  359SOL    HW2 1977   1.897   2.373   1.056
  360SOL     OW 1978   1.798   4.500   2.762
  360SOL    HW1 1979   1.699   4.512   2.756
  360SOL    HW2 1980   1.837   4.496   2.670
  361SOL     OW 1981   6.112   2.986   2.309
  361SOL    HW1 1982   6.096   2.903   2.256
  361SOL    HW2 1983   6.179   3.043   2.262
  362SOL     OW 1984   4.164   3.433   3.054
  362SOL    HW1 1985   4.132   3.384   2.973
  362SOL    HW2 1986   4.156   3.373   3.134
  363SOL     OW 1987   4.627   5.618   1.449
  363SOL    HW1 1988   4.607   5.559   1.371
  363SOL    HW2 1989   4.642   5.712   1.417
  364SOL     OW 1990   1.298   0.795   6.941
  364SOL    HW1 1991   1.285   0.770   6.845
  364SOL    HW2 1992   1.289   0.713   6.998
  365SOL     OW 1993   4.944   0.445   3.649
  365SOL    HW1 1994   4.892   0.469   3.731
  365SOL    HW2 1995   4.907   0.362   3.609
  366SOL     OW 1996   5.592   1.179   6.953
  366SOL    HW1 1997   5.674   1.236   6.946
  366SOL    HW2 1998   5.593   1.129   0.018
  367SOL     OW 1999   6.584   6.620   0.102
  367SOL    HW1 2000   6.609   6.597   0.008
  367SOL    HW2 2001   6.485   6.632   0.108
  368SOL     OW 2002   2.806   1.182   5.471
  368SOL    HW1 2003   2.887   1.206   5.525
  368SOL    HW2 2004   2.805   1.235   5.386
  369SOL     OW 2005   4.822   3.691   6.800
  369SOL    HW1 2006   4.860   3.654   6.715
  369SOL    HW2 2007   4.755   3.626   6.838
  370SOL     OW 2008   1.772   2.233   4.019
  370SOL    HW1 2009   1.813   2.276   3.939
  370SOL    HW2 2010   1.681   2.198   3.996
  371SOL     OW 2011   2.838   4.945   0.871
  371SOL    HW1 2012   2.836   5.025   0.811
  371SOL    HW2 2013   2.750   4.935   0.917
  372SOL     OW 2014   2.773   5.929   5.798
  372SOL    HW1 2015   2.783   5.961   5.892
  372SOL    HW2 2016   2.771   6.008   5.736
  373SOL     OW 2017   5.163   4.243   2.984
  373SOL    HW1 2018   5.236   4.199   3.036
  373SOL    HW2 2019   5.076   4.231   3.033
  374SOL     OW 2020   2.201   2.670   2.001
  374SOL    HW1 2021   2.284   2.652   2.054
  374SOL    HW2 2022   2.206   2.761   1.961
  375SOL     OW 2023   0.197   4.875   4.229
  375SOL    HW1 2024   0.276   4.892   4.288
  375SOL    HW2 2025   0.172   4.960   4.182
  376SOL     OW 2026   4.828   6.981   3.404
  376SOL    HW1 2027   4.774   6.907   3.443
  376SOL    HW2 2028   4.913   6.944   3.367
  377SOL     OW 2029   2.572   3.265   6.279
  377SOL    HW1 2030   2.535   3.183   6.238
  377SOL    HW2 2031   2.506   3.303   6.344
  378SOL     OW 2032   4.200   1.115   1.376
  378SOL    HW1 2033   4.136   1.161   1.314
  378SOL    HW2 2034   4.155   1.036   1.418
  379SOL     OW 2035   3.057   3.727   0.650
  379SOL    HW1 2036   3.020   3.728   0.743
  379SOL    HW2 2037   3.010   3.655   0.597
  380SOL     OW 2038   5.247   1.460   6.939
  380SOL    HW1 2039   5.274   1.542   6.888
  380SOL    HW2 2040   5.148   1.461   6.954
  381SOL     OW 2041   0.347   3.278   2.082
  381SOL    HW1 2042   0.254   3.290   2.048
  381SOL    HW2 2043   0.349   3.204   2.149
  382SOL     OW 2044   6.361   0.054   0.843
  382SOL    HW1 2045   6.432   0.002   0.796
  382SOL    HW2 2046   6.377   0.152   0.828
  383SOL     OW 2047   5.285   3.311   1.305
  383SOL    HW1 2048   5.327   3.224   1.281
  383SOL    HW2 2049   5.239   3.303   1.393
  384SOL     OW 2050   1.524   2.827   4.419
  384SOL    HW1 2051   1.475   2.801   4.502
  384SOL    HW2 2052   1.556   2.922   4.428
  385SOL     OW 2053   4.964   2.990   7.010
  385SOL    HW1 2054   4.942   2.980   6.913
  385SOL    HW2 2055   4.961   3.087   0.013
  386SOL     OW 2056   3.271   6.080   5.266
  386SOL    HW1 2057   3.190   6.109   5.317
  386SOL    HW2 2058   3.328   6.160   5.247
  387SOL     OW 2059   1.519   6.393   3.399
  387SOL    HW1 2060   1.618   6.376   3.399
  387SOL    HW2 2061   1.472   6.311   3.432
  388SOL     OW 2062   1.628   5.498   5.537
  388SOL    HW1 2063   1.620   5.438   5.617
  388SOL    HW2 2064   1.656   5.445   5.458
  389SOL     OW 2065   3.945   2.250   6.703
  389SOL    HW1 2066   4.006   2.172   6.691
  389SOL    HW2 2067   3.895   2.267   6.618
  390SOL     OW 2068   3.339   1.581   3.697
  390SOL    HW1 2069   3.244   1.557   3.717
  390SOL    HW2 2070   3.348   1.680   3.690
  391SOL     OW 2071   0.717   0.943   0.546
  391SOL    HW1 2072   0.770   0.927   0.462
  391SOL    HW2 2073   0.624   0.971   0.522
  392SOL     OW 2074   4.162   5.367   4.146
  392SOL    HW1 2075   4.154   5.388   4.244
  392SOL    HW2 2076   4.119   5.440   4.093
  393SOL     OW 2077   5.579   2.795   5.601
  393SOL    HW1 2078   5.602   2.719   5.661
  393SOL    HW2 2079   5.486   2.826   5.621
  394SOL     OW 2080   2.357   1.226   6.815
  394SOL    HW1 2081   2.417   1.302   6.790
  394SOL    HW2 2082   2.321   1.240   6.907
  395SOL     OW 2083   0.187   3.057   0.841
  395SOL    HW1 2084   0.102   3.022   0.879
  395SOL    HW2 2085   0.184   3.051   0.741
  396SOL     OW 2086   4.090   2.853   5.617
  396SOL    HW1 2087   4.189   2.840   5.631
  396SOL    HW2 2088   4.059   2.797   5.540
  397SOL     OW 2089   4.708   6.892   6.659
  397SOL    HW1 2090   4.679   6.977   6.702
  397SOL    HW2 2091   4.808   6.888   6.657
  398SOL     OW 2092   5.965   4.121   2.378
  398SOL    HW1 2093   5.872   4.129   2.341
  398SOL    HW2 2094   6.027   4.180   2.326
  399SOL     OW 2095   2.441   6.023   1.515
  399SOL    HW1 2096   2.455   5.924   1.508
  399SOL    HW2 2097   2.435   6.049   1.612
  400SOL     OW 2098   2.108   4.966   5.673
  400SOL    HW1 2099   2.188   4.915   5.705
  400SOL    HW2 2100   2.046   4.983   5.749
  401SOL     OW 2101   6.287   1.383   1.439
  401SOL    HW1 2102   6.375   1.376   1.487
  401SOL    HW2 2103   6.213   1.385   1.506
  402SOL     OW 2104   0.405   5.669   1.043
  402SOL    HW1 2105   0.325   5.712   1.000
  402SOL    HW2 2106   0.390   5.570   1.050
  403SOL     OW 2107   5.528   4.380   0.430
  403SOL    HW1 2108   5.559   4.342   0.342
  403SOL    HW2 2109   5.428   4.374   0.435
  404SOL     OW 2110   6.888   5.843   4.567
  404SOL    HW1 2111   6.824   5.863   4.493
  404SOL    HW2 2112   6.956   5.777   4.535
  405SOL     OW 2113   1.245   1.183   1.462
  405SOL    HW1 2114   1.207   1.275   1.457
  405SOL    HW2 2115   1.294   1.171   1.548
  406SOL     OW 2116   1.220   3.317   3.714
  406SOL    HW1 2117   1.281   3.300   3.791
  406SOL    HW2 2118   1.247   3.400   3.666
  407SOL     OW 2119   3.326   2.032   3.987
  407SOL    HW1 2120   3.258   2.040   3.915
  407SOL    HW2 2121   3.300   2.089   4.065
  408SOL     OW 2122   2.071   0.061   3.587
  408SOL    HW1 2123   2.019   0.146   3.574
  408SOL    HW2 2124   2.156   0.065   3.536
  409SOL     OW 2125   0.388   4.861   4.543
  409SOL    HW1 2126   0.302   4.832   4.584
  409SOL    HW2 2127   0.445   4.781   4.524
  410SOL     OW 2128   2.552   6.386   6.253
  410SOL    HW1 2129   2.621   6.367   6.323
  410SOL    HW2 2130   2.579   6.466   6.200
  411SOL     OW 2131   0.554   4.317   5.423
  411SOL    HW1 2132   0.549   4.218   5.438
  411SOL    HW2 2133   0.563   4.364   5.511
  412SOL     OW 2134   3.776   6.178   3.106
  412SOL    HW1 2135   3.863   6.185   3.155
  412SOL    HW2 2136   3.709   6.132   3.164
  413SOL     OW 2137   2.439   0.304   1.579
  413SOL    HW1 2138   2.514   0.252   1.537
  413SOL    HW2 2139   2.355   0.289   1.527
  414SOL     OW 2140   4.764   4.458   0.719
  414SOL    HW1 2141   4.710   4.387   0.674
  414SOL    HW2 2142   4.856   4.461   0.679
  415SOL     OW 2143   3.938   6.739   2.780
  415SOL    HW1 2144   3.969   6.645   2.796
  415SOL    HW2 2145   3.854   6.755   2.831
  416SOL     OW 2146   3.908   5.763   0.125
  416SOL    HW1 2147   3.887   5.829   0.197
  416SOL    HW2 2148   3.863   5.676   0.145
  417SOL     OW 2149   5.589   5.542   0.950
  417SOL    HW1 2150   5.596   5.506   0.857
  417SOL    HW2 2151   5.501   5.515   0.989
  418SOL     OW 2152   0.179   5.223   6.290
  418SOL    HW1 2153   0.131   5.306   6.263
  418SOL    HW2 2154   0.207   5.230   6.386
  419SOL     OW 2155   4.792   5.568   6.232
  419SOL    HW1 2156   4.880   5.567   6.278
  419SOL    HW2 2157   4.726   5.619   6.287
  420SOL     OW 2158   5.828   3.583   6.678
  420SOL    HW1 2159   5.895   3.599   6.606
  420SOL    HW2 2160   5.875   3.554   6.762
  421SOL     OW 2161   1.730   6.191   6.212
  421SOL    HW1 2162   1.660   6.233   6.154
  421SOL    HW2 2163   1.757   6.256   6.283
  422SOL     OW 2164   6.465   3.718   6.939
  422SOL    HW1 2165   6.565   3.716   6.942
  422SOL    HW2 2166   6.432   3.795   6.992
  423SOL     OW 2167   1.392   3.315   6.342
  423SOL    HW1 2168   1.467   3.382   6.336
  423SOL    HW2 2169   1.340   3.331   6.425
  424SOL     OW 2170   2.332   4.292   6.037
  424SOL    HW1 2171   2.314   4.198   6.068
  424SOL    HW2 2172   2.269   4.354   6.084
  425SOL     OW 2173   2.708   0.806   0.590
  425SOL    HW1 2174   2.745   0.872   0.525
  425SOL    HW2 2175   2.781   0.748   0.624
  426SOL     OW 2176   0.565   3.310   6.852
  426SOL    HW1 2177   0.545   3.213   6.865
  426SOL    HW2 2178   0.599   3.349   6.938
  427SOL     OW 2179   4.155   3.141   0.203
  427SOL    HW1 2180   4.184   3.083   0.126
  427SOL    HW2 2181   4.061   3.172   0.188
  428SOL     OW 2182   3.478   1.028   4.617
  428SOL    HW1 2183   3.506   0.932   4.612
  428SOL    HW2 2184   3.379   1.033   4.627
  429SOL     OW 2185   3.868   6.223   0.360
  429SOL    HW1 2186   3.926   6.288   0.409
  429SOL    HW2 2187   3.775   6.228   0.394
  430SOL     OW 2188   2.848   0.953   4.481
  430SOL    HW1 2189   2.814   1.035   4.526
  430SOL    HW2 2190   2.911   0.979   4.407
  431SOL     OW 2191   3.785   0.658   6.487
  431SOL    HW1 2192   3.797   0.598   6.566
  431SOL    HW2 2193   3.732   0.738   6.514
  432SOL     OW 2194   6.414   1.390   1.036
  432SOL    HW1 2195   6.429   1.484   1.065
  432SOL    HW2 2196   6.337   1.386   0.973
  433SOL     OW 2197   4.000   6.113   4.965
  433SOL    HW1 2198   4.040   6.153   4.882
  433SOL    HW2 2199   3.981   6.016   4.949
  434SOL     OW 2200   6.689   3.503   0.909
  434SOL    HW1 2201   6.747   3.448   0.849
  434SOL    HW2 2202   6.656   3.446   0.984
  435SOL     OW 2203   3.846   3.187   0.743
  435SOL    HW1 2204   3.805   3.097   0.727
  435SOL    HW2 2205   3.904   3.183   0.824
  436SOL     OW 2206   2.263   1.322   1.244
  436SOL    HW1 2207   2.193   1.314   1.315
  436SOL    HW2 2208   2.303   1.413   1.248
  437SOL     OW 2209   6.183   6.773   6.069
  437SOL    HW1 2210   6.267   6.729   6.100
  437SOL    HW2 2211   6.172   6.860   6.116
  438SOL     OW 2212   1.365   3.465   0.800
  438SOL    HW1 2213   1.356   3.366   0.812
  438SOL    HW2 2214   1.341   3.490   0.707
  439SOL     OW 2215   6.224   4.995   1.801
  439SOL    HW1 2216   6.210   4.903   1.763
  439SOL    HW2 2217   6.136   5.041   1.811
  440SOL     OW 2218   1.621   2.732   2.603
  440SOL    HW1 2219   1.636   2.634   2.603
  440SOL    HW2 2220   1.682   2.776   2.536
  441SOL     OW 2221   6.763   1.427   3.224
  441SOL    HW1 2222   6.841   1.478   3.188
  441SOL    HW2 2223   6.796   1.354   3.285
  442SOL     OW 2224   1.178   5.141   6.708
  442SOL    HW1 2225   1.201   5.234   6.737
  442SOL    HW2 2226   1.254   5.080   6.731
  443SOL     OW 2227   0.383   5.195   5.760
  443SOL    HW1 2228   0.412   5.132   5.832
  443SOL    HW2 2229   0.309   5.253   5.795
  444SOL     OW 2230   5.595   3.061   6.793
  444SOL    HW1 2231   5.504   3.026   6.817
  444SOL    HW2 2232   5.622   3.023   6.704
  445SOL     OW 2233   1.872   3.712   3.034
  445SOL    HW1 2234   1.831   3.727   3.124
  445SOL    HW2 2235   1.804   3.729   2.963
  446SOL     OW 2236   1.656   5.190   4.402
  446SOL    HW1 2237   1.620   5.255   4.468
  446SOL    HW2 2238   1.671   5.102   4.447
  447SOL     OW 2239   0.795   5.982   0.732
  447SOL    HW1 2240   0.747   5.921   0.794
  447SOL    HW2 2241   0.809   6.071   0.776
  448SOL     OW 2242   4.221   0.441   5.052
  448SOL    HW1 2243   4.240   0.459   5.148
  448SOL    HW2 2244   4.286   0.492   4.995
  449SOL     OW 2245   5.955   0.521   4.661
  449SOL    HW1 2246   6.053   0.527   4.642
  449SOL    HW2 2247   5.940   0.516   4.759
  450SOL     OW 2248   7.020   5.788   2.653
  450SOL    HW1 2249   7.019   5.787   2.553
  450SOL    HW2 2250   6.972   5.869   2.687
  451SOL     OW 2251   5.643   3.729   3.897
  451SOL    HW1 2252   5.681   3.717   3.989
  451SOL    HW2 2253   5.696   3.673   3.833
  452SOL     OW 2254   6.412   4.739   6.018
  452SOL    HW1 2255   6.418   4.692   6.107
  452SOL    HW2 2256   6.388   4.835   6.033
  453SOL     OW 2257   3.771   1.297   6.408
  453SOL    HW1 2258   3.811   1.374   6.359
  453SOL    HW2 2259   3.813   1.288   6.498
  454SOL     OW 2260   0.607   5.870   6.980
  454SOL    HW1 2261   0.540   5.836   0.025
  454SOL    HW2 2262   0.645   5.957   7.013
  455SOL     OW 2263   5.260   1.788   4.963
  455SOL    HW1 2264   5.168   1.758   4.987
  455SOL    HW2 2265   5.327   1.733   5.013
  456SOL     OW 2266   4.170   5.706   0.943
  456SOL    HW1 2267   4.191   5.645   0.867
  456SOL    HW2 2268   4.183   5.658   1.029
  457SOL     OW 2269   0.435   4.464   1.574
  457SOL    HW1 2270   0.388   4.505   1.496
  457SOL    HW2 2271   0.532   4.453   1.554
  458SOL     OW 2272   0.819   0.125   5.751
  458SOL    HW1 2273   0.757   0.068   5.697
  458SOL    HW2 2274   0.900   0.071   5.776
  459SOL     OW 2275   1.530   0.861   3.431
  459SOL    HW1 2276   1.603   0.813   3.480
  459SOL    HW2 2277   1.512   0.815   3.345
  460SOL     OW 2278   6.469   2.388   3.113
  460SOL    HW1 2279   6.385   2.441   3.122
  460SOL    HW2 2280   6.533   2.413   3.186
  461SOL     OW 2281   5.087   4.485   5.939
  461SOL    HW1 2282   5.042   4.566   5.977
  461SOL    HW2 2283   5.046   4.403   5.978
  462SOL     OW 2284   3.571   2.781   0.513
  462SOL    HW1 2285   3.625   2.729   0.447
  462SOL    HW2 2286   3.477   2.791   0.480
  463SOL     OW 2287   5.877   6.174   1.693
  463SOL    HW1 2288   5.900   6.095   1.750
  463SOL    HW2 2289   5.793   6.216   1.726
  464SOL     OW 2290   1.882   2.088   5.959
  464SOL    HW1 2291   1.892   2.141   5.875
  464SOL    HW2 2292   1.972   2.071   5.999
  465SOL     OW 2293   0.856   3.443   5.915
  465SOL    HW1 2294   0.877   3.540   5.902
  465SOL    HW2 2295   0.762   3.425   5.887
  466SOL     OW 2296   1.361   0.641   3.430
  466SOL    HW1 2297   1.367   0.705   3.507
  466SOL    HW2 2298   1.360   0.692   3.344
  467SOL     OW 2299   1.544   1.367   4.912
  467SOL    HW1 2300   1.619   1.375   4.847
  467SOL    HW2 2301   1.526   1.456   4.954
  468SOL     OW 2302   3.028   3.690   3.380
  468SOL    HW1 2303   3.047   3.787   3.393
  468SOL    HW2 2304   2.983   3.653   3.461
  469SOL     OW 2305   3.785   0.248   6.602
  469SOL    HW1 2306   3.726   0.169   6.590
  469SOL    HW2 2307   3.732   0.332   6.590
  470SOL     OW 2308   4.248   6.941   2.998
  470SOL    HW1 2309   4.254   6.852   3.044
  470SOL    HW2 2310   4.330   6.994   3.019
  471SOL     OW 2311   2.756   2.131   4.282
  471SOL    HW1 2312   2.765   2.060   4.351
  471SOL    HW2 2313   2.841   2.139   4.229
  472SOL     OW 2314   3.967   4.121   5.401
  472SOL    HW1 2315   4.042   4.176   5.365
  472SOL    HW2 2316   3.920   4.075   5.325
  473SOL     OW 2317   0.116   4.625   4.103
  473SOL    HW1 2318   0.121   4.719   4.137
  473SOL    HW2 2319   0.189   4.571   4.146
  474SOL     OW 2320   4.883   4.978   5.166
  474SOL    HW1 2321   4.789   4.980   5.198
  474SOL    HW2 2322   4.920   5.071   5.163
  475SOL     OW 2323   2.645   6.876   0.326
  475SOL    HW1 2324   2.655   6.975   0.317
  475SOL    HW2 2325   2.601   6.855   0.414
  476SOL     OW 2326   6.830   5.644   2.921
  476SOL    HW1 2327   6.760   5.653   2.992
  476SOL    HW2 2328   6.903   5.711   2.938
  477SOL     OW 2329   1.664   4.716   4.098
  477SOL    HW1 2330   1.668   4.619   4.075
  477SOL    HW2 2331   1.579   4.756   4.063
  478SOL     OW 2332   1.302   4.806   3.590
  478SOL    HW1 2333   1.388   4.815   3.640
  478SOL    HW2 2334   1.252   4.893   3.595
  479SOL     OW 2335   4.312   1.797   2.042
  479SOL    HW1 2336   4.267   1.880   2.076
  479SOL    HW2 2337   4.247   1.721   2.044
  480SOL     OW 2338   1.446   6.087   3.781
  480SOL    HW1 2339   1.455   5.989   3.800
  480SOL    HW2 2340   1.478   6.139   3.860
  481SOL     OW 2341   2.137   0.385   0.986
  481SOL    HW1 2342   2.221   0.401   0.934
  481SOL    HW2 2343   2.132   0.449   1.063
  482SOL     OW 2344   5.567   5.825   0.755
  482SOL    HW1 2345   5.666   5.817   0.743
  482SOL    HW2 2346   5.543   5.804   0.850
  483SOL     OW 2347   5.324   1.702   3.135
  483SOL    HW1 2348   5.314   1.698   3.036
  483SOL    HW2 2349   5.388   1.631   3.165
  484SOL     OW 2350   6.353   1.613   3.811
  484SOL    HW1 2351   6.384   1.678   3.880
  484SOL    HW2 2352   6.256   1.627   3.794
  485SOL     OW 2353   2.951   6.297   0.572
  485SOL    HW1 2354   2.954   6.244   0.657
  485SOL    HW2 2355   3.015   6.373   0.578
  486SOL     OW 2356   6.777   0.451   5.780
  486SOL    HW1 2357   6.774   0.454   5.880
  486SOL    HW2 2358   6.701   0.395   5.746
  487SOL     OW 2359   6.554   2.235   6.754
  487SOL    HW1 2360   6.487   2.281   6.696
  487SOL    HW2 2361   6.584   2.150   6.711
  488SOL     OW 2362   1.186   4.494   3.331
  488SOL    HW1 2363   1.167   4.426   3.260
  488SOL    HW2 2364   1.109   4.558   3.337
  489SOL     OW 2365   3.355   5.152   6.013
  489SOL    HW1 2366   3.371   5.087   6.088
  489SOL    HW2 2367   3.393   5.241   6.037
  490SOL     OW 2368   4.859   0.860   4.445
  490SOL    HW1 2369   4.773   0.844   4.494
  490SOL    HW2 2370   4.842   0.853   4.346
  491SOL     OW 2371   0.318   3.310   3.704
  491SOL    HW1 2372   0.338   3.212   3.709
  491SOL    HW2 2373   0.257   3.327   3.627
  492SOL     OW 2374   1.643   1.381   4.641
  492SOL    HW1 2375   1.692   1.419   4.563
  492SOL    HW2 2376   1.553   1.424   4.650
  493SOL     OW 2377   5.843   4.027   4.569
  493SOL    HW1 2378   5.757   3.991   4.603
  493SOL    HW2 2379   5.885   3.961   4.507
  494SOL     OW 2380   5.713   0.827   6.625
  494SOL    HW1 2381   5.787   0.808   6.561
  494SOL    HW2 2382   5.694   0.925   6.627
  495SOL     OW 2383   5.387   4.554   6.873
  495SOL    HW1 2384   5.443   4.532   6.953
  495SOL    HW2 2385   5.317   4.484   6.862
  496SOL     OW 2386   6.085   3.673   2.715
  496SOL    HW1 2387   6.061   3.754   2.768
  496SOL    HW2 2388   6.049   3.682   2.622
  497SOL     OW 2389   4.336   6.894   4.374
  497SOL    HW1 2390   4.404   6.959   4.340
  497SOL    HW2 2391   4.371   6.801   4.364
  498SOL     OW 2392   1.503   3.321   1.294
  498SOL    HW1 2393   1.415   3.357   1.322
  498SOL    HW2 2394   1.563   3.396   1.267
  499SOL     OW 2395   3.528   1.380   5.278
  499SOL    HW1 2396   3.534   1.455   5.212
  499SOL    HW2 2397   3.531   1.417   5.371
  500SOL     OW 2398   1.268   4.664   2.852
  500SOL    HW1 2399   1.259   4.744   2.793
  500SOL    HW2 2400   1.177   4.628   2.873
  501SOL     OW 2401   0.696   4.867   6.281
  501SOL    HW1 2402   0.712   4.779   6.326
  501SOL    HW2 2403   0.713   4.941   6.346
  502SOL     OW 2404   2.185   4.744   5.960
  502SOL    HW1 2405   2.231   4.803   6.026
  502SOL    HW2 2406   2.234   4.746   5.873
  503SOL     OW 2407   6.938   5.200   4.591
  503SOL    HW1 2408   6.945   5.202   4.491
  503SOL    HW2 2409   6.844   5.179   4.618
  504SOL     OW 2410   1.433   5.092   4.763
  504SOL    HW1 2411   1.477   5.080   4.852
  504SOL    HW2 2412   1.351   5.148   4.774
  505SOL     OW 2413   3.496   6.492   4.730
  505SOL    HW1 2414   3.536   6.555   4.796
  505SOL    HW2 2415   3.465   6.410   4.777
  506SOL     OW 2416   2.148   3.398   0.731
  506SOL    HW1 2417   2.127   3.330   0.800
  506SOL    HW2 2418   2.168   3.486   0.775
  507SOL     OW 2419   3.849   1.850   4.305
  507SOL    HW1 2420   3.949   1.848   4.315
  507SOL    HW2 2421   3.819   1.768   4.255
  508SOL     OW 2422   5.897   5.263   4.471
  508SOL    HW1 2423   5.948   5.349   4.476
  508SOL    HW2 2424   5.799   5.283   4.461
  509SOL     OW 2425   4.827   3.232   1.715
  509SOL    HW1 2426   4.774   3.171   1.774
  509SOL    HW2 2427   4.812   3.207   1.619
  510SOL     OW 2428   0.808   4.138   4.538
  510SOL    HW1 2429   0.886   4.120   4.478
  510SOL    HW2 2430   0.758   4.217   4.504
  511SOL     OW 2431   0.507   6.002   1.495
  511SOL    HW1 2432   0.452   6.021   1.414
  511SOL    HW2 2433   0.574   6.075   1.507
  512SOL     OW 2434   1.937   3.978   5.663
  512SOL    HW1 2435   1.980   3.904   5.716
  512SOL    HW2 2436   1.865   4.020   5.718
  513SOL     OW 2437   0.776   5.237   4.235
  513SOL    HW1 2438   0.732   5.249   4.146
  513SOL    HW2 2439   0.767   5.142   4.264
  514SOL     OW 2440   5.160   1.716   3.355
  514SOL    HW1 2441   5.182   1.799   3.406
  514SOL    HW2 2442   5.227   1.703   3.281
  515SOL     OW 2443   2.855   5.864   0.294
  515SOL    HW1 2444   2.819   5.772   0.281
  515SOL    HW2 2445   2.952   5.860   0.314
  516SOL     OW 2446   1.732   4.317   3.712
  516SOL    HW1 2447   1.765   4.295   3.804
  516SOL    HW2 2448   1.742   4.415   3.696
  517SOL     OW 2449   4.945   0.214   5.774
  517SOL    HW1 2450   4.872   0.237   5.838
  517SOL    HW2 2451   5.033   0.213   5.822
  518SOL     OW 2452   1.992   1.339   0.017
  518SOL    HW1 2453   2.018   1.368   6.946
  518SOL    HW2 2454   2.026   1.405   0.084
  519SOL     OW 2455   0.932   6.821   0.042
  519SOL    HW1 2456   0.952   6.854   0.135
  519SOL    HW2 2457   0.833   6.823   0.027
  520SOL     OW 2458   5.992   4.437   4.815
  520SOL    HW1 2459   5.955   4.345   4.833
  520SOL    HW2 2460   6.045   4.435   4.730
  521SOL     OW 2461   6.643   0.846   0.199
  521SOL    HW1 2462   6.610   0.822   0.108
  521SOL    HW2 2463   6.649   0.946   0.207
  522SOL     OW 2464   3.270   4.228   5.510
  522SOL    HW1 2465   3.185   4.248   5.461
  522SOL    HW2 2466   3.249   4.184   5.597
  523SOL     OW 2467   6.489   6.718   3.476
  523SOL    HW1 2468   6.547   6.798   3.461
  523SOL    HW2 2469   6.527   6.663   3.551
  524SOL     OW 2470   4.188   0.817   4.520
  524SOL    HW1 2471   4.158   0.772   4.605
  524SOL    HW2 2472   4.231   0.750   4.460
  525SOL     OW 2473   3.649   2.803   6.870
  525SOL    HW1 2474   3.682   2.718   6.829
  525SOL    HW2 2475   3.566   2.833   6.823
  526SOL     OW 2476   4.084   6.708   4.362
  526SOL    HW1 2477   4.130   6.780   4.310
  526SOL    HW2 2478   4.127   6.700   4.452
  527SOL     OW 2479   0.891   1.325   0.285
  527SOL    HW1 2480   0.957   1.256   0.315
  527SOL    HW2 2481   0.884   1.397   0.355
  528SOL     OW 2482   1.493   1.883   6.470
  528SOL    HW1 2483   1.475   1.974   6.507
  528SOL    HW2 2484   1.569   1.841   6.520
  529SOL     OW 2485   0.155   4.838   4.683
  529SOL    HW1 2486   0.068   4.798   4.654
  529SOL    HW2 2487   0.138   4.925   4.729
  530SOL     OW 2488   7.015   3.020   5.514
  530SOL    HW1 2489   6.963   2.958   5.573
  530SOL    HW2 2490   6.989   3.005   5.419
  531SOL     OW 2491   0.121   0.085   6.999
  531SOL    HW1 2492   0.113   0.009   0.043
  531SOL    HW2 2493   0.137   0.170   0.028
  532SOL     OW 2494   2.148   1.177   5.568
  532SOL    HW1 2495   2.157   1.196   5.665
  532SOL    HW2 2496   2.070   1.116   5.552
  533SOL     OW 2497   4.466   0.892   5.144
  533SOL    HW1 2498   4.474   0.950   5.063
  533SOL    HW2 2499   4.552   0.845   5.160
  534SOL     OW 2500   3.106   5.770   3.372
  534SOL    HW1 2501   3.155   5.844   3.325
  534SOL    HW2 2502   3.014   5.801   3.395
  535SOL     OW 2503   6.579   4.035   2.040
  535SOL    HW1 2504   6.486   4.010   2.065
  535SOL    HW2 2505   6.599   4.003   1.948
  536SOL     OW 2506   2.007   6.081   1.190
  536SOL    HW1 2507   2.093   6.031   1.186
  536SOL    HW2 2508   2.014   6.164   1.134
  537SOL     OW 2509   2.563   0.267   3.143
  537SOL    HW1 2510   2.482   0.210   3.156
  537SOL    HW2 2511   2.607   0.243   3.057
  538SOL     OW 2512   1.511   5.498   4.123
  538SOL    HW1 2513   1.607   5.471   4.126
  538SOL    HW2 2514   1.486   5.539   4.211
  539SOL     OW 2515   1.449   5.101   1.501
  539SOL    HW1 2516   1.455   5.133   1.406
  539SOL    HW2 2517   1.481   5.172   1.562
  540SOL     OW 2518   2.768   2.498   1.153
  540SOL    HW1 2519   2.824   2.418   1.174
  540SOL    HW2 2520   2.821   2.564   1.101
  541SOL     OW 2521   4.480   5.847   4.967
  541SOL    HW1 2522   4.555   5.830   4.903
  541SOL    HW2 2523   4.517   5.873   5.056
  542SOL     OW 2524   6.082   0.434   6.307
  542SOL    HW1 2525   6.118   0.509   6.361
  542SOL    HW2 2526   6.106   0.448   6.211
  543SOL     OW 2527   6.504   7.014   2.275
  543SOL    HW1 2528   6.564   0.065   2.240
  543SOL    HW2 2529   6.554   6.927   2.278
  544SOL     OW 2530   0.588   5.619   0.554
  544SOL    HW1 2531   0.594   5.664   0.643
  544SOL    HW2 2532   0.581   5.520   0.566
  545SOL     OW 2533   2.868   1.915   3.904
  545SOL    HW1 2534   2.796   1.984   3.895
  545SOL    HW2 2535   2.919   1.930   3.989
  546SOL     OW 2536   1.100   2.185   6.443
  546SOL    HW1 2537   1.125   2.202   6.539
  546SOL    HW2 2538   1.183   2.171   6.390
  547SOL     OW 2539   3.304   2.035   0.669
  547SOL    HW1 2540   3.368   1.961   0.689
  547SOL    HW2 2541   3.210   2.005   0.685
  548SOL     OW 2542   2.965   3.403   5.814
  548SOL    HW1 2543   2.995   3.320   5.769
  548SOL    HW2 2544   2.884   3.439   5.766
  549SOL     OW 2545   0.354   4.459   1.114
  549SOL    HW1 2546   0.317   4.373   1.147
  549SOL    HW2 2547   0.292   4.497   1.044
  550SOL     OW 2548   6.776   4.394   0.896
  550SOL    HW1 2549   6.797   4.310   0.945
  550SOL    HW2 2550   6.749   4.373   0.802
  551SOL     OW 2551   0.403   0.175   0.413
  551SOL    HW1 2552   0.416   0.255   0.355
  551SOL    HW2 2553   0.469   0.176   0.488
  552SOL     OW 2554   4.569   5.346   0.219
  552SOL    HW1 2555   4.598   5.341   0.124
  552SOL    HW2 2556   4.570   5.442   0.249
  553SOL     OW 2557   1.104   2.214   1.078
  553SOL    HW1 2558   1.175   2.245   1.141
  553SOL    HW2 2559   1.073   2.123   1.106
  554SOL     OW 2560   4.447   5.334   4.770
  554SOL    HW1 2561   4.459   5.403   4.840
  554SOL    HW2 2562   4.493   5.364   4.686
  555SOL     OW 2563   1.720   4.105   5.780
  555SOL    HW1 2564   1.726   4.096   5.879
  555SOL    HW2 2565   1.658   4.180   5.757
  556SOL     OW 2566   6.386   3.939   2.662
  556SOL    HW1 2567   6.399   3.977   2.753
  556SOL    HW2 2568   6.293   3.961   2.630
  557SOL     OW 2569   6.388   5.769   5.675
  557SOL    HW1 2570   6.477   5.797   5.638
  557SOL    HW2 2571   6.385   5.669   5.684
  558SOL     OW 2572   3.956   3.833   5.606
  558SOL    HW1 2573   3.902   3.821   5.689
  558SOL    HW2 2574   3.963   3.746   5.558
  559SOL     OW 2575   5.027   5.211   6.510
  559SOL    HW1 2576   5.034   5.114   6.484
  559SOL    HW2 2577   5.070   5.225   6.600
  560SOL     OW 2578   4.582   6.598   0.759
  560SOL    HW1 2579   4.566   6.568   0.665
  560SOL    HW2 2580   4.671   6.642   0.765
  561SOL     OW 2581   4.498   0.026   3.025
  561SOL    HW1 2582   4.586   0.014   3.072
  561SOL    HW2 2583   4.512   0.071   2.937
  562SOL     OW 2584   5.844   0.195   1.504
  562SOL    HW1 2585   5.849   0.193   1.604
  562SOL    HW2 2586   5.858   0.102   1.468
  563SOL     OW 2587   2.790   0.241   4.954
  563SOL    HW1 2588   2.716   0.275   4.896
  563SOL    HW2 2589   2.877   0.248   4.905
  564SOL     OW 2590   0.587   1.211   5.266
  564SOL    HW1 2591   0.636   1.234   5.182
  564SOL    HW2 2592   0.518   1.282   5.285
  565SOL     OW 2593   4.485   3.348   5.851
  565SOL    HW1 2594   4.454   3.392   5.936
  565SOL    HW2 2595   4.428   3.380   5.775
  566SOL     OW 2596   6.853   4.558   2.312
  566SOL    HW1 2597   6.894   4.469   2.290
  566SOL    HW2 2598   6.761   4.544   2.350
  567SOL     OW 2599   3.874   3.673   6.314
  567SOL    HW1 2600   3.967   3.643   6.332
  567SOL    HW2 2601   3.875   3.754   6.255
  568SOL     OW 2602   2.683   1.094   6.501
  568SOL    HW1 2603   2.703   1.187   6.530
  568SOL    HW2 2604   2.588   1.088   6.470
  569SOL     OW 2605   1.923   4.446   6.623
  569SOL    HW1 2606   1.875   4.533   6.631
  569SOL    HW2 2607   1.895   4.385   6.698
  570SOL     OW 2608   0.312   5.358   6.506
  570SOL    HW1 2609   0.261   5.444   6.506
  570SOL    HW2 2610   0.309   5.317   6.598
  571SOL     OW 2611   4.659   6.056   2.710
  571SOL    HW1 2612   4.701   5.976   2.754
  571SOL    HW2 2613   4.728   6.127   2.698
  572SOL     OW 2614   1.932   3.972   4.020
  572SOL    HW1 2615   2.015   4.028   4.019
  572SOL    HW2 2616   1.916   3.939   4.113
  573SOL     OW 2617   4.033   2.444   0.199
  573SOL    HW1 2618   4.022   2.489   0.287
  573SOL    HW2 2619   3.999   2.504   0.127
  574SOL     OW 2620   2.888   2.258   3.555
  574SOL    HW1 2621   2.874   2.188   3.485
  574SOL    HW2 2622   2.980   2.296   3.547
  575SOL     OW 2623   4.543   2.545   5.831
  575SOL    HW1 2624   4.460   2.575   5.878
  575SOL    HW2 2625   4.531   2.451   5.798
  576SOL     OW 2626   0.359   3.647   3.373
  576SOL    HW1 2627   0.281   3.670   3.432
  576SOL    HW2 2628   0.432   3.606   3.428
  577SOL     OW 2629   4.033   1.843   3.382
  577SOL    HW1 2630   3.978   1.845   3.466
  577SOL    HW2 2631   4.022   1.930   3.333
  578SOL     OW 2632   6.539   3.214   4.572
  578SOL    HW1 2633   6.475   3.274   4.620
  578SOL    HW2 2634   6.592   3.162   4.639
  579SOL     OW 2635   4.275   3.475   0.712
  579SOL    HW1 2636   4.267   3.408   0.639
  579SOL    HW2 2637   4.278   3.428   0.800
  580SOL     OW 2638   6.856   0.200   0.102
  580SOL    HW1 2639   6.787   0.130   0.085
  580SOL    HW2 2640   6.877   0.248   0.017
  581SOL     OW 2641   4.059   3.207   3.496
  581SOL    HW1 2642   4.085   3.217   3.592
  581SOL    HW2 2643   4.030   3.114   3.479
  582SOL     OW 2644   7.020   3.791   0.547
  582SOL    HW1 2645   0.074   3.784   0.612
  582SOL    HW2 2646   6.941   3.739   0.580
  583SOL     OW 2647   2.945   6.655   6.988
  583SOL    HW1 2648   2.955   6.584   6.919
  583SOL    HW2 2649   2.857   6.701   6.976
  584SOL     OW 2650   1.748   5.206   4.897
  584SOL    HW1 2651   1.846   5.195   4.915
  584SOL    HW2 2652   1.735   5.254   4.810
  585SOL     OW 2653   5.409   2.004   5.270
  585SOL    HW1 2654   5.442   2.039   5.358
  585SOL    HW2 2655   5.480   1.947   5.228
  586SOL     OW 2656   3.438   5.297   1.082
  586SOL    HW1 2657   3.490   5.238   1.144
  586SOL    HW2 2658   3.491   5.379   1.061
  587SOL     OW 2659   2.492   2.910   6.369
  587SOL    HW1 2660   2.395   2.894   6.385
  587SOL    HW2 2661   2.503   2.975   6.294
  588SOL     OW 2662   2.148   0.147   1.928
  588SOL    HW1 2663   2.214   0.096   1.983
  588SOL    HW2 2664   2.083   0.083   1.887
  589SOL     OW 2665   4.840   5.326   2.091
  589SOL    HW1 2666   4.750   5.353   2.124
  589SOL    HW2 2667   4.855   5.229   2.108
  590SOL     OW 2668   0.588   4.193   1.791
  590SOL    HW1 2669   0.551   4.257   1.859
  590SOL    HW2 2670   0.638   4.245   1.722
  591SOL     OW 2671   2.502   0.519   3.029
  591SOL    HW1 2672   2.539   0.502   2.938
  591SOL    HW2 2673   2.536   0.449   3.092
  592SOL     OW 2674   5.251   0.298   6.517
  592SOL    HW1 2675   5.305   0.279   6.599
  592SOL    HW2 2676   5.269   0.227   6.449
  593SOL     OW 2677   0.353   0.633   4.566
  593SOL    HW1 2678   0.381   0.665   4.656
  593SOL    HW2 2679   0.260   0.596   4.572
  594SOL     OW 2680   5.468   2.359   1.353
  594SOL    HW1 2681   5.500   2.312   1.435
  594SOL    HW2 2682   5.370   2.342   1.341
  595SOL     OW 2683   2.912   6.782   3.787
  595SOL    HW1 2684   2.833   6.753   3.842
  595SOL    HW2 2685   2.997   6.757   3.834
  596SOL     OW 2686   0.654   4.639   2.608
  596SOL    HW1 2687   0.707   4.669   2.528
  596SOL    HW2 2688   0.706   4.570   2.658
  597SOL     OW 2689   4.360   2.048   5.347
  597SOL    HW1 2690   4.346   2.112   5.272
  597SOL    HW2 2691   4.366   1.955   5.310
  598SOL     OW 2692   3.830   3.739   1.422
  598SOL    HW1 2693   3.754   3.690   1.464
  598SOL    HW2 2694   3.833   3.833   1.456
  599SOL     OW 2695   5.587   5.532   3.529
  599SOL    HW1 2696   5.534   5.455   3.493
  599SOL    HW2 2697   5.527   5.591   3.583
  600SOL     OW 2698   2.986   2.099   0.532
  600SOL    HW1 2699   3.031   2.038   0.597
  600SOL    HW2 2700   3.042   2.107   0.450
  601SOL     OW 2701   1.732   4.758   1.631
  601SOL    HW1 2702   1.641   4.793   1.609
  601SOL    HW2 2703   1.727   4.703   1.715
  602SOL     OW 2704   0.396   0.922   2.717
  602SOL    HW1 2705   0.323   0.862   2.682
  602SOL    HW2 2706   0.363   0.970   2.798
  603SOL     OW 2707   4.476   1.460   2.895
  603SOL    HW1 2708   4.415   1.483   2.970
  603SOL    HW2 2709   4.431   1.395   2.834
  604SOL     OW 2710   1.618   2.932   6.099
  604SOL    HW1 2711   1.585   2.976   6.016
  604SOL    HW2 2712   1.561   2.960   6.176
  605SOL     OW 2713   5.050   0.289   4.587
  605SOL    HW1 2714   5.082   0.330   4.501
  605SOL    HW2 2715   5.107   0.211   4.610
  606SOL     OW 2716   2.292   6.996   2.308
  606SOL    HW1 2717   2.350   0.027   2.245
  606SOL    HW2 2718   2.244   6.924   2.258
  607SOL     OW 2719   3.602   0.012   4.532
  607SOL    HW1 2720   3.601   6.935   4.508
  607SOL    HW2 2721   3.589   0.066   4.450
  608SOL     OW 2722   6.607   2.731   0.732
  608SOL    HW1 2723   6.518   2.775   0.743
  608SOL    HW2 2724   6.611   2.649   0.790
  609SOL     OW 2725   3.352   4.203   5.099
  609SOL    HW1 2726   3.377   4.249   5.185
  609SOL    HW2 2727   3.255   4.178   5.103
  610SOL     OW 2728   6.806   2.280   4.791
  610SOL    HW1 2729   6.789   2.304   4.886
  610SOL    HW2 2730   6.865   2.349   4.749
  611SOL     OW 2731   6.666   6.883   0.420
  611SOL    HW1 2732   6.674   6.874   0.321
  611SOL    HW2 2733   6.756   6.897   0.460
  612SOL     OW 2734   1.503   4.520   6.437
  612SOL    HW1 2735   1.595   4.500   6.403
  612SOL    HW2 2736   1.446   4.439   6.429
  613SOL     OW 2737   3.937   1.411   6.882
  613SOL    HW1 2738   3.898   1.490   6.928
  613SOL    HW2 2739   3.980   1.351   6.949
  614SOL     OW 2740   5.269   2.303   0.700
  614SOL    HW1 2741   5.259   2.205   0.718
  614SOL    HW2 2742   5.236   2.354   0.779
  615SOL     OW 2743   6.139   5.546   0.323
  615SOL    HW1 2744   6.155   5.524   0.419
  615SOL    HW2 2745   6.227   5.547   0.275
  616SOL     OW 2746   4.672   1.502   4.740
  616SOL    HW1 2747   4.608   1.453   4.799
  616SOL    HW2 2748   4.648   1.485   4.644
  617SOL     OW 2749   6.321   0.320   5.436
  617SOL    HW1 2750   6.374   0.405   5.443
  617SOL    HW2 2751   6.364   0.260   5.368
  618SOL     OW 2752   5.264   4.775   1.039
  618SOL    HW1 2753   5.337   4.827   1.084
  618SOL    HW2 2754   5.263   4.682   1.074
  619SOL     OW 2755   1.436   7.018   7.009
  619SOL    HW1 2756   1.507   6.996   0.054
  619SOL    HW2 2757   1.401   6.933   6.968
  620SOL     OW 2758   4.655   1.908   1.519
  620SOL    HW1 2759   4.735   1.908   1.459
  620SOL    HW2 2760   4.574   1.883   1.467
  621SOL     OW 2761   1.712   6.921   6.732
  621SOL    HW1 2762   1.761   6.950   6.814
  621SOL    HW2 2763   1.650   6.846   6.755
  622SOL     OW 2764   0.622   3.075   5.578
  622SOL    HW1 2765   0.706   3.127   5.566
  622SOL    HW2 2766   0.545   3.137   5.593
  623SOL     OW 2767   6.489   1.374   2.848
  623SOL    HW1 2768   6.459   1.352   2.941
  623SOL    HW2 2769   6.499   1.473   2.839
  624SOL     OW 2770   5.852   0.750   6.052
  624SOL    HW1 2771   5.755   0.733   6.030
  624SOL    HW2 2772   5.868   0.730   6.148
  625SOL     OW 2773   3.277   1.180   1.403
  625SOL    HW1 2774   3.375   1.201   1.412
  625SOL    HW2 2775   3.224   1.265   1.409
  626SOL     OW 2776   6.849   6.867   3.809
  626SOL    HW1 2777   6.932   6.859   3.754
  626SOL    HW2 2778   6.784   6.927   3.761
  627SOL     OW 2779   6.474   4.029   5.987
  627SOL    HW1 2780   6.518   3.991   6.068
  627SOL    HW2 2781   6.515   3.990   5.905
  628SOL     OW 2782   3.715   4.607   6.769
  628SOL    HW1 2783   3.635   4.666   6.782
  628SOL    HW2 2784   3.686   4.515   6.742
  629SOL     OW 2785   2.279   6.925   6.786
  629SOL    HW1 2786   2.249   6.901   6.693
  629SOL    HW2 2787   2.278   0.003   6.797
  630SOL     OW 2788   6.404   2.271   0.660
  630SOL    HW1 2789   6.393   2.314   0.750
  630SOL    HW2 2790   6.474   2.320   0.608
  631SOL     OW 2791   1.783   3.655   2.168
  631SOL    HW1 2792   1.881   3.640   2.175
  631SOL    HW2 2793   1.751   3.706   2.248
  632SOL     OW 2794   4.058   4.897   1.176
  632SOL    HW1 2795   3.982   4.854   1.127
  632SOL    HW2 2796   4.135   4.909   1.114
  633SOL     OW 2797   1.414   6.289   6.681
  633SOL    HW1 2798   1.395   6.294   6.780
  633SOL    HW2 2799   1.329   6.274   6.632
  634SOL     OW 2800   2.174   3.522   5.591
  634SOL    HW1 2801   2.263   3.566   5.604
  634SOL    HW2 2802   2.153   3.516   5.494
  635SOL     OW 2803   0.088   5.864   6.648
  635SOL    HW1 2804   0.179   5.894   6.678
  635SOL    HW2 2805   0.070   5.772   6.684
  636SOL     OW 2806   1.678   2.111   4.854
  636SOL    HW1 2807   1.626   2.183   4.809
  636SOL    HW2 2808   1.718   2.051   4.784
  637SOL     OW 2809   6.486   1.429   1.993
  637SOL    HW1 2810   6.424   1.489   1.943
  637SOL    HW2 2811   6.507   1.349   1.937
  638SOL     OW 2812   0.334   3.607   5.559
  638SOL    HW1 2813   0.406   3.658   5.606
  638SOL    HW2 2814   0.310   3.654   5.475
  639SOL     OW 2815   5.691   3.500   1.105
  639SOL    HW1 2816   5.731   3.425   1.158
  639SOL    HW2 2817   5.595   3.481   1.087
  640SOL     OW 2818   6.306   3.673   2.313
  640SOL    HW1 2819   6.375   3.673   2.385
  640SOL    HW2 2820   6.266   3.581   2.305
  641SOL     OW 2821   2.449   6.039   4.196
  641SOL    HW1 2822   2.493   5.997   4.116
  641SOL    HW2 2823   2.518   6.056   4.266
  642SOL     OW 2824   1.062   5.333   4.300
  642SOL    HW1 2825   1.106   5.289   4.379
  642SOL    HW2 2826   0.966   5.306   4.296
  643SOL     OW 2827   4.173   4.799   0.152
  643SOL    HW1 2828   4.075   4.797   0.137
  643SOL    HW2 2829   4.211   4.708   0.136
  644SOL     OW 2830   5.553   0.584   4.683
  644SOL    HW1 2831   5.578   0.514   4.750
  644SOL    HW2 2832   5.454   0.590   4.677
  645SOL     OW 2833   3.743   6.022   2.368
  645SOL    HW1 2834   3.758   6.099   2.307
  645SOL    HW2 2835   3.787   6.040   2.456
  646SOL     OW 2836   3.163   0.989   5.373
  646SOL    HW1 2837   3.066   0.995   5.349
  646SOL    HW2 2838   3.171   0.970   5.471
  647SOL     OW 2839   1.905   2.197   6.825
  647SOL    HW1 2840   1.935   2.292   6.833
  647SOL    HW2 2841   1.963   2.149   6.759
  648SOL     OW 2842   5.155   2.410   3.490
  648SOL    HW1 2843   5.160   2.317   3.453
  648SOL    HW2 2844   5.232   2.426   3.552
  649SOL     OW 2845   3.760   6.073   1.041
  649SOL    HW1 2846   3.856   6.096   1.059
  649SOL    HW2 2847   3.751   5.975   1.029
  650SOL     OW 2848   2.200   3.557   1.677
  650SOL    HW1 2849   2.174   3.652   1.658
  650SOL    HW2 2850   2.288   3.555   1.725
  651SOL     OW 2851   6.958   1.722   3.203
  651SOL    HW1 2852   7.007   1.646   3.245
  651SOL    HW2 2853   7.018   1.801   3.195
  652SOL     OW 2854   3.894   6.225   0.698
  652SOL    HW1 2855   3.878   6.139   0.649
  652SOL    HW2 2856   3.816   6.243   0.759
  653SOL     OW 2857   1.695   0.516   3.074
  653SOL    HW1 2858   1.713   0.469   3.160
  653SOL    HW2 2859   1.681   0.614   3.091
  654SOL     OW 2860   1.468   0.350   6.117
  654SOL    HW1 2861   1.455   0.359   6.216
  654SOL    HW2 2862   1.431   0.263   6.086
  655SOL     OW 2863   1.206   4.045   1.972
  655SOL    HW1 2864   1.221   3.982   2.049
  655SOL    HW2 2865   1.118   4.092   1.984
  656SOL     OW 2866   2.273   0.564   6.977
  656SOL    HW1 2867   2.260   0.598   6.884
  656SOL    HW2 2868   2.246   0.635   0.021
  657SOL     OW 2869   3.364   3.347   4.459
  657SOL    HW1 2870   3.303   3.412   4.415
  657SOL    HW2 2871   3.459   3.368   4.435
  658SOL     OW 2872   2.539   0.430   5.292
  658SOL    HW1 2873   2.616   0.492   5.275
  658SOL    HW2 2874   2.574   0.342   5.325
  659SOL     OW 2875   1.418   4.997   6.807
  659SOL    HW1 2876   1.496   4.967   6.750
  659SOL    HW2 2877   1.452   5.043   6.888
  660SOL     OW 2878   5.552   3.445   2.486
  660SOL    HW1 2879   5.560   3.423   2.584
  660SOL    HW2 2880   5.465   3.489   2.469
  661SOL     OW 2881   4.486   5.576   4.274
  661SOL    HW1 2882   4.410   5.638   4.257
  661SOL    HW2 2883   4.468   5.487   4.232
  662SOL     OW 2884   6.862   3.186   0.194
  662SOL    HW1 2885   6.855   3.260   0.127
  662SOL    HW2 2886   6.953   3.146   0.189
  663SOL     OW 2887   1.721   4.192   6.027
  663SOL    HW1 2888   1.715   4.289   6.007
  663SOL    HW2 2889   1.809   4.172   6.070
  664SOL     OW 2890   2.117   0.144   5.603
  664SOL    HW1 2891   2.072   0.066   5.647
  664SOL    HW2 2892   2.048   0.215   5.584
  665SOL     OW 2893   2.429   4.357   3.551
  665SOL    HW1 2894   2.512   4.331   3.600
  665SOL    HW2 2895   2.402   4.283   3.489
  666SOL     OW 2896   3.138   0.511   0.298
  666SOL    HW1 2897   3.187   0.465   0.224
  666SOL    HW2 2898   3.059   0.559   0.261
  667SOL     OW 2899   2.038   3.072   2.228
  667SOL    HW1 2900   2.060   3.168   2.245
  667SOL    HW2 2901   2.096   3.014   2.285
  668SOL     OW 2902   5.244   6.955   0.638
  668SOL    HW1 2903   5.158   7.003   0.658
  668SOL    HW2 2904   5.267   6.895   0.714
  669SOL     OW 2905   6.382   5.522   2.467
  669SOL    HW1 2906   6.428   5.498   2.381
  669SOL    HW2 2907   6.349   5.616   2.463
  670SOL     OW 2908   3.030   3.780   3.100
  670SOL    HW1 2909   2.990   3.754   3.188
  670SOL    HW2 2910   3.024   3.880   3.089
  671SOL     OW 2911   1.611   0.178   6.869
  671SOL    HW1 2912   1.584   0.101   6.927
  671SOL    HW2 2913   1.571   0.263   6.904
  672SOL     OW 2914   0.486   2.064   3.006
  672SOL    HW1 2915   0.580   2.053   3.036
  672SOL    HW2 2916   0.453   1.978   2.967
  673SOL     OW 2917   4.924   0.821   6.439
  673SOL    HW1 2918   4.842   0.779   6.399
  673SOL    HW2 2919   5.005   0.767   6.413
  674SOL     OW 2920   6.711   2.500   4.173
  674SOL    HW1 2921   6.702   2.586   4.222
  674SOL    HW2 2922   6.750   2.431   4.233
  675SOL     OW 2923   5.565   7.015   3.825
  675SOL    HW1 2924   5.505   0.037   3.758
  675SOL    HW2 2925   5.642   6.972   3.778
  676SOL     OW 2926   3.292   4.953   5.147
  676SOL    HW1 2927   3.256   4.891   5.217
  676SOL    HW2 2928   3.270   4.918   5.057
  677SOL     OW 2929   4.893   6.415   0.515
  677SOL    HW1 2930   4.970   6.477   0.528
  677SOL    HW2 2931   4.862   6.420   0.420
  678SOL     OW 2932   2.558   0.636   6.442
  678SOL    HW1 2933   2.640   0.614   6.494
  678SOL    HW2 2934   2.580   0.641   6.344
  679SOL     OW 2935   0.057   0.425   2.527
  679SOL    HW1 2936   0.094   0.508   2.484
  679SOL    HW2 2937   0.038   0.443   2.623
  680SOL     OW 2938   6.035   3.191   4.094
  680SOL    HW1 2939   5.962   3.134   4.057
  680SOL    HW2 2940   6.120   3.173   4.043
  681SOL     OW 2941   0.793   5.079   3.200
  681SOL    HW1 2942   0.748   5.055   3.287
  681SOL    HW2 2943   0.744   5.035   3.125
  682SOL     OW 2944   0.644   6.846   5.752
  682SOL    HW1 2945   0.680   6.888   5.835
  682SOL    HW2 2946   0.670   6.750   5.750
  683SOL     OW 2947   5.144   1.368   1.475
  683SOL    HW1 2948   5.226   1.411   1.512
  683SOL    HW2 2949   5.067   1.384   1.536
  684SOL     OW 2950   6.851   5.671   6.303
  684SOL    HW1 2951   6.832   5.769   6.295
  684SOL    HW2 2952   6.885   5.636   6.216
  685SOL     OW 2953   6.243   0.183   4.811
  685SOL    HW1 2954   6.327   0.188   4.865
  685SOL    HW2 2955   6.254   0.239   4.728
  686SOL     OW 2956   5.730   4.276   0.889
  686SOL    HW1 2957   5.688   4.188   0.865
  686SOL    HW2 2958   5.792   4.263   0.966
  687SOL     OW 2959   5.323   2.519   6.970
  687SOL    HW1 2960   5.293   2.532   6.876
  687SOL    HW2 2961   5.251   2.551   0.012
  688SOL     OW 2962   6.823   2.805   5.114
  688SOL    HW1 2963   6.919   2.805   5.088
  688SOL    HW2 2964   6.814   2.777   5.209
  689SOL     OW 2965   5.560   4.928   4.318
  689SOL    HW1 2966   5.483   4.892   4.265
  689SOL    HW2 2967   5.525   4.969   4.403
  690SOL     OW 2968   6.851   2.102   4.158
  690SOL    HW1 2969   6.854   2.131   4.062
  690SOL    HW2 2970   6.922   2.148   4.210
  691SOL     OW 2971   1.279   2.647   6.637
  691SOL    HW1 2972   1.220   2.608   6.567
  691SOL    HW2 2973   1.350   2.703   6.593
  692SOL     OW 2974   2.563   0.411   3.859
  692SOL    HW1 2975   2.612   0.326   3.839
  692SOL    HW2 2976   2.585   0.480   3.790
  693SOL     OW 2977   5.949   1.018   3.446
  693SOL    HW1 2978   6.034   1.060   3.412
  693SOL    HW2 2979   5.939   1.039   3.543
  694SOL     OW 2980   1.404   0.297   2.562
  694SOL    HW1 2981   1.415   0.242   2.480
  694SOL    HW2 2982   1.489   0.293   2.616
  695SOL     OW 2983   4.460   5.903   6.403
  695SOL    HW1 2984   4.369   5.919   6.365
  695SOL    HW2 2985   4.476   5.805   6.411
  696SOL     OW 2986   5.526   5.743   2.526
  696SOL    HW1 2987   5.578   5.703   2.450
  696SOL    HW2 2988   5.533   5.684   2.606
  697SOL     OW 2989   1.582   4.070   3.245
  697SOL    HW1 2990   1.610   4.156   3.289
  697SOL    HW2 2991   1.643   4.051   3.168
  698SOL     OW 2992   4.515   6.434   4.493
  698SOL    HW1 2993   4.448   6.426   4.418
  698SOL    HW2 2994   4.504   6.357   4.556
  699SOL     OW 2995   1.898   6.018   6.087
  699SOL    HW1 2996   1.861   6.077   6.159
  699SOL    HW2 2997   1.823   5.986   6.029
  700SOL     OW 2998   2.052   2.112   4.495
  700SOL    HW1 2999   1.961   2.155   4.497
  700SOL    HW2 3000   2.122   2.183   4.490
  701SOL     OW 3001   0.624   4.787   6.041
  701SOL    HW1 3002   0.559   4.712   6.043
  701SOL    HW2 3003   0.655   4.806   6.135
  702SOL     OW 3004   5.693   6.078   5.623
  702SOL    HW1 3005   5.621   6.101   5.688
  702SOL    HW2 3006   5.782   6.095   5.664
  703SOL     OW 3007   6.080   3.826   6.062
  703SOL    HW1 3008   6.120   3.790   5.978
  703SOL    HW2 3009   5.980   3.822   6.056
  704SOL     OW 3010   2.390   0.166   2.086
  704SOL    HW1 3011   2.448   0.234   2.132
  704SOL    HW2 3012   2.424   0.151   1.993
  705SOL     OW 3013   1.385   1.881   4.395
  705SOL    HW1 3014   1.417   1.974   4.415
  705SOL    HW2 3015   1.346   1.878   4.303
  706SOL     OW 3016   5.481   3.509   3.506
  706SOL    HW1 3017   5.398   3.511   3.451
  706SOL    HW2 3018   5.558   3.478   3.449
  707SOL     OW 3019   4.834   3.182   3.032
  707SOL    HW1 3020   4.858   3.162   2.937
  707SOL    HW2 3021   4.794   3.100   3.074
  708SOL     OW 3022   5.175   0.880   1.753
  708SOL    HW1 3023   5.080   0.889   1.723
  708SOL    HW2 3024   5.204   0.965   1.799
  709SOL     OW 3025   1.638   3.670   6.757
  709SOL    HW1 3026   1.635   3.584   6.807
  709SOL    HW2 3027   1.566   3.671   6.687
  710SOL     OW 3028   3.298   3.537   3.830
  710SOL    HW1 3029   3.258   3.599   3.898
  710SOL    HW2 3030   3.249   3.547   3.744
  711SOL     OW 3031   1.410   1.009   3.933
  711SOL    HW1 3032   1.393   0.929   3.875
  711SOL    HW2 3033   1.442   1.085   3.876
  712SOL     OW 3034   0.022   4.784   3.563
  712SOL    HW1 3035   0.073   4.740   3.637
  712SOL    HW2 3036   0.045   4.881   3.561
  713SOL     OW 3037   2.374   3.707   5.494
  713SOL    HW1 3038   2.330   3.796   5.478
  713SOL    HW2 3039   2.465   3.722   5.534
  714SOL     OW 3040   4.816   4.949   4.608
  714SOL    HW1 3041   4.838   4.855   4.582
  714SOL    HW2 3042   4.760   4.991   4.536
  715SOL     OW 3043   6.606   6.950   6.193
  715SOL    HW1 3044   6.637   6.932   6.286
  715SOL    HW2 3045   6.625   6.870   6.136
  716SOL     OW 3046   6.633   5.465   6.607
  716SOL    HW1 3047   6.697   5.540   6.620
  716SOL    HW2 3048   6.540   5.497   6.624
  717SOL     OW 3049   5.727   2.733   6.096
  717SOL    HW1 3050   5.805   2.793   6.104
  717SOL    HW2 3051   5.716   2.704   6.001
  718SOL     OW 3052   3.370   3.394   0.483
  718SOL    HW1 3053   3.438   3.352   0.543
  718SOL    HW2 3054   3.301   3.440   0.539
  719SOL     OW 3055   6.479   4.393   7.005
  719SOL    HW1 3056   6.442   4.360   0.072
  719SOL    HW2 3057   6.579   4.386   7.006
  720SOL     OW 3058   3.898   0.792   5.958
  720SOL    HW1 3059   3.833   0.765   6.029
  720SOL    HW2 3060   3.921   0.713   5.901
  721SOL     OW 3061   1.677   0.358   5.057
  721SOL    HW1 3062   1.622   0.427   5.009
  721SOL    HW2 3063   1.682   0.381   5.154
  722SOL     OW 3064   4.548   1.331   5.126
  722SOL    HW1 3065   4.540   1.298   5.031
  722SOL    HW2 3066   4.554   1.431   5.126
  723SOL     OW 3067   0.305   3.781   1.840
  723SOL    HW1 3068   0.249   3.839   1.781
  723SOL    HW2 3069   0.350   3.711   1.785
  724SOL     OW 3070   0.567   2.540   4.677
  724SOL    HW1 3071   0.595   2.528   4.772
  724SOL    HW2 3072   0.552   2.637   4.658
  725SOL     OW 3073   2.358   5.415   2.118
  725SOL    HW1 3074   2.384   5.511   2.111
  725SOL    HW2 3075   2.312   5.399   2.205
  726SOL     OW 3076   5.547   6.310   6.685
  726SOL    HW1 3077   5.599   6.395   6.683
  726SOL    HW2 3078   5.597   6.242   6.739
  727SOL     OW 3079   1.513   4.868   4.352
  727SOL    HW1 3080   1.607   4.885   4.326
  727SOL    HW2 3081   1.507   4.857   4.452
  728SOL     OW 3082   6.679   2.032   6.321
  728SOL    HW1 3083   6.641   1.978   6.246
  728SOL    HW2 3084   6.740   1.974   6.375
  729SOL     OW 3085   4.131   1.401   0.566
  729SOL    HW1 3086   4.125   1.469   0.493
  729SOL    HW2 3087   4.093   1.439   0.650
  730SOL     OW 3088   5.975   1.193   3.908
  730SOL    HW1 3089   6.072   1.168   3.906
  730SOL    HW2 3090   5.948   1.217   4.001
  731SOL     OW 3091   0.532   2.159   3.702
  731SOL    HW1 3092   0.587   2.090   3.656
  731SOL    HW2 3093   0.558   2.250   3.669
  732SOL     OW 3094   0.228   4.086   3.934
  732SOL    HW1 3095   0.318   4.068   3.974
  732SOL    HW2 3096   0.161   4.023   3.976
  733SOL     OW 3097   5.172   4.592   4.610
  733SOL    HW1 3098   5.253   4.559   4.658
  733SOL    HW2 3099   5.102   4.520   4.608
  734SOL     OW 3100   1.066   0.059   0.007
  734SOL    HW1 3101   0.969   0.033   0.002
  734SOL    HW2 3102   1.116   0.013   6.955
  735SOL     OW 3103   3.633   4.319   6.992
  735SOL    HW1 3104   3.602   4.236   6.946
  735SOL    HW2 3105   3.623   4.308   0.070
  736SOL     OW 3106   5.967   1.327   2.300
  736SOL    HW1 3107   5.964   1.237   2.257
  736SOL    HW2 3108   5.966   1.316   2.400
  737SOL     OW 3109   5.098   3.567   0.226
  737SOL    HW1 3110   5.194   3.540   0.219
  737SOL    HW2 3111   5.071   3.617   0.145
  738SOL     OW 3112   6.180   3.862   4.196
  738SOL    HW1 3113   6.247   3.790   4.212
  738SOL    HW2 3114   6.210   3.946   4.241
  739SOL     OW 3115   4.648   5.970   6.220
  739SOL    HW1 3116   4.580   5.975   6.293
  739SOL    HW2 3117   4.732   5.930   6.255
  740SOL     OW 3118   5.561   6.687   0.643
  740SOL    HW1 3119   5.464   6.679   0.621
  740SOL    HW2 3120   5.582   6.781   0.670
  741SOL     OW 3121   1.692   0.518   3.629
  741SOL    HW1 3122   1.712   0.566   3.543
  741SOL    HW2 3123   1.751   0.555   3.701
  742SOL     OW 3124   0.771   5.964   2.443
  742SOL    HW1 3125   0.691   5.958   2.384
  742SOL    HW2 3126   0.828   5.883   2.430
  743SOL     OW 3127   1.576   3.129   2.505
  743SOL    HW1 3128   1.661   3.105   2.553
  743SOL    HW2 3129   1.596   3.200   2.437
  744SOL     OW 3130   6.790   5.183   0.529
  744SOL    HW1 3131   6.747   5.105   0.576
  744SOL    HW2 3132   6.731   5.263   0.539
  745SOL     OW 3133   1.199   6.581   1.971
  745SOL    HW1 3134   1.299   6.580   1.970
  745SOL    HW2 3135   1.167   6.634   2.050
  746SOL     OW 3136   3.000   6.972   3.172
  746SOL    HW1 3137   3.029   7.018   3.256
  746SOL    HW2 3138   3.072   6.979   3.103
  747SOL     OW 3139   0.091   4.076   0.500
  747SOL    HW1 3140   0.180   4.067   0.543
  747SOL    HW2 3141   0.027   4.010   0.540
  748SOL     OW 3142   3.208   3.182   3.407
  748SOL    HW1 3143   3.152   3.192   3.324
  748SOL    HW2 3144   3.246   3.089   3.410
  749SOL     OW 3145   5.093   3.078   5.608
  749SOL    HW1 3146   5.017   3.065   5.671
  749SOL    HW2 3147   5.087   3.011   5.534
  750SOL     OW 3148   2.770   3.284   1.873
  750SOL    HW1 3149   2.741   3.380   1.875
  750SOL    HW2 3150   2.759   3.248   1.781
  751SOL     OW 3151   5.767   1.189   0.420
  751SOL    HW1 3152   5.691   1.124   0.420
  751SOL    HW2 3153   5.744   1.267   0.361
  752SOL     OW 3154   4.468   0.354   2.346
  752SOL    HW1 3155   4.563   0.379   2.368
  752SOL    HW2 3156   4.455   0.256   2.361
  753SOL     OW 3157   3.321   1.509   1.821
  753SOL    HW1 3158   3.240   1.551   1.779
  753SOL    HW2 3159   3.340   1.422   1.775
  754SOL     OW 3160   5.251   5.277   6.718
  754SOL    HW1 3161   5.295   5.206   6.773
  754SOL    HW2 3162   5.172   5.313   6.768
  755SOL     OW 3163   5.823   4.845   2.443
  755SOL    HW1 3164   5.884   4.777   2.400
  755SOL    HW2 3165   5.739   4.800   2.472
  756SOL     OW 3166   2.329   7.010   4.291
  756SOL    HW1 3167   2.349   6.914   4.312
  756SOL    HW2 3168   2.414   0.040   4.285
  757SOL     OW 3169   7.003   0.748   4.078
  757SOL    HW1 3170   0.066   0.800   4.094
  757SOL    HW2 3171   6.924   0.803   4.106
  758SOL     OW 3172   4.116   1.978   0.491
  758SOL    HW1 3173   4.164   1.945   0.572
  758SOL    HW2 3174   4.173   1.963   0.410
  759SOL     OW 3175   2.545   0.139   1.252
  759SOL    HW1 3176   2.558   0.065   1.186
  759SOL    HW2 3177   2.624   0.201   1.248
  760SOL     OW 3178   4.771   1.637   6.120
  760SOL    HW1 3179   4.842   1.655   6.188
  760SOL    HW2 3180   4.703   1.576   6.159
  761SOL     OW 3181   5.106   0.532   6.478
  761SOL    HW1 3182   5.010   0.507   6.467
  761SOL    HW2 3183   5.163   0.450   6.481
  762SOL     OW 3184   2.377   4.645   4.903
  762SOL    HW1 3185   2.395   4.582   4.827
  762SOL    HW2 3186   2.441   4.627   4.978
  763SOL     OW 3187   0.836   4.685   1.121
  763SOL    HW1 3188   0.808   4.770   1.076
  763SOL    HW2 3189   0.765   4.616   1.109
  764SOL     OW 3190   6.006   1.234   2.562
  764SOL    HW1 3191   5.998   1.307   2.629
  764SOL    HW2 3192   6.098   1.195   2.565
  765SOL     OW 3193   1.208   6.441   2.977
  765SOL    HW1 3194   1.186   6.538   2.978
  765SOL    HW2 3195   1.166   6.398   2.897
  766SOL     OW 3196   0.460   5.819   0.227
  766SOL    HW1 3197   0.413   5.890   0.174
  766SOL    HW2 3198   0.394   5.770   0.284
  767SOL     OW 3199   5.875   6.147   1.321
  767SOL    HW1 3200   5.859   6.050   1.340
  767SOL    HW2 3201   5.930   6.187   1.394
  768SOL     OW 3202   2.824   6.177   4.175
  768SOL    HW1 3203   2.911   6.150   4.131
  768SOL    HW2 3204   2.803   6.113   4.249
  769SOL     OW 3205   3.358   0.552   0.442
  769SOL    HW1 3206   3.383   0.649   0.452
  769SOL    HW2 3207   3.266   0.546   0.403
  770SOL     OW 3208   3.946   5.736   4.986
  770SOL    HW1 3209   4.002   5.690   4.917
  770SOL    HW2 3210   3.873   5.675   5.016
  771SOL     OW 3211   0.487   6.801   4.606
  771SOL    HW1 3212   0.475   6.713   4.560
  771SOL    HW2 3213   0.582   6.831   4.595
  772SOL     OW 3214   0.667   3.132   6.390
  772SOL    HW1 3215   0.722   3.165   6.314
  772SOL    HW2 3216   0.657   3.204   6.459
  773SOL     OW 3217   6.877   3.253   1.491
  773SOL    HW1 3218   6.941   3.307   1.437
  773SOL    HW2 3219   6.808   3.313   1.531
  774SOL     OW 3220   1.320   1.311   1.914
  774SOL    HW1 3221   1.286   1.340   2.003
  774SOL    HW2 3222   1.278   1.368   1.843
  775SOL     OW 3223   1.920   2.701   4.221
  775SOL    HW1 3224   1.967   2.671   4.304
  775SOL    HW2 3225   1.822   2.684   4.231
  776SOL     OW 3226   2.395   1.142   5.211
  776SOL    HW1 3227   2.337   1.167   5.134
  776SOL    HW2 3228   2.484   1.111   5.178
  777SOL     OW 3229   4.364   0.300   0.044
  777SOL    HW1 3230   4.348   0.282   6.968
  777SOL    HW2 3231   4.356   0.398   0.062
  778SOL     OW 3232   4.810   5.972   5.129
  778SOL    HW1 3233   4.762   6.043   5.078
  778SOL    HW2 3234   4.843   5.902   5.066
  779SOL     OW 3235   0.449   0.509   2.186
  779SOL    HW1 3236   0.428   0.590   2.240
  779SOL    HW2 3237   0.374   0.444   2.194
  780SOL     OW 3238   5.666   2.203   5.207
  780SOL    HW1 3239   5.625   2.112   5.216
  780SOL    HW2 3240   5.667   2.230   5.111
  781SOL     OW 3241   1.467   4.049   0.175
  781SOL    HW1 3242   1.400   4.123   0.182
  781SOL    HW2 3243   1.560   4.088   0.180
  782SOL     OW 3244   0.118   5.512   0.732
  782SOL    HW1 3245   0.102   5.483   0.826
  782SOL    HW2 3246   0.189   5.583   0.730
  783SOL     OW 3247   1.438   5.502   0.752
  783SOL    HW1 3248   1.499   5.471   0.825
  783SOL    HW2 3249   1.429   5.429   0.683
  784SOL     OW 3250   5.222   5.366   3.240
  784SOL    HW1 3251   5.206   5.306   3.161
  784SOL    HW2 3252   5.143   5.361   3.301
  785SOL     OW 3253   6.134   2.857   3.361
  785SOL    HW1 3254   6.120   2.770   3.406
  785SOL    HW2 3255   6.116   2.847   3.263
  786SOL     OW 3256   6.274   6.757   1.528
  786SOL    HW1 3257   6.175   6.750   1.515
  786SOL    HW2 3258   6.311   6.668   1.552
  787SOL     OW 3259   4.071   1.271   6.148
  787SOL    HW1 3260   4.000   1.324   6.101
  787SOL    HW2 3261   4.117   1.212   6.082
  788SOL     OW 3262   6.884   4.576   3.563
  788SOL    HW1 3263   6.907   4.528   3.478
  788SOL    HW2 3264   6.936   4.662   3.568
  789SOL     OW 3265   6.244   3.171   0.295
  789SOL    HW1 3266   6.340   3.144   0.305
  789SOL    HW2 3267   6.186   3.090   0.296
  790SOL     OW 3268   2.680   0.401   4.135
  790SOL    HW1 3269   2.651   0.436   4.224
  790SOL    HW2 3270   2.613   0.427   4.066
  791SOL     OW 3271   3.539   0.929   4.016
  791SOL    HW1 3272   3.518   0.930   3.918
  791SOL    HW2 3273   3.547   1.023   4.049
  792SOL     OW 3274   5.277   0.871   4.054
  792SOL    HW1 3275   5.371   0.837   4.062
  792SOL    HW2 3276   5.238   0.838   3.967
  793SOL     OW 3277   0.395   6.740   6.752
  793SOL    HW1 3278   0.376   6.702   6.661
  793SOL    HW2 3279   0.319   6.798   6.781
  794SOL     OW 3280   3.725   5.293   4.801
  794SOL    HW1 3281   3.711   5.212   4.859
  794SOL    HW2 3282   3.666   5.287   4.721
  795SOL     OW 3283   5.041   5.458   6.775
  795SOL    HW1 3284   5.097   5.537   6.752
  795SOL    HW2 3285   5.002   5.469   6.866
  796SOL     OW 3286   0.985   1.803   6.137
  796SOL    HW1 3287   0.942   1.770   6.221
  796SOL    HW2 3288   0.917   1.849   6.080
  797SOL     OW 3289   6.031   2.916   5.714
  797SOL    HW1 3290   6.080   2.978   5.653
  797SOL    HW2 3291   5.937   2.948   5.726
  798SOL     OW 3292   6.264   0.339   4.343
  798SOL    HW1 3293   6.336   0.343   4.275
  798SOL    HW2 3294   6.220   0.429   4.350
  799SOL     OW 3295   6.599   3.694   3.758
  799SOL    HW1 3296   6.510   3.730   3.788
  799SOL    HW2 3297   6.665   3.769   3.754
  800SOL     OW 3298   0.617   2.652   2.765
  800SOL    HW1 3299   0.588   2.581   2.829
  800SOL    HW2 3300   0.677   2.612   2.695
  801SOL     OW 3301   0.108   3.827   3.541
  801SOL    HW1 3302   0.138   3.890   3.612
  801SOL    HW2 3303   0.041   3.872   3.482
  802SOL     OW 3304   6.559   1.324   0.773
  802SOL    HW1 3305   6.555   1.284   0.864
  802SOL    HW2 3306   6.645   1.297   0.729
  803SOL     OW 3307   2.487   6.736   4.392
  803SOL    HW1 3308   2.434   6.690   4.463
  803SOL    HW2 3309   2.583   6.736   4.417
  804SOL     OW 3310   5.833   5.814   0.710
  804SOL    HW1 3311   5.919   5.805   0.761
  804SOL    HW2 3312   5.825   5.739   0.645
  805SOL     OW 3313   2.261   2.724   6.007
  805SOL    HW1 3314   2.288   2.695   6.099
  805SOL    HW2 3315   2.167   2.758   6.009
  806SOL     OW 3316   4.173   6.490   0.274
  806SOL    HW1 3317   4.164   6.444   0.362
  806SOL    HW2 3318   4.151   6.587   0.285
  807SOL     OW 3319   6.844   0.789   3.468
  807SOL    HW1 3320   6.925   0.736   3.445
  807SOL    HW2 3321   6.830   0.861   3.400
  808SOL     OW 3322   5.576   3.616   5.061
  808SOL    HW1 3323   5.527   3.702   5.074
  808SOL    HW2 3324   5.533   3.544   5.116
  809SOL     OW 3325   7.008   5.711   5.583
  809SOL    HW1 3326   6.945   5.642   5.549
  809SOL    HW2 3327   0.062   5.724   5.517
  810SOL     OW 3328   5.973   4.801   6.055
  810SOL    HW1 3329   6.057   4.852   6.072
  810SOL    HW2 3330   5.932   4.833   5.969
  811SOL     OW 3331   2.811   4.766   2.725
  811SOL    HW1 3332   2.723   4.719   2.725
  811SOL    HW2 3333   2.818   4.824   2.644
  812SOL     OW 3334   6.847   0.647   3.026
  812SOL    HW1 3335   6.913   0.721   3.012
  812SOL    HW2 3336   6.895   0.565   3.055
  813SOL     OW 3337   4.970   4.728   1.735
  813SOL    HW1 3338   4.884   4.736   1.685
  813SOL    HW2 3339   4.973   4.640   1.783
  814SOL     OW 3340   5.162   5.228   1.559
  814SOL    HW1 3341   5.187   5.133   1.581
  814SOL    HW2 3342   5.063   5.240   1.574
  815SOL     OW 3343   0.864   1.465   0.960
  815SOL    HW1 3344   0.771   1.484   0.992
  815SOL    HW2 3345   0.872   1.368   0.938
  816SOL     OW 3346   5.903   0.661   1.785
  816SOL    HW1 3347   5.995   0.636   1.757
  816SOL    HW2 3348   5.862   0.721   1.716
  817SOL     OW 3349   0.525   2.170   1.791
  817SOL    HW1 3350   0.498   2.085   1.836
  817SOL    HW2 3351   0.505   2.247   1.852
  818SOL     OW 3352   5.623   1.587   2.954
  818SOL    HW1 3353   5.584   1.575   3.045
  818SOL    HW2 3354   5.701   1.525   2.943
  819SOL     OW 3355   0.272   4.984   2.739
  819SOL    HW1 3356   0.209   4.962   2.665
  819SOL    HW2 3357   0.249   5.073   2.778
  820SOL     OW 3358   2.522   3.378   5.820
  820SOL    HW1 3359   2.603   3.357   5.875
  820SOL    HW2 3360   2.442   3.334   5.861
  821SOL     OW 3361   1.194   4.372   0.641
  821SOL    HW1 3362   1.158   4.413   0.557
  821SOL    HW2 3363   1.294   4.381   0.642
  822SOL     OW 3364   0.669   3.223   5.248
  822SOL    HW1 3365   0.743   3.261   5.305
  822SOL    HW2 3366   0.680   3.124   5.242
  823SOL     OW 3367   4.104   4.240   1.274
  823SOL    HW1 3368   4.192   4.226   1.319
  823SOL    HW2 3369   4.118   4.292   1.189
  824SOL     OW 3370   6.534   3.545   6.487
  824SOL    HW1 3371   6.479   3.480   6.539
  824SOL    HW2 3372   6.522   3.528   6.389
  825SOL     OW 3373   2.153   2.969   1.222
  825SOL    HW1 3374   2.105   2.893   1.265
  825SOL    HW2 3375   2.112   2.988   1.133
  826SOL     OW 3376   1.041   1.572   6.908
  826SOL    HW1 3377   1.022   1.666   6.879
  826SOL    HW2 3378   1.134   1.566   6.944
  827SOL     OW 3379   3.838   4.686   1.011
  827SOL    HW1 3380   3.843   4.712   0.915
  827SOL    HW2 3381   3.764   4.621   1.025
  828SOL     OW 3382   5.609   1.067   5.415
  828SOL    HW1 3383   5.661   0.990   5.376
  828SOL    HW2 3384   5.617   1.146   5.354
  829SOL     OW 3385   4.493   4.544   5.734
  829SOL    HW1 3386   4.555   4.597   5.793
  829SOL    HW2 3387   4.447   4.606   5.671
  830SOL     OW 3388   4.193   3.534   6.639
  830SOL    HW1 3389   4.155   3.592   6.567
  830SOL    HW2 3390   4.151   3.443   6.635
  831SOL     OW 3391   5.148   2.005   5.451
  831SOL    HW1 3392   5.115   1.936   5.517
  831SOL    HW2 3393   5.242   1.983   5.425
  832SOL     OW 3394   3.155   1.542   5.614
  832SOL    HW1 3395   3.203   1.624   5.585
  832SOL    HW2 3396   3.210   1.494   5.683
  833SOL     OW 3397   1.293   0.417   5.178
  833SOL    HW1 3398   1.213   0.455   5.224
  833SOL    HW2 3399   1.348   0.492   5.139
  834SOL     OW 3400   2.858   4.582   5.604
  834SOL    HW1 3401   2.818   4.632   5.680
  834SOL    HW2 3402   2.891   4.493   5.637
  835SOL     OW 3403   4.061   1.752   2.723
  835SOL    HW1 3404   3.998   1.767   2.799
  835SOL    HW2 3405   4.090   1.839   2.685
  836SOL     OW 3406   2.282   1.364   5.381
  836SOL    HW1 3407   2.332   1.310   5.313
  836SOL    HW2 3408   2.251   1.303   5.454
  837SOL     OW 3409   4.080   1.578   4.267
  837SOL    HW1 3410   4.072   1.531   4.354
  837SOL    HW2 3411   3.997   1.565   4.214
  838SOL     OW 3412   0.319   6.712   2.251
  838SOL    HW1 3413   0.254   6.756   2.313
  838SOL    HW2 3414   0.280   6.627   2.216
  839SOL     OW 3415   2.056   1.757   2.401
  839SOL    HW1 3416   2.010   1.674   2.432
  839SOL    HW2 3417   2.151   1.757   2.434
  840SOL     OW 3418   1.994   0.762   5.071
  840SOL    HW1 3419   2.033   0.775   5.162
  840SOL    HW2 3420   1.895   0.755   5.078
  841SOL     OW 3421   0.520   3.684   0.906
  841SOL    HW1 3422   0.600   3.697   0.963
  841SOL    HW2 3423   0.540   3.617   0.834
  842SOL     OW 3424   3.884   4.900   4.053
  842SOL    HW1 3425   3.858   4.898   3.957
  842SOL    HW2 3426   3.805   4.877   4.110
  843SOL     OW 3427   6.828   2.671   1.432
  843SOL    HW1 3428   6.754   2.737   1.442
  843SOL    HW2 3429   6.906   2.700   1.488
  844SOL     OW 3430   5.458   4.755   6.167
  844SOL    HW1 3431   5.450   4.852   6.193
  844SOL    HW2 3432   5.458   4.748   6.067
  845SOL     OW 3433   2.102   5.231   5.509
  845SOL    HW1 3434   2.053   5.171   5.574
  845SOL    HW2 3435   2.059   5.321   5.509
  846SOL     OW 3436   4.778   1.873   0.239
  846SOL    HW1 3437   4.800   1.782   0.205
  846SOL    HW2 3438   4.777   1.937   0.162
  847SOL     OW 3439   5.015   4.198   1.702
  847SOL    HW1 3440   5.061   4.147   1.774
  847SOL    HW2 3441   5.080   4.263   1.660
  848SOL     OW 3442   5.675   0.204   5.831
  848SOL    HW1 3443   5.642   0.125   5.780
  848SOL    HW2 3444   5.770   0.223   5.805
  849SOL     OW 3445   1.001   0.070   3.547
  849SOL    HW1 3446   0.914   0.114   3.525
  849SOL    HW2 3447   0.994   6.993   3.530
  850SOL     OW 3448   2.843   1.014   3.085
  850SOL    HW1 3449   2.869   0.934   3.138
  850SOL    HW2 3450   2.743   1.022   3.084
  851SOL     OW 3451   6.685   1.449   6.179
  851SOL    HW1 3452   6.734   1.428   6.094
  851SOL    HW2 3453   6.744   1.505   6.237
  852SOL     OW 3454   3.565   5.132   4.474
  852SOL    HW1 3455   3.638   5.088   4.525
  852SOL    HW2 3456   3.551   5.225   4.509
  853SOL     OW 3457   0.860   3.961   0.745
  853SOL    HW1 3458   0.820   4.007   0.824
  853SOL    HW2 3459   0.907   4.028   0.687
  854SOL     OW 3460   6.551   5.027   0.998
  854SOL    HW1 3461   6.466   5.056   1.041
  854SOL    HW2 3462   6.536   4.942   0.948
  855SOL     OW 3463   4.904   0.369   0.517
  855SOL    HW1 3464   4.853   0.283   0.509
  855SOL    HW2 3465   5.001   0.352   0.503
  856SOL     OW 3466   1.595   0.668   5.342
  856SOL    HW1 3467   1.604   0.737   5.413
  856SOL    HW2 3468   1.561   0.583   5.382
  857SOL     OW 3469   6.373   4.418   2.461
  857SOL    HW1 3470   6.440   4.483   2.427
  857SOL    HW2 3471   6.389   4.328   2.420
  858SOL     OW 3472   3.488   3.893   1.787
  858SOL    HW1 3473   3.460   3.808   1.831
  858SOL    HW2 3474   3.411   3.956   1.784
  859SOL     OW 3475   6.604   4.248   1.205
  859SOL    HW1 3476   6.538   4.265   1.279
  859SOL    HW2 3477   6.561   4.268   1.117
  860SOL     OW 3478   1.386   4.125   5.990
  860SOL    HW1 3479   1.325   4.045   5.998
  860SOL    HW2 3480   1.471   4.107   6.039
  861SOL     OW 3481   4.446   4.372   6.237
  861SOL    HW1 3482   4.401   4.406   6.154
  861SOL    HW2 3483   4.395   4.403   6.317
  862SOL     OW 3484   4.422   4.571   3.690
  862SOL    HW1 3485   4.469   4.656   3.664
  862SOL    HW2 3486   4.325   4.578   3.667
  863SOL     OW 3487   6.720   3.119   1.246
  863SOL    HW1 3488   6.689   3.192   1.307
  863SOL    HW2 3489   6.658   3.113   1.168
  864SOL     OW 3490   1.111   6.230   2.120
  864SOL    HW1 3491   1.083   6.320   2.153
  864SOL    HW2 3492   1.191   6.240   2.061
  865SOL     OW 3493   1.447   1.476   3.709
  865SOL    HW1 3494   1.542   1.462   3.683
  865SOL    HW2 3495   1.443   1.527   3.795
  866SOL     OW 3496   4.050   1.205   1.763
  866SOL    HW1 3497   4.015   1.232   1.853
  866SOL    HW2 3498   4.129   1.145   1.775
  867SOL     OW 3499   3.103   1.331   6.160
  867SOL    HW1 3500   3.026   1.293   6.108
  867SOL    HW2 3501   3.188   1.288   6.128
  868SOL     OW 3502   4.875   1.899   2.985
  868SOL    HW1 3503   4.820   1.836   2.931
  868SOL    HW2 3504   4.818   1.942   3.055
  869SOL     OW 3505   6.648   3.708   0.678
  869SOL    HW1 3506   6.639   3.744   0.771
  869SOL    HW2 3507   6.734   3.657   0.671
  870SOL     OW 3508   6.328   1.766   0.625
  870SOL    HW1 3509   6.377   1.840   0.671
  870SOL    HW2 3510   6.293   1.702   0.694
  871SOL     OW 3511   6.806   4.649   0.554
  871SOL    HW1 3512   6.872   4.721   0.534
  871SOL    HW2 3513   6.791   4.644   0.652
  872SOL     OW 3514   0.066   1.680   2.088
  872SOL    HW1 3515   6.993   1.714   2.093
  872SOL    HW2 3516   0.084   1.645   1.996
  873SOL     OW 3517   4.023   0.145   4.376
  873SOL    HW1 3518   3.979   0.067   4.330
  873SOL    HW2 3519   4.097   0.112   4.433
  874SOL     OW 3520   1.192   3.455   6.502
  874SOL    HW1 3521   1.176   3.493   6.411
  874SOL    HW2 3522   1.123   3.385   6.521
  875SOL     OW 3523   6.000   6.214   6.441
  875SOL    HW1 3524   6.000   6.263   6.528
  875SOL    HW2 3525   5.949   6.266   6.373
  876SOL     OW 3526   2.896   2.234   1.679
  876SOL    HW1 3527   2.956   2.303   1.639
  876SOL    HW2 3528   2.863   2.265   1.768
  877SOL     OW 3529   6.518   5.846   6.170
  877SOL    HW1 3530   6.436   5.792   6.191
  877SOL    HW2 3531   6.519   5.867   6.072
  878SOL     OW 3532   4.337   3.330   0.942
  878SOL    HW1 3533   4.376   3.329   1.034
  878SOL    HW2 3534   4.367   3.248   0.893
  879SOL     OW 3535   5.139   3.103   3.088
  879SOL    HW1 3536   5.141   3.191   3.040
  879SOL    HW2 3537   5.072   3.108   3.162
  880SOL     OW 3538   4.441   0.167   1.630
  880SOL    HW1 3539   4.369   0.201   1.690
  880SOL    HW2 3540   4.429   0.205   1.538
  881SOL     OW 3541   4.761   5.405   3.389
  881SOL    HW1 3542   4.786   5.440   3.299
  881SOL    HW2 3543   4.727   5.481   3.445
  882SOL     OW 3544   0.882   2.261   5.011
  882SOL    HW1 3545   0.879   2.253   4.912
  882SOL    HW2 3546   0.790   2.245   5.048
  883SOL     OW 3547   3.158   5.000   6.961
  883SOL    HW1 3548   3.059   4.992   6.970
  883SOL    HW2 3549   3.202   4.923   7.009
  884SOL     OW 3550   4.516   4.813   1.154
  884SOL    HW1 3551   4.540   4.743   1.087
  884SOL    HW2 3552   4.578   4.808   1.232
  885SOL     OW 3553   3.560   5.570   6.384
  885SOL    HW1 3554   3.561   5.471   6.399
  885SOL    HW2 3555   3.490   5.612   6.442
  886SOL     OW 3556   3.978   2.707   6.300
  886SOL    HW1 3557   3.944   2.631   6.355
  886SOL    HW2 3558   3.907   2.777   6.292
  887SOL     OW 3559   6.245   6.626   5.076
  887SOL    HW1 3560   6.269   6.543   5.024
  887SOL    HW2 3561   6.248   6.606   5.174
  888SOL     OW 3562   6.388   1.127   3.696
  888SOL    HW1 3563   6.374   1.224   3.677
  888SOL    HW2 3564   6.408   1.079   3.611
  889SOL     OW 3565   0.674   0.645   4.747
  889SOL    HW1 3566   0.686   0.574   4.816
  889SOL    HW2 3567   0.751   0.643   4.683
  890SOL     OW 3568   2.664   3.469   0.681
  890SOL    HW1 3569   2.619   3.383   0.704
  890SOL    HW2 3570   2.600   3.545   0.696
  891SOL     OW 3571   6.390   3.005   5.629
  891SOL    HW1 3572   6.345   2.918   5.607
  891SOL    HW2 3573   6.420   3.004   5.724
  892SOL     OW 3574   2.219   4.658   1.990
  892SOL    HW1 3575   2.205   4.706   2.077
  892SOL    HW2 3576   2.297   4.595   1.998
  893SOL     OW 3577   1.928   0.320   1.960
  893SOL    HW1 3578   1.918   0.362   1.870
  893SOL    HW2 3579   2.016   0.272   1.965
  894SOL     OW 3580   1.358   5.114   4.034
  894SOL    HW1 3581   1.314   5.170   4.104
  894SOL    HW2 3582   1.457   5.117   4.045
  895SOL     OW 3583   2.744   1.283   4.386
  895SOL    HW1 3584   2.721   1.262   4.481
  895SOL    HW2 3585   2.693   1.222   4.325
  896SOL     OW 3586   4.624   0.209   3.587
  896SOL    HW1 3587   4.683   0.153   3.645
  896SOL    HW2 3588   4.614   0.164   3.498
  897SOL     OW 3589   6.437   1.445   6.779
  897SOL    HW1 3590   6.349   1.487   6.755
  897SOL    HW2 3591   6.435   1.348   6.754
  898SOL     OW 3592   5.305   5.850   3.866
  898SOL    HW1 3593   5.225   5.834   3.923
  898SOL    HW2 3594   5.317   5.948   3.852
  899SOL     OW 3595   1.443   4.786   0.127
  899SOL    HW1 3596   1.479   4.737   0.207
  899SOL    HW2 3597   1.508   4.781   0.052
  900SOL     OW 3598   0.187   5.988   3.412
  900SOL    HW1 3599   0.152   5.944   3.329
  900SOL    HW2 3600   0.238   6.070   3.388
  901SOL     OW 3601   6.609   1.978   3.547
  901SOL    HW1 3602   6.568   1.893   3.579
  901SOL    HW2 3603   6.560   2.010   3.466
  902SOL     OW 3604   1.379   5.976   0.005
  902SOL    HW1 3605   1.310   5.920   0.051
  902SOL    HW2 3606   1.467   5.928   0.009
  903SOL     OW 3607   1.266   4.762   6.719
  903SOL    HW1 3608   1.275   4.827   6.795
  903SOL    HW2 3609   1.311   4.799   6.638
  904SOL     OW 3610   1.494   2.533   4.663
  904SOL    HW1 3611   1.450   2.517   4.751
  904SOL    HW2 3612   1.492   2.631   4.642
  905SOL     OW 3613   6.328   3.492   3.596
  905SOL    HW1 3614   6.336   3.473   3.499
  905SOL    HW2 3615   6.410   3.538   3.628
  906SOL     OW 3616   0.056   3.280   5.682
  906SOL    HW1 3617   0.139   3.334   5.697
  906SOL    HW2 3618   0.058   3.240   5.591
  907SOL     OW 3619   6.927   4.503   3.046
  907SOL    HW1 3620   6.970   4.413   3.059
  907SOL    HW2 3621   6.927   4.526   2.949
  908SOL     OW 3622   2.681   1.139   3.496
  908SOL    HW1 3623   2.767   1.165   3.452
  908SOL    HW2 3624   2.636   1.220   3.532
  909SOL     OW 3625   3.427   6.807   2.435
  909SOL    HW1 3626   3.411   6.849   2.346
  909SOL    HW2 3627   3.385   6.862   2.507
  910SOL     OW 3628   1.367   0.551   2.436
  910SOL    HW1 3629   1.336   0.487   2.506
  910SOL    HW2 3630   1.442   0.510   2.385
  911SOL     OW 3631   1.241   2.703   1.077
  911SOL    HW1 3632   1.185   2.781   1.105
  911SOL    HW2 3633   1.213   2.674   0.986
  912SOL     OW 3634   2.293   1.072   0.931
  912SOL    HW1 3635   2.201   1.105   0.954
  912SOL    HW2 3636   2.357   1.149   0.931
  913SOL     OW 3637   2.165   0.623   1.753
  913SOL    HW1 3638   2.066   0.615   1.760
  913SOL    HW2 3639   2.207   0.533   1.759
  914SOL     OW 3640   3.096   5.086   2.109
  914SOL    HW1 3641   3.108   5.070   2.207
  914SOL    HW2 3642   3.052   5.006   2.068
  915SOL     OW 3643   3.562   2.409   1.107
  915SOL    HW1 3644   3.613   2.351   1.043
  915SOL    HW2 3645   3.576   2.376   1.200
  916SOL     OW 3646   0.324   4.103   2.612
  916SOL    HW1 3647   0.294   4.165   2.539
  916SOL    HW2 3648   0.365   4.022   2.571
  917SOL     OW 3649   4.026   0.832   5.108
  917SOL    HW1 3650   4.072   0.804   5.024
  917SOL    HW2 3651   4.095   0.859   5.176
  918SOL     OW 3652   6.860   2.454   5.039
  918SOL    HW1 3653   6.947   2.459   4.990
  918SOL    HW2 3654   6.873   2.402   5.124
  919SOL     OW 3655   0.908   0.373   0.980
  919SOL    HW1 3656   0.824   0.406   1.024
  919SOL    HW2 3657   0.987   0.417   1.022
  920SOL     OW 3658   1.328   2.062   2.660
  920SOL    HW1 3659   1.270   2.060   2.579
  920SOL    HW2 3660   1.424   2.067   2.632
  921SOL     OW 3661   4.385   4.294   0.141
  921SOL    HW1 3662   4.288   4.317   0.134
  921SOL    HW2 3663   4.419   4.263   0.052
  922SOL     OW 3664   2.246   5.880   6.607
  922SOL    HW1 3665   2.268   5.785   6.585
  922SOL    HW2 3666   2.329   5.926   6.640
  923SOL     OW 3667   3.544   1.074   0.114
  923SOL    HW1 3668   3.509   1.160   0.077
  923SOL    HW2 3669   3.616   1.093   0.181
  924SOL     OW 3670   5.447   5.466   1.342
  924SOL    HW1 3671   5.380   5.508   1.404
  924SOL    HW2 3672   5.409   5.382   1.304
  925SOL     OW 3673   5.943   1.951   1.603
  925SOL    HW1 3674   5.971   1.856   1.589
  925SOL    HW2 3675   5.844   1.959   1.590
  926SOL     OW 3676   4.152   5.694   1.818
  926SOL    HW1 3677   4.076   5.756   1.835
  926SOL    HW2 3678   4.225   5.744   1.770
  927SOL     OW 3679   5.622   5.207   5.512
  927SOL    HW1 3680   5.569   5.263   5.577
  927SOL    HW2 3681   5.571   5.197   5.427
  928SOL     OW 3682   6.998   1.261   1.839
  928SOL    HW1 3683   6.941   1.214   1.772
  928SOL    HW2 3684   0.030   1.194   1.891
  929SOL     OW 3685   6.597   1.890   2.582
  929SOL    HW1 3686   6.643   1.926   2.664
  929SOL    HW2 3687   6.633   1.937   2.501
  930SOL     OW 3688   5.903   4.429   2.645
  930SOL    HW1 3689   5.842   4.413   2.567
  930SOL    HW2 3690   5.998   4.418   2.616
  931SOL     OW 3691   0.273   2.796   1.111
  931SOL    HW1 3692   0.267   2.881   1.059
  931SOL    HW2 3693   0.188   2.744   1.099
  932SOL     OW 3694   4.440   6.549   0.535
  932SOL    HW1 3695   4.361   6.588   0.581
  932SOL    HW2 3696   4.473   6.612   0.465
  933SOL     OW 3697   0.597   6.421   3.130
  933SOL    HW1 3698   0.571   6.445   3.224
  933SOL    HW2 3699   0.635   6.502   3.085
  934SOL     OW 3700   4.377   1.926   4.926
  934SOL    HW1 3701   4.331   1.840   4.902
  934SOL    HW2 3702   4.324   2.003   4.891
  935SOL     OW 3703   1.094   4.264   4.135
  935SOL    HW1 3704   1.160   4.269   4.060
  935SOL    HW2 3705   1.007   4.305   4.106
  936SOL     OW 3706   0.868   1.128   1.418
  936SOL    HW1 3707   0.881   1.201   1.351
  936SOL    HW2 3708   0.846   1.167   1.507
  937SOL     OW 3709   4.755   1.911   2.655
  937SOL    HW1 3710   4.711   1.977   2.716
  937SOL    HW2 3711   4.784   1.957   2.571
  938SOL     OW 3712   0.237   1.003   6.351
  938SOL    HW1 3713   0.250   0.906   6.330
  938SOL    HW2 3714   0.246   1.017   6.450
  939SOL     OW 3715   0.452   0.862   4.435
  939SOL    HW1 3716   0.537   0.876   4.486
  939SOL    HW2 3717   0.402   0.784   4.474
  940SOL     OW 3718   6.083   7.013   3.593
  940SOL    HW1 3719   6.055   0.087   3.577
  940SOL    HW2 3720   6.178   7.000   3.565
  941SOL     OW 3721   5.427   2.719   4.816
  941SOL    HW1 3722   5.465   2.735   4.725
  941SOL    HW2 3723   5.485   2.655   4.866
  942SOL     OW 3724   4.117   6.306   6.263
  942SOL    HW1 3725   4.109   6.294   6.362
  942SOL    HW2 3726   4.068   6.232   6.216
  943SOL     OW 3727   4.986   1.766   0.047
  943SOL    HW1 3728   4.945   1.792   6.981
  943SOL    HW2 3729   5.086   1.776   0.042
  944SOL     OW 3730   5.443   4.576   4.301
  944SOL    HW1 3731   5.448   4.481   4.270
  944SOL    HW2 3732   5.461   4.581   4.399
  945SOL     OW 3733   5.871   3.062   6.153
  945SOL    HW1 3734   5.885   3.144   6.098
  945SOL    HW2 3735   5.773   3.046   6.165
  946SOL     OW 3736   6.147   3.050   6.234
  946SOL    HW1 3737   6.187   3.116   6.171
  946SOL    HW2 3738   6.051   3.072   6.249
  947SOL     OW 3739   1.423   1.710   6.268
  947SOL    HW1 3740   1.441   1.781   6.336
  947SOL    HW2 3741   1.368   1.748   6.194
  948SOL     OW 3742   3.504   1.914   1.317
  948SOL    HW1 3743   3.441   1.929   1.392
  948SOL    HW2 3744   3.591   1.960   1.336
  949SOL     OW 3745   5.451   5.063   5.901
  949SOL    HW1 3746   5.453   5.097   5.807
  949SOL    HW2 3747   5.392   4.983   5.906
  950SOL     OW 3748   3.833   5.381   0.844
  950SOL    HW1 3749   3.824   5.416   0.937
  950SOL    HW2 3750   3.885   5.446   0.789
  951SOL     OW 3751   0.248   3.467   3.148
  951SOL    HW1 3752   0.185   3.542   3.166
  951SOL    HW2 3753   0.341   3.502   3.141
  952SOL     OW 3754   4.505   1.170   1.061
  952SOL    HW1 3755   4.523   1.266   1.082
  952SOL    HW2 3756   4.426   1.164   1.001
  953SOL     OW 3757   4.454   6.634   5.978
  953SOL    HW1 3758   4.356   6.631   5.958
  953SOL    HW2 3759   4.491   6.541   5.976
  954SOL     OW 3760   6.527   6.317   1.442
  954SOL    HW1 3761   6.441   6.292   1.399
  954SOL    HW2 3762   6.574   6.385   1.385
  955SOL     OW 3763   1.426   6.135   3.501
  955SOL    HW1 3764   1.441   6.112   3.597
  955SOL    HW2 3765   1.412   6.052   3.449
  956SOL     OW 3766   1.842   3.040   0.825
  956SOL    HW1 3767   1.935   3.007   0.814
  956SOL    HW2 3768   1.826   3.065   0.921
  957SOL     OW 3769   2.638   6.069   4.394
  957SOL    HW1 3770   2.690   6.147   4.429
  957SOL    HW2 3771   2.657   5.989   4.450
  958SOL     OW 3772   4.240   2.514   6.640
  958SOL    HW1 3773   4.259   2.454   6.718
  958SOL    HW2 3774   4.161   2.571   6.661
  959SOL     OW 3775   1.609   4.406   0.154
  959SOL    HW1 3776   1.588   4.482   0.215
  959SOL    HW2 3777   1.529   4.386   0.097
  960SOL     OW 3778   1.677   3.826   5.528
  960SOL    HW1 3779   1.763   3.780   5.505
  960SOL    HW2 3780   1.695   3.923   5.547
  961SOL     OW 3781   3.828   6.563   6.506
  961SOL    HW1 3782   3.820   6.661   6.487
  961SOL    HW2 3783   3.924   6.537   6.504
  962SOL     OW 3784   0.307   0.099   3.801
  962SOL    HW1 3785   0.360   0.089   3.718
  962SOL    HW2 3786   0.209   0.089   3.780
  963SOL     OW 3787   5.734   6.954   3.303
  963SOL    HW1 3788   5.641   6.939   3.270
  963SOL    HW2 3789   5.795   6.968   3.224
  964SOL     OW 3790   6.056   4.234   1.655
  964SOL    HW1 3791   6.151   4.235   1.624
  964SOL    HW2 3792   6.034   4.322   1.695
  965SOL     OW 3793   1.856   2.217   0.090
  965SOL    HW1 3794   1.846   2.193   7.015
  965SOL    HW2 3795   1.924   2.290   0.100
  966SOL     OW 3796   5.562   1.819   1.837
  966SOL    HW1 3797   5.463   1.825   1.847
  966SOL    HW2 3798   5.606   1.869   1.912
  967SOL     OW 3799   0.394   5.587   2.980
  967SOL    HW1 3800   0.311   5.624   2.937
  967SOL    HW2 3801   0.432   5.654   3.043
  968SOL     OW 3802   0.159   4.410   0.683
  968SOL    HW1 3803   0.219   4.447   0.754
  968SOL    HW2 3804   0.120   4.485   0.630
  969SOL     OW 3805   3.575   0.024   6.624
  969SOL    HW1 3806   3.561   0.023   6.525
  969SOL    HW2 3807   3.506   6.987   6.668
  970SOL     OW 3808   5.462   4.103   6.583
  970SOL    HW1 3809   5.403   4.127   6.506
  970SOL    HW2 3810   5.461   4.003   6.596
  971SOL     OW 3811   0.348   1.678   0.045
  971SOL    HW1 3812   0.413   1.603   0.055
  971SOL    HW2 3813   0.396   1.765   0.054
  972SOL     OW 3814   3.941   6.947   6.249
  972SOL    HW1 3815   4.028   6.903   6.227
  972SOL    HW2 3816   3.866   6.895   6.206
  973SOL     OW 3817   6.220   3.247   6.057
  973SOL    HW1 3818   6.212   3.343   6.084
  973SOL    HW2 3819   6.296   3.237   5.993
  974SOL     OW 3820   2.139   0.503   3.924
  974SOL    HW1 3821   2.229   0.534   3.956
  974SOL    HW2 3822   2.152   0.429   3.858
  975SOL     OW 3823   2.754   6.538   4.219
  975SOL    HW1 3824   2.707   6.616   4.261
  975SOL    HW2 3825   2.688   6.468   4.195
  976SOL     OW 3826   0.573   5.059   4.405
  976SOL    HW1 3827   0.504   5.015   4.462
  976SOL    HW2 3828   0.638   5.109   4.463
  977SOL     OW 3829   0.859   2.268   2.008
  977SOL    HW1 3830   0.842   2.364   1.983
  977SOL    HW2 3831   0.839   2.210   1.929
  978SOL     OW 3832   6.246   2.884   3.733
  978SOL    HW1 3833   6.151   2.913   3.747
  978SOL    HW2 3834   6.292   2.878   3.821
  979SOL     OW 3835   5.780   1.273   2.750
  979SOL    HW1 3836   5.796   1.205   2.679
  979SOL    HW2 3837   5.685   1.269   2.781
  980SOL     OW 3838   6.150   5.718   5.193
  980SOL    HW1 3839   6.139   5.813   5.221
  980SOL    HW2 3840   6.207   5.670   5.259
  981SOL     OW 3841   6.336   3.215   6.971
  981SOL    HW1 3842   6.338   3.142   6.903
  981SOL    HW2 3843   6.285   3.185   0.030
  982SOL     OW 3844   1.643   4.745   6.976
  982SOL    HW1 3845   1.707   4.677   7.012
  982SOL    HW2 3846   1.626   4.727   6.879
  983SOL     OW 3847   5.791   1.236   3.411
  983SOL    HW1 3848   5.826   1.153   3.454
  983SOL    HW2 3849   5.800   1.313   3.474
  984SOL     OW 3850   4.870   3.348   5.155
  984SOL    HW1 3851   4.909   3.343   5.247
  984SOL    HW2 3852   4.804   3.423   5.150
  985SOL     OW 3853   1.924   4.399   0.056
  985SOL    HW1 3854   1.948   4.352   0.141
  985SOL    HW2 3855   1.827   4.385   0.035
  986SOL     OW 3856   5.326   4.337   5.233
  986SOL    HW1 3857   5.296   4.405   5.300
  986SOL    HW2 3858   5.254   4.269   5.220
  987SOL     OW 3859   2.581   1.410   2.962
  987SOL    HW1 3860   2.543   1.501   2.981
  987SOL    HW2 3861   2.660   1.395   3.021
  988SOL     OW 3862   3.955   3.516   1.330
  988SOL    HW1 3863   4.014   3.492   1.407
  988SOL    HW2 3864   3.899   3.595   1.356
  989SOL     OW 3865   0.995   1.192   4.941
  989SOL    HW1 3866   0.976   1.183   5.039
  989SOL    HW2 3867   0.915   1.231   4.895
  990SOL     OW 3868   4.360   6.138   2.044
  990SOL    HW1 3869   4.299   6.072   2.088
  990SOL    HW2 3870   4.439   6.155   2.103
  991SOL     OW 3871   5.888   1.472   6.186
  991SOL    HW1 3872   5.893   1.479   6.286
  991SOL    HW2 3873   5.914   1.380   6.157
  992SOL     OW 3874   0.175   2.722   0.602
  992SOL    HW1 3875   0.178   2.705   0.503
  992SOL    HW2 3876   0.178   2.821   0.619
  993SOL     OW 3877   4.046   6.596   4.128
  993SOL    HW1 3878   4.031   6.498   4.118
  993SOL    HW2 3879   4.066   6.616   4.224
  994SOL     OW 3880   2.964   3.802   3.825
  994SOL    HW1 3881   2.938   3.796   3.921
  994SOL    HW2 3882   2.967   3.709   3.786
  995SOL     OW 3883   1.248   1.572   4.861
  995SOL    HW1 3884   1.249   1.485   4.812
  995SOL    HW2 3885   1.332   1.581   4.915
  996SOL     OW 3886   2.330   3.214   0.310
  996SOL    HW1 3887   2.287   3.266   0.385
  996SOL    HW2 3888   2.290   3.243   0.223
  997SOL     OW 3889   6.758   1.071   0.462
  997SOL    HW1 3890   6.713   1.104   0.379
  997SOL    HW2 3891   6.783   1.148   0.520
  998SOL     OW 3892   4.654   6.796   3.489
  998SOL    HW1 3893   4.596   6.781   3.570
  998SOL    HW2 3894   4.596   6.805   3.408
  999SOL     OW 3895   0.026   4.565   6.446
  999SOL    HW1 3896   7.018   4.476   6.412
  999SOL    HW2 3897   0.057   4.557   6.540
 1000SOL     OW 3898   3.589   1.770   5.523
 1000SOL    HW1 3899   3.507   1.775   5.466
 1000SOL    HW2 3900   3.669   1.798   5.470
 1001SOL     OW 3901   4.964   1.044   4.599
 1001SOL    HW1 3902   5.034   1.096   4.549
 1001SOL    HW2 3903   4.935   0.966   4.544
 1002SOL     OW 3904   0.158   1.120   0.541
 1002SOL    HW1 3905   0.099   1.118   0.621
 1002SOL    HW2 3906   0.194   1.213   0.529
 1003SOL     OW 3907   4.378   5.235   2.318
 1003SOL    HW1 3908   4.447   5.168   2.292
 1003SOL    HW2 3909   4.289   5.191   2.324
 1004SOL     OW 3910   5.946   5.966   6.751
 1004SOL    HW1 3911   5.978   6.042   6.809
 1004SOL    HW2 3912   5.864   5.927   6.791
 1005SOL     OW 3913   5.076   6.696   2.730
 1005SOL    HW1 3914   5.002   6.711   2.664
 1005SOL    HW2 3915   5.126   6.613   2.705
 1006SOL     OW 3916   1.656   5.809   0.056
 1006SOL    HW1 3917   1.677   5.808   0.154
 1006SOL    HW2 3918   1.724   5.862   0.007
 1007SOL     OW 3919   5.985   2.104   2.600
 1007SOL    HW1 3920   5.891   2.074   2.588
 1007SOL    HW2 3921   6.007   2.107   2.697
 1008SOL     OW 3922   3.387   1.127   5.274
 1008SOL    HW1 3923   3.311   1.118   5.338
 1008SOL    HW2 3924   3.423   1.220   5.278
 1009SOL     OW 3925   3.233   6.357   5.528
 1009SOL    HW1 3926   3.220   6.451   5.560
 1009SOL    HW2 3927   3.159   6.299   5.561
 1010SOL     OW 3928   4.892   6.598   5.857
 1010SOL    HW1 3929   4.815   6.647   5.816
 1010SOL    HW2 3930   4.972   6.605   5.797
 1011SOL     OW 3931   2.647   5.023   4.730
 1011SOL    HW1 3932   2.578   5.034   4.658
 1011SOL    HW2 3933   2.620   4.948   4.790
 1012SOL     OW 3934   2.901   6.170   0.810
 1012SOL    HW1 3935   2.959   6.097   0.848
 1012SOL    HW2 3936   2.812   6.131   0.786
 1013SOL     OW 3937   0.652   0.130   0.141
 1013SOL    HW1 3938   0.726   0.197   0.146
 1013SOL    HW2 3939   0.566   0.173   0.171
 1014SOL     OW 3940   6.392   6.629   6.794
 1014SOL    HW1 3941   6.481   6.619   6.838
 1014SOL    HW2 3942   6.348   6.540   6.784
 1015SOL     OW 3943   2.586   0.125   4.419
 1015SOL    HW1 3944   2.620   0.044   4.466
 1015SOL    HW2 3945   2.581   0.201   4.483
 1016SOL     OW 3946   4.265   3.294   1.696
 1016SOL    HW1 3947   4.209   3.275   1.615
 1016SOL    HW2 3948   4.283   3.209   1.744
 1017SOL     OW 3949   4.926   6.843   6.332
 1017SOL    HW1 3950   4.952   6.915   6.268
 1017SOL    HW2 3951   4.827   6.847   6.347
 1018SOL     OW 3952   1.149   1.704   1.436
 1018SOL    HW1 3953   1.242   1.741   1.441
 1018SOL    HW2 3954   1.083   1.777   1.453
 1019SOL     OW 3955   5.853   0.647   0.424
 1019SOL    HW1 3956   5.946   0.627   0.392
 1019SOL    HW2 3957   5.821   0.731   0.381
 1020SOL     OW 3958   4.100   1.903   1.450
 1020SOL    HW1 3959   4.165   1.977   1.430
 1020SOL    HW2 3960   4.101   1.884   1.548
 1021SOL     OW 3961   5.134   1.088   1.492
 1021SOL    HW1 3962   5.133   1.188   1.490
 1021SOL    HW2 3963   5.129   1.057   1.587
 1022SOL     OW 3964   2.826   3.799   0.026
 1022SOL    HW1 3965   2.841   3.895   0.050
 1022SOL    HW2 3966   2.770   3.794   6.964
 1023SOL     OW 3967   6.822   1.164   4.154
 1023SOL    HW1 3968   6.919   1.187   4.170
 1023SOL    HW2 3969   6.796   1.192   4.062
 1024SOL     OW 3970   6.326   2.434   3.922
 1024SOL    HW1 3971   6.391   2.501   3.957
 1024SOL    HW2 3972   6.255   2.418   3.991
 1025SOL     OW 3973   2.493   4.317   1.417
 1025SOL    HW1 3974   2.420   4.249   1.410
 1025SOL    HW2 3975   2.462   4.393   1.474
 1026SOL     OW 3976   0.475   3.003   6.641
 1026SOL    HW1 3977   0.496   2.980   6.545
 1026SOL    HW2 3978   0.421   3.086   6.644
 1027SOL     OW 3979   1.794   4.949   0.912
 1027SOL    HW1 3980   1.779   4.932   1.009
 1027SOL    HW2 3981   1.713   4.993   0.873
 1028SOL     OW 3982   0.561   5.378   6.800
 1028SOL    HW1 3983   0.642   5.433   6.779
 1028SOL    HW2 3984   0.567   5.344   6.894
 1029SOL     OW 3985   3.782   0.617   4.520
 1029SOL    HW1 3986   3.834   0.560   4.456
 1029SOL    HW2 3987   3.826   0.616   4.610
 1030SOL     OW 3988   4.238   4.938   4.644
 1030SOL    HW1 3989   4.313   4.987   4.689
 1030SOL    HW2 3990   4.276   4.867   4.585
 1031SOL     OW 3991   2.612   5.784   1.220
 1031SOL    HW1 3992   2.648   5.858   1.164
 1031SOL    HW2 3993   2.596   5.703   1.162
 1032SOL     OW 3994   1.130   2.181   5.100
 1032SOL    HW1 3995   1.151   2.232   5.183
 1032SOL    HW2 3996   1.039   2.207   5.067
 1033SOL     OW 3997   2.793   0.322   2.368
 1033SOL    HW1 3998   2.769   0.236   2.323
 1033SOL    HW2 3999   2.877   0.358   2.326
 1034SOL     OW 4000   0.263   5.273   2.519
 1034SOL    HW1 4001   0.327   5.235   2.452
 1034SOL    HW2 4002   0.313   5.301   2.601
 1035SOL     OW 4003   3.201   2.150   3.502
 1035SOL    HW1 4004   3.298   2.153   3.476
 1035SOL    HW2 4005   3.150   2.105   3.428
 1036SOL     OW 4006   4.875   6.639   6.762
 1036SOL    HW1 4007   4.936   6.690   6.701
 1036SOL    HW2 4008   4.803   6.597   6.707
 1037SOL     OW 4009   3.790   1.040   6.048
 1037SOL    HW1 4010   3.757   1.090   5.968
 1037SOL    HW2 4011   3.868   0.984   6.023
 1038SOL     OW 4012   3.219   1.510   4.965
 1038SOL    HW1 4013   3.123   1.488   4.944
 1038SOL    HW2 4014   3.245   1.594   4.917
 1039SOL     OW 4015   5.329   1.586   2.001
 1039SOL    HW1 4016   5.328   1.513   2.070
 1039SOL    HW2 4017   5.288   1.669   2.039
 1040SOL     OW 4018   6.195   4.946   4.678
 1040SOL    HW1 4019   6.268   5.013   4.682
 1040SOL    HW2 4020   6.176   4.912   4.770
 1041SOL     OW 4021   1.347   6.736   4.824
 1041SOL    HW1 4022   1.253   6.765   4.842
 1041SOL    HW2 4023   1.400   6.739   4.909
 1042SOL     OW 4024   4.558   4.653   0.480
 1042SOL    HW1 4025   4.620   4.576   0.498
 1042SOL    HW2 4026   4.601   4.715   0.414
 1043SOL     OW 4027   4.688   0.069   6.291
 1043SOL    HW1 4028   4.652   6.997   6.291
 1043SOL    HW2 4029   4.616   0.133   6.264
 1044SOL     OW 4030   4.047   3.581   4.119
 1044SOL    HW1 4031   4.090   3.500   4.160
 1044SOL    HW2 4032   4.080   3.592   4.026
 1045SOL     OW 4033   2.077   1.785   2.819
 1045SOL    HW1 4034   2.027   1.830   2.746
 1045SOL    HW2 4035   2.175   1.799   2.805
 1046SOL     OW 4036   2.703   0.891   2.242
 1046SOL    HW1 4037   2.610   0.883   2.206
 1046SOL    HW2 4038   2.763   0.826   2.194
 1047SOL     OW 4039   0.698   6.555   2.490
 1047SOL    HW1 4040   0.610   6.603   2.495
 1047SOL    HW2 4041   0.684   6.458   2.507
 1048SOL     OW 4042   0.018   3.742   5.192
 1048SOL    HW1 4043   6.994   3.829   5.212
 1048SOL    HW2 4044   0.093   3.727   5.258
 1049SOL     OW 4045   0.488   3.926   5.678
 1049SOL    HW1 4046   0.527   3.837   5.703
 1049SOL    HW2 4047   0.533   3.998   5.730
 1050SOL     OW 4048   3.182   0.600   1.769
 1050SOL    HW1 4049   3.148   0.638   1.684
 1050SOL    HW2 4050   3.277   0.572   1.757
 1051SOL     OW 4051   5.188   3.422   2.451
 1051SOL    HW1 4052   5.218   3.477   2.528
 1051SOL    HW2 4053   5.160   3.481   2.376
 1052SOL     OW 4054   2.460   6.293   3.812
 1052SOL    HW1 4055   2.519   6.373   3.802
 1052SOL    HW2 4056   2.378   6.318   3.862
 1053SOL     OW 4057   3.032   5.669   3.132
 1053SOL    HW1 4058   3.063   5.740   3.195
 1053SOL    HW2 4059   3.076   5.582   3.156
 1054SOL     OW 4060   3.503   6.003   5.577
 1054SOL    HW1 4061   3.445   5.943   5.521
 1054SOL    HW2 4062   3.456   6.023   5.663
 1055SOL     OW 4063   3.669   4.930   4.660
 1055SOL    HW1 4064   3.708   4.977   4.739
 1055SOL    HW2 4065   3.579   4.893   4.684
 1056SOL     OW 4066   2.832   6.134   0.392
 1056SOL    HW1 4067   2.894   6.179   0.456
 1056SOL    HW2 4068   2.856   6.037   0.386
 1057SOL     OW 4069   3.778   3.846   1.160
 1057SOL    HW1 4070   3.844   3.911   1.198
 1057SOL    HW2 4071   3.780   3.761   1.212
 1058SOL     OW 4072   2.348   0.423   2.330
 1058SOL    HW1 4073   2.315   0.497   2.388
 1058SOL    HW2 4074   2.271   0.368   2.299
 1059SOL     OW 4075   3.956   0.131   0.549
 1059SOL    HW1 4076   3.963   0.037   0.583
 1059SOL    HW2 4077   3.921   0.190   0.622
 1060SOL     OW 4078   3.627   1.731   3.856
 1060SOL    HW1 4079   3.646   1.635   3.835
 1060SOL    HW2 4080   3.607   1.740   3.953
 1061SOL     OW 4081   2.730   5.210   1.162
 1061SOL    HW1 4082   2.793   5.192   1.086
 1061SOL    HW2 4083   2.637   5.186   1.135
 1062SOL     OW 4084   5.441   4.067   5.202
 1062SOL    HW1 4085   5.359   4.067   5.259
 1062SOL    HW2 4086   5.510   4.126   5.244
 1063SOL     OW 4087   3.990   2.100   6.035
 1063SOL    HW1 4088   3.988   2.007   6.070
 1063SOL    HW2 4089   3.976   2.099   5.936
 1064SOL     OW 4090   0.761   2.969   2.572
 1064SOL    HW1 4091   0.764   3.040   2.642
 1064SOL    HW2 4092   0.727   2.884   2.611
 1065SOL     OW 4093   4.036   5.745   0.513
 1065SOL    HW1 4094   4.116   5.732   0.572
 1065SOL    HW2 4095   4.049   5.696   0.427
 1066SOL     OW 4096   5.569   6.461   3.492
 1066SOL    HW1 4097   5.474   6.457   3.461
 1066SOL    HW2 4098   5.599   6.557   3.497
 1067SOL     OW 4099   3.404   4.405   0.925
 1067SOL    HW1 4100   3.319   4.449   0.955
 1067SOL    HW2 4101   3.420   4.323   0.980
 1068SOL     OW 4102   1.441   4.999   2.503
 1068SOL    HW1 4103   1.489   4.991   2.591
 1068SOL    HW2 4104   1.508   5.004   2.429
 1069SOL     OW 4105   3.863   3.994   3.037
 1069SOL    HW1 4106   3.918   4.077   3.042
 1069SOL    HW2 4107   3.841   3.975   2.942
 1070SOL     OW 4108   1.411   6.348   0.386
 1070SOL    HW1 4109   1.449   6.268   0.339
 1070SOL    HW2 4110   1.317   6.329   0.413
 1071SOL     OW 4111   4.142   5.175   3.632
 1071SOL    HW1 4112   4.070   5.245   3.634
 1071SOL    HW2 4113   4.208   5.194   3.705
 1072SOL     OW 4114   4.035   5.428   3.436
 1072SOL    HW1 4115   4.087   5.345   3.453
 1072SOL    HW2 4116   3.939   5.414   3.461
 1073SOL     OW 4117   2.857   5.657   3.970
 1073SOL    HW1 4118   2.831   5.636   3.876
 1073SOL    HW2 4119   2.922   5.733   3.971
 1074SOL     OW 4120   2.400   5.180   3.896
 1074SOL    HW1 4121   2.456   5.183   3.813
 1074SOL    HW2 4122   2.313   5.134   3.875
 1075SOL     OW 4123   1.057   4.413   3.001
 1075SOL    HW1 4124   1.022   4.377   3.087
 1075SOL    HW2 4125   1.108   4.341   2.953
 1076SOL     OW 4126   5.044   3.690   3.327
 1076SOL    HW1 4127   5.094   3.609   3.357
 1076SOL    HW2 4128   4.951   3.689   3.363
 1077SOL     OW 4129   3.618   0.929   2.077
 1077SOL    HW1 4130   3.660   0.986   2.006
 1077SOL    HW2 4131   3.663   0.947   2.165
 1078SOL     OW 4132   5.994   2.412   1.875
 1078SOL    HW1 4133   6.049   2.494   1.863
 1078SOL    HW2 4134   6.053   2.331   1.877
 1079SOL     OW 4135   1.695   4.824   3.108
 1079SOL    HW1 4136   1.777   4.794   3.157
 1079SOL    HW2 4137   1.619   4.764   3.132
 1080SOL     OW 4138   2.379   5.250   4.169
 1080SOL    HW1 4139   2.410   5.225   4.077
 1080SOL    HW2 4140   2.280   5.259   4.170
 1081SOL     OW 4141   1.326   0.457   0.413
 1081SOL    HW1 4142   1.245   0.487   0.464
 1081SOL    HW2 4143   1.301   0.379   0.355
 1082SOL     OW 4144   2.129   0.673   1.438
 1082SOL    HW1 4145   2.138   0.770   1.458
 1082SOL    HW2 4146   2.151   0.620   1.520
 1083SOL     OW 4147   3.388   3.537   1.613
 1083SOL    HW1 4148   3.351   3.531   1.520
 1083SOL    HW2 4149   3.483   3.569   1.608
 1084SOL     OW 4150   5.859   4.501   1.714
 1084SOL    HW1 4151   5.912   4.565   1.770
 1084SOL    HW2 4152   5.762   4.524   1.720
 1085SOL     OW 4153   1.710   5.974   3.623
 1085SOL    HW1 4154   1.712   6.074   3.612
 1085SOL    HW2 4155   1.797   5.935   3.595
 1086SOL     OW 4156   2.636   6.601   2.303
 1086SOL    HW1 4157   2.604   6.621   2.211
 1086SOL    HW2 4158   2.713   6.537   2.299
 1087SOL     OW 4159   3.691   3.029   5.304
 1087SOL    HW1 4160   3.629   2.981   5.242
 1087SOL    HW2 4161   3.687   2.987   5.394
 1088SOL     OW 4162   6.776   5.198   2.405
 1088SOL    HW1 4163   6.742   5.148   2.325
 1088SOL    HW2 4164   6.699   5.227   2.462
 1089SOL     OW 4165   7.015   0.449   3.605
 1089SOL    HW1 4166   6.991   0.519   3.672
 1089SOL    HW2 4167   6.932   0.413   3.563
 1090SOL     OW 4168   3.323   2.071   6.592
 1090SOL    HW1 4169   3.371   2.026   6.667
 1090SOL    HW2 4170   3.228   2.040   6.589
 1091SOL     OW 4171   1.553   1.671   5.727
 1091SOL    HW1 4172   1.600   1.674   5.815
 1091SOL    HW2 4173   1.463   1.712   5.736
 1092SOL     OW 4174   3.007   4.647   0.900
 1092SOL    HW1 4175   3.023   4.737   0.861
 1092SOL    HW2 4176   2.939   4.598   0.844
 1093SOL     OW 4177   0.372   1.874   1.531
 1093SOL    HW1 4178   0.293   1.883   1.469
 1093SOL    HW2 4179   0.345   1.903   1.623
 1094SOL     OW 4180   0.437   5.632   2.721
 1094SOL    HW1 4181   0.394   5.586   2.800
 1094SOL    HW2 4182   0.508   5.572   2.683
 1095SOL     OW 4183   1.789   3.065   5.252
 1095SOL    HW1 4184   1.803   3.119   5.169
 1095SOL    HW2 4185   1.876   3.027   5.282
 1096SOL     OW 4186   3.554   2.871   2.313
 1096SOL    HW1 4187   3.463   2.862   2.353
 1096SOL    HW2 4188   3.552   2.837   2.219
 1097SOL     OW 4189   2.874   5.342   5.555
 1097SOL    HW1 4190   2.921   5.426   5.584
 1097SOL    HW2 4191   2.863   5.281   5.633
 1098SOL     OW 4192   2.825   0.668   2.716
 1098SOL    HW1 4193   2.818   0.637   2.621
 1098SOL    HW2 4194   2.782   0.758   2.725
 1099SOL     OW 4195   3.320   0.652   2.370
 1099SOL    HW1 4196   3.328   0.630   2.273
 1099SOL    HW2 4197   3.224   0.663   2.394
 1100SOL     OW 4198   0.049   0.419   0.632
 1100SOL    HW1 4199   6.973   0.402   0.615
 1100SOL    HW2 4200   0.101   0.405   0.547
 1101SOL     OW 4201   5.951   4.225   1.122
 1101SOL    HW1 4202   5.980   4.315   1.154
 1101SOL    HW2 4203   5.999   4.202   1.038
 1102SOL     OW 4204   6.624   4.000   4.218
 1102SOL    HW1 4205   6.687   4.014   4.294
 1102SOL    HW2 4206   6.530   3.998   4.254
 1103SOL     OW 4207   0.638   2.535   6.721
 1103SOL    HW1 4208   0.654   2.436   6.718
 1103SOL    HW2 4209   0.592   2.564   6.637
 1104SOL     OW 4210   3.265   5.370   5.303
 1104SOL    HW1 4211   3.280   5.303   5.230
 1104SOL    HW2 4212   3.266   5.323   5.391
 1105SOL     OW 4213   4.069   5.939   0.822
 1105SOL    HW1 4214   4.094   5.848   0.855
 1105SOL    HW2 4215   3.979   5.934   0.778
 1106SOL     OW 4216   0.631   2.459   6.246
 1106SOL    HW1 4217   0.534   2.442   6.228
 1106SOL    HW2 4218   0.684   2.378   6.222
 1107SOL     OW 4219   6.549   6.390   1.698
 1107SOL    HW1 4220   6.541   6.386   1.598
 1107SOL    HW2 4221   6.463   6.421   1.737
 1108SOL     OW 4222   1.207   1.022   0.028
 1108SOL    HW1 4223   1.231   0.935   7.007
 1108SOL    HW2 4224   1.179   1.087   6.978
 1109SOL     OW 4225   4.287   1.584   3.062
 1109SOL    HW1 4226   4.215   1.641   3.101
 1109SOL    HW2 4227   4.364   1.642   3.034
 1110SOL     OW 4228   3.743   3.722   2.963
 1110SOL    HW1 4229   3.646   3.707   2.982
 1110SOL    HW2 4230   3.774   3.654   2.896
 1111SOL     OW 4231   4.022   0.222   6.730
 1111SOL    HW1 4232   4.004   0.259   6.822
 1111SOL    HW2 4233   3.935   0.214   6.681
 1112SOL     OW 4234   0.974   1.316   2.366
 1112SOL    HW1 4235   0.898   1.263   2.329
 1112SOL    HW2 4236   0.945   1.363   2.449
 1113SOL     OW 4237   0.603   5.081   1.949
 1113SOL    HW1 4238   0.635   5.043   2.035
 1113SOL    HW2 4239   0.599   5.181   1.956
 1114SOL     OW 4240   6.011   0.861   5.860
 1114SOL    HW1 4241   5.943   0.850   5.932
 1114SOL    HW2 4242   6.033   0.959   5.849
 1115SOL     OW 4243   1.706   5.069   0.228
 1115SOL    HW1 4244   1.698   5.048   0.325
 1115SOL    HW2 4245   1.727   5.166   0.217
 1116SOL     OW 4246   3.186   6.650   6.143
 1116SOL    HW1 4247   3.104   6.615   6.099
 1116SOL    HW2 4248   3.163   6.688   6.232
 1117SOL     OW 4249   2.949   2.679   0.589
 1117SOL    HW1 4250   3.022   2.747   0.596
 1117SOL    HW2 4251   2.988   2.588   0.576
 1118SOL     OW 4252   1.846   2.289   1.253
 1118SOL    HW1 4253   1.925   2.268   1.311
 1118SOL    HW2 4254   1.816   2.205   1.207
 1119SOL     OW 4255   3.248   3.396   3.582
 1119SOL    HW1 4256   3.277   3.342   3.661
 1119SOL    HW2 4257   3.200   3.337   3.517
 1120SOL     OW 4258   3.020   1.491   3.179
 1120SOL    HW1 4259   2.981   1.570   3.227
 1120SOL    HW2 4260   3.118   1.486   3.198
 1121SOL     OW 4261   4.828   4.078   2.795
 1121SOL    HW1 4262   4.820   4.003   2.729
 1121SOL    HW2 4263   4.822   4.165   2.747
 1122SOL     OW 4264   4.612   5.074   6.623
 1122SOL    HW1 4265   4.581   5.065   6.528
 1122SOL    HW2 4266   4.652   5.165   6.635
 1123SOL     OW 4267   4.136   0.530   2.090
 1123SOL    HW1 4268   4.124   0.587   2.008
 1123SOL    HW2 4269   4.050   0.523   2.139
 1124SOL     OW 4270   2.730   5.009   3.269
 1124SOL    HW1 4271   2.709   5.060   3.185
 1124SOL    HW2 4272   2.648   5.005   3.326
 1125SOL     OW 4273   3.197   4.530   5.618
 1125SOL    HW1 4274   3.141   4.451   5.644
 1125SOL    HW2 4275   3.210   4.589   5.698
 1126SOL     OW 4276   6.142   0.695   2.076
 1126SOL    HW1 4277   6.137   0.701   2.176
 1126SOL    HW2 4278   6.126   0.786   2.037
 1127SOL     OW 4279   2.867   5.387   5.995
 1127SOL    HW1 4280   2.829   5.380   5.903
 1127SOL    HW2 4281   2.966   5.390   5.990
 1128SOL     OW 4282   2.604   1.736   5.498
 1128SOL    HW1 4283   2.537   1.798   5.457
 1128SOL    HW2 4284   2.663   1.699   5.426
 1129SOL     OW 4285   3.865   5.780   6.589
 1129SOL    HW1 4286   3.877   5.719   6.511
 1129SOL    HW2 4287   3.886   5.731   6.673
 1130SOL     OW 4288   1.257   4.985   5.273
 1130SOL    HW1 4289   1.273   4.988   5.371
 1130SOL    HW2 4290   1.191   4.913   5.252
 1131SOL     OW 4291   1.373   4.077   5.658
 1131SOL    HW1 4292   1.428   4.010   5.708
 1131SOL    HW2 4293   1.334   4.143   5.721
 1132SOL     OW 4294   5.126   6.508   4.599
 1132SOL    HW1 4295   5.057   6.494   4.529
 1132SOL    HW2 4296   5.175   6.593   4.581
 1133SOL     OW 4297   0.217   2.008   0.239
 1133SOL    HW1 4298   0.208   2.103   0.208
 1133SOL    HW2 4299   0.149   1.951   0.192
 1134SOL     OW 4300   6.932   3.592   5.939
 1134SOL    HW1 4301   0.004   3.555   5.945
 1134SOL    HW2 4302   6.871   3.540   5.999
 1135SOL     OW 4303   6.879   1.740   3.853
 1135SOL    HW1 4304   6.923   1.763   3.939
 1135SOL    HW2 4305   6.878   1.820   3.793
 1136SOL     OW 4306   3.736   5.506   3.975
 1136SOL    HW1 4307   3.721   5.505   4.074
 1136SOL    HW2 4308   3.658   5.463   3.929
 1137SOL     OW 4309   0.696   0.377   6.904
 1137SOL    HW1 4310   0.785   0.413   6.875
 1137SOL    HW2 4311   0.659   0.434   6.977
 1138SOL     OW 4312   0.797   2.376   5.857
 1138SOL    HW1 4313   0.756   2.417   5.939
 1138SOL    HW2 4314   0.873   2.433   5.826
 1139SOL     OW 4315   6.837   0.223   2.884
 1139SOL    HW1 4316   6.935   0.208   2.873
 1139SOL    HW2 4317   6.787   0.141   2.857
 1140SOL     OW 4318   4.376   2.050   3.308
 1140SOL    HW1 4319   4.408   2.042   3.214
 1140SOL    HW2 4320   4.295   2.109   3.311
 1141SOL     OW 4321   0.421   0.384   6.168
 1141SOL    HW1 4322   0.452   0.290   6.181
 1141SOL    HW2 4323   0.491   0.447   6.200
 1142SOL     OW 4324   5.847   6.947   5.904
 1142SOL    HW1 4325   5.867   6.906   5.815
 1142SOL    HW2 4326   5.748   6.946   5.919
 1143SOL     OW 4327   5.769   2.568   1.368
 1143SOL    HW1 4328   5.727   2.567   1.277
 1143SOL    HW2 4329   5.743   2.486   1.418
 1144SOL     OW 4330   0.893   6.641   4.603
 1144SOL    HW1 4331   0.958   6.573   4.636
 1144SOL    HW2 4332   0.897   6.722   4.661
 1145SOL     OW 4333   3.355   5.240   5.086
 1145SOL    HW1 4334   3.358   5.255   4.987
 1145SOL    HW2 4335   3.321   5.148   5.105
 1146SOL     OW 4336   5.614   1.951   2.085
 1146SOL    HW1 4337   5.671   1.924   2.163
 1146SOL    HW2 4338   5.569   2.038   2.105
 1147SOL     OW 4339   6.586   3.989   2.447
 1147SOL    HW1 4340   6.541   3.985   2.537
 1147SOL    HW2 4341   6.600   3.897   2.413
 1148SOL     OW 4342   5.914   6.717   6.198
 1148SOL    HW1 4343   5.914   6.813   6.228
 1148SOL    HW2 4344   6.002   6.696   6.155
 1149SOL     OW 4345   4.905   3.278   2.532
 1149SOL    HW1 4346   4.995   3.323   2.528
 1149SOL    HW2 4347   4.867   3.272   2.439
 1150SOL     OW 4348   2.653   6.023   5.000
 1150SOL    HW1 4349   2.698   5.933   4.997
 1150SOL    HW2 4350   2.609   6.041   4.913
 1151SOL     OW 4351   1.786   5.541   0.587
 1151SOL    HW1 4352   1.798   5.639   0.574
 1151SOL    HW2 4353   1.803   5.518   0.683
 1152SOL     OW 4354   6.527   0.667   3.750
 1152SOL    HW1 4355   6.486   0.646   3.662
 1152SOL    HW2 4356   6.456   0.690   3.816
 1153SOL     OW 4357   1.336   4.387   2.125
 1153SOL    HW1 4358   1.255   4.434   2.089
 1153SOL    HW2 4359   1.333   4.388   2.225
 1154SOL     OW 4360   1.572   3.553   2.057
 1154SOL    HW1 4361   1.530   3.506   2.134
 1154SOL    HW2 4362   1.660   3.591   2.085
 1155SOL     OW 4363   5.006   0.817   2.495
 1155SOL    HW1 4364   4.953   0.858   2.569
 1155SOL    HW2 4365   5.006   0.878   2.416
 1156SOL     OW 4366   3.017   1.311   4.212
 1156SOL    HW1 4367   2.931   1.335   4.258
 1156SOL    HW2 4368   3.091   1.367   4.249
 1157SOL     OW 4369   2.078   3.444   3.392
 1157SOL    HW1 4370   2.004   3.402   3.338
 1157SOL    HW2 4371   2.102   3.532   3.351
 1158SOL     OW 4372   4.839   5.553   5.160
 1158SOL    HW1 4373   4.773   5.501   5.106
 1158SOL    HW2 4374   4.877   5.627   5.104
 1159SOL     OW 4375   6.221   4.132   3.028
 1159SOL    HW1 4376   6.291   4.148   2.958
 1159SOL    HW2 4377   6.265   4.107   3.114
 1160SOL     OW 4378   2.900   2.496   1.479
 1160SOL    HW1 4379   2.871   2.524   1.571
 1160SOL    HW2 4380   2.954   2.569   1.437
 1161SOL     OW 4381   3.882   1.241   2.934
 1161SOL    HW1 4382   3.964   1.185   2.949
 1161SOL    HW2 4383   3.801   1.191   2.963
 1162SOL     OW 4384   3.405   4.873   1.053
 1162SOL    HW1 4385   3.477   4.866   1.122
 1162SOL    HW2 4386   3.321   4.908   1.095
 1163SOL     OW 4387   4.652   6.391   3.576
 1163SOL    HW1 4388   4.700   6.337   3.506
 1163SOL    HW2 4389   4.694   6.375   3.665
 1164SOL     OW 4390   6.528   4.292   4.525
 1164SOL    HW1 4391   6.568   4.310   4.435
 1164SOL    HW2 4392   6.438   4.250   4.513
 1165SOL     OW 4393   0.001   5.176   2.097
 1165SOL    HW1 4394   7.000   5.122   2.016
 1165SOL    HW2 4395   7.005   5.273   2.079
 1166SOL     OW 4396   3.308   1.100   5.794
 1166SOL    HW1 4397   3.385   1.106   5.731
 1166SOL    HW2 4398   3.229   1.060   5.746
 1167SOL     OW 4399   4.251   1.615   5.553
 1167SOL    HW1 4400   4.273   1.518   5.556
 1167SOL    HW2 4401   4.317   1.666   5.608
 1168SOL     OW 4402   5.621   1.347   4.423
 1168SOL    HW1 4403   5.695   1.328   4.488
 1168SOL    HW2 4404   5.619   1.445   4.403
 1169SOL     OW 4405   2.219   2.503   0.972
 1169SOL    HW1 4406   2.317   2.519   0.957
 1169SOL    HW2 4407   2.172   2.498   0.884
 1170SOL     OW 4408   2.433   1.094   2.198
 1170SOL    HW1 4409   2.349   1.129   2.239
 1170SOL    HW2 4410   2.443   1.130   2.106
 1171SOL     OW 4411   4.616   0.733   0.874
 1171SOL    HW1 4412   4.541   0.790   0.839
 1171SOL    HW2 4413   4.639   0.663   0.807
 1172SOL     OW 4414   3.814   3.423   5.654
 1172SOL    HW1 4415   3.739   3.368   5.689
 1172SOL    HW2 4416   3.895   3.366   5.644
 1173SOL     OW 4417   5.378   5.943   6.846
 1173SOL    HW1 4418   5.434   5.941   6.763
 1173SOL    HW2 4419   5.289   5.984   6.826
 1174SOL     OW 4420   3.471   5.937   6.600
 1174SOL    HW1 4421   3.436   5.845   6.619
 1174SOL    HW2 4422   3.502   5.942   6.505
 1175SOL     OW 4423   0.144   5.298   5.124
 1175SOL    HW1 4424   0.081   5.223   5.144
 1175SOL    HW2 4425   0.204   5.272   5.048
 1176SOL     OW 4426   6.238   2.980   1.314
 1176SOL    HW1 4427   6.156   3.034   1.334
 1176SOL    HW2 4428   6.212   2.903   1.254
 1177SOL     OW 4429   6.884   3.049   5.254
 1177SOL    HW1 4430   6.836   3.137   5.259
 1177SOL    HW2 4431   6.822   2.979   5.218
 1178SOL     OW 4432   4.484   4.556   2.014
 1178SOL    HW1 4433   4.395   4.579   1.975
 1178SOL    HW2 4434   4.500   4.458   2.007
 1179SOL     OW 4435   1.641   5.428   6.132
 1179SOL    HW1 4436   1.558   5.402   6.181
 1179SOL    HW2 4437   1.668   5.355   6.070
 1180SOL     OW 4438   2.302   1.362   4.235
 1180SOL    HW1 4439   2.389   1.411   4.225
 1180SOL    HW2 4440   2.318   1.264   4.228
 1181SOL     OW 4441   1.046   4.123   1.740
 1181SOL    HW1 4442   1.124   4.085   1.791
 1181SOL    HW2 4443   1.074   4.205   1.691
 1182SOL     OW 4444   6.738   3.636   3.971
 1182SOL    HW1 4445   6.676   3.650   3.893
 1182SOL    HW2 4446   6.778   3.545   3.966
 1183SOL     OW 4447   4.318   6.030   0.754
 1183SOL    HW1 4448   4.300   6.119   0.713
 1183SOL    HW2 4449   4.232   5.985   0.775
 1184SOL     OW 4450   4.344   3.600   6.856
 1184SOL    HW1 4451   4.383   3.692   6.855
 1184SOL    HW2 4452   4.292   3.584   6.772
 1185SOL     OW 4453   3.480   1.303   6.341
 1185SOL    HW1 4454   3.448   1.370   6.408
 1185SOL    HW2 4455   3.580   1.294   6.348
 1186SOL     OW 4456   4.366   6.672   5.423
 1186SOL    HW1 4457   4.278   6.627   5.410
 1186SOL    HW2 4458   4.402   6.650   5.513
 1187SOL     OW 4459   0.579   2.524   4.950
 1187SOL    HW1 4460   0.515   2.448   4.963
 1187SOL    HW2 4461   0.528   2.610   4.943
 1188SOL     OW 4462   2.366   1.005   5.522
 1188SOL    HW1 4463   2.401   1.025   5.430
 1188SOL    HW2 4464   2.281   1.055   5.537
 1189SOL     OW 4465   0.894   1.438   1.397
 1189SOL    HW1 4466   0.811   1.416   1.448
 1189SOL    HW2 4467   0.974   1.423   1.455
 1190SOL     OW 4468   2.872   6.470   1.671
 1190SOL    HW1 4469   2.853   6.428   1.583
 1190SOL    HW2 4470   2.827   6.417   1.743
 1191SOL     OW 4471   1.702   3.891   1.736
 1191SOL    HW1 4472   1.625   3.843   1.778
 1191SOL    HW2 4473   1.722   3.974   1.789
 1192SOL     OW 4474   3.302   5.660   2.194
 1192SOL    HW1 4475   3.315   5.596   2.270
 1192SOL    HW2 4476   3.209   5.650   2.158
 1193SOL     OW 4477   2.978   2.211   4.022
 1193SOL    HW1 4478   2.912   2.266   3.971
 1193SOL    HW2 4479   3.043   2.170   3.958
 1194SOL     OW 4480   6.427   2.555   2.363
 1194SOL    HW1 4481   6.342   2.607   2.362
 1194SOL    HW2 4482   6.488   2.590   2.292
 1195SOL     OW 4483   4.301   0.572   0.062
 1195SOL    HW1 4484   4.254   0.597   6.998
 1195SOL    HW2 4485   4.377   0.635   0.078
 1196SOL     OW 4486   1.196   5.307   3.525
 1196SOL    HW1 4487   1.135   5.364   3.581
 1196SOL    HW2 4488   1.291   5.327   3.549
 1197SOL     OW 4489   3.692   5.102   6.882
 1197SOL    HW1 4490   3.763   5.032   6.892
 1197SOL    HW2 4491   3.636   5.082   6.802
 1198SOL     OW 4492   3.601   1.636   3.235
 1198SOL    HW1 4493   3.640   1.603   3.321
 1198SOL    HW2 4494   3.638   1.727   3.216
 1199SOL     OW 4495   3.102   4.001   3.672
 1199SOL    HW1 4496   3.186   3.951   3.694
 1199SOL    HW2 4497   3.024   3.953   3.711
 1200SOL     OW 4498   4.683   4.028   1.185
 1200SOL    HW1 4499   4.750   4.061   1.251
 1200SOL    HW2 4500   4.603   4.088   1.186
 1201SOL     OW 4501   1.914   1.464   5.458
 1201SOL    HW1 4502   1.859   1.530   5.407
 1201SOL    HW2 4503   2.007   1.499   5.468
 1202SOL     OW 4504   6.224   6.739   4.343
 1202SOL    HW1 4505   6.188   6.648   4.364
 1202SOL    HW2 4506   6.172   6.808   4.392
 1203SOL     OW 4507   5.576   0.210   1.787
 1203SOL    HW1 4508   5.482   0.218   1.754
 1203SOL    HW2 4509   5.637   0.260   1.725
 1204SOL     OW 4510   2.773   0.555   0.341
 1204SOL    HW1 4511   2.842   0.576   0.411
 1204SOL    HW2 4512   2.687   0.599   0.365
 1205SOL     OW 4513   0.995   2.766   6.331
 1205SOL    HW1 4514   1.051   2.843   6.361
 1205SOL    HW2 4515   1.036   2.681   6.364
 1206SOL     OW 4516   6.232   1.914   5.624
 1206SOL    HW1 4517   6.307   1.853   5.602
 1206SOL    HW2 4518   6.182   1.880   5.704
 1207SOL     OW 4519   6.438   6.129   5.957
 1207SOL    HW1 4520   6.524   6.096   5.917
 1207SOL    HW2 4521   6.378   6.052   5.975
 1208SOL     OW 4522   3.167   4.040   3.085
 1208SOL    HW1 4523   3.185   4.095   3.003
 1208SOL    HW2 4524   3.247   4.041   3.145
 1209SOL     OW 4525   6.852   3.301   4.813
 1209SOL    HW1 4526   6.819   3.395   4.806
 1209SOL    HW2 4527   6.930   3.289   4.752
 1210SOL     OW 4528   2.425   0.278   4.074
 1210SOL    HW1 4529   2.467   0.306   3.988
 1210SOL    HW2 4530   2.396   0.359   4.125
 1211SOL     OW 4531   6.759   3.707   3.375
 1211SOL    HW1 4532   6.665   3.741   3.377
 1211SOL    HW2 4533   6.822   3.783   3.391
 1212SOL     OW 4534   0.911   3.762   2.742
 1212SOL    HW1 4535   0.863   3.823   2.805
 1212SOL    HW2 4536   0.971   3.701   2.794
 1213SOL     OW 4537   6.461   3.653   5.114
 1213SOL    HW1 4538   6.498   3.584   5.177
 1213SOL    HW2 4539   6.536   3.704   5.073
 1214SOL     OW 4540   0.379   1.867   0.459
 1214SOL    HW1 4541   0.446   1.933   0.491
 1214SOL    HW2 4542   0.316   1.912   0.395
 1215SOL     OW 4543   0.715   0.402   1.829
 1215SOL    HW1 4544   0.647   0.397   1.902
 1215SOL    HW2 4545   0.730   0.310   1.791
 1216SOL     OW 4546   1.969   6.909   0.701
 1216SOL    HW1 4547   1.969   7.008   0.688
 1216SOL    HW2 4548   1.889   6.869   0.657
 1217SOL     OW 4549   1.527   2.761   3.318
 1217SOL    HW1 4550   1.503   2.796   3.228
 1217SOL    HW2 4551   1.468   2.803   3.387
 1218SOL     OW 4552   6.910   4.436   3.814
 1218SOL    HW1 4553   6.835   4.444   3.880
 1218SOL    HW2 4554   6.901   4.507   3.745
 1219SOL     OW 4555   1.116   5.939   2.777
 1219SOL    HW1 4556   1.205   5.983   2.773
 1219SOL    HW2 4557   1.053   5.985   2.715
 1220SOL     OW 4558   6.511   4.547   3.101
 1220SOL    HW1 4559   6.539   4.451   3.095
 1220SOL    HW2 4560   6.577   4.597   3.157
 1221SOL     OW 4561   4.708   5.006   0.083
 1221SOL    HW1 4562   4.763   5.087   0.105
 1221SOL    HW2 4563   4.673   5.015   7.010
 1222SOL     OW 4564   6.789   5.154   0.917
 1222SOL    HW1 4565   6.697   5.124   0.942
 1222SOL    HW2 4566   6.784   5.231   0.854
 1223SOL     OW 4567   0.871   4.209   5.285
 1223SOL    HW1 4568   0.888   4.253   5.373
 1223SOL    HW2 4569   0.781   4.236   5.251
 1224SOL     OW 4570   4.175   5.188   1.817
 1224SOL    HW1 4571   4.199   5.284   1.804
 1224SOL    HW2 4572   4.143   5.149   1.731
 1225SOL     OW 4573   5.042   1.584   6.722
 1225SOL    HW1 4574   5.022   1.491   6.752
 1225SOL    HW2 4575   4.979   1.648   6.766
 1226SOL     OW 4576   6.117   5.715   0.804
 1226SOL    HW1 4577   6.202   5.731   0.754
 1226SOL    HW2 4578   6.084   5.622   0.786
 1227SOL     OW 4579   6.317   4.458   0.549
 1227SOL    HW1 4580   6.225   4.483   0.518
 1227SOL    HW2 4581   6.371   4.540   0.564
 1228SOL     OW 4582   4.105   3.779   5.105
 1228SOL    HW1 4583   4.114   3.783   5.006
 1228SOL    HW2 4584   4.164   3.707   5.142
 1229SOL     OW 4585   1.809   5.560   1.964
 1229SOL    HW1 4586   1.832   5.500   2.041
 1229SOL    HW2 4587   1.855   5.527   1.881
 1230SOL     OW 4588   5.596   4.632   0.322
 1230SOL    HW1 4589   5.527   4.698   0.351
 1230SOL    HW2 4590   5.590   4.551   0.379
 1231SOL     OW 4591   2.236   0.803   1.004
 1231SOL    HW1 4592   2.277   0.893   0.988
 1231SOL    HW2 4593   2.141   0.804   0.974
 1232SOL     OW 4594   2.430   1.944   5.964
 1232SOL    HW1 4595   2.463   2.037   5.951
 1232SOL    HW2 4596   2.441   1.893   5.878
 1233SOL     OW 4597   0.281   5.267   4.895
 1233SOL    HW1 4598   0.365   5.224   4.861
 1233SOL    HW2 4599   0.203   5.235   4.842
 1234SOL     OW 4600   6.918   4.234   5.239
 1234SOL    HW1 4601   6.931   4.323   5.282
 1234SOL    HW2 4602   6.930   4.242   5.140
 1235SOL     OW 4603   6.794   5.080   7.018
 1235SOL    HW1 4604   6.804   5.179   7.003
 1235SOL    HW2 4605   6.811   5.059   0.093
 1236SOL     OW 4606   0.317   1.092   2.936
 1236SOL    HW1 4607   0.326   1.188   2.962
 1236SOL    HW2 4608   0.229   1.077   2.892
 1237SOL     OW 4609   0.645   0.557   5.611
 1237SOL    HW1 4610   0.648   0.639   5.667
 1237SOL    HW2 4611   0.553   0.543   5.576
 1238SOL     OW 4612   0.417   0.896   4.161
 1238SOL    HW1 4613   0.432   0.862   4.254
 1238SOL    HW2 4614   0.323   0.928   4.151
 1239SOL     OW 4615   4.415   5.277   3.219
 1239SOL    HW1 4616   4.345   5.290   3.150
 1239SOL    HW2 4617   4.380   5.218   3.292
 1240SOL     OW 4618   0.908   4.152   2.030
 1240SOL    HW1 4619   0.911   4.187   1.937
 1240SOL    HW2 4620   0.826   4.096   2.042
 1241SOL     OW 4621   3.179   5.714   6.113
 1241SOL    HW1 4622   3.173   5.799   6.166
 1241SOL    HW2 4623   3.087   5.676   6.101
 1242SOL     OW 4624   2.532   5.687   0.690
 1242SOL    HW1 4625   2.620   5.696   0.643
 1242SOL    HW2 4626   2.462   5.659   0.624
 1243SOL     OW 4627   0.713   4.532   4.168
 1243SOL    HW1 4628   0.790   4.595   4.180
 1243SOL    HW2 4629   0.634   4.566   4.219
 1244SOL     OW 4630   6.026   6.516   4.815
 1244SOL    HW1 4631   6.041   6.599   4.762
 1244SOL    HW2 4632   6.112   6.486   4.856
 1245SOL     OW 4633   4.302   6.930   1.757
 1245SOL    HW1 4634   4.305   6.888   1.848
 1245SOL    HW2 4635   4.257   7.019   1.763
 1246SOL     OW 4636   5.309   1.955   2.328
 1246SOL    HW1 4637   5.238   2.010   2.371
 1246SOL    HW2 4638   5.369   2.014   2.274
 1247SOL     OW 4639   4.360   6.081   2.977
 1247SOL    HW1 4640   4.426   6.136   3.028
 1247SOL    HW2 4641   4.391   5.986   2.974
 1248SOL     OW 4642   0.371   0.380   4.951
 1248SOL    HW1 4643   0.432   0.387   4.872
 1248SOL    HW2 4644   0.282   0.419   4.927
 1249SOL     OW 4645   6.395   6.871   0.453
 1249SOL    HW1 4646   6.351   6.920   0.379
 1249SOL    HW2 4647   6.494   6.885   0.449
 1250SOL     OW 4648   0.546   4.023   4.917
 1250SOL    HW1 4649   0.537   3.969   5.001
 1250SOL    HW2 4650   0.464   4.012   4.861
 1251SOL     OW 4651   1.955   0.203   3.294
 1251SOL    HW1 4652   1.974   0.146   3.214
 1251SOL    HW2 4653   1.919   0.146   3.368
 1252SOL     OW 4654   2.698   4.988   6.416
 1252SOL    HW1 4655   2.626   5.052   6.445
 1252SOL    HW2 4656   2.690   4.903   6.467
 1253SOL     OW 4657   3.235   5.006   0.589
 1253SOL    HW1 4658   3.296   4.947   0.642
 1253SOL    HW2 4659   3.168   5.048   0.650
 1254SOL     OW 4660   6.522   0.888   4.042
 1254SOL    HW1 4661   6.438   0.839   4.018
 1254SOL    HW2 4662   6.502   0.985   4.052
 1255SOL     OW 4663   5.652   1.746   6.638
 1255SOL    HW1 4664   5.665   1.719   6.733
 1255SOL    HW2 4665   5.554   1.762   6.621
 1256SOL     OW 4666   6.778   6.314   5.893
 1256SOL    HW1 4667   6.719   6.388   5.859
 1256SOL    HW2 4668   6.874   6.340   5.881
 1257SOL     OW 4669   0.000   6.314   2.192
 1257SOL    HW1 4670   6.997   6.277   2.103
 1257SOL    HW2 4671   0.061   6.251   2.240
 1258SOL     OW 4672   4.856   5.423   6.537
 1258SOL    HW1 4673   4.915   5.492   6.579
 1258SOL    HW2 4674   4.912   5.347   6.504
 1259SOL     OW 4675   6.042   6.808   5.123
 1259SOL    HW1 4676   6.112   6.749   5.083
 1259SOL    HW2 4677   6.086   6.888   5.164
 1260SOL     OW 4678   3.369   0.624   0.878
 1260SOL    HW1 4679   3.358   0.542   0.821
 1260SOL    HW2 4680   3.444   0.609   0.943
 1261SOL     OW 4681   0.964   3.913   5.257
 1261SOL    HW1 4682   0.900   3.895   5.182
 1261SOL    HW2 4683   0.940   3.999   5.302
 1262SOL     OW 4684   4.856   6.792   0.229
 1262SOL    HW1 4685   4.838   6.877   0.278
 1262SOL    HW2 4686   4.792   6.783   0.152
 1263SOL     OW 4687   6.947   1.446   0.977
 1263SOL    HW1 4688   6.935   1.356   1.019
 1263SOL    HW2 4689   6.878   1.509   1.013
 1264SOL     OW 4690   5.838   2.571   4.853
 1264SOL    HW1 4691   5.812   2.646   4.913
 1264SOL    HW2 4692   5.760   2.543   4.798
 1265SOL     OW 4693   5.727   5.804   3.657
 1265SOL    HW1 4694   5.649   5.742   3.665
 1265SOL    HW2 4695   5.790   5.789   3.733
 1266SOL     OW 4696   2.462   0.880   4.132
 1266SOL    HW1 4697   2.388   0.835   4.082
 1266SOL    HW2 4698   2.533   0.910   4.068
 1267SOL     OW 4699   0.105   4.675   2.073
 1267SOL    HW1 4700   0.159   4.673   1.989
 1267SOL    HW2 4701   0.045   4.595   2.075
 1268SOL     OW 4702   6.281   4.216   6.302
 1268SOL    HW1 4703   6.261   4.157   6.223
 1268SOL    HW2 4704   6.196   4.259   6.333
 1269SOL     OW 4705   1.238   3.764   5.767
 1269SOL    HW1 4706   1.327   3.806   5.751
 1269SOL    HW2 4707   1.218   3.699   5.694
 1270SOL     OW 4708   1.400   2.426   3.638
 1270SOL    HW1 4709   1.417   2.446   3.541
 1270SOL    HW2 4710   1.313   2.378   3.647
 1271SOL     OW 4711   5.023   3.940   2.984
 1271SOL    HW1 4712   4.966   3.993   2.921
 1271SOL    HW2 4713   4.985   3.848   2.994
 1272SOL     OW 4714   5.638   6.743   0.943
 1272SOL    HW1 4715   5.714   6.706   0.996
 1272SOL    HW2 4716   5.564   6.676   0.938
 1273SOL     OW 4717   2.593   6.336   4.150
 1273SOL    HW1 4718   2.522   6.305   4.212
 1273SOL    HW2 4719   2.668   6.270   4.149
 1274SOL     OW 4720   5.721   2.337   1.510
 1274SOL    HW1 4721   5.699   2.243   1.482
 1274SOL    HW2 4722   5.710   2.346   1.609
 1275SOL     OW 4723   3.577   1.227   3.534
 1275SOL    HW1 4724   3.562   1.128   3.527
 1275SOL    HW2 4725   3.506   1.275   3.482
 1276SOL     OW 4726   5.303   6.432   3.499
 1276SOL    HW1 4727   5.209   6.408   3.475
 1276SOL    HW2 4728   5.318   6.417   3.597
 1277SOL     OW 4729   0.503   1.932   4.627
 1277SOL    HW1 4730   0.570   1.896   4.562
 1277SOL    HW2 4731   0.454   2.008   4.585
 1278SOL     OW 4732   2.689   1.514   4.987
 1278SOL    HW1 4733   2.664   1.525   4.891
 1278SOL    HW2 4734   2.610   1.536   5.045
 1279SOL     OW 4735   2.071   5.274   0.645
 1279SOL    HW1 4736   2.099   5.180   0.665
 1279SOL    HW2 4737   1.989   5.296   0.698
 1280SOL     OW 4738   0.950   6.470   2.861
 1280SOL    HW1 4739   0.931   6.505   2.953
 1280SOL    HW2 4740   0.917   6.376   2.853
 1281SOL     OW 4741   1.172   6.627   4.150
 1281SOL    HW1 4742   1.151   6.530   4.168
 1281SOL    HW2 4743   1.170   6.644   4.052
 1282SOL     OW 4744   1.642   6.885   2.656
 1282SOL    HW1 4745   1.711   6.873   2.727
 1282SOL    HW2 4746   1.652   6.815   2.586
 1283SOL     OW 4747   5.419   4.723   5.396
 1283SOL    HW1 4748   5.420   4.817   5.365
 1283SOL    HW2 4749   5.482   4.668   5.342
 1284SOL     OW 4750   2.774   2.310   2.882
 1284SOL    HW1 4751   2.811   2.289   2.973
 1284SOL    HW2 4752   2.833   2.271   2.812
 1285SOL     OW 4753   5.943   2.224   5.842
 1285SOL    HW1 4754   5.946   2.324   5.849
 1285SOL    HW2 4755   5.853   2.195   5.809
 1286SOL     OW 4756   5.260   5.715   0.939
 1286SOL    HW1 4757   5.327   5.780   0.976
 1286SOL    HW2 4758   5.306   5.628   0.921
 1287SOL     OW 4759   5.912   3.365   6.143
 1287SOL    HW1 4760   5.941   3.365   6.047
 1287SOL    HW2 4761   5.834   3.428   6.154
 1288SOL     OW 4762   0.055   3.103   3.289
 1288SOL    HW1 4763   0.023   3.114   3.383
 1288SOL    HW2 4764   0.096   3.013   3.277
 1289SOL     OW 4765   0.400   4.987   3.036
 1289SOL    HW1 4766   0.462   4.993   3.114
 1289SOL    HW2 4767   0.375   5.079   3.006
 1290SOL     OW 4768   6.308   6.937   2.119
 1290SOL    HW1 4769   6.363   7.000   2.173
 1290SOL    HW2 4770   6.363   6.902   2.042
 1291SOL     OW 4771   1.910   5.689   1.286
 1291SOL    HW1 4772   1.935   5.694   1.383
 1291SOL    HW2 4773   1.962   5.616   1.242
 1292SOL     OW 4774   1.754   6.752   0.598
 1292SOL    HW1 4775   1.758   6.741   0.499
 1292SOL    HW2 4776   1.720   6.667   0.639
 1293SOL     OW 4777   6.959   1.388   6.882
 1293SOL    HW1 4778   0.005   1.451   6.920
 1293SOL    HW2 4779   6.940   1.413   6.787
 1294SOL     OW 4780   0.573   1.592   3.924
 1294SOL    HW1 4781   0.641   1.528   3.960
 1294SOL    HW2 4782   0.525   1.636   4.000
 1295SOL     OW 4783   5.232   4.037   0.582
 1295SOL    HW1 4784   5.168   4.110   0.560
 1295SOL    HW2 4785   5.190   3.949   0.561
 1296SOL     OW 4786   3.667   1.102   0.624
 1296SOL    HW1 4787   3.725   1.045   0.564
 1296SOL    HW2 4788   3.596   1.146   0.569
 1297SOL     OW 4789   5.346   0.774   5.948
 1297SOL    HW1 4790   5.326   0.693   6.004
 1297SOL    HW2 4791   5.359   0.853   6.008
 1298SOL     OW 4792   6.026   2.454   2.730
 1298SOL    HW1 4793   6.021   2.499   2.641
 1298SOL    HW2 4794   6.096   2.499   2.786
 1299SOL     OW 4795   1.375   4.418   4.339
 1299SOL    HW1 4796   1.276   4.412   4.345
 1299SOL    HW2 4797   1.400   4.483   4.266
 1300SOL     OW 4798   3.515   3.189   3.033
 1300SOL    HW1 4799   3.532   3.112   3.095
 1300SOL    HW2 4800   3.435   3.168   2.976
 1301SOL     OW 4801   0.568   0.729   1.426
 1301SOL    HW1 4802   0.572   0.634   1.456
 1301SOL    HW2 4803   0.497   0.738   1.356
 1302SOL     OW 4804   2.711   5.673   5.515
 1302SOL    HW1 4805   2.715   5.598   5.581
 1302SOL    HW2 4806   2.691   5.759   5.563
 1303SOL     OW 4807   3.031   6.937   1.720
 1303SOL    HW1 4808   3.130   6.926   1.721
 1303SOL    HW2 4809   3.008   0.011   1.699
 1304SOL     OW 4810   3.663   0.725   5.498
 1304SOL    HW1 4811   3.638   0.638   5.456
 1304SOL    HW2 4812   3.620   0.733   5.587
 1305SOL     OW 4813   5.767   6.572   4.263
 1305SOL    HW1 4814   5.722   6.531   4.183
 1305SOL    HW2 4815   5.857   6.606   4.237
 1306SOL     OW 4816   1.434   5.313   3.653
 1306SOL    HW1 4817   1.526   5.313   3.692
 1306SOL    HW2 4818   1.368   5.295   3.726
 1307SOL     OW 4819   1.135   0.809   5.251
 1307SOL    HW1 4820   1.137   0.709   5.256
 1307SOL    HW2 4821   1.103   0.846   5.338
 1308SOL     OW 4822   4.373   6.573   3.696
 1308SOL    HW1 4823   4.407   6.513   3.623
 1308SOL    HW2 4824   4.273   6.571   3.698
 1309SOL     OW 4825   6.671   2.743   4.270
 1309SOL    HW1 4826   6.616   2.826   4.259
 1309SOL    HW2 4827   6.768   2.768   4.277
 1310SOL     OW 4828   5.413   4.009   6.056
 1310SOL    HW1 4829   5.483   4.070   6.018
 1310SOL    HW2 4830   5.388   3.940   5.988
 1311SOL     OW 4831   5.309   4.461   0.215
 1311SOL    HW1 4832   5.387   4.507   0.174
 1311SOL    HW2 4833   5.312   4.364   0.192
 1312SOL     OW 4834   6.975   1.306   2.256
 1312SOL    HW1 4835   6.929   1.330   2.171
 1312SOL    HW2 4836   7.014   1.389   2.297
 1313SOL     OW 4837   4.256   4.971   5.089
 1313SOL    HW1 4838   4.340   4.917   5.082
 1313SOL    HW2 4839   4.204   4.964   5.004
 1314SOL     OW 4840   0.007   1.281   6.349
 1314SOL    HW1 4841   0.014   1.207   6.415
 1314SOL    HW2 4842   0.098   1.316   6.328
 1315SOL     OW 4843   1.181   6.533   3.623
 1315SOL    HW1 4844   1.256   6.598   3.610
 1315SOL    HW2 4845   1.207   6.444   3.584
 1316SOL     OW 4846   3.353   5.779   4.198
 1316SOL    HW1 4847   3.404   5.716   4.140
 1316SOL    HW2 4848   3.382   5.873   4.178
 1317SOL     OW 4849   0.166   3.398   3.458
 1317SOL    HW1 4850   0.231   3.436   3.393
 1317SOL    HW2 4851   0.072   3.412   3.425
 1318SOL     OW 4852   0.542   6.893   2.282
 1318SOL    HW1 4853   0.473   6.846   2.228
 1318SOL    HW2 4854   0.545   6.854   2.375
 1319SOL     OW 4855   0.646   6.755   1.180
 1319SOL    HW1 4856   0.727   6.812   1.167
 1319SOL    HW2 4857   0.668   6.678   1.240
 1320SOL     OW 4858   5.756   4.837   5.240
 1320SOL    HW1 4859   5.711   4.864   5.326
 1320SOL    HW2 4860   5.721   4.894   5.166
 1321SOL     OW 4861   3.561   1.354   1.029
 1321SOL    HW1 4862   3.595   1.259   1.031
 1321SOL    HW2 4863   3.587   1.396   0.942
 1322SOL     OW 4864   5.025   1.044   6.102
 1322SOL    HW1 4865   5.005   1.097   6.184
 1322SOL    HW2 4866   5.105   0.985   6.119
 1323SOL     OW 4867   6.554   0.477   4.487
 1323SOL    HW1 4868   6.630   0.541   4.500
 1323SOL    HW2 4869   6.479   0.523   4.439
 1324SOL     OW 4870   1.349   2.479   0.359
 1324SOL    HW1 4871   1.387   2.437   0.441
 1324SOL    HW2 4872   1.294   2.558   0.384
 1325SOL     OW 4873   4.554   5.362   3.648
 1325SOL    HW1 4874   4.533   5.274   3.691
 1325SOL    HW2 4875   4.653   5.369   3.634
 1326SOL     OW 4876   5.141   3.818   4.312
 1326SOL    HW1 4877   5.170   3.905   4.271
 1326SOL    HW2 4878   5.050   3.830   4.353
 1327SOL     OW 4879   3.278   6.439   3.417
 1327SOL    HW1 4880   3.313   6.372   3.351
 1327SOL    HW2 4881   3.181   6.454   3.400
 1328SOL     OW 4882   2.246   1.775   1.609
 1328SOL    HW1 4883   2.248   1.735   1.701
 1328SOL    HW2 4884   2.336   1.762   1.566
 1329SOL     OW 4885   0.978   5.800   1.630
 1329SOL    HW1 4886   1.037   5.853   1.570
 1329SOL    HW2 4887   0.973   5.706   1.596
 1330SOL     OW 4888   5.864   6.435   2.049
 1330SOL    HW1 4889   5.891   6.465   1.958
 1330SOL    HW2 4890   5.839   6.515   2.104
 1331SOL     OW 4891   0.867   2.285   1.460
 1331SOL    HW1 4892   0.861   2.274   1.361
 1331SOL    HW2 4893   0.962   2.302   1.486
 1332SOL     OW 4894   4.507   1.832   0.215
 1332SOL    HW1 4895   4.605   1.846   0.230
 1332SOL    HW2 4896   4.487   1.838   0.118
 1333SOL     OW 4897   4.291   3.613   5.181
 1333SOL    HW1 4898   4.379   3.608   5.229
 1333SOL    HW2 4899   4.265   3.522   5.150
 1334SOL     OW 4900   1.660   3.528   4.189
 1334SOL    HW1 4901   1.609   3.566   4.112
 1334SOL    HW2 4902   1.617   3.557   4.275
 1335SOL     OW 4903   2.150   5.496   3.526
 1335SOL    HW1 4904   2.205   5.450   3.595
 1335SOL    HW2 4905   2.209   5.543   3.461
 1336SOL     OW 4906   0.283   6.583   4.838
 1336SOL    HW1 4907   0.251   6.571   4.932
 1336SOL    HW2 4908   0.361   6.646   4.838
 1337SOL     OW 4909   3.175   0.256   7.006
 1337SOL    HW1 4910   3.162   0.345   6.962
 1337SOL    HW2 4911   3.253   0.209   6.964
 1338SOL     OW 4912   3.959   4.639   0.608
 1338SOL    HW1 4913   3.927   4.707   0.542
 1338SOL    HW2 4914   3.890   4.567   0.619
 1339SOL     OW 4915   0.188   4.254   6.412
 1339SOL    HW1 4916   0.281   4.288   6.426
 1339SOL    HW2 4917   0.163   4.192   6.486
 1340SOL     OW 4918   2.876   2.115   6.031
 1340SOL    HW1 4919   2.801   2.051   6.046
 1340SOL    HW2 4920   2.947   2.071   5.976
 1341SOL     OW 4921   5.291   1.647   3.927
 1341SOL    HW1 4922   5.254   1.686   3.843
 1341SOL    HW2 4923   5.375   1.695   3.952
 1342SOL     OW 4924   0.672   5.897   0.489
 1342SOL    HW1 4925   0.720   5.935   0.568
 1342SOL    HW2 4926   0.691   5.800   0.482
 1343SOL     OW 4927   2.938   6.123   3.114
 1343SOL    HW1 4928   3.005   6.076   3.171
 1343SOL    HW2 4929   2.984   6.192   3.059
 1344SOL     OW 4930   4.487   1.435   2.279
 1344SOL    HW1 4931   4.447   1.386   2.201
 1344SOL    HW2 4932   4.563   1.491   2.248
 1345SOL     OW 4933   6.180   5.484   2.113
 1345SOL    HW1 4934   6.175   5.470   2.014
 1345SOL    HW2 4935   6.239   5.415   2.153
 1346SOL     OW 4936   6.572   1.664   3.205
 1346SOL    HW1 4937   6.631   1.583   3.206
 1346SOL    HW2 4938   6.476   1.635   3.205
 1347SOL     OW 4939   4.185   0.830   3.882
 1347SOL    HW1 4940   4.128   0.815   3.963
 1347SOL    HW2 4941   4.164   0.920   3.843
 1348SOL     OW 4942   5.204   6.262   4.721
 1348SOL    HW1 4943   5.235   6.294   4.810
 1348SOL    HW2 4944   5.180   6.341   4.664
 1349SOL     OW 4945   5.320   1.369   6.508
 1349SOL    HW1 4946   5.369   1.384   6.593
 1349SOL    HW2 4947   5.359   1.290   6.460
 1350SOL     OW 4948   3.781   1.458   4.678
 1350SOL    HW1 4949   3.743   1.367   4.693
 1350SOL    HW2 4950   3.711   1.517   4.636
 1351SOL     OW 4951   0.893   1.598   4.272
 1351SOL    HW1 4952   0.957   1.657   4.224
 1351SOL    HW2 4953   0.864   1.524   4.212
 1352SOL     OW 4954   1.221   6.162   4.328
 1352SOL    HW1 4955   1.178   6.109   4.255
 1352SOL    HW2 4956   1.307   6.118   4.355
 1353SOL     OW 4957   2.696   3.372   6.034
 1353SOL    HW1 4958   2.786   3.415   6.037
 1353SOL    HW2 4959   2.677   3.327   6.121
 1354SOL     OW 4960   0.484   6.270   6.753
 1354SOL    HW1 4961   0.440   6.359   6.749
 1354SOL    HW2 4962   0.570   6.276   6.804
 1355SOL     OW 4963   5.163   3.258   0.326
 1355SOL    HW1 4964   5.114   3.199   0.390
 1355SOL    HW2 4965   5.219   3.324   0.376
 1356SOL     OW 4966   3.675   3.318   2.864
 1356SOL    HW1 4967   3.605   3.386   2.885
 1356SOL    HW2 4968   3.670   3.243   2.930
 1357SOL     OW 4969   4.047   2.369   5.759
 1357SOL    HW1 4970   3.967   2.357   5.819
 1357SOL    HW2 4971   4.102   2.286   5.761
 1358SOL     OW 4972   1.839   3.200   5.004
 1358SOL    HW1 4973   1.891   3.116   4.996
 1358SOL    HW2 4974   1.844   3.252   4.919
 1359SOL     OW 4975   0.904   1.582   6.659
 1359SOL    HW1 4976   0.971   1.522   6.702
 1359SOL    HW2 4977   0.813   1.540   6.665
 1360SOL     OW 4978   2.946   3.260   4.634
 1360SOL    HW1 4979   2.877   3.190   4.619
 1360SOL    HW2 4980   2.950   3.283   4.731
 1361SOL     OW 4981   1.509   6.481   1.147
 1361SOL    HW1 4982   1.432   6.473   1.083
 1361SOL    HW2 4983   1.591   6.442   1.105
 1362SOL     OW 4984   3.734   1.019   6.318
 1362SOL    HW1 4985   3.704   1.108   6.350
 1362SOL    HW2 4986   3.755   1.024   6.220
 1363SOL     OW 4987   6.787   5.955   1.193
 1363SOL    HW1 4988   6.778   5.858   1.214
 1363SOL    HW2 4989   6.697   5.994   1.173
 1364SOL     OW 4990   1.305   3.189   0.866
 1364SOL    HW1 4991   1.383   3.176   0.928
 1364SOL    HW2 4992   1.222   3.155   0.910
 1365SOL     OW 4993   1.727   2.881   6.419
 1365SOL    HW1 4994   1.801   2.865   6.355
 1365SOL    HW2 4995   1.648   2.919   6.371
 1366SOL     OW 4996   3.870   1.549   1.667
 1366SOL    HW1 4997   3.813   1.501   1.733
 1366SOL    HW2 4998   3.837   1.643   1.656
 1367SOL     OW 4999   1.388   0.333   4.294
 1367SOL    HW1 5000   1.378   0.407   4.228
 1367SOL    HW2 5001   1.433   0.255   4.251
 1368SOL     OW 5002   1.765   5.740   4.725
 1368SOL    HW1 5003   1.862   5.725   4.739
 1368SOL    HW2 5004   1.713   5.691   4.795
 1369SOL     OW 5005   2.565   5.708   3.504
 1369SOL    HW1 5006   2.553   5.653   3.422
 1369SOL    HW2 5007   2.502   5.785   3.502
 1370SOL     OW 5008   6.551   2.882   2.968
 1370SOL    HW1 5009   6.492   2.825   2.911
 1370SOL    HW2 5010   6.647   2.857   2.954
 1371SOL     OW 5011   6.375   1.802   6.514
 1371SOL    HW1 5012   6.359   1.855   6.598
 1371SOL    HW2 5013   6.319   1.840   6.440
 1372SOL     OW 5014   5.110   2.038   1.974
 1372SOL    HW1 5015   5.121   2.109   2.044
 1372SOL    HW2 5016   5.017   2.000   1.980
 1373SOL     OW 5017   4.556   2.519   1.464
 1373SOL    HW1 5018   4.518   2.609   1.484
 1373SOL    HW2 5019   4.621   2.526   1.388
 1374SOL     OW 5020   3.221   3.730   4.016
 1374SOL    HW1 5021   3.271   3.814   4.038
 1374SOL    HW2 5022   3.127   3.738   4.050
 1375SOL     OW 5023   5.944   4.128   5.202
 1375SOL    HW1 5024   6.007   4.053   5.224
 1375SOL    HW2 5025   5.883   4.099   5.129
 1376SOL     OW 5026   3.075   4.618   5.923
 1376SOL    HW1 5027   3.050   4.522   5.938
 1376SOL    HW2 5028   3.002   4.664   5.872
 1377SOL     OW 5029   1.164   2.325   3.640
 1377SOL    HW1 5030   1.108   2.325   3.558
 1377SOL    HW2 5031   1.106   2.315   3.721
 1378SOL     OW 5032   5.029   2.743   3.503
 1378SOL    HW1 5033   5.063   2.834   3.524
 1378SOL    HW2 5034   5.067   2.713   3.415
 1379SOL     OW 5035   4.870   5.886   6.331
 1379SOL    HW1 5036   4.965   5.880   6.299
 1379SOL    HW2 5037   4.861   5.838   6.418
 1380SOL     OW 5038   6.989   6.601   4.011
 1380SOL    HW1 5039   6.899   6.642   4.020
 1380SOL    HW2 5040   0.021   6.653   3.943
 1381SOL     OW 5041   6.708   2.759   6.159
 1381SOL    HW1 5042   6.622   2.782   6.204
 1381SOL    HW2 5043   6.699   2.670   6.114
 1382SOL     OW 5044   4.380   2.319   5.708
 1382SOL    HW1 5045   4.358   2.381   5.633
 1382SOL    HW2 5046   4.325   2.236   5.700
 1383SOL     OW 5047   5.417   0.594   0.687
 1383SOL    HW1 5048   5.389   0.679   0.644
 1383SOL    HW2 5049   5.510   0.571   0.659
 1384SOL     OW 5050   5.493   2.122   2.543
 1384SOL    HW1 5051   5.412   2.063   2.553
 1384SOL    HW2 5052   5.468   2.216   2.566
 1385SOL     OW 5053   6.800   6.374   1.763
 1385SOL    HW1 5054   6.844   6.333   1.683
 1385SOL    HW2 5055   6.706   6.396   1.740
 1386SOL     OW 5056   1.901   0.476   4.285
 1386SOL    HW1 5057   1.845   0.407   4.240
 1386SOL    HW2 5058   1.903   0.460   4.383
 1387SOL     OW 5059   1.020   5.915   1.876
 1387SOL    HW1 5060   1.120   5.916   1.882
 1387SOL    HW2 5061   0.992   5.885   1.785
 1388SOL     OW 5062   6.332   1.058   1.916
 1388SOL    HW1 5063   6.344   1.143   1.866
 1388SOL    HW2 5064   6.366   0.981   1.862
 1389SOL     OW 5065   6.468   0.900   1.047
 1389SOL    HW1 5066   6.548   0.867   0.997
 1389SOL    HW2 5067   6.388   0.897   0.986
 1390SOL     OW 5068   1.273   1.680   4.515
 1390SOL    HW1 5069   1.321   1.752   4.464
 1390SOL    HW2 5070   1.328   1.651   4.592
 1391SOL     OW 5071   0.472   3.767   3.833
 1391SOL    HW1 5072   0.478   3.675   3.795
 1391SOL    HW2 5073   0.540   3.778   3.905
 1392SOL     OW 5074   5.174   5.552   3.790
 1392SOL    HW1 5075   5.270   5.570   3.812
 1392SOL    HW2 5076   5.152   5.595   3.702
 1393SOL     OW 5077   3.475   4.741   6.755
 1393SOL    HW1 5078   3.463   4.683   6.836
 1393SOL    HW2 5079   3.445   4.691   6.674
 1394SOL     OW 5080   1.349   0.058   6.601
 1394SOL    HW1 5081   1.344   0.057   6.501
 1394SOL    HW2 5082   1.434   0.103   6.630
 1395SOL     OW 5083   4.127   4.839   6.409
 1395SOL    HW1 5084   4.189   4.826   6.332
 1395SOL    HW2 5085   4.145   4.768   6.478
 1396SOL     OW 5086   5.194   6.131   2.832
 1396SOL    HW1 5087   5.229   6.053   2.779
 1396SOL    HW2 5088   5.100   6.113   2.860
 1397SOL     OW 5089   5.925   5.876   4.875
 1397SOL    HW1 5090   5.904   5.840   4.784
 1397SOL    HW2 5091   5.866   5.831   4.943
 1398SOL     OW 5092   1.888   0.219   5.032
 1398SOL    HW1 5093   1.811   0.281   5.047
 1398SOL    HW2 5094   1.916   0.179   5.120
 1399SOL     OW 5095   2.729   5.505   2.369
 1399SOL    HW1 5096   2.828   5.518   2.358
 1399SOL    HW2 5097   2.687   5.486   2.280
 1400SOL     OW 5098   1.162   0.443   3.501
 1400SOL    HW1 5099   1.115   0.418   3.586
 1400SOL    HW2 5100   1.196   0.536   3.508
 1401SOL     OW 5101   6.642   1.915   4.182
 1401SOL    HW1 5102   6.717   1.981   4.186
 1401SOL    HW2 5103   6.679   1.823   4.194
 1402SOL     OW 5104   5.739   2.124   0.113
 1402SOL    HW1 5105   5.702   2.075   0.034
 1402SOL    HW2 5106   5.823   2.171   0.087
 1403SOL     OW 5107   3.966   1.302   2.002
 1403SOL    HW1 5108   3.945   1.399   2.008
 1403SOL    HW2 5109   4.049   1.282   2.054
 1404SOL     OW 5110   4.547   1.260   6.731
 1404SOL    HW1 5111   4.516   1.182   6.785
 1404SOL    HW2 5112   4.484   1.275   6.655
 1405SOL     OW 5113   4.037   2.605   0.715
 1405SOL    HW1 5114   4.055   2.591   0.618
 1405SOL    HW2 5115   4.092   2.681   0.748
 1406SOL     OW 5116   0.661   3.225   2.072
 1406SOL    HW1 5117   0.671   3.127   2.084
 1406SOL    HW2 5118   0.751   3.268   2.072
 1407SOL     OW 5119   6.654   2.432   2.776
 1407SOL    HW1 5120   6.612   2.345   2.800
 1407SOL    HW2 5121   6.722   2.457   2.845
 1408SOL     OW 5122   6.503   4.661   6.857
 1408SOL    HW1 5123   6.442   4.596   6.902
 1408SOL    HW2 5124   6.579   4.611   6.815
 1409SOL     OW 5125   0.420   1.058   3.888
 1409SOL    HW1 5126   0.328   1.032   3.859
 1409SOL    HW2 5127   0.471   0.977   3.916
 1410SOL     OW 5128   0.150   1.855   6.861
 1410SOL    HW1 5129   0.168   1.833   6.957
 1410SOL    HW2 5130   0.227   1.826   6.805
 1411SOL     OW 5131   1.686   1.361   1.467
 1411SOL    HW1 5132   1.601   1.386   1.420
 1411SOL    HW2 5133   1.762   1.365   1.402
 1412SOL     OW 5134   1.992   2.136   0.847
 1412SOL    HW1 5135   2.001   2.191   0.764
 1412SOL    HW2 5136   1.981   2.196   0.926
 1413SOL     OW 5137   3.125   0.046   3.404
 1413SOL    HW1 5138   3.204   0.011   3.455
 1413SOL    HW2 5139   3.083   0.122   3.455
 1414SOL     OW 5140   1.540   1.042   2.471
 1414SOL    HW1 5141   1.498   1.059   2.382
 1414SOL    HW2 5142   1.638   1.061   2.466
 1415SOL     OW 5143   5.810   6.839   4.882
 1415SOL    HW1 5144   5.871   6.883   4.948
 1415SOL    HW2 5145   5.783   6.749   4.916
 1416SOL     OW 5146   4.558   5.459   3.954
 1416SOL    HW1 5147   4.563   5.416   3.864
 1416SOL    HW2 5148   4.531   5.391   4.022
 1417SOL     OW 5149   3.682   2.950   5.558
 1417SOL    HW1 5150   3.654   2.854   5.567
 1417SOL    HW2 5151   3.753   2.970   5.626
 1418SOL     OW 5152   3.294   4.052   3.896
 1418SOL    HW1 5153   3.342   4.002   3.824
 1418SOL    HW2 5154   3.196   4.056   3.875
 1419SOL     OW 5155   3.188   6.186   3.662
 1419SOL    HW1 5156   3.280   6.160   3.634
 1419SOL    HW2 5157   3.134   6.103   3.679
 1420SOL     OW 5158   0.282   6.525   2.887
 1420SOL    HW1 5159   0.252   6.575   2.968
 1420SOL    HW2 5160   0.381   6.509   2.893
 1421SOL     OW 5161   3.556   1.391   3.064
 1421SOL    HW1 5162   3.491   1.425   2.995
 1421SOL    HW2 5163   3.575   1.464   3.130
 1422SOL     OW 5164   2.689   6.016   0.747
 1422SOL    HW1 5165   2.600   6.061   0.752
 1422SOL    HW2 5166   2.695   5.963   0.662
 1423SOL     OW 5167   4.692   0.550   2.629
 1423SOL    HW1 5168   4.733   0.507   2.548
 1423SOL    HW2 5169   4.641   0.631   2.602
 1424SOL     OW 5170   6.284   5.259   2.251
 1424SOL    HW1 5171   6.200   5.235   2.300
 1424SOL    HW2 5172   6.338   5.176   2.237
 1425SOL     OW 5173   2.138   0.384   4.188
 1425SOL    HW1 5174   2.136   0.422   4.095
 1425SOL    HW2 5175   2.054   0.409   4.236
 1426SOL     OW 5176   1.600   1.301   5.899
 1426SOL    HW1 5177   1.614   1.324   5.803
 1426SOL    HW2 5178   1.552   1.376   5.945
 1427SOL     OW 5179   5.421   2.045   6.068
 1427SOL    HW1 5180   5.364   1.986   6.124
 1427SOL    HW2 5181   5.468   2.112   6.126
 1428SOL     OW 5182   5.946   0.648   0.955
 1428SOL    HW1 5183   5.976   0.739   0.925
 1428SOL    HW2 5184   5.854   0.629   0.920
 1429SOL     OW 5185   5.404   5.989   0.142
 1429SOL    HW1 5186   5.363   5.909   0.186
 1429SOL    HW2 5187   5.399   5.979   0.042
 1430SOL     OW 5188   3.076   4.969   2.383
 1430SOL    HW1 5189   3.031   4.881   2.400
 1430SOL    HW2 5190   3.014   5.044   2.404
 1431SOL     OW 5191   2.082   0.904   0.391
 1431SOL    HW1 5192   2.006   0.846   0.363
 1431SOL    HW2 5193   2.123   0.868   0.474
 1432SOL     OW 5194   3.445   7.018   1.487
 1432SOL    HW1 5195   3.532   7.017   1.437
 1432SOL    HW2 5196   3.374   6.973   1.432
 1433SOL     OW 5197   5.108   6.873   3.346
 1433SOL    HW1 5198   5.196   6.896   3.386
 1433SOL    HW2 5199   5.085   6.778   3.367
 1434SOL     OW 5200   0.722   1.297   5.035
 1434SOL    HW1 5201   0.692   1.266   4.945
 1434SOL    HW2 5202   0.784   1.374   5.025
 1435SOL     OW 5203   6.936   2.177   3.852
 1435SOL    HW1 5204   6.868   2.245   3.880
 1435SOL    HW2 5205   6.890   2.097   3.815
 1436SOL     OW 5206   5.115   3.005   1.514
 1436SOL    HW1 5207   5.044   3.032   1.578
 1436SOL    HW2 5208   5.203   3.001   1.561
 1437SOL     OW 5209   4.809   0.492   2.891
 1437SOL    HW1 5210   4.749   0.545   2.951
 1437SOL    HW2 5211   4.792   0.517   2.796
 1438SOL     OW 5212   2.719   0.144   2.188
 1438SOL    HW1 5213   2.679   0.055   2.210
 1438SOL    HW2 5214   2.712   0.161   2.090
 1439SOL     OW 5215   0.597   6.025   2.215
 1439SOL    HW1 5216   0.511   5.979   2.194
 1439SOL    HW2 5217   0.665   6.002   2.146
 1440SOL     OW 5218   2.579   3.144   1.415
 1440SOL    HW1 5219   2.506   3.096   1.367
 1440SOL    HW2 5220   2.647   3.176   1.348
 1441SOL     OW 5221   4.718   6.500   6.570
 1441SOL    HW1 5222   4.737   6.406   6.601
 1441SOL    HW2 5223   4.657   6.497   6.492
 1442SOL     OW 5224   5.046   5.615   1.722
 1442SOL    HW1 5225   5.050   5.565   1.809
 1442SOL    HW2 5226   4.959   5.594   1.676
 1443SOL     OW 5227   6.750   2.582   2.297
 1443SOL    HW1 5228   6.803   2.505   2.260
 1443SOL    HW2 5229   6.683   2.612   2.229
 1444SOL     OW 5230   0.543   6.664   5.115
 1444SOL    HW1 5231   0.579   6.661   5.022
 1444SOL    HW2 5232   0.608   6.622   5.177
 1445SOL     OW 5233   0.970   2.569   1.263
 1445SOL    HW1 5234   1.016   2.633   1.201
 1445SOL    HW2 5235   0.936   2.491   1.211
 1446SOL     OW 5236   6.302   5.068   1.521
 1446SOL    HW1 5237   6.273   5.046   1.614
 1446SOL    HW2 5238   6.390   5.025   1.502
 1447SOL     OW 5239   0.288   6.595   4.132
 1447SOL    HW1 5240   0.347   6.674   4.149
 1447SOL    HW2 5241   0.193   6.620   4.152
 1448SOL     OW 5242   1.863   1.225   5.302
 1448SOL    HW1 5243   1.777   1.265   5.269
 1448SOL    HW2 5244   1.911   1.293   5.357
 1449SOL     OW 5245   1.879   3.105   2.736
 1449SOL    HW1 5246   1.892   3.049   2.654
 1449SOL    HW2 5247   1.906   3.052   2.817
 1450SOL     OW 5248   3.137   2.125   2.507
 1450SOL    HW1 5249   3.081   2.144   2.427
 1450SOL    HW2 5250   3.213   2.065   2.482
 1451SOL     OW 5251   4.510   1.969   2.764
 1451SOL    HW1 5252   4.470   1.879   2.746
 1451SOL    HW2 5253   4.510   2.022   2.679
 1452SOL     OW 5254   4.400   2.935   5.302
 1452SOL    HW1 5255   4.380   2.847   5.259
 1452SOL    HW2 5256   4.316   2.988   5.312
 1453SOL     OW 5257   1.609   3.304   5.118
 1453SOL    HW1 5258   1.553   3.229   5.154
 1453SOL    HW2 5259   1.687   3.265   5.069
 1454SOL     OW 5260   3.003   2.204   2.305
 1454SOL    HW1 5261   3.028   2.291   2.263
 1454SOL    HW2 5262   2.908   2.208   2.336
 1455SOL     OW 5263   0.291   5.585   2.479
 1455SOL    HW1 5264   0.352   5.600   2.557
 1455SOL    HW2 5265   0.216   5.524   2.506
 1456SOL     OW 5266   6.497   5.522   3.730
 1456SOL    HW1 5267   6.553   5.565   3.801
 1456SOL    HW2 5268   6.459   5.592   3.670
 1457SOL     OW 5269   1.186   5.576   5.637
 1457SOL    HW1 5270   1.135   5.551   5.720
 1457SOL    HW2 5271   1.124   5.614   5.569
 1458SOL     OW 5272   6.845   5.652   4.790
 1458SOL    HW1 5273   6.860   5.741   4.747
 1458SOL    HW2 5274   6.932   5.617   4.825
 1459SOL     OW 5275   0.149   6.224   5.650
 1459SOL    HW1 5276   0.162   6.149   5.585
 1459SOL    HW2 5277   0.081   6.288   5.614
 1460SOL     OW 5278   1.318   6.213   4.945
 1460SOL    HW1 5279   1.280   6.256   4.863
 1460SOL    HW2 5280   1.349   6.121   4.922
 1461SOL     OW 5281   5.869   3.800   3.451
 1461SOL    HW1 5282   5.943   3.736   3.431
 1461SOL    HW2 5283   5.887   3.887   3.405
 1462SOL     OW 5284   1.166   2.171   2.062
 1462SOL    HW1 5285   1.137   2.202   2.153
 1462SOL    HW2 5286   1.089   2.128   2.016
 1463SOL     OW 5287   1.881   4.808   6.735
 1463SOL    HW1 5288   1.801   4.748   6.731
 1463SOL    HW2 5289   1.868   4.886   6.674
 1464SOL     OW 5290   0.850   4.416   5.773
 1464SOL    HW1 5291   0.841   4.360   5.856
 1464SOL    HW2 5292   0.766   4.467   5.757
 1465SOL     OW 5293   1.242   2.937   5.806
 1465SOL    HW1 5294   1.326   2.886   5.823
 1465SOL    HW2 5295   1.187   2.887   5.738
 1466SOL     OW 5296   5.735   0.871   2.764
 1466SOL    HW1 5297   5.640   0.850   2.786
 1466SOL    HW2 5298   5.738   0.942   2.694
 1467SOL     OW 5299   0.062   0.330   3.949
 1467SOL    HW1 5300   0.028   0.398   4.014
 1467SOL    HW2 5301   0.140   0.368   3.899
 1468SOL     OW 5302   3.376   6.757   3.771
 1468SOL    HW1 5303   3.393   6.669   3.725
 1468SOL    HW2 5304   3.454   6.778   3.830
 1469SOL     OW 5305   5.546   4.439   3.158
 1469SOL    HW1 5306   5.504   4.349   3.150
 1469SOL    HW2 5307   5.599   4.443   3.242
 1470SOL     OW 5308   6.045   1.701   1.993
 1470SOL    HW1 5309   5.987   1.621   2.008
 1470SOL    HW2 5310   5.988   1.781   1.977
 1471SOL     OW 5311   5.065   6.831   0.065
 1471SOL    HW1 5312   4.992   6.819   0.133
 1471SOL    HW2 5313   5.057   6.761   7.015
 1472SOL     OW 5314   2.722   0.853   6.955
 1472SOL    HW1 5315   2.659   0.891   6.887
 1472SOL    HW2 5316   2.816   0.877   6.931
 1473SOL     OW 5317   1.576   5.644   3.273
 1473SOL    HW1 5318   1.657   5.608   3.319
 1473SOL    HW2 5319   1.551   5.584   3.197
 1474SOL     OW 5320   1.700   4.312   1.669
 1474SOL    HW1 5321   1.680   4.270   1.757
 1474SOL    HW2 5322   1.710   4.241   1.600
 1475SOL     OW 5323   6.710   0.057   6.507
 1475SOL    HW1 5324   6.761   0.090   6.587
 1475SOL    HW2 5325   6.773   0.010   6.445
 1476SOL     OW 5326   5.965   0.191   6.805
 1476SOL    HW1 5327   6.013   0.104   6.793
 1476SOL    HW2 5328   6.014   0.263   6.755
 1477SOL     OW 5329   3.302   4.116   1.797
 1477SOL    HW1 5330   3.367   4.164   1.738
 1477SOL    HW2 5331   3.211   4.158   1.788
 1478SOL     OW 5332   4.690   4.162   6.531
 1478SOL    HW1 5333   4.593   4.149   6.509
 1478SOL    HW2 5334   4.721   4.249   6.494
 1479SOL     OW 5335   4.754   4.876   0.888
 1479SOL    HW1 5336   4.677   4.915   0.837
 1479SOL    HW2 5337   4.770   4.930   0.970
 1480SOL     OW 5338   2.993   1.851   3.422
 1480SOL    HW1 5339   2.923   1.922   3.427
 1480SOL    HW2 5340   2.997   1.801   3.508
 1481SOL     OW 5341   4.100   1.803   5.439
 1481SOL    HW1 5342   4.156   1.728   5.474
 1481SOL    HW2 5343   4.147   1.846   5.362
 1482SOL     OW 5344   6.560   1.364   1.392
 1482SOL    HW1 5345   6.556   1.464   1.382
 1482SOL    HW2 5346   6.530   1.321   1.307
 1483SOL     OW 5347   6.188   6.287   0.618
 1483SOL    HW1 5348   6.263   6.222   0.606
 1483SOL    HW2 5349   6.117   6.270   0.550
 1484SOL     OW 5350   2.965   6.437   5.344
 1484SOL    HW1 5351   2.938   6.406   5.435
 1484SOL    HW2 5352   2.890   6.489   5.303
 1485SOL     OW 5353   5.149   3.720   3.648
 1485SOL    HW1 5354   5.182   3.669   3.569
 1485SOL    HW2 5355   5.146   3.659   3.728
 1486SOL     OW 5356   5.823   6.132   3.988
 1486SOL    HW1 5357   5.805   6.190   4.068
 1486SOL    HW2 5358   5.852   6.190   3.911
 1487SOL     OW 5359   5.861   0.771   6.951
 1487SOL    HW1 5360   5.877   0.723   0.016
 1487SOL    HW2 5361   5.790   0.840   6.964
 1488SOL     OW 5362   6.471   2.960   2.337
 1488SOL    HW1 5363   6.428   2.999   2.418
 1488SOL    HW2 5364   6.557   2.917   2.362
 1489SOL     OW 5365   3.187   5.686   0.209
 1489SOL    HW1 5366   3.278   5.658   0.241
 1489SOL    HW2 5367   3.121   5.614   0.230
 1490SOL     OW 5368   5.845   2.746   1.947
 1490SOL    HW1 5369   5.861   2.705   1.857
 1490SOL    HW2 5370   5.780   2.690   1.997
 1491SOL     OW 5371   5.432   3.225   4.565
 1491SOL    HW1 5372   5.521   3.262   4.591
 1491SOL    HW2 5373   5.373   3.299   4.532
 1492SOL     OW 5374   0.986   2.907   1.831
 1492SOL    HW1 5375   1.081   2.879   1.845
 1492SOL    HW2 5376   0.982   3.006   1.813
 1493SOL     OW 5377   6.191   1.946   6.300
 1493SOL    HW1 5378   6.229   2.036   6.325
 1493SOL    HW2 5379   6.228   1.917   6.212
 1494SOL     OW 5380   1.534   3.103   6.611
 1494SOL    HW1 5381   1.455   3.087   6.670
 1494SOL    HW2 5382   1.618   3.100   6.666
 1495SOL     OW 5383   5.874   4.187   4.123
 1495SOL    HW1 5384   5.838   4.103   4.164
 1495SOL    HW2 5385   5.973   4.179   4.112
 1496SOL     OW 5386   6.629   6.272   5.578
 1496SOL    HW1 5387   6.701   6.203   5.579
 1496SOL    HW2 5388   6.552   6.241   5.633
 1497SOL     OW 5389   4.505   2.445   2.582
 1497SOL    HW1 5390   4.542   2.513   2.518
 1497SOL    HW2 5391   4.414   2.418   2.552
 1498SOL     OW 5392   3.646   4.219   0.825
 1498SOL    HW1 5393   3.635   4.192   0.921
 1498SOL    HW2 5394   3.707   4.154   0.780
 1499SOL     OW 5395   0.937   4.693   4.222
 1499SOL    HW1 5396   0.923   4.743   4.136
 1499SOL    HW2 5397   1.035   4.679   4.236
 1500SOL     OW 5398   2.345   5.413   1.611
 1500SOL    HW1 5399   2.324   5.416   1.513
 1500SOL    HW2 5400   2.302   5.491   1.656
 1501SOL     OW 5401   5.405   1.064   1.372
 1501SOL    HW1 5402   5.310   1.074   1.400
 1501SOL    HW2 5403   5.451   1.153   1.380
 1502SOL     OW 5404   0.914   6.244   6.111
 1502SOL    HW1 5405   0.828   6.201   6.086
 1502SOL    HW2 5406   0.986   6.174   6.116
 1503SOL     OW 5407   6.230   5.746   2.178
 1503SOL    HW1 5408   6.208   5.653   2.147
 1503SOL    HW2 5409   6.145   5.795   2.198
 1504SOL     OW 5410   1.547   6.712   3.871
 1504SOL    HW1 5411   1.596   6.625   3.879
 1504SOL    HW2 5412   1.508   6.720   3.779
 1505SOL     OW 5413   6.846   4.237   4.965
 1505SOL    HW1 5414   6.823   4.331   4.938
 1505SOL    HW2 5415   6.771   4.199   5.019
 1506SOL     OW 5416   0.975   1.026   0.688
 1506SOL    HW1 5417   0.903   0.958   0.698
 1506SOL    HW2 5418   1.060   0.991   0.727
 1507SOL     OW 5419   2.154   2.219   3.780
 1507SOL    HW1 5420   2.150   2.157   3.701
 1507SOL    HW2 5421   2.062   2.253   3.800
 1508SOL     OW 5422   1.252   0.657   1.577
 1508SOL    HW1 5423   1.303   0.743   1.580
 1508SOL    HW2 5424   1.158   0.675   1.550
 1509SOL     OW 5425   4.195   1.077   4.595
 1509SOL    HW1 5426   4.195   0.994   4.540
 1509SOL    HW2 5427   4.203   1.052   4.692
 1510SOL     OW 5428   2.507   6.879   5.389
 1510SOL    HW1 5429   2.435   6.925   5.441
 1510SOL    HW2 5430   2.594   6.887   5.438
 1511SOL     OW 5431   3.938   4.005   5.124
 1511SOL    HW1 5432   3.925   4.024   5.027
 1511SOL    HW2 5433   4.006   3.933   5.135
 1512SOL     OW 5434   5.725   6.959   1.108
 1512SOL    HW1 5435   5.823   6.977   1.100
 1512SOL    HW2 5436   5.690   6.929   1.020
 1513SOL     OW 5437   3.239   6.389   5.225
 1513SOL    HW1 5438   3.322   6.336   5.213
 1513SOL    HW2 5439   3.220   6.401   5.323
 1514SOL     OW 5440   3.040   1.891   0.110
 1514SOL    HW1 5441   3.010   1.797   0.095
 1514SOL    HW2 5442   2.960   1.951   0.114
 1515SOL     OW 5443   3.750   0.831   1.559
 1515SOL    HW1 5444   3.731   0.843   1.462
 1515SOL    HW2 5445   3.669   0.858   1.612
 1516SOL     OW 5446   0.109   6.698   6.606
 1516SOL    HW1 5447   0.116   6.729   6.701
 1516SOL    HW2 5448   0.077   6.603   6.604
 1517SOL     OW 5449   2.069   6.483   2.622
 1517SOL    HW1 5450   1.985   6.494   2.675
 1517SOL    HW2 5451   2.139   6.439   2.678
 1518SOL     OW 5452   1.833   2.561   6.362
 1518SOL    HW1 5453   1.817   2.542   6.459
 1518SOL    HW2 5454   1.890   2.642   6.352
 1519SOL     OW 5455   0.586   4.161   6.924
 1519SOL    HW1 5456   0.645   4.133   6.848
 1519SOL    HW2 5457   0.590   4.261   6.934
 1520SOL     OW 5458   6.751   6.587   3.296
 1520SOL    HW1 5459   6.685   6.567   3.368
 1520SOL    HW2 5460   6.763   6.507   3.238
 1521SOL     OW 5461   2.637   4.832   0.123
 1521SOL    HW1 5462   2.619   4.796   0.032
 1521SOL    HW2 5463   2.649   4.756   0.187
 1522SOL     OW 5464   5.905   6.286   3.746
 1522SOL    HW1 5465   5.997   6.327   3.748
 1522SOL    HW2 5466   5.895   6.232   3.663
 1523SOL     OW 5467   2.909   6.794   0.278
 1523SOL    HW1 5468   2.934   6.702   0.249
 1523SOL    HW2 5469   2.810   6.807   0.267
 1524SOL     OW 5470   2.034   2.609   4.454
 1524SOL    HW1 5471   2.133   2.602   4.464
 1524SOL    HW2 5472   1.993   2.518   4.461
 1525SOL     OW 5473   6.295   3.821   0.296
 1525SOL    HW1 5474   6.367   3.781   0.352
 1525SOL    HW2 5475   6.206   3.804   0.339
 1526SOL     OW 5476   0.869   1.271   1.668
 1526SOL    HW1 5477   0.790   1.333   1.662
 1526SOL    HW2 5478   0.934   1.306   1.735
 1527SOL     OW 5479   5.102   1.167   4.391
 1527SOL    HW1 5480   5.044   1.192   4.314
 1527SOL    HW2 5481   5.148   1.080   4.371
 1528SOL     OW 5482   2.953   3.579   2.083
 1528SOL    HW1 5483   2.926   3.505   2.144
 1528SOL    HW2 5484   3.049   3.568   2.057
 1529SOL     OW 5485   3.999   0.984   5.720
 1529SOL    HW1 5486   4.045   0.952   5.638
 1529SOL    HW2 5487   3.984   0.908   5.783
 1530SOL     OW 5488   2.937   6.817   2.187
 1530SOL    HW1 5489   2.910   6.881   2.114
 1530SOL    HW2 5490   2.968   6.869   2.267
 1531SOL     OW 5491   5.607   5.978   4.521
 1531SOL    HW1 5492   5.656   6.059   4.552
 1531SOL    HW2 5493   5.673   5.912   4.484
 1532SOL     OW 5494   2.674   5.384   2.109
 1532SOL    HW1 5495   2.580   5.417   2.096
 1532SOL    HW2 5496   2.693   5.313   2.041
 1533SOL     OW 5497   5.527   6.017   1.525
 1533SOL    HW1 5498   5.560   5.976   1.440
 1533SOL    HW2 5499   5.429   6.036   1.518
 1534SOL     OW 5500   2.562   5.239   6.688
 1534SOL    HW1 5501   2.618   5.163   6.721
 1534SOL    HW2 5502   2.600   5.325   6.718
 1535SOL     OW 5503   4.745   4.765   3.556
 1535SOL    HW1 5504   4.752   4.687   3.620
 1535SOL    HW2 5505   4.697   4.736   3.474
 1536SOL     OW 5506   4.381   4.429   6.503
 1536SOL    HW1 5507   4.360   4.522   6.533
 1536SOL    HW2 5508   4.318   4.364   6.548
 1537SOL     OW 5509   3.124   5.957   2.034
 1537SOL    HW1 5510   3.089   6.009   2.111
 1537SOL    HW2 5511   3.199   6.006   1.990
 1538SOL     OW 5512   2.341   1.494   0.743
 1538SOL    HW1 5513   2.349   1.586   0.706
 1538SOL    HW2 5514   2.341   1.428   0.668
 1539SOL     OW 5515   0.429   2.927   0.823
 1539SOL    HW1 5516   0.397   2.846   0.773
 1539SOL    HW2 5517   0.351   2.971   0.867
 1540SOL     OW 5518   3.213   5.468   3.167
 1540SOL    HW1 5519   3.160   5.464   3.252
 1540SOL    HW2 5520   3.282   5.396   3.167
 1541SOL     OW 5521   4.834   2.537   5.413
 1541SOL    HW1 5522   4.892   2.615   5.390
 1541SOL    HW2 5523   4.810   2.541   5.509
 1542SOL     OW 5524   0.960   4.578   2.812
 1542SOL    HW1 5525   0.984   4.517   2.888
 1542SOL    HW2 5526   0.948   4.671   2.846
 1543SOL     OW 5527   4.245   4.909   0.985
 1543SOL    HW1 5528   4.319   4.843   0.980
 1543SOL    HW2 5529   4.182   4.895   0.908
 1544SOL     OW 5530   3.822   2.972   4.025
 1544SOL    HW1 5531   3.910   3.004   3.990
 1544SOL    HW2 5532   3.797   3.024   4.107
 1545SOL     OW 5533   6.478   4.810   0.854
 1545SOL    HW1 5534   6.386   4.775   0.872
 1545SOL    HW2 5535   6.543   4.734   0.858
 1546SOL     OW 5536   6.230   6.346   5.464
 1546SOL    HW1 5537   6.147   6.295   5.441
 1546SOL    HW2 5538   6.280   6.297   5.535
 1547SOL     OW 5539   1.832   2.783   6.653
 1547SOL    HW1 5540   1.793   2.832   6.574
 1547SOL    HW2 5541   1.861   2.850   6.722
 1548SOL     OW 5542   0.171   2.612   0.322
 1548SOL    HW1 5543   0.257   2.561   0.333
 1548SOL    HW2 5544   0.098   2.565   0.372
 1549SOL     OW 5545   5.007   0.558   4.198
 1549SOL    HW1 5546   5.034   0.595   4.109
 1549SOL    HW2 5547   4.907   0.553   4.203
 1550SOL     OW 5548   2.992   3.799   4.583
 1550SOL    HW1 5549   2.944   3.712   4.567
 1550SOL    HW2 5550   2.985   3.823   4.679
 1551SOL     OW 5551   6.973   5.234   5.875
 1551SOL    HW1 5552   6.969   5.300   5.950
 1551SOL    HW2 5553   0.025   5.260   5.812
 1552SOL     OW 5554   2.286   4.215   1.059
 1552SOL    HW1 5555   2.335   4.302   1.065
 1552SOL    HW2 5556   2.265   4.182   1.151
 1553SOL     OW 5557   1.249   2.052   5.586
 1553SOL    HW1 5558   1.254   1.998   5.501
 1553SOL    HW2 5559   1.163   2.103   5.587
 1554SOL     OW 5560   4.439   1.938   3.574
 1554SOL    HW1 5561   4.536   1.921   3.587
 1554SOL    HW2 5562   4.425   1.997   3.494
 1555SOL     OW 5563   6.404   4.560   5.260
 1555SOL    HW1 5564   6.467   4.623   5.306
 1555SOL    HW2 5565   6.401   4.474   5.309
 1556SOL     OW 5566   1.965   1.018   5.459
 1556SOL    HW1 5567   1.977   0.933   5.407
 1556SOL    HW2 5568   1.906   1.080   5.408
 1557SOL     OW 5569   1.417   1.462   6.016
 1557SOL    HW1 5570   1.392   1.559   6.017
 1557SOL    HW2 5571   1.391   1.421   6.103
 1558SOL     OW 5572   6.731   6.893   4.244
 1558SOL    HW1 5573   6.707   6.863   4.336
 1558SOL    HW2 5574   6.730   6.993   4.240
 1559SOL     OW 5575   2.001   0.939   6.235
 1559SOL    HW1 5576   1.902   0.939   6.249
 1559SOL    HW2 5577   2.021   0.968   6.142
 1560SOL     OW 5578   6.954   0.560   1.374
 1560SOL    HW1 5579   7.010   0.505   1.435
 1560SOL    HW2 5580   6.899   0.501   1.315
 1561SOL     OW 5581   6.202   6.264   1.884
 1561SOL    HW1 5582   6.249   6.176   1.872
 1561SOL    HW2 5583   6.151   6.263   1.969
 1562SOL     OW 5584   5.413   6.842   4.737
 1562SOL    HW1 5585   5.331   6.882   4.695
 1562SOL    HW2 5586   5.470   6.802   4.665
 1563SOL     OW 5587   2.940   6.789   6.205
 1563SOL    HW1 5588   2.886   6.788   6.289
 1563SOL    HW2 5589   2.973   6.697   6.185
 1564SOL     OW 5590   1.949   3.001   2.988
 1564SOL    HW1 5591   2.048   2.989   2.999
 1564SOL    HW2 5592   1.912   3.051   3.066
 1565SOL     OW 5593   6.297   4.514   1.163
 1565SOL    HW1 5594   6.273   4.611   1.169
 1565SOL    HW2 5595   6.319   4.491   1.069
 1566SOL     OW 5596   5.765   4.279   2.046
 1566SOL    HW1 5597   5.673   4.270   2.010
 1566SOL    HW2 5598   5.790   4.375   2.052
 1567SOL     OW 5599   6.773   5.540   5.527
 1567SOL    HW1 5600   6.827   5.456   5.524
 1567SOL    HW2 5601   6.755   5.564   5.623
 1568SOL     OW 5602   0.549   6.586   1.006
 1568SOL    HW1 5603   0.538   6.519   1.080
 1568SOL    HW2 5604   0.585   6.671   1.043
 1569SOL     OW 5605   4.102   5.641   4.802
 1569SOL    HW1 5606   4.115   5.542   4.801
 1569SOL    HW2 5607   4.137   5.680   4.716
 1570SOL     OW 5608   2.679   2.018   1.542
 1570SOL    HW1 5609   2.762   1.995   1.593
 1570SOL    HW2 5610   2.657   2.114   1.556
 1571SOL     OW 5611   0.272   2.821   6.408
 1571SOL    HW1 5612   0.210   2.899   6.412
 1571SOL    HW2 5613   0.287   2.796   6.312
 1572SOL     OW 5614   0.763   5.536   4.036
 1572SOL    HW1 5615   0.720   5.463   3.984
 1572SOL    HW2 5616   0.733   5.531   4.131
 1573SOL     OW 5617   4.369   0.199   0.315
 1573SOL    HW1 5618   4.323   0.207   0.227
 1573SOL    HW2 5619   4.418   0.284   0.335
 1574SOL     OW 5620   5.067   3.512   2.230
 1574SOL    HW1 5621   5.028   3.603   2.243
 1574SOL    HW2 5622   5.019   3.465   2.157
 1575SOL     OW 5623   3.296   2.752   0.141
 1575SOL    HW1 5624   3.356   2.673   0.125
 1575SOL    HW2 5625   3.351   2.834   0.153
 1576SOL     OW 5626   6.240   5.160   3.155
 1576SOL    HW1 5627   6.174   5.212   3.100
 1576SOL    HW2 5628   6.191   5.101   3.219
 1577SOL     OW 5629   1.734   0.388   0.839
 1577SOL    HW1 5630   1.742   0.289   0.832
 1577SOL    HW2 5631   1.813   0.431   0.795
 1578SOL     OW 5632   5.837   6.164   4.923
 1578SOL    HW1 5633   5.853   6.212   4.837
 1578SOL    HW2 5634   5.855   6.066   4.910
 1579SOL     OW 5635   6.839   1.211   3.373
 1579SOL    HW1 5636   6.764   1.174   3.427
 1579SOL    HW2 5637   6.891   1.136   3.331
 1580SOL     OW 5638   3.694   3.821   5.393
 1580SOL    HW1 5639   3.680   3.724   5.414
 1580SOL    HW2 5640   3.778   3.852   5.438
 1581SOL     OW 5641   6.193   3.316   4.488
 1581SOL    HW1 5642   6.246   3.331   4.571
 1581SOL    HW2 5643   6.204   3.394   4.426
 1582SOL     OW 5644   6.271   6.428   4.168
 1582SOL    HW1 5645   6.232   6.437   4.260
 1582SOL    HW2 5646   6.217   6.483   4.104
 1583SOL     OW 5647   2.530   3.245   0.765
 1583SOL    HW1 5648   2.438   3.244   0.804
 1583SOL    HW2 5649   2.594   3.203   0.829
 1584SOL     OW 5650   1.778   0.021   6.501
 1584SOL    HW1 5651   1.877   0.013   6.507
 1584SOL    HW2 5652   1.735   6.991   6.576
 1585SOL     OW 5653   5.654   1.088   5.695
 1585SOL    HW1 5654   5.614   1.100   5.604
 1585SOL    HW2 5655   5.681   0.993   5.708
 1586SOL     OW 5656   4.087   3.719   2.986
 1586SOL    HW1 5657   4.104   3.622   3.004
 1586SOL    HW2 5658   4.147   3.750   2.912
 1587SOL     OW 5659   1.749   6.936   5.565
 1587SOL    HW1 5660   1.751   0.004   5.611
 1587SOL    HW2 5661   1.805   6.940   5.482
 1588SOL     OW 5662   6.849   4.038   0.648
 1588SOL    HW1 5663   6.771   4.017   0.706
 1588SOL    HW2 5664   6.922   4.079   0.704
 1589SOL     OW 5665   5.232   5.033   2.798
 1589SOL    HW1 5666   5.206   4.937   2.789
 1589SOL    HW2 5667   5.323   5.047   2.759
 1590SOL     OW 5668   2.300   6.214   4.509
 1590SOL    HW1 5669   2.333   6.180   4.597
 1590SOL    HW2 5670   2.315   6.145   4.438
 1591SOL     OW 5671   2.372   3.618   0.553
 1591SOL    HW1 5672   2.327   3.698   0.512
 1591SOL    HW2 5673   2.345   3.536   0.503
 1592SOL     OW 5674   3.584   3.831   4.038
 1592SOL    HW1 5675   3.520   3.836   4.115
 1592SOL    HW2 5676   3.550   3.764   3.971
 1593SOL     OW 5677   1.061   4.916   3.815
 1593SOL    HW1 5678   1.073   4.967   3.730
 1593SOL    HW2 5679   0.968   4.930   3.850
 1594SOL     OW 5680   0.643   5.508   2.609
 1594SOL    HW1 5681   0.723   5.536   2.663
 1594SOL    HW2 5682   0.671   5.493   2.514
 1595SOL     OW 5683   6.325   3.235   4.980
 1595SOL    HW1 5684   6.252   3.175   4.947
 1595SOL    HW2 5685   6.286   3.310   5.033
 1596SOL     OW 5686   3.609   4.912   6.289
 1596SOL    HW1 5687   3.682   4.962   6.243
 1596SOL    HW2 5688   3.521   4.936   6.248
 1597SOL     OW 5689   2.525   6.663   1.144
 1597SOL    HW1 5690   2.435   6.703   1.130
 1597SOL    HW2 5691   2.533   6.579   1.091
 1598SOL     OW 5692   6.743   5.417   1.908
 1598SOL    HW1 5693   6.703   5.487   1.966
 1598SOL    HW2 5694   6.724   5.438   1.812
 1599SOL     OW 5695   3.397   5.208   0.422
 1599SOL    HW1 5696   3.373   5.135   0.486
 1599SOL    HW2 5697   3.420   5.291   0.473
 1600SOL     OW 5698   3.438   1.320   4.954
 1600SOL    HW1 5699   3.352   1.368   4.936
 1600SOL    HW2 5700   3.474   1.284   4.869
 1601SOL     OW 5701   1.563   5.350   5.023
 1601SOL    HW1 5702   1.479   5.297   5.037
 1601SOL    HW2 5703   1.623   5.302   4.959
 1602SOL     OW 5704   6.795   3.051   1.658
 1602SOL    HW1 5705   6.854   3.126   1.628
 1602SOL    HW2 5706   6.851   2.972   1.680
 1603SOL     OW 5707   6.063   6.986   1.165
 1603SOL    HW1 5708   6.094   0.039   1.104
 1603SOL    HW2 5709   6.073   6.898   1.119
 1604SOL     OW 5710   1.254   5.256   3.846
 1604SOL    HW1 5711   1.278   5.171   3.892
 1604SOL    HW2 5712   1.248   5.329   3.914
 1605SOL     OW 5713   5.180   5.066   1.946
 1605SOL    HW1 5714   5.227   5.153   1.960
 1605SOL    HW2 5715   5.098   5.062   2.004
 1606SOL     OW 5716   6.371   5.144   4.722
 1606SOL    HW1 5717   6.321   5.187   4.647
 1606SOL    HW2 5718   6.369   5.205   4.801
 1607SOL     OW 5719   5.794   3.739   1.643
 1607SOL    HW1 5720   5.731   3.797   1.694
 1607SOL    HW2 5721   5.855   3.795   1.587
 1608SOL     OW 5722   2.237   6.929   0.657
 1608SOL    HW1 5723   2.146   6.891   0.635
 1608SOL    HW2 5724   2.237   6.962   0.751
 1609SOL     OW 5725   5.927   2.281   5.521
 1609SOL    HW1 5726   6.026   2.274   5.528
 1609SOL    HW2 5727   5.893   2.349   5.585
 1610SOL     OW 5728   4.245   0.036   3.718
 1610SOL    HW1 5729   4.265   0.001   3.809
 1610SOL    HW2 5730   4.213   0.130   3.724
 1611SOL     OW 5731   4.495   3.415   1.611
 1611SOL    HW1 5732   4.514   3.504   1.653
 1611SOL    HW2 5733   4.410   3.378   1.648
 1612SOL     OW 5734   3.050   6.995   4.711
 1612SOL    HW1 5735   3.053   6.895   4.723
 1612SOL    HW2 5736   3.142   0.009   4.698
 1613SOL     OW 5737   2.476   0.103   1.836
 1613SOL    HW1 5738   2.440   0.010   1.825
 1613SOL    HW2 5739   2.469   0.152   1.750
 1614SOL     OW 5740   6.934   1.812   5.347
 1614SOL    HW1 5741   7.009   1.780   5.406
 1614SOL    HW2 5742   6.919   1.746   5.273
 1615SOL     OW 5743   6.547   5.446   5.414
 1615SOL    HW1 5744   6.475   5.446   5.484
 1615SOL    HW2 5745   6.627   5.495   5.448
 1616SOL     OW 5746   2.381   2.146   5.599
 1616SOL    HW1 5747   2.328   2.062   5.608
 1616SOL    HW2 5748   2.399   2.184   5.690
 1617SOL     OW 5749   3.114   1.135   3.042
 1617SOL    HW1 5750   3.021   1.100   3.051
 1617SOL    HW2 5751   3.167   1.073   2.984
 1618SOL     OW 5752   5.155   2.758   1.902
 1618SOL    HW1 5753   5.080   2.822   1.919
 1618SOL    HW2 5754   5.241   2.809   1.896
 1619SOL     OW 5755   1.843   3.355   4.771
 1619SOL    HW1 5756   1.754   3.357   4.726
 1619SOL    HW2 5757   1.914   3.387   4.708
 1620SOL     OW 5758   3.685   5.945   1.278
 1620SOL    HW1 5759   3.678   6.044   1.282
 1620SOL    HW2 5760   3.621   5.903   1.343
 1621SOL     OW 5761   2.718   2.306   1.385
 1621SOL    HW1 5762   2.774   2.366   1.442
 1621SOL    HW2 5763   2.689   2.355   1.303
 1622SOL     OW 5764   2.291   2.797   5.585
 1622SOL    HW1 5765   2.329   2.882   5.548
 1622SOL    HW2 5766   2.195   2.812   5.609
 1623SOL     OW 5767   2.276   2.282   4.519
 1623SOL    HW1 5768   2.251   2.253   4.611
 1623SOL    HW2 5769   2.303   2.379   4.520
 1624SOL     OW 5770   1.947   0.506   0.275
 1624SOL    HW1 5771   1.977   0.465   0.189
 1624SOL    HW2 5772   1.926   0.603   0.260
 1625SOL     OW 5773   1.645   6.981   0.822
 1625SOL    HW1 5774   1.647   6.890   0.782
 1625SOL    HW2 5775   1.631   6.975   0.920
 1626SOL     OW 5776   2.378   3.742   6.315
 1626SOL    HW1 5777   2.329   3.813   6.365
 1626SOL    HW2 5778   2.334   3.726   6.227
 1627SOL     OW 5779   4.604   4.347   3.094
 1627SOL    HW1 5780   4.577   4.373   3.187
 1627SOL    HW2 5781   4.651   4.259   3.096
 1628SOL     OW 5782   3.841   3.211   0.254
 1628SOL    HW1 5783   3.776   3.167   0.193
 1628SOL    HW2 5784   3.845   3.309   0.233
 1629SOL     OW 5785   2.104   2.617   3.145
 1629SOL    HW1 5786   2.139   2.702   3.107
 1629SOL    HW2 5787   2.169   2.543   3.127
 1630SOL     OW 5788   5.832   4.690   4.407
 1630SOL    HW1 5789   5.750   4.745   4.396
 1630SOL    HW2 5790   5.911   4.750   4.421
 1631SOL     OW 5791   1.130   0.560   5.350
 1631SOL    HW1 5792   1.036   0.530   5.368
 1631SOL    HW2 5793   1.179   0.568   5.436
 1632SOL     OW 5794   3.984   6.821   6.887
 1632SOL    HW1 5795   4.058   6.757   6.869
 1632SOL    HW2 5796   3.937   6.843   6.801
 1633SOL     OW 5797   6.422   4.167   2.841
 1633SOL    HW1 5798   6.395   4.255   2.801
 1633SOL    HW2 5799   6.521   4.156   2.834
 1634SOL     OW 5800   3.915   0.755   1.155
 1634SOL    HW1 5801   3.841   0.794   1.211
 1634SOL    HW2 5802   3.947   0.671   1.197
 1635SOL     OW 5803   2.145   3.884   3.673
 1635SOL    HW1 5804   2.162   3.973   3.714
 1635SOL    HW2 5805   2.139   3.893   3.573
 1636SOL     OW 5806   2.358   6.516   0.720
 1636SOL    HW1 5807   2.424   6.457   0.766
 1636SOL    HW2 5808   2.347   6.601   0.773
 1637SOL     OW 5809   1.165   3.007   2.284
 1637SOL    HW1 5810   1.078   3.034   2.328
 1637SOL    HW2 5811   1.209   2.937   2.340
 1638SOL     OW 5812   0.541   2.599   5.618
 1638SOL    HW1 5813   0.548   2.616   5.520
 1638SOL    HW2 5814   0.571   2.680   5.668
 1639SOL     OW 5815   3.409   5.241   2.952
 1639SOL    HW1 5816   3.372   5.323   2.908
 1639SOL    HW2 5817   3.335   5.184   2.986
 1640SOL     OW 5818   5.530   7.002   0.863
 1640SOL    HW1 5819   5.602   0.027   0.811
 1640SOL    HW2 5820   5.558   6.908   0.882
 1641SOL     OW 5821   6.329   2.512   4.630
 1641SOL    HW1 5822   6.234   2.537   4.609
 1641SOL    HW2 5823   6.391   2.564   4.571
 1642SOL     OW 5824   0.388   2.450   1.366
 1642SOL    HW1 5825   0.384   2.365   1.314
 1642SOL    HW2 5826   0.474   2.453   1.418
 1643SOL     OW 5827   4.258   0.539   5.322
 1643SOL    HW1 5828   4.196   0.526   5.399
 1643SOL    HW2 5829   4.353   0.526   5.352
 1644SOL     OW 5830   3.772   1.795   1.074
 1644SOL    HW1 5831   3.805   1.740   1.150
 1644SOL    HW2 5832   3.687   1.840   1.100
 1645SOL     OW 5833   2.234   5.772   5.603
 1645SOL    HW1 5834   2.289   5.742   5.525
 1645SOL    HW2 5835   2.264   5.864   5.632
 1646SOL     OW 5836   2.903   3.534   0.515
 1646SOL    HW1 5837   2.818   3.558   0.563
 1646SOL    HW2 5838   2.883   3.517   0.419
 1647SOL     OW 5839   6.079   3.077   1.967
 1647SOL    HW1 5840   6.032   3.165   1.957
 1647SOL    HW2 5841   6.148   3.084   2.039
 1648SOL     OW 5842   2.717   0.636   3.695
 1648SOL    HW1 5843   2.781   0.565   3.726
 1648SOL    HW2 5844   2.769   0.713   3.657
 1649SOL     OW 5845   2.928   0.419   4.654
 1649SOL    HW1 5846   2.946   0.494   4.591
 1649SOL    HW2 5847   2.970   0.439   4.743
 1650SOL     OW 5848   2.734   6.830   4.222
 1650SOL    HW1 5849   2.819   6.881   4.212
 1650SOL    HW2 5850   2.660   6.894   4.246
 1651SOL     OW 5851   1.390   6.639   2.508
 1651SOL    HW1 5852   1.313   6.675   2.562
 1651SOL    HW2 5853   1.460   6.603   2.570
 1652SOL     OW 5854   3.835   3.334   1.126
 1652SOL    HW1 5855   3.771   3.401   1.089
 1652SOL    HW2 5856   3.879   3.371   1.208
 1653SOL     OW 5857   1.114   4.526   0.849
 1653SOL    HW1 5858   1.021   4.545   0.818
 1653SOL    HW2 5859   1.155   4.456   0.790
 1654SOL     OW 5860   0.940   2.553   3.640
 1654SOL    HW1 5861   0.898   2.620   3.578
 1654SOL    HW2 5862   1.038   2.547   3.621
 1655SOL     OW 5863   4.180   4.269   5.343
 1655SOL    HW1 5864   4.214   4.314   5.426
 1655SOL    HW2 5865   4.207   4.323   5.263
 1656SOL     OW 5866   0.102   3.392   2.000
 1656SOL    HW1 5867   0.060   3.400   1.910
 1656SOL    HW2 5868   0.046   3.439   2.068
 1657SOL     OW 5869   0.960   0.710   5.910
 1657SOL    HW1 5870   0.906   0.763   5.845
 1657SOL    HW2 5871   0.898   0.660   5.971
 1658SOL     OW 5872   6.053   6.490   3.381
 1658SOL    HW1 5873   6.093   6.472   3.291
 1658SOL    HW2 5874   5.958   6.458   3.383
 1659SOL     OW 5875   5.874   2.511   6.383
 1659SOL    HW1 5876   5.788   2.561   6.371
 1659SOL    HW2 5877   5.946   2.575   6.409
 1660SOL     OW 5878   2.514   5.561   3.806
 1660SOL    HW1 5879   2.569   5.493   3.758
 1660SOL    HW2 5880   2.418   5.538   3.797
 1661SOL     OW 5881   2.432   1.005   3.573
 1661SOL    HW1 5882   2.380   1.089   3.557
 1661SOL    HW2 5883   2.530   1.026   3.573
 1662SOL     OW 5884   0.379   1.313   3.655
 1662SOL    HW1 5885   0.462   1.260   3.644
 1662SOL    HW2 5886   0.349   1.310   3.751
 1663SOL     OW 5887   1.135   0.366   3.254
 1663SOL    HW1 5888   1.205   0.295   3.245
 1663SOL    HW2 5889   1.137   0.404   3.346
 1664SOL     OW 5890   1.795   5.992   4.077
 1664SOL    HW1 5891   1.811   5.994   4.176
 1664SOL    HW2 5892   1.788   6.085   4.042
 1665SOL     OW 5893   0.178   0.969   4.094
 1665SOL    HW1 5894   0.209   0.970   3.998
 1665SOL    HW2 5895   0.134   1.056   4.115
 1666SOL     OW 5896   6.419   1.941   0.147
 1666SOL    HW1 5897   6.329   1.903   0.123
 1666SOL    HW2 5898   6.425   2.035   0.116
 1667SOL     OW 5899   6.656   6.895   0.854
 1667SOL    HW1 5900   6.691   6.934   0.939
 1667SOL    HW2 5901   6.592   6.821   0.875
 1668SOL     OW 5902   2.364   0.023   4.617
 1668SOL    HW1 5903   2.265   0.033   4.632
 1668SOL    HW2 5904   2.386   0.047   4.523
 1669SOL     OW 5905   5.140   5.893   6.367
 1669SOL    HW1 5906   5.240   5.892   6.360
 1669SOL    HW2 5907   5.113   5.922   6.459
 1670SOL     OW 5908   6.828   3.570   6.287
 1670SOL    HW1 5909   6.783   3.525   6.210
 1670SOL    HW2 5910   6.777   3.652   6.312
 1671SOL     OW 5911   6.468   4.301   0.945
 1671SOL    HW1 5912   6.496   4.284   0.851
 1671SOL    HW2 5913   6.387   4.246   0.966
 1672SOL     OW 5914   2.334   4.336   3.224
 1672SOL    HW1 5915   2.263   4.386   3.174
 1672SOL    HW2 5916   2.329   4.239   3.200
 1673SOL     OW 5917   6.116   3.470   3.198
 1673SOL    HW1 5918   6.207   3.469   3.155
 1673SOL    HW2 5919   6.124   3.504   3.292
 1674SOL     OW 5920   2.357   5.952   0.472
 1674SOL    HW1 5921   2.378   6.050   0.472
 1674SOL    HW2 5922   2.430   5.902   0.427
 1675SOL     OW 5923   5.115   2.233   6.429
 1675SOL    HW1 5924   5.065   2.276   6.505
 1675SOL    HW2 5925   5.085   2.275   6.343
 1676SOL     OW 5926   3.043   1.959   3.024
 1676SOL    HW1 5927   3.060   1.905   2.942
 1676SOL    HW2 5928   3.067   2.055   3.007
 1677SOL     OW 5929   5.367   0.169   6.302
 1677SOL    HW1 5930   5.329   0.130   6.218
 1677SOL    HW2 5931   5.405   0.095   6.359
 1678SOL     OW 5932   4.538   6.454   2.235
 1678SOL    HW1 5933   4.628   6.499   2.234
 1678SOL    HW2 5934   4.484   6.489   2.311
 1679SOL     OW 5935   6.503   4.544   0.253
 1679SOL    HW1 5936   6.593   4.528   0.213
 1679SOL    HW2 5937   6.462   4.456   0.279
 1680SOL     OW 5938   0.221   2.250   5.577
 1680SOL    HW1 5939   0.284   2.187   5.623
 1680SOL    HW2 5940   0.127   2.215   5.586
 1681SOL     OW 5941   4.921   5.383   0.949
 1681SOL    HW1 5942   4.970   5.469   0.937
 1681SOL    HW2 5943   4.978   5.307   0.916
 1682SOL     OW 5944   0.164   3.854   5.827
 1682SOL    HW1 5945   0.200   3.842   5.734
 1682SOL    HW2 5946   0.088   3.790   5.842
 1683SOL     OW 5947   6.136   5.542   5.517
 1683SOL    HW1 5948   6.169   5.633   5.490
 1683SOL    HW2 5949   6.059   5.551   5.580
 1684SOL     OW 5950   0.710   6.763   4.207
 1684SOL    HW1 5951   0.761   6.682   4.235
 1684SOL    HW2 5952   0.745   6.843   4.255
 1685SOL     OW 5953   1.031   2.046   6.863
 1685SOL    HW1 5954   1.092   1.967   6.875
 1685SOL    HW2 5955   0.953   2.019   6.806
 1686SOL     OW 5956   1.790   0.404   5.945
 1686SOL    HW1 5957   1.825   0.495   5.969
 1686SOL    HW2 5958   1.847   0.334   5.988
 1687SOL     OW 5959   2.703   6.679   2.576
 1687SOL    HW1 5960   2.676   6.645   2.486
 1687SOL    HW2 5961   2.796   6.647   2.597
 1688SOL     OW 5962   0.731   1.981   3.610
 1688SOL    HW1 5963   0.807   1.990   3.545
 1688SOL    HW2 5964   0.749   1.904   3.671
 1689SOL     OW 5965   2.094   2.009   1.568
 1689SOL    HW1 5966   2.004   1.985   1.532
 1689SOL    HW2 5967   2.150   1.927   1.574
 1690SOL     OW 5968   1.547   1.572   0.435
 1690SOL    HW1 5969   1.531   1.511   0.357
 1690SOL    HW2 5970   1.607   1.527   0.501
 1691SOL     OW 5971   4.942   4.069   3.553
 1691SOL    HW1 5972   4.860   4.080   3.608
 1691SOL    HW2 5973   5.023   4.064   3.613
 1692SOL     OW 5974   0.345   6.313   4.088
 1692SOL    HW1 5975   0.340   6.411   4.108
 1692SOL    HW2 5976   0.269   6.266   4.133
 1693SOL     OW 5977   3.875   2.168   4.314
 1693SOL    HW1 5978   3.913   2.183   4.222
 1693SOL    HW2 5979   3.786   2.123   4.306
 1694SOL     OW 5980   5.981   6.245   5.430
 1694SOL    HW1 5981   5.971   6.206   5.522
 1694SOL    HW2 5982   5.891   6.263   5.391
 1695SOL     OW 5983   3.752   1.764   6.439
 1695SOL    HW1 5984   3.745   1.743   6.537
 1695SOL    HW2 5985   3.819   1.837   6.425
 1696SOL     OW 5986   3.423   5.758   1.956
 1696SOL    HW1 5987   3.346   5.778   2.016
 1696SOL    HW2 5988   3.486   5.695   2.001
 1697SOL     OW 5989   1.837   1.736   1.697
 1697SOL    HW1 5990   1.755   1.734   1.640
 1697SOL    HW2 5991   1.826   1.803   1.770
 1698SOL     OW 5992   4.916   1.302   6.728
 1698SOL    HW1 5993   4.953   1.213   6.702
 1698SOL    HW2 5994   4.838   1.325   6.669
 1699SOL     OW 5995   2.492   4.922   1.363
 1699SOL    HW1 5996   2.471   5.019   1.368
 1699SOL    HW2 5997   2.525   4.890   1.452
 1700SOL     OW 5998   5.621   3.009   4.512
 1700SOL    HW1 5999   5.558   3.078   4.477
 1700SOL    HW2 6000   5.569   2.931   4.549
 1701SOL     OW 6001   5.427   2.984   4.769
 1701SOL    HW1 6002   5.356   3.039   4.725
 1701SOL    HW2 6003   5.398   2.888   4.771
 1702SOL     OW 6004   5.098   2.715   1.644
 1702SOL    HW1 6005   5.115   2.720   1.743
 1702SOL    HW2 6006   5.184   2.707   1.595
 1703SOL     OW 6007   2.112   3.800   1.600
 1703SOL    HW1 6008   2.206   3.818   1.574
 1703SOL    HW2 6009   2.077   3.876   1.655
 1704SOL     OW 6010   6.779   1.689   2.579
 1704SOL    HW1 6011   6.704   1.752   2.561
 1704SOL    HW2 6012   6.813   1.703   2.672
 1705SOL     OW 6013   4.011   3.131   2.510
 1705SOL    HW1 6014   3.928   3.081   2.485
 1705SOL    HW2 6015   4.061   3.157   2.427
 1706SOL     OW 6016   2.575   0.721   6.135
 1706SOL    HW1 6017   2.592   0.629   6.100
 1706SOL    HW2 6018   2.627   0.787   6.081
 1707SOL     OW 6019   4.897   1.551   2.419
 1707SOL    HW1 6020   4.851   1.463   2.428
 1707SOL    HW2 6021   4.996   1.538   2.423
 1708SOL     OW 6022   0.269   4.179   1.184
 1708SOL    HW1 6023   0.245   4.158   1.090
 1708SOL    HW2 6024   0.247   4.102   1.243
 1709SOL     OW 6025   3.104   5.273   3.922
 1709SOL    HW1 6026   3.125   5.325   4.004
 1709SOL    HW2 6027   3.155   5.187   3.923
 1710SOL     OW 6028   6.605   4.112   4.996
 1710SOL    HW1 6029   6.527   4.169   5.023
 1710SOL    HW2 6030   6.625   4.127   4.899
 1711SOL     OW 6031   0.889   4.442   6.134
 1711SOL    HW1 6032   0.975   4.394   6.154
 1711SOL    HW2 6033   0.908   4.537   6.112
 1712SOL     OW 6034   1.696   4.130   1.893
 1712SOL    HW1 6035   1.775   4.164   1.944
 1712SOL    HW2 6036   1.612   4.149   1.944
 1713SOL     OW 6037   2.300   3.841   1.196
 1713SOL    HW1 6038   2.387   3.800   1.166
 1713SOL    HW2 6039   2.255   3.884   1.118
 1714SOL     OW 6040   4.647   0.994   0.629
 1714SOL    HW1 6041   4.728   0.970   0.683
 1714SOL    HW2 6042   4.634   1.093   0.630
 1715SOL     OW 6043   1.393   3.733   3.301
 1715SOL    HW1 6044   1.402   3.785   3.386
 1715SOL    HW2 6045   1.337   3.652   3.317
 1716SOL     OW 6046   0.098   6.740   0.436
 1716SOL    HW1 6047   0.144   6.657   0.467
 1716SOL    HW2 6048   0.162   6.816   0.437
 1717SOL     OW 6049   3.288   0.981   0.348
 1717SOL    HW1 6050   3.195   0.947   0.366
 1717SOL    HW2 6051   3.298   0.999   0.251
 1718SOL     OW 6052   2.011   4.559   5.365
 1718SOL    HW1 6053   2.072   4.549   5.286
 1718SOL    HW2 6054   1.977   4.652   5.370
 1719SOL     OW 6055   2.421   2.896   0.658
 1719SOL    HW1 6056   2.449   2.883   0.753
 1719SOL    HW2 6057   2.477   2.967   0.615
 1720SOL     OW 6058   0.422   2.335   2.415
 1720SOL    HW1 6059   0.409   2.237   2.431
 1720SOL    HW2 6060   0.385   2.386   2.492
 1721SOL     OW 6061   0.904   5.735   3.927
 1721SOL    HW1 6062   0.858   5.824   3.925
 1721SOL    HW2 6063   0.846   5.669   3.975
 1722SOL     OW 6064   5.064   0.133   1.737
 1722SOL    HW1 6065   4.969   0.133   1.770
 1722SOL    HW2 6066   5.066   0.097   1.644
 1723SOL     OW 6067   5.986   0.658   3.567
 1723SOL    HW1 6068   5.951   0.578   3.519
 1723SOL    HW2 6069   5.910   0.720   3.588
 1724SOL     OW 6070   5.367   0.305   0.118
 1724SOL    HW1 6071   5.293   0.355   0.163
 1724SOL    HW2 6072   5.400   0.232   0.178
 1725SOL     OW 6073   3.991   5.868   2.242
 1725SOL    HW1 6074   4.075   5.919   2.264
 1725SOL    HW2 6075   3.911   5.920   2.273
 1726SOL     OW 6076   6.226   4.335   4.995
 1726SOL    HW1 6077   6.202   4.378   5.083
 1726SOL    HW2 6078   6.190   4.391   4.920
 1727SOL     OW 6079   2.655   4.721   5.986
 1727SOL    HW1 6080   2.696   4.724   6.077
 1727SOL    HW2 6081   2.617   4.811   5.964
 1728SOL     OW 6082   4.751   5.620   3.585
 1728SOL    HW1 6083   4.724   5.690   3.519
 1728SOL    HW2 6084   4.709   5.639   3.674
 1729SOL     OW 6085   6.628   3.148   3.009
 1729SOL    HW1 6086   6.587   3.070   2.961
 1729SOL    HW2 6087   6.724   3.129   3.028
 1730SOL     OW 6088   4.657   2.540   4.253
 1730SOL    HW1 6089   4.587   2.592   4.301
 1730SOL    HW2 6090   4.661   2.447   4.290
 1731SOL     OW 6091   0.378   0.018   6.355
 1731SOL    HW1 6092   0.357   0.077   6.433
 1731SOL    HW2 6093   0.321   6.957   6.359
 1732SOL     OW 6094   1.247   4.494   6.638
 1732SOL    HW1 6095   1.253   4.590   6.663
 1732SOL    HW2 6096   1.186   4.484   6.559
 1733SOL     OW 6097   1.849   3.835   6.657
 1733SOL    HW1 6098   1.768   3.778   6.670
 1733SOL    HW2 6099   1.868   3.844   6.559
 1734SOL     OW 6100   5.436   3.884   0.831
 1734SOL    HW1 6101   5.412   3.846   0.921
 1734SOL    HW2 6102   5.369   3.955   0.807
 1735SOL     OW 6103   4.787   5.269   6.751
 1735SOL    HW1 6104   4.860   5.221   6.800
 1735SOL    HW2 6105   4.828   5.336   6.688
 1736SOL     OW 6106   3.983   3.202   0.504
 1736SOL    HW1 6107   3.926   3.236   0.579
 1736SOL    HW2 6108   3.924   3.160   0.434
 1737SOL     OW 6109   0.734   6.201   3.131
 1737SOL    HW1 6110   0.751   6.155   3.218
 1737SOL    HW2 6111   0.672   6.277   3.145
 1738SOL     OW 6112   0.574   1.190   1.930
 1738SOL    HW1 6113   0.560   1.097   1.963
 1738SOL    HW2 6114   0.658   1.195   1.877
 1739SOL     OW 6115   4.289   1.652   6.931
 1739SOL    HW1 6116   4.271   1.610   7.020
 1739SOL    HW2 6117   4.385   1.680   6.926
 1740SOL     OW 6118   0.846   1.840   6.804
 1740SOL    HW1 6119   0.817   1.881   6.718
 1740SOL    HW2 6120   0.877   1.747   6.788
 1741SOL     OW 6121   0.755   0.413   2.745
 1741SOL    HW1 6122   0.836   0.361   2.770
 1741SOL    HW2 6123   0.719   0.461   2.825
 1742SOL     OW 6124   6.290   6.064   3.566
 1742SOL    HW1 6125   6.198   6.026   3.561
 1742SOL    HW2 6126   6.305   6.127   3.490
 1743SOL     OW 6127   4.424   1.318   0.327
 1743SOL    HW1 6128   4.492   1.364   0.384
 1743SOL    HW2 6129   4.412   1.224   0.358
 1744SOL     OW 6130   4.124   6.528   1.748
 1744SOL    HW1 6131   4.140   6.484   1.659
 1744SOL    HW2 6132   4.102   6.459   1.817
 1745SOL     OW 6133   0.646   2.193   5.191
 1745SOL    HW1 6134   0.626   2.232   5.281
 1745SOL    HW2 6135   0.647   2.094   5.197
 1746SOL     OW 6136   2.806   1.596   0.345
 1746SOL    HW1 6137   2.828   1.686   0.384
 1746SOL    HW2 6138   2.844   1.524   0.403
 1747SOL     OW 6139   3.854   6.840   4.788
 1747SOL    HW1 6140   3.914   6.901   4.737
 1747SOL    HW2 6141   3.796   6.894   4.849
 1748SOL     OW 6142   5.630   0.908   1.818
 1748SOL    HW1 6143   5.672   0.862   1.896
 1748SOL    HW2 6144   5.535   0.877   1.808
 1749SOL     OW 6145   5.431   6.696   6.159
 1749SOL    HW1 6146   5.335   6.666   6.157
 1749SOL    HW2 6147   5.488   6.623   6.197
 1750SOL     OW 6148   3.654   1.156   3.161
 1750SOL    HW1 6149   3.706   1.181   3.242
 1750SOL    HW2 6150   3.610   1.237   3.122
 1751SOL     OW 6151   2.339   5.715   4.571
 1751SOL    HW1 6152   2.366   5.712   4.667
 1751SOL    HW2 6153   2.420   5.700   4.514
 1752SOL     OW 6154   6.635   1.864   6.095
 1752SOL    HW1 6155   6.726   1.886   6.058
 1752SOL    HW2 6156   6.572   1.846   6.021
 1753SOL     OW 6157   1.661   0.056   2.203
 1753SOL    HW1 6158   1.591   7.010   2.229
 1753SOL    HW2 6159   1.700   0.030   2.114
 1754SOL     OW 6160   3.064   3.267   3.200
 1754SOL    HW1 6161   3.012   3.307   3.275
 1754SOL    HW2 6162   3.014   3.279   3.114
 1755SOL     OW 6163   0.347   4.255   6.736
 1755SOL    HW1 6164   0.353   4.255   6.835
 1755SOL    HW2 6165   0.439   4.265   6.697
 1756SOL     OW 6166   5.872   5.232   5.664
 1756SOL    HW1 6167   5.857   5.289   5.745
 1756SOL    HW2 6168   5.783   5.211   5.622
 1757SOL     OW 6169   3.765   0.284   4.873
 1757SOL    HW1 6170   3.688   0.345   4.855
 1757SOL    HW2 6171   3.827   0.326   4.938
 1758SOL     OW 6172   2.008   1.158   3.440
 1758SOL    HW1 6173   1.916   1.137   3.406
 1758SOL    HW2 6174   2.074   1.142   3.367
 1759SOL     OW 6175   6.882   5.955   5.960
 1759SOL    HW1 6176   6.943   5.894   5.911
 1759SOL    HW2 6177   6.897   5.945   6.059
 1760SOL     OW 6178   4.475   6.242   3.713
 1760SOL    HW1 6179   4.433   6.283   3.793
 1760SOL    HW2 6180   4.546   6.304   3.677
 1761SOL     OW 6181   6.256   3.137   1.025
 1761SOL    HW1 6182   6.207   3.107   1.107
 1761SOL    HW2 6183   6.234   3.077   0.949
 1762SOL     OW 6184   6.144   2.640   0.034
 1762SOL    HW1 6185   6.202   2.581   0.091
 1762SOL    HW2 6186   6.060   2.662   0.085
 1763SOL     OW 6187   2.035   2.329   4.234
 1763SOL    HW1 6188   1.957   2.389   4.250
 1763SOL    HW2 6189   2.003   2.238   4.210
 1764SOL     OW 6190   6.683   4.133   3.003
 1764SOL    HW1 6191   6.628   4.203   3.049
 1764SOL    HW2 6192   6.710   4.166   2.913
 1765SOL     OW 6193   1.854   3.154   6.255
 1765SOL    HW1 6194   1.831   3.222   6.325
 1765SOL    HW2 6195   1.867   3.065   6.299
 1766SOL     OW 6196   6.096   4.278   5.526
 1766SOL    HW1 6197   6.141   4.366   5.544
 1766SOL    HW2 6198   6.151   4.204   5.565
 1767SOL     OW 6199   6.779   5.083   1.223
 1767SOL    HW1 6200   6.679   5.094   1.218
 1767SOL    HW2 6201   6.817   5.080   1.131
 1768SOL     OW 6202   6.131   0.438   3.288
 1768SOL    HW1 6203   6.100   0.516   3.235
 1768SOL    HW2 6204   6.203   0.468   3.352
 1769SOL     OW 6205   4.426   0.464   3.901
 1769SOL    HW1 6206   4.401   0.530   3.972
 1769SOL    HW2 6207   4.509   0.494   3.855
 1770SOL     OW 6208   3.657   5.504   5.781
 1770SOL    HW1 6209   3.603   5.550   5.852
 1770SOL    HW2 6210   3.599   5.442   5.729
 1771SOL     OW 6211   5.281   5.613   6.685
 1771SOL    HW1 6212   5.310   5.700   6.646
 1771SOL    HW2 6213   5.275   5.544   6.613
 1772SOL     OW 6214   2.298   6.191   2.153
 1772SOL    HW1 6215   2.232   6.218   2.222
 1772SOL    HW2 6216   2.265   6.219   2.062
 1773SOL     OW 6217   1.971   6.787   6.857
 1773SOL    HW1 6218   1.925   6.869   6.893
 1773SOL    HW2 6219   2.002   6.730   6.933
 1774SOL     OW 6220   2.600   5.386   1.312
 1774SOL    HW1 6221   2.665   5.445   1.361
 1774SOL    HW2 6222   2.648   5.334   1.241
 1775SOL     OW 6223   0.719   5.287   0.401
 1775SOL    HW1 6224   0.635   5.263   0.352
 1775SOL    HW2 6225   0.764   5.203   0.432
 1776SOL     OW 6226   3.094   5.989   4.897
 1776SOL    HW1 6227   3.052   5.905   4.862
 1776SOL    HW2 6228   3.113   5.978   4.994
 1777SOL     OW 6229   4.184   6.146   6.487
 1777SOL    HW1 6230   4.199   6.111   6.394
 1777SOL    HW2 6231   4.093   6.120   6.518
 1778SOL     OW 6232   0.948   3.703   5.960
 1778SOL    HW1 6233   1.041   3.682   5.930
 1778SOL    HW2 6234   0.945   3.708   6.060
 1779SOL     OW 6235   4.122   6.581   5.049
 1779SOL    HW1 6236   4.211   6.542   5.022
 1779SOL    HW2 6237   4.123   6.679   5.033
 1780SOL     OW 6238   3.907   2.275   6.423
 1780SOL    HW1 6239   3.832   2.240   6.366
 1780SOL    HW2 6240   3.994   2.250   6.381
 1781SOL     OW 6241   1.773   6.316   3.322
 1781SOL    HW1 6242   1.805   6.262   3.244
 1781SOL    HW2 6243   1.837   6.306   3.398
 1782SOL     OW 6244   3.308   1.034   5.027
 1782SOL    HW1 6245   3.333   1.053   5.122
 1782SOL    HW2 6246   3.227   0.975   5.026
 1783SOL     OW 6247   2.135   5.922   0.107
 1783SOL    HW1 6248   2.043   5.944   0.138
 1783SOL    HW2 6249   2.199   5.990   0.142
 1784SOL     OW 6250   1.529   6.672   6.096
 1784SOL    HW1 6251   1.497   6.608   6.165
 1784SOL    HW2 6252   1.628   6.661   6.083
 1785SOL     OW 6253   7.011   5.273   2.772
 1785SOL    HW1 6254   6.993   5.212   2.694
 1785SOL    HW2 6255   6.964   5.360   2.757
 1786SOL     OW 6256   4.056   2.220   1.212
 1786SOL    HW1 6257   4.063   2.237   1.310
 1786SOL    HW2 6258   4.011   2.298   1.168
 1787SOL     OW 6259   4.043   0.136   4.952
 1787SOL    HW1 6260   4.105   0.156   5.028
 1787SOL    HW2 6261   3.953   0.175   4.971
 1788SOL     OW 6262   1.568   5.047   5.007
 1788SOL    HW1 6263   1.607   4.967   5.053
 1788SOL    HW2 6264   1.640   5.099   4.962
 1789SOL     OW 6265   5.325   6.360   0.608
 1789SOL    HW1 6266   5.424   6.344   0.613
 1789SOL    HW2 6267   5.279   6.309   0.681
 1790SOL     OW 6268   1.763   6.817   2.938
 1790SOL    HW1 6269   1.831   6.757   2.981
 1790SOL    HW2 6270   1.672   6.797   2.976
 1791SOL     OW 6271   0.856   6.787   2.923
 1791SOL    HW1 6272   0.807   6.869   2.954
 1791SOL    HW2 6273   0.953   6.807   2.916
 1792SOL     OW 6274   0.355   3.849   4.328
 1792SOL    HW1 6275   0.283   3.840   4.396
 1792SOL    HW2 6276   0.342   3.781   4.256
 1793SOL     OW 6277   6.961   0.457   4.388
 1793SOL    HW1 6278   6.962   0.358   4.382
 1793SOL    HW2 6279   7.012   0.487   4.469
 1794SOL     OW 6280   4.273   6.014   6.247
 1794SOL    HW1 6281   4.338   6.054   6.182
 1794SOL    HW2 6282   4.228   5.936   6.203
 1795SOL     OW 6283   1.106   3.353   0.024
 1795SOL    HW1 6284   1.097   3.254   0.032
 1795SOL    HW2 6285   1.121   3.377   6.949
 1796SOL     OW 6286   3.910   0.255   5.379
 1796SOL    HW1 6287   3.980   0.209   5.325
 1796SOL    HW2 6288   3.826   0.264   5.325
 1797SOL     OW 6289   0.235   1.236   2.367
 1797SOL    HW1 6290   0.172   1.165   2.333
 1797SOL    HW2 6291   0.226   1.245   2.466
 1798SOL     OW 6292   5.903   1.660   3.084
 1798SOL    HW1 6293   5.897   1.566   3.053
 1798SOL    HW2 6294   5.960   1.713   3.021
 1799SOL     OW 6295   2.946   7.017   0.813
 1799SOL    HW1 6296   2.850   7.016   0.788
 1799SOL    HW2 6297   3.002   0.012   0.731
 1800SOL     OW 6298   2.671   4.796   2.143
 1800SOL    HW1 6299   2.733   4.855   2.194
 1800SOL    HW2 6300   2.723   4.741   2.078
 1801SOL     OW 6301   5.208   6.429   0.919
 1801SOL    HW1 6302   5.173   6.428   1.013
 1801SOL    HW2 6303   5.271   6.352   0.907
 1802SOL     OW 6304   5.671   5.414   4.404
 1802SOL    HW1 6305   5.697   5.444   4.312
 1802SOL    HW2 6306   5.680   5.491   4.468
 1803SOL     OW 6307   5.939   4.904   0.205
 1803SOL    HW1 6308   5.988   4.865   0.127
 1803SOL    HW2 6309   5.905   4.995   0.181
 1804SOL     OW 6310   2.892   3.862   6.034
 1804SOL    HW1 6311   2.954   3.908   6.097
 1804SOL    HW2 6312   2.803   3.907   6.035
 1805SOL     OW 6313   0.101   2.524   6.958
 1805SOL    HW1 6314   0.183   2.551   6.907
 1805SOL    HW2 6315   0.041   2.471   6.899
 1806SOL     OW 6316   6.756   6.230   0.473
 1806SOL    HW1 6317   6.695   6.153   0.453
 1806SOL    HW2 6318   6.745   6.301   0.404
 1807SOL     OW 6319   6.977   2.180   5.597
 1807SOL    HW1 6320   6.967   2.143   5.505
 1807SOL    HW2 6321   6.946   2.275   5.599
 1808SOL     OW 6322   2.335   4.875   4.061
 1808SOL    HW1 6323   2.296   4.959   4.023
 1808SOL    HW2 6324   2.417   4.898   4.112
 1809SOL     OW 6325   3.741   0.378   6.138
 1809SOL    HW1 6326   3.807   0.322   6.188
 1809SOL    HW2 6327   3.687   0.433   6.203
 1810SOL     OW 6328   3.493   6.290   3.297
 1810SOL    HW1 6329   3.476   6.237   3.214
 1810SOL    HW2 6330   3.529   6.380   3.272
 1811SOL     OW 6331   5.299   5.436   2.947
 1811SOL    HW1 6332   5.285   5.353   3.000
 1811SOL    HW2 6333   5.290   5.516   3.007
 1812SOL     OW 6334   4.688   4.794   4.795
 1812SOL    HW1 6335   4.723   4.847   4.718
 1812SOL    HW2 6336   4.764   4.770   4.856
 1813SOL     OW 6337   0.231   6.513   5.078
 1813SOL    HW1 6338   0.275   6.428   5.106
 1813SOL    HW2 6339   0.254   6.586   5.142
 1814SOL     OW 6340   4.385   0.489   2.756
 1814SOL    HW1 6341   4.469   0.523   2.798
 1814SOL    HW2 6342   4.363   0.543   2.675
 1815SOL     OW 6343   0.130   1.115   3.245
 1815SOL    HW1 6344   0.195   1.170   3.193
 1815SOL    HW2 6345   0.045   1.107   3.194
 1816SOL     OW 6346   1.365   5.412   0.464
 1816SOL    HW1 6347   1.438   5.391   0.399
 1816SOL    HW2 6348   1.322   5.499   0.439
 1817SOL     OW 6349   1.405   4.040   1.650
 1817SOL    HW1 6350   1.324   4.077   1.603
 1817SOL    HW2 6351   1.421   4.092   1.734
 1818SOL     OW 6352   0.148   1.909   3.181
 1818SOL    HW1 6353   0.169   1.900   3.083
 1818SOL    HW2 6354   0.233   1.905   3.233
 1819SOL     OW 6355   1.469   3.961   2.409
 1819SOL    HW1 6356   1.525   3.966   2.327
 1819SOL    HW2 6357   1.389   4.020   2.399
 1820SOL     OW 6358   5.409   6.672   2.260
 1820SOL    HW1 6359   5.507   6.656   2.267
 1820SOL    HW2 6360   5.386   6.760   2.302
 1821SOL     OW 6361   1.407   1.978   2.995
 1821SOL    HW1 6362   1.411   2.077   2.984
 1821SOL    HW2 6363   1.380   1.936   2.908
 1822SOL     OW 6364   3.233   3.701   1.969
 1822SOL    HW1 6365   3.202   3.655   1.885
 1822SOL    HW2 6366   3.297   3.642   2.018
 1823SOL     OW 6367   4.326   6.651   2.453
 1823SOL    HW1 6368   4.253   6.704   2.496
 1823SOL    HW2 6369   4.344   6.569   2.508
 1824SOL     OW 6370   4.760   1.387   2.112
 1824SOL    HW1 6371   4.825   1.325   2.069
 1824SOL    HW2 6372   4.796   1.480   2.110
 1825SOL     OW 6373   0.253   0.205   1.271
 1825SOL    HW1 6374   0.259   0.304   1.286
 1825SOL    HW2 6375   0.288   0.183   1.180
 1826SOL     OW 6376   2.622   5.402   6.304
 1826SOL    HW1 6377   2.668   5.381   6.218
 1826SOL    HW2 6378   2.573   5.489   6.296
 1827SOL     OW 6379   5.685   0.596   0.944
 1827SOL    HW1 6380   5.710   0.598   1.041
 1827SOL    HW2 6381   5.621   0.670   0.925
 1828SOL     OW 6382   3.152   2.594   0.297
 1828SOL    HW1 6383   3.052   2.598   0.305
 1828SOL    HW2 6384   3.181   2.647   0.216
 1829SOL     OW 6385   5.234   5.430   2.455
 1829SOL    HW1 6386   5.297   5.416   2.531
 1829SOL    HW2 6387   5.163   5.359   2.457
 1830SOL     OW 6388   4.425   0.615   4.967
 1830SOL    HW1 6389   4.503   0.650   4.915
 1830SOL    HW2 6390   4.458   0.569   5.050
 1831SOL     OW 6391   5.323   1.261   3.045
 1831SOL    HW1 6392   5.349   1.315   2.965
 1831SOL    HW2 6393   5.401   1.253   3.106
 1832SOL     OW 6394   5.705   2.823   6.584
 1832SOL    HW1 6395   5.728   2.765   6.663
 1832SOL    HW2 6396   5.644   2.773   6.523
 1833SOL     OW 6397   5.712   1.645   6.105
 1833SOL    HW1 6398   5.675   1.603   6.022
 1833SOL    HW2 6399   5.798   1.600   6.130
 1834SOL     OW 6400   2.320   4.320   6.918
 1834SOL    HW1 6401   2.410   4.342   6.956
 1834SOL    HW2 6402   2.257   4.396   6.937
 1835SOL     OW 6403   1.915   5.150   6.953
 1835SOL    HW1 6404   2.009   5.184   6.947
 1835SOL    HW2 6405   1.916   5.055   6.985
 1836SOL     OW 6406   0.643   6.384   0.812
 1836SOL    HW1 6407   0.547   6.362   0.793
 1836SOL    HW2 6408   0.650   6.478   0.846
 1837SOL     OW 6409   6.816   2.409   4.414
 1837SOL    HW1 6410   6.773   2.354   4.485
 1837SOL    HW2 6411   6.831   2.502   4.448
 1838SOL     OW 6412   0.958   2.811   4.422
 1838SOL    HW1 6413   0.984   2.813   4.519
 1838SOL    HW2 6414   0.963   2.717   4.388
 1839SOL     OW 6415   1.505   1.393   0.230
 1839SOL    HW1 6416   1.496   1.444   0.144
 1839SOL    HW2 6417   1.442   1.315   0.229
 1840SOL     OW 6418   1.165   5.384   1.626
 1840SOL    HW1 6419   1.223   5.429   1.694
 1840SOL    HW2 6420   1.181   5.285   1.629
 1841SOL     OW 6421   1.641   3.073   4.431
 1841SOL    HW1 6422   1.668   3.079   4.334
 1841SOL    HW2 6423   1.716   3.106   4.488
 1842SOL     OW 6424   1.702   5.691   6.612
 1842SOL    HW1 6425   1.610   5.660   6.592
 1842SOL    HW2 6426   1.698   5.785   6.647
 1843SOL     OW 6427   4.614   2.174   5.740
 1843SOL    HW1 6428   4.536   2.227   5.709
 1843SOL    HW2 6429   4.602   2.078   5.713
 1844SOL     OW 6430   5.614   4.934   3.354
 1844SOL    HW1 6431   5.713   4.921   3.348
 1844SOL    HW2 6432   5.581   4.972   3.268
 1845SOL     OW 6433   5.026   6.659   0.818
 1845SOL    HW1 6434   5.099   6.601   0.853
 1845SOL    HW2 6435   4.937   6.621   0.845
 1846SOL     OW 6436   3.828   1.352   5.717
 1846SOL    HW1 6437   3.781   1.266   5.737
 1846SOL    HW2 6438   3.767   1.429   5.738
 1847SOL     OW 6439   1.598   5.958   6.303
 1847SOL    HW1 6440   1.664   6.009   6.247
 1847SOL    HW2 6441   1.596   5.862   6.273
 1848SOL     OW 6442   2.263   1.794   4.349
 1848SOL    HW1 6443   2.252   1.868   4.282
 1848SOL    HW2 6444   2.360   1.782   4.368
 1849SOL     OW 6445   2.872   0.815   5.593
 1849SOL    HW1 6446   2.884   0.861   5.505
 1849SOL    HW2 6447   2.793   0.853   5.640
 1850SOL     OW 6448   5.310   1.924   1.184
 1850SOL    HW1 6449   5.282   2.012   1.145
 1850SOL    HW2 6450   5.294   1.852   1.116
 1851SOL     OW 6451   6.083   4.499   2.882
 1851SOL    HW1 6452   6.021   4.427   2.912
 1851SOL    HW2 6453   6.141   4.528   2.958
 1852SOL     OW 6454   5.692   1.554   5.649
 1852SOL    HW1 6455   5.634   1.535   5.728
 1852SOL    HW2 6456   5.781   1.588   5.680
 1853SOL     OW 6457   1.361   4.981   0.447
 1853SOL    HW1 6458   1.311   5.039   0.512
 1853SOL    HW2 6459   1.306   4.967   0.365
 1854SOL     OW 6460   2.231   5.354   4.437
 1854SOL    HW1 6461   2.232   5.439   4.383
 1854SOL    HW2 6462   2.273   5.371   4.526
 1855SOL     OW 6463   6.636   4.659   1.346
 1855SOL    HW1 6464   6.723   4.639   1.391
 1855SOL    HW2 6465   6.588   4.731   1.397
 1856SOL     OW 6466   5.413   2.779   0.235
 1856SOL    HW1 6467   5.450   2.753   0.146
 1856SOL    HW2 6468   5.337   2.843   0.222
 1857SOL     OW 6469   5.524   0.921   3.513
 1857SOL    HW1 6470   5.547   0.922   3.610
 1857SOL    HW2 6471   5.518   0.827   3.481
 1858SOL     OW 6472   5.464   4.276   2.584
 1858SOL    HW1 6473   5.465   4.183   2.619
 1858SOL    HW2 6474   5.401   4.332   2.638
 1859SOL     OW 6475   5.830   2.257   3.880
 1859SOL    HW1 6476   5.790   2.171   3.850
 1859SOL    HW2 6477   5.856   2.312   3.800
 1860SOL     OW 6478   3.576   1.997   4.939
 1860SOL    HW1 6479   3.587   1.916   4.881
 1860SOL    HW2 6480   3.478   2.018   4.946
 1861SOL     OW 6481   4.751   6.634   2.269
 1861SOL    HW1 6482   4.762   6.712   2.330
 1861SOL    HW2 6483   4.817   6.640   2.194
 1862SOL     OW 6484   3.243   2.662   0.810
 1862SOL    HW1 6485   3.319   2.631   0.867
 1862SOL    HW2 6486   3.270   2.745   0.761
 1863SOL     OW 6487   2.020   1.622   1.546
 1863SOL    HW1 6488   2.107   1.670   1.552
 1863SOL    HW2 6489   1.958   1.657   1.617
 1864SOL     OW 6490   0.157   6.662   3.134
 1864SOL    HW1 6491   0.142   6.753   3.097
 1864SOL    HW2 6492   0.238   6.664   3.193
 1865SOL     OW 6493   5.648   3.203   0.000
 1865SOL    HW1 6494   5.634   3.134   6.950
 1865SOL    HW2 6495   5.687   3.160   0.082
 1866SOL     OW 6496   5.948   5.220   1.586
 1866SOL    HW1 6497   5.949   5.309   1.631
 1866SOL    HW2 6498   5.949   5.148   1.655
 1867SOL     OW 6499   1.574   4.222   6.526
 1867SOL    HW1 6500   1.639   4.215   6.450
 1867SOL    HW2 6501   1.598   4.301   6.583
 1868SOL     OW 6502   6.068   3.693   4.983
 1868SOL    HW1 6503   5.978   3.650   4.995
 1868SOL    HW2 6504   6.076   3.772   5.044
 1869SOL     OW 6505   5.745   0.699   4.975
 1869SOL    HW1 6506   5.845   0.693   4.970
 1869SOL    HW2 6507   5.713   0.767   4.910
 1870SOL     OW 6508   2.131   3.817   4.897
 1870SOL    HW1 6509   2.194   3.879   4.943
 1870SOL    HW2 6510   2.037   3.848   4.911
 1871SOL     OW 6511   1.777   1.254   0.926
 1871SOL    HW1 6512   1.696   1.199   0.945
 1871SOL    HW2 6513   1.752   1.351   0.927
 1872SOL     OW 6514   1.675   5.700   6.221
 1872SOL    HW1 6515   1.767   5.690   6.258
 1872SOL    HW2 6516   1.656   5.625   6.158
 1873SOL     OW 6517   5.807   6.550   7.009
 1873SOL    HW1 6518   5.770   6.599   0.067
 1873SOL    HW2 6519   5.747   6.565   6.930
 1874SOL     OW 6520   0.541   3.958   3.069
 1874SOL    HW1 6521   0.472   3.901   3.113
 1874SOL    HW2 6522   0.616   3.974   3.133
 1875SOL     OW 6523   0.306   6.970   1.957
 1875SOL    HW1 6524   0.221   6.960   1.905
 1875SOL    HW2 6525   0.287   7.015   2.044
 1876SOL     OW 6526   1.773   6.199   4.270
 1876SOL    HW1 6527   1.850   6.187   4.333
 1876SOL    HW2 6528   1.764   6.296   4.247
 1877SOL     OW 6529   6.958   0.189   4.384
 1877SOL    HW1 6530   6.962   0.144   4.473
 1877SOL    HW2 6531   7.016   0.140   4.319
 1878SOL     OW 6532   6.442   3.253   5.882
 1878SOL    HW1 6533   6.528   3.207   5.906
 1878SOL    HW2 6534   6.454   3.305   5.798
 1879SOL     OW 6535   1.837   6.253   5.639
 1879SOL    HW1 6536   1.750   6.294   5.664
 1879SOL    HW2 6537   1.825   6.195   5.558
 1880SOL     OW 6538   6.711   0.152   4.270
 1880SOL    HW1 6539   6.800   0.164   4.314
 1880SOL    HW2 6540   6.713   0.198   4.181
 1881SOL     OW 6541   0.770   2.266   6.768
 1881SOL    HW1 6542   0.861   2.239   6.800
 1881SOL    HW2 6543   0.736   2.198   6.703
 1882SOL     OW 6544   0.843   6.461   0.552
 1882SOL    HW1 6545   0.755   6.506   0.541
 1882SOL    HW2 6546   0.832   6.362   0.540
 1883SOL     OW 6547   0.072   1.815   4.056
 1883SOL    HW1 6548   0.128   1.762   3.993
 1883SOL    HW2 6549   0.094   1.912   4.047
 1884SOL     OW 6550   5.932   1.709   1.218
 1884SOL    HW1 6551   5.840   1.683   1.247
 1884SOL    HW2 6552   5.928   1.796   1.169
 1885SOL     OW 6553   3.165   1.001   4.763
 1885SOL    HW1 6554   3.205   0.929   4.705
 1885SOL    HW2 6555   3.201   0.992   4.856
 1886SOL     OW 6556   0.347   6.426   3.620
 1886SOL    HW1 6557   0.347   6.515   3.665
 1886SOL    HW2 6558   0.379   6.356   3.685
 1887SOL     OW 6559   2.341   5.534   6.241
 1887SOL    HW1 6560   2.257   5.483   6.261
 1887SOL    HW2 6561   2.325   5.596   6.164
 1888SOL     OW 6562   2.300   0.133   3.427
 1888SOL    HW1 6563   2.355   0.148   3.509
 1888SOL    HW2 6564   2.284   0.220   3.380
 1889SOL     OW 6565   0.149   3.673   2.502
 1889SOL    HW1 6566   0.214   3.712   2.567
 1889SOL    HW2 6567   0.141   3.575   2.516
 1890SOL     OW 6568   1.738   6.175   4.730
 1890SOL    HW1 6569   1.664   6.170   4.798
 1890SOL    HW2 6570   1.771   6.083   4.710
 1891SOL     OW 6571   3.968   3.683   3.860
 1891SOL    HW1 6572   3.895   3.615   3.864
 1891SOL    HW2 6573   4.008   3.684   3.768
 1892SOL     OW 6574   0.208   0.753   2.623
 1892SOL    HW1 6575   0.117   0.767   2.585
 1892SOL    HW2 6576   0.203   0.687   2.699
 1893SOL     OW 6577   3.572   2.910   3.942
 1893SOL    HW1 6578   3.669   2.922   3.964
 1893SOL    HW2 6579   3.529   2.852   4.012
 1894SOL     OW 6580   3.052   3.047   5.331
 1894SOL    HW1 6581   3.060   3.055   5.431
 1894SOL    HW2 6582   2.996   2.968   5.309
 1895SOL     OW 6583   0.944   6.220   1.610
 1895SOL    HW1 6584   0.880   6.264   1.673
 1895SOL    HW2 6585   1.025   6.190   1.660
 1896SOL     OW 6586   6.203   2.966   0.724
 1896SOL    HW1 6587   6.106   2.978   0.704
 1896SOL    HW2 6588   6.257   3.021   0.661
 1897SOL     OW 6589   2.233   4.731   3.302
 1897SOL    HW1 6590   2.134   4.729   3.315
 1897SOL    HW2 6591   2.254   4.754   3.207
 1898SOL     OW 6592   1.823   5.950   2.085
 1898SOL    HW1 6593   1.893   6.016   2.112
 1898SOL    HW2 6594   1.824   5.873   2.148
 1899SOL     OW 6595   6.988   1.145   2.476
 1899SOL    HW1 6596   6.989   1.202   2.394
 1899SOL    HW2 6597   6.920   1.181   2.540
 1900SOL     OW 6598   2.973   6.366   6.277
 1900SOL    HW1 6599   2.968   6.410   6.366
 1900SOL    HW2 6600   2.962   6.267   6.288
 1901SOL     OW 6601   4.050   3.266   2.847
 1901SOL    HW1 6602   3.976   3.234   2.905
 1901SOL    HW2 6603   4.063   3.203   2.771
 1902SOL     OW 6604   1.501   6.978   5.253
 1902SOL    HW1 6605   1.451   7.012   5.332
 1902SOL    HW2 6606   1.506   0.029   5.184
 1903SOL     OW 6607   1.002   2.350   4.108
 1903SOL    HW1 6608   0.908   2.381   4.122
 1903SOL    HW2 6609   1.064   2.403   4.164
 1904SOL     OW 6610   5.727   5.374   1.871
 1904SOL    HW1 6611   5.785   5.366   1.952
 1904SOL    HW2 6612   5.637   5.336   1.891
 1905SOL     OW 6613   0.360   2.955   3.973
 1905SOL    HW1 6614   0.302   2.987   3.898
 1905SOL    HW2 6615   0.314   2.881   4.021
 1906SOL     OW 6616   0.026   6.309   3.962
 1906SOL    HW1 6617   7.012   6.280   3.873
 1906SOL    HW2 6618   0.023   6.409   3.969
 1907SOL     OW 6619   6.843   2.882   0.699
 1907SOL    HW1 6620   6.769   2.816   0.712
 1907SOL    HW2 6621   6.864   2.891   0.602
 1908SOL     OW 6622   4.849   0.587   1.772
 1908SOL    HW1 6623   4.877   0.682   1.758
 1908SOL    HW2 6624   4.910   0.526   1.721
 1909SOL     OW 6625   6.690   5.220   5.104
 1909SOL    HW1 6626   6.669   5.184   5.195
 1909SOL    HW2 6627   6.647   5.162   5.035
 1910SOL     OW 6628   0.414   6.303   5.156
 1910SOL    HW1 6629   0.413   6.245   5.237
 1910SOL    HW2 6630   0.502   6.293   5.109
 1911SOL     OW 6631   5.623   6.413   4.080
 1911SOL    HW1 6632   5.597   6.398   3.984
 1911SOL    HW2 6633   5.640   6.326   4.124
 1912SOL     OW 6634   3.392   4.932   2.030
 1912SOL    HW1 6635   3.300   4.915   1.994
 1912SOL    HW2 6636   3.453   4.857   2.003
 1913SOL     OW 6637   3.091   3.897   6.239
 1913SOL    HW1 6638   3.069   3.843   6.320
 1913SOL    HW2 6639   3.187   3.925   6.242
 1914SOL     OW 6640   4.490   4.350   0.544
 1914SOL    HW1 6641   4.447   4.308   0.624
 1914SOL    HW2 6642   4.438   4.432   0.518
 1915SOL     OW 6643   4.079   2.269   6.977
 1915SOL    HW1 6644   4.027   2.306   6.900
 1915SOL    HW2 6645   4.016   2.223   0.019
 1916SOL     OW 6646   3.599   1.825   2.942
 1916SOL    HW1 6647   3.512   1.782   2.966
 1916SOL    HW2 6648   3.645   1.771   2.872
 1917SOL     OW 6649   2.619   3.746   1.301
 1917SOL    HW1 6650   2.648   3.837   1.270
 1917SOL    HW2 6651   2.669   3.723   1.385
 1918SOL     OW 6652   5.069   3.168   4.401
 1918SOL    HW1 6653   5.140   3.191   4.335
 1918SOL    HW2 6654   5.067   3.069   4.416
 1919SOL     OW 6655   6.717   0.963   6.438
 1919SOL    HW1 6656   6.671   0.895   6.381
 1919SOL    HW2 6657   6.746   1.040   6.382
 1920SOL     OW 6658   4.967   3.561   0.469
 1920SOL    HW1 6659   5.019   3.541   0.386
 1920SOL    HW2 6660   4.957   3.478   0.523
 1921SOL     OW 6661   3.272   2.318   6.981
 1921SOL    HW1 6662   3.213   2.242   6.957
 1921SOL    HW2 6663   3.297   2.369   6.899
 1922SOL     OW 6664   3.680   3.658   4.313
 1922SOL    HW1 6665   3.603   3.721   4.299
 1922SOL    HW2 6666   3.730   3.647   4.227
 1923SOL     OW 6667   2.897   0.221   4.065
 1923SOL    HW1 6668   2.991   0.254   4.071
 1923SOL    HW2 6669   2.834   0.293   4.094
 1924SOL     OW 6670   5.662   0.593   1.317
 1924SOL    HW1 6671   5.594   0.666   1.328
 1924SOL    HW2 6672   5.627   0.508   1.355
 1925SOL     OW 6673   1.298   4.752   0.949
 1925SOL    HW1 6674   1.392   4.717   0.954
 1925SOL    HW2 6675   1.241   4.687   0.899
 1926SOL     OW 6676   2.691   6.682   2.033
 1926SOL    HW1 6677   2.610   6.730   1.999
 1926SOL    HW2 6678   2.761   6.749   2.059
 1927SOL     OW 6679   1.632   5.426   0.922
 1927SOL    HW1 6680   1.695   5.503   0.921
 1927SOL    HW2 6681   1.673   5.349   0.873
 1928SOL     OW 6682   1.408   4.073   2.910
 1928SOL    HW1 6683   1.374   4.018   2.833
 1928SOL    HW2 6684   1.389   4.025   2.996
 1929SOL     OW 6685   3.232   0.722   3.449
 1929SOL    HW1 6686   3.224   0.765   3.359
 1929SOL    HW2 6687   3.160   0.757   3.509
 1930SOL     OW 6688   3.325   3.571   0.103
 1930SOL    HW1 6689   3.249   3.602   0.045
 1930SOL    HW2 6690   3.307   3.477   0.134
 1931SOL     OW 6691   5.463   3.342   3.742
 1931SOL    HW1 6692   5.491   3.401   3.818
 1931SOL    HW2 6693   5.452   3.397   3.659
 1932SOL     OW 6694   4.851   0.987   1.892
 1932SOL    HW1 6695   4.798   0.939   1.962
 1932SOL    HW2 6696   4.898   1.065   1.934
 1933SOL     OW 6697   1.516   1.230   1.066
 1933SOL    HW1 6698   1.575   1.197   1.140
 1933SOL    HW2 6699   1.501   1.328   1.076
 1934SOL     OW 6700   6.615   0.857   6.945
 1934SOL    HW1 6701   6.655   0.901   6.864
 1934SOL    HW2 6702   6.517   0.876   6.948
 1935SOL     OW 6703   5.952   5.132   3.504
 1935SOL    HW1 6704   5.853   5.126   3.517
 1935SOL    HW2 6705   5.995   5.158   3.590
 1936SOL     OW 6706   6.071   3.062   6.604
 1936SOL    HW1 6707   6.022   3.094   6.685
 1936SOL    HW2 6708   6.021   2.985   6.563
 1937SOL     OW 6709   0.884   5.134   6.742
 1937SOL    HW1 6710   0.954   5.153   6.673
 1937SOL    HW2 6711   0.797   5.118   6.696
 1938SOL     OW 6712   6.953   1.523   6.643
 1938SOL    HW1 6713   6.948   1.620   6.666
 1938SOL    HW2 6714   6.880   1.500   6.579
 1939SOL     OW 6715   0.498   0.783   3.786
 1939SOL    HW1 6716   0.493   0.733   3.873
 1939SOL    HW2 6717   0.473   0.723   3.711
 1940SOL     OW 6718   0.890   5.333   2.132
 1940SOL    HW1 6719   0.932   5.319   2.043
 1940SOL    HW2 6720   0.790   5.323   2.124
 1941SOL     OW 6721   5.974   7.007   4.151
 1941SOL    HW1 6722   6.016   6.968   4.233
 1941SOL    HW2 6723   6.040   7.009   4.077
 1942SOL     OW 6724   0.774   6.344   1.785
 1942SOL    HW1 6725   0.798   6.258   1.829
 1942SOL    HW2 6726   0.763   6.416   1.854
 1943SOL     OW 6727   0.729   4.275   3.968
 1943SOL    HW1 6728   0.701   4.355   4.022
 1943SOL    HW2 6729   0.739   4.300   3.872
 1944SOL     OW 6730   6.935   3.721   3.736
 1944SOL    HW1 6731   6.983   3.785   3.676
 1944SOL    HW2 6732   6.862   3.768   3.785
 1945SOL     OW 6733   4.550   1.714   2.166
 1945SOL    HW1 6734   4.452   1.731   2.153
 1945SOL    HW2 6735   4.586   1.778   2.234
 1946SOL     OW 6736   5.895   4.818   6.936
 1946SOL    HW1 6737   5.885   4.813   6.836
 1946SOL    HW2 6738   5.863   4.733   6.977
 1947SOL     OW 6739   5.503   6.192   2.591
 1947SOL    HW1 6740   5.456   6.250   2.658
 1947SOL    HW2 6741   5.518   6.244   2.507
 1948SOL     OW 6742   5.115   2.837   3.038
 1948SOL    HW1 6743   5.129   2.785   3.122
 1948SOL    HW2 6744   5.121   2.935   3.057
 1949SOL     OW 6745   3.260   3.977   6.546
 1949SOL    HW1 6746   3.328   4.004   6.614
 1949SOL    HW2 6747   3.305   3.959   6.459
 1950SOL     OW 6748   3.794   3.561   4.090
 1950SOL    HW1 6749   3.780   3.527   3.997
 1950SOL    HW2 6750   3.891   3.582   4.103
 1951SOL     OW 6751   0.870   5.262   6.149
 1951SOL    HW1 6752   0.905   5.170   6.132
 1951SOL    HW2 6753   0.806   5.259   6.226
 1952SOL     OW 6754   5.783   3.828   0.187
 1952SOL    HW1 6755   5.871   3.810   0.143
 1952SOL    HW2 6756   5.729   3.890   0.130
 1953SOL     OW 6757   0.396   1.229   6.213
 1953SOL    HW1 6758   0.320   1.283   6.175
 1953SOL    HW2 6759   0.363   1.138   6.237
 1954SOL     OW 6760   3.985   6.742   3.197
 1954SOL    HW1 6761   3.887   6.741   3.214
 1954SOL    HW2 6762   4.010   6.825   3.147
 1955SOL     OW 6763   6.833   3.364   4.110
 1955SOL    HW1 6764   6.863   3.284   4.161
 1955SOL    HW2 6765   6.872   3.447   4.151
 1956SOL     OW 6766   4.697   1.537   1.397
 1956SOL    HW1 6767   4.684   1.437   1.395
 1956SOL    HW2 6768   4.763   1.560   1.469
 1957SOL     OW 6769   0.212   3.002   4.748
 1957SOL    HW1 6770   0.308   2.989   4.773
 1957SOL    HW2 6771   0.175   3.079   4.798
 1958SOL     OW 6772   5.510   1.933   0.409
 1958SOL    HW1 6773   5.465   1.946   0.321
 1958SOL    HW2 6774   5.443   1.909   0.479
 1959SOL     OW 6775   1.692   1.660   5.959
 1959SOL    HW1 6776   1.657   1.719   6.032
 1959SOL    HW2 6777   1.775   1.614   5.990
 1960SOL     OW 6778   4.724   4.463   1.909
 1960SOL    HW1 6779   4.670   4.379   1.906
 1960SOL    HW2 6780   4.727   4.498   2.002
 1961SOL     OW 6781   6.313   3.649   4.330
 1961SOL    HW1 6782   6.270   3.566   4.295
 1961SOL    HW2 6783   6.411   3.646   4.314
 1962SOL     OW 6784   0.044   6.961   2.225
 1962SOL    HW1 6785   7.004   6.979   2.302
 1962SOL    HW2 6786   0.108   0.016   2.216
 1963SOL     OW 6787   0.677   1.073   7.012
 1963SOL    HW1 6788   0.703   1.158   6.965
 1963SOL    HW2 6789   0.633   1.012   6.946
 1964SOL     OW 6790   5.359   3.125   0.744
 1964SOL    HW1 6791   5.282   3.175   0.706
 1964SOL    HW2 6792   5.420   3.188   0.793
 1965SOL     OW 6793   5.379   5.088   4.859
 1965SOL    HW1 6794   5.465   5.098   4.808
 1965SOL    HW2 6795   5.345   5.178   4.885
 1966SOL     OW 6796   1.789   5.339   6.600
 1966SOL    HW1 6797   1.865   5.402   6.618
 1966SOL    HW2 6798   1.713   5.360   6.661
 1967SOL     OW 6799   6.511   2.612   3.976
 1967SOL    HW1 6800   6.553   2.589   4.063
 1967SOL    HW2 6801   6.525   2.708   3.956
 1968SOL     OW 6802   2.409   1.390   5.740
 1968SOL    HW1 6803   2.503   1.357   5.735
 1968SOL    HW2 6804   2.401   1.475   5.687
 1969SOL     OW 6805   0.429   6.293   1.796
 1969SOL    HW1 6806   0.453   6.390   1.793
 1969SOL    HW2 6807   0.489   6.242   1.734
 1970SOL     OW 6808   4.903   4.262   2.622
 1970SOL    HW1 6809   4.981   4.227   2.571
 1970SOL    HW2 6810   4.895   4.360   2.607
 1971SOL     OW 6811   1.344   5.657   4.290
 1971SOL    HW1 6812   1.370   5.678   4.195
 1971SOL    HW2 6813   1.245   5.645   4.296
 1972SOL     OW 6814   5.490   2.050   3.388
 1972SOL    HW1 6815   5.584   2.017   3.381
 1972SOL    HW2 6816   5.489   2.137   3.438
 1973SOL     OW 6817   4.295   2.416   6.880
 1973SOL    HW1 6818   4.380   2.426   6.932
 1973SOL    HW2 6819   4.233   2.354   6.928
 1974SOL     OW 6820   2.037   6.523   4.230
 1974SOL    HW1 6821   2.076   6.527   4.322
 1974SOL    HW2 6822   2.111   6.518   4.163
 1975SOL     OW 6823   1.989   2.344   2.767
 1975SOL    HW1 6824   2.005   2.322   2.863
 1975SOL    HW2 6825   2.064   2.309   2.711
 1976SOL     OW 6826   2.674   0.362   4.564
 1976SOL    HW1 6827   2.760   0.385   4.609
 1976SOL    HW2 6828   2.652   0.432   4.496
 1977SOL     OW 6829   1.109   4.414   0.170
 1977SOL    HW1 6830   1.135   4.325   0.133
 1977SOL    HW2 6831   1.119   4.484   0.100
 1978SOL     OW 6832   2.508   0.724   2.475
 1978SOL    HW1 6833   2.533   0.789   2.547
 1978SOL    HW2 6834   2.423   0.754   2.432
 1979SOL     OW 6835   5.358   2.975   6.916
 1979SOL    HW1 6836   5.297   3.013   6.846
 1979SOL    HW2 6837   5.336   3.014   7.005
 1980SOL     OW 6838   4.099   7.004   1.465
 1980SOL    HW1 6839   4.053   6.935   1.521
 1980SOL    HW2 6840   4.188   6.969   1.437
 1981SOL     OW 6841   4.449   2.757   1.548
 1981SOL    HW1 6842   4.436   2.833   1.485
 1981SOL    HW2 6843   4.521   2.779   1.613
 1982SOL     OW 6844   2.433   2.076   6.516
 1982SOL    HW1 6845   2.493   2.034   6.448
 1982SOL    HW2 6846   2.404   2.166   6.484
 1983SOL     OW 6847   6.961   2.331   1.065
 1983SOL    HW1 6848   0.013   2.336   0.997
 1983SOL    HW2 6849   6.945   2.422   1.103
 1984SOL     OW 6850   4.776   3.198   6.290
 1984SOL    HW1 6851   4.678   3.217   6.278
 1984SOL    HW2 6852   4.818   3.272   6.341
 1985SOL     OW 6853   5.227   5.726   5.189
 1985SOL    HW1 6854   5.157   5.712   5.118
 1985SOL    HW2 6855   5.276   5.811   5.171
 1986SOL     OW 6856   3.493   3.213   3.379
 1986SOL    HW1 6857   3.397   3.236   3.392
 1986SOL    HW2 6858   3.501   3.133   3.319
 1987SOL     OW 6859   1.542   2.148   1.989
 1987SOL    HW1 6860   1.556   2.165   2.087
 1987SOL    HW2 6861   1.469   2.208   1.955
 1988SOL     OW 6862   1.476   1.770   2.503
 1988SOL    HW1 6863   1.450   1.865   2.523
 1988SOL    HW2 6864   1.554   1.745   2.560
 1989SOL     OW 6865   3.128   5.043   3.320
 1989SOL    HW1 6866   3.061   5.098   3.369
 1989SOL    HW2 6867   3.157   5.091   3.237
 1990SOL     OW 6868   4.599   6.933   0.919
 1990SOL    HW1 6869   4.626   0.002   0.954
 1990SOL    HW2 6870   4.618   6.928   0.821
 1991SOL     OW 6871   2.892   5.149   2.412
 1991SOL    HW1 6872   2.928   5.210   2.482
 1991SOL    HW2 6873   2.831   5.200   2.351
 1992SOL     OW 6874   0.626   0.171   2.983
 1992SOL    HW1 6875   0.651   0.260   3.022
 1992SOL    HW2 6876   0.692   0.146   2.912
 1993SOL     OW 6877   1.182   1.004   1.276
 1993SOL    HW1 6878   1.242   1.064   1.328
 1993SOL    HW2 6879   1.098   0.988   1.327
 1994SOL     OW 6880   3.099   3.553   1.483
 1994SOL    HW1 6881   3.069   3.592   1.396
 1994SOL    HW2 6882   3.019   3.528   1.538
 1995SOL     OW 6883   6.313   0.627   4.203
 1995SOL    HW1 6884   6.237   0.594   4.259
 1995SOL    HW2 6885   6.375   0.551   4.184
 1996SOL     OW 6886   4.711   0.284   1.230
 1996SOL    HW1 6887   4.698   0.382   1.247
 1996SOL    HW2 6888   4.802   0.257   1.263
 1997SOL     OW 6889   2.662   1.747   3.078
 1997SOL    HW1 6890   2.709   1.702   3.153
 1997SOL    HW2 6891   2.579   1.696   3.055
 1998SOL     OW 6892   2.053   3.720   1.291
 1998SOL    HW1 6893   2.044   3.646   1.357
 1998SOL    HW2 6894   2.150   3.732   1.267
 1999SOL     OW 6895   0.399   0.240   5.529
 1999SOL    HW1 6896   0.418   0.210   5.622
 1999SOL    HW2 6897   0.470   0.207   5.467
 2000SOL     OW 6898   4.275   3.985   6.520
 2000SOL    HW1 6899   4.200   3.998   6.455
 2000SOL    HW2 6900   4.361   4.007   6.475
 2001SOL     OW 6901   1.570   1.705   0.001
 2001SOL    HW1 6902   1.667   1.707   0.025
 2001SOL    HW2 6903   1.544   1.794   6.984
 2002SOL     OW 6904   5.731   4.545   6.651
 2002SOL    HW1 6905   5.662   4.480   6.683
 2002SOL    HW2 6906   5.737   4.541   6.551
 2003SOL     OW 6907   0.058   5.520   1.302
 2003SOL    HW1 6908   0.083   5.596   1.243
 2003SOL    HW2 6909   0.034   5.555   1.393
 2004SOL     OW 6910   3.238   1.024   2.800
 2004SOL    HW1 6911   3.244   0.929   2.829
 2004SOL    HW2 6912   3.329   1.065   2.801
 2005SOL     OW 6913   1.660   6.212   0.044
 2005SOL    HW1 6914   1.597   6.184   0.117
 2005SOL    HW2 6915   1.738   6.260   0.085
 2006SOL     OW 6916   6.038   0.246   2.084
 2006SOL    HW1 6917   6.116   0.241   2.146
 2006SOL    HW2 6918   5.998   0.155   2.073
 2007SOL     OW 6919   5.647   4.837   5.731
 2007SOL    HW1 6920   5.561   4.854   5.779
 2007SOL    HW2 6921   5.655   4.740   5.711
 2008SOL     OW 6922   2.228   3.007   2.842
 2008SOL    HW1 6923   2.237   3.035   2.938
 2008SOL    HW2 6924   2.183   2.918   2.838
 2009SOL     OW 6925   5.779   6.891   3.681
 2009SOL    HW1 6926   5.870   6.913   3.646
 2009SOL    HW2 6927   5.754   6.798   3.655
 2010SOL     OW 6928   6.616   1.265   1.834
 2010SOL    HW1 6929   6.659   1.315   1.759
 2010SOL    HW2 6930   6.660   1.176   1.845
 2011SOL     OW 6931   0.637   0.394   5.178
 2011SOL    HW1 6932   0.559   0.454   5.159
 2011SOL    HW2 6933   0.692   0.433   5.251
 2012SOL     OW 6934   0.170   2.284   0.518
 2012SOL    HW1 6935   0.132   2.338   0.443
 2012SOL    HW2 6936   0.095   2.249   0.574
 2013SOL     OW 6937   0.593   2.415   2.220
 2013SOL    HW1 6938   0.522   2.393   2.287
 2013SOL    HW2 6939   0.560   2.392   2.129
 2014SOL     OW 6940   4.088   2.187   3.073
 2014SOL    HW1 6941   4.134   2.241   3.145
 2014SOL    HW2 6942   4.143   2.190   2.990
 2015SOL     OW 6943   3.359   6.159   1.265
 2015SOL    HW1 6944   3.339   6.061   1.263
 2015SOL    HW2 6945   3.383   6.186   1.359
 2016SOL     OW 6946   2.355   0.441   4.331
 2016SOL    HW1 6947   2.279   0.419   4.270
 2016SOL    HW2 6948   2.344   0.392   4.417
 2017SOL     OW 6949   1.066   6.849   4.215
 2017SOL    HW1 6950   1.110   6.919   4.158
 2017SOL    HW2 6951   1.099   6.759   4.188
 2018SOL     OW 6952   0.564   1.188   4.544
 2018SOL    HW1 6953   0.497   1.155   4.477
 2018SOL    HW2 6954   0.602   1.110   4.594
 2019SOL     OW 6955   0.842   4.780   6.694
 2019SOL    HW1 6956   0.797   4.836   6.764
 2019SOL    HW2 6957   0.902   4.838   6.639
 2020SOL     OW 6958   2.068   6.850   1.319
 2020SOL    HW1 6959   2.165   6.873   1.327
 2020SOL    HW2 6960   2.039   6.861   1.224
 2021SOL     OW 6961   0.160   5.474   3.796
 2021SOL    HW1 6962   0.200   5.562   3.825
 2021SOL    HW2 6963   0.180   5.405   3.865
 2022SOL     OW 6964   2.176   3.189   4.211
 2022SOL    HW1 6965   2.190   3.278   4.168
 2022SOL    HW2 6966   2.160   3.120   4.141
 2023SOL     OW 6967   0.633   5.840   6.175
 2023SOL    HW1 6968   0.546   5.844   6.225
 2023SOL    HW2 6969   0.706   5.812   6.237
 2024SOL     OW 6970   6.446   5.747   3.365
 2024SOL    HW1 6971   6.456   5.649   3.383
 2024SOL    HW2 6972   6.466   5.798   3.449
 2025SOL     OW 6973   1.859   0.759   4.501
 2025SOL    HW1 6974   1.860   0.777   4.403
 2025SOL    HW2 6975   1.944   0.713   4.527
 2026SOL     OW 6976   1.475   6.624   5.823
 2026SOL    HW1 6977   1.559   6.673   5.798
 2026SOL    HW2 6978   1.460   6.633   5.922
 2027SOL     OW 6979   6.353   6.595   3.271
 2027SOL    HW1 6980   6.410   6.656   3.326
 2027SOL    HW2 6981   6.411   6.535   3.217
 2028SOL     OW 6982   1.907   5.979   4.622
 2028SOL    HW1 6983   1.869   5.887   4.634
 2028SOL    HW2 6984   1.996   5.984   4.666
 2029SOL     OW 6985   0.213   2.312   0.100
 2029SOL    HW1 6986   0.168   2.397   0.074
 2029SOL    HW2 6987   0.307   2.331   0.128
 2030SOL     OW 6988   1.509   5.968   2.652
 2030SOL    HW1 6989   1.443   5.901   2.688
 2030SOL    HW2 6990   1.459   6.041   2.605
 2031SOL     OW 6991   6.779   0.636   4.518
 2031SOL    HW1 6992   6.828   0.576   4.455
 2031SOL    HW2 6993   6.824   0.726   4.519
 2032SOL     OW 6994   3.031   2.723   6.124
 2032SOL    HW1 6995   3.008   2.688   6.033
 2032SOL    HW2 6996   2.972   2.679   6.192
 2033SOL     OW 6997   2.790   6.886   1.446
 2033SOL    HW1 6998   2.783   6.854   1.540
 2033SOL    HW2 6999   2.884   6.873   1.413
 2034SOL     OW 7000   0.785   3.545   4.897
 2034SOL    HW1 7001   0.863   3.567   4.955
 2034SOL    HW2 7002   0.814   3.483   4.824
 2035SOL     OW 7003   4.776   6.161   3.414
 2035SOL    HW1 7004   4.694   6.114   3.448
 2035SOL    HW2 7005   4.819   6.104   3.344
 2036SOL     OW 7006   6.915   3.748   5.710
 2036SOL    HW1 7007   6.910   3.686   5.789
 2036SOL    HW2 7008   6.829   3.742   5.658
 2037SOL     OW 7009   0.572   2.635   6.469
 2037SOL    HW1 7010   0.608   2.729   6.468
 2037SOL    HW2 7011   0.604   2.587   6.387
 2038SOL     OW 7012   2.020   0.854   5.713
 2038SOL    HW1 7013   2.106   0.807   5.692
 2038SOL    HW2 7014   1.983   0.896   5.630
 2039SOL     OW 7015   5.164   5.718   4.573
 2039SOL    HW1 7016   5.250   5.759   4.544
 2039SOL    HW2 7017   5.089   5.755   4.519
 2040SOL     OW 7018   2.790   1.336   0.775
 2040SOL    HW1 7019   2.747   1.351   0.686
 2040SOL    HW2 7020   2.843   1.417   0.801
 2041SOL     OW 7021   2.811   0.207   6.685
 2041SOL    HW1 7022   2.874   0.130   6.674
 2041SOL    HW2 7023   2.730   0.193   6.629
 2042SOL     OW 7024   0.551   0.161   5.284
 2042SOL    HW1 7025   0.482   0.131   5.219
 2042SOL    HW2 7026   0.602   0.238   5.245
 2043SOL     OW 7027   1.517   3.481   0.195
 2043SOL    HW1 7028   1.553   3.391   0.221
 2043SOL    HW2 7029   1.419   3.485   0.218
 2044SOL     OW 7030   2.968   1.255   2.298
 2044SOL    HW1 7031   3.042   1.294   2.353
 2044SOL    HW2 7032   3.005   1.187   2.235
 2045SOL     OW 7033   1.989   6.058   3.369
 2045SOL    HW1 7034   1.983   5.961   3.393
 2045SOL    HW2 7035   2.045   6.106   3.436
 2046SOL     OW 7036   0.612   2.626   5.348
 2046SOL    HW1 7037   0.565   2.714   5.352
 2046SOL    HW2 7038   0.711   2.641   5.355
 2047SOL     OW 7039   6.831   0.228   1.953
 2047SOL    HW1 7040   6.760   0.298   1.949
 2047SOL    HW2 7041   6.805   0.158   2.020
 2048SOL     OW 7042   2.303   1.213   3.491
 2048SOL    HW1 7043   2.276   1.191   3.397
 2048SOL    HW2 7044   2.242   1.282   3.529
 2049SOL     OW 7045   4.333   2.320   5.268
 2049SOL    HW1 7046   4.294   2.348   5.180
 2049SOL    HW2 7047   4.424   2.360   5.278
 2050SOL     OW 7048   0.075   1.051   2.804
 2050SOL    HW1 7049   0.024   1.134   2.829
 2050SOL    HW2 7050   0.025   1.002   2.732
 2051SOL     OW 7051   3.310   6.923   6.430
 2051SOL    HW1 7052   3.268   6.833   6.437
 2051SOL    HW2 7053   3.275   6.982   6.503
 2052SOL     OW 7054   0.690   4.218   0.742
 2052SOL    HW1 7055   0.644   4.306   0.750
 2052SOL    HW2 7056   0.789   4.231   0.750
 2053SOL     OW 7057   4.665   5.180   1.514
 2053SOL    HW1 7058   4.693   5.085   1.501
 2053SOL    HW2 7059   4.743   5.240   1.496
 2054SOL     OW 7060   2.919   3.767   4.091
 2054SOL    HW1 7061   2.916   3.675   4.128
 2054SOL    HW2 7062   2.930   3.833   4.165
 2055SOL     OW 7063   3.049   2.989   5.602
 2055SOL    HW1 7064   3.057   3.052   5.678
 2055SOL    HW2 7065   2.958   2.948   5.602
 2056SOL     OW 7066   2.615   5.432   1.758
 2056SOL    HW1 7067   2.539   5.379   1.721
 2056SOL    HW2 7068   2.694   5.373   1.772
 2057SOL     OW 7069   6.161   3.019   4.672
 2057SOL    HW1 7070   6.076   2.986   4.631
 2057SOL    HW2 7071   6.238   2.995   4.612
 2058SOL     OW 7072   5.471   0.473   3.876
 2058SOL    HW1 7073   5.557   0.482   3.827
 2058SOL    HW2 7074   5.397   0.455   3.811
 2059SOL     OW 7075   2.877   1.265   5.918
 2059SOL    HW1 7076   2.796   1.296   5.967
 2059SOL    HW2 7077   2.872   1.296   5.823
 2060SOL     OW 7078   1.322   2.202   6.277
 2060SOL    HW1 7079   1.355   2.163   6.191
 2060SOL    HW2 7080   1.339   2.301   6.277
 2061SOL     OW 7081   2.593   2.479   3.995
 2061SOL    HW1 7082   2.590   2.539   4.075
 2061SOL    HW2 7083   2.588   2.384   4.026
 2062SOL     OW 7084   4.581   5.076   4.156
 2062SOL    HW1 7085   4.569   5.004   4.225
 2062SOL    HW2 7086   4.677   5.106   4.156
 2063SOL     OW 7087   1.409   1.537   4.020
 2063SOL    HW1 7088   1.388   1.626   4.061
 2063SOL    HW2 7089   1.505   1.535   3.993
 2064SOL     OW 7090   0.131   3.833   4.543
 2064SOL    HW1 7091   0.048   3.778   4.543
 2064SOL    HW2 7092   0.120   3.912   4.602
 2065SOL     OW 7093   3.566   3.303   5.382
 2065SOL    HW1 7094   3.643   3.252   5.342
 2065SOL    HW2 7095   3.503   3.239   5.425
 2066SOL     OW 7096   2.295   2.561   4.517
 2066SOL    HW1 7097   2.351   2.579   4.435
 2066SOL    HW2 7098   2.330   2.615   4.593
 2067SOL     OW 7099   5.836   4.287   3.193
 2067SOL    HW1 7100   5.753   4.337   3.170
 2067SOL    HW2 7101   5.874   4.244   3.111
 2068SOL     OW 7102   3.166   6.343   4.357
 2068SOL    HW1 7103   3.067   6.353   4.371
 2068SOL    HW2 7104   3.210   6.432   4.368
 2069SOL     OW 7105   5.435   1.681   2.760
 2069SOL    HW1 7106   5.464   1.638   2.846
 2069SOL    HW2 7107   5.414   1.610   2.693
 2070SOL     OW 7108   0.385   5.891   1.828
 2070SOL    HW1 7109   0.345   5.899   1.737
 2070SOL    HW2 7110   0.474   5.938   1.830
 2071SOL     OW 7111   6.983   2.375   4.161
 2071SOL    HW1 7112   6.945   2.428   4.085
 2071SOL    HW2 7113   6.942   2.408   4.247
 2072SOL     OW 7114   5.223   3.021   5.920
 2072SOL    HW1 7115   5.257   2.972   5.839
 2072SOL    HW2 7116   5.265   2.982   6.002
 2073SOL     OW 7117   3.153   5.919   0.088
 2073SOL    HW1 7118   3.244   5.958   0.074
 2073SOL    HW2 7119   3.161   5.834   0.141
 2074SOL     OW 7120   3.528   4.321   5.328
 2074SOL    HW1 7121   3.618   4.332   5.370
 2074SOL    HW2 7122   3.469   4.397   5.353
 2075SOL     OW 7123   5.030   0.784   1.152
 2075SOL    HW1 7124   5.051   0.755   1.246
 2075SOL    HW2 7125   4.962   0.722   1.113
 2076SOL     OW 7126   6.738   0.014   3.619
 2076SOL    HW1 7127   6.782   0.097   3.584
 2076SOL    HW2 7128   6.710   6.977   3.543
 2077SOL     OW 7129   0.654   4.498   1.123
 2077SOL    HW1 7130   0.555   4.494   1.115
 2077SOL    HW2 7131   0.695   4.417   1.081
 2078SOL     OW 7132   0.927   2.451   0.461
 2078SOL    HW1 7133   0.923   2.502   0.546
 2078SOL    HW2 7134   0.899   2.356   0.477
 2079SOL     OW 7135   5.652   1.834   3.595
 2079SOL    HW1 7136   5.696   1.882   3.519
 2079SOL    HW2 7137   5.564   1.798   3.565
 2080SOL     OW 7138   1.926   2.861   4.517
 2080SOL    HW1 7139   1.960   2.770   4.494
 2080SOL    HW2 7140   1.935   2.921   4.437
 2081SOL     OW 7141   0.454   6.081   2.907
 2081SOL    HW1 7142   0.530   6.020   2.928
 2081SOL    HW2 7143   0.405   6.046   2.827
 2082SOL     OW 7144   6.437   6.081   4.367
 2082SOL    HW1 7145   6.462   6.120   4.279
 2082SOL    HW2 7146   6.408   6.155   4.429
 2083SOL     OW 7147   1.035   5.708   3.129
 2083SOL    HW1 7148   1.118   5.669   3.090
 2083SOL    HW2 7149   1.056   5.798   3.168
 2084SOL     OW 7150   5.995   2.583   1.118
 2084SOL    HW1 7151   5.956   2.630   1.039
 2084SOL    HW2 7152   5.928   2.519   1.156
 2085SOL     OW 7153   6.088   4.859   6.461
 2085SOL    HW1 7154   6.174   4.888   6.502
 2085SOL    HW2 7155   6.096   4.764   6.430
 2086SOL     OW 7156   5.464   1.638   5.475
 2086SOL    HW1 7157   5.524   1.559   5.486
 2086SOL    HW2 7158   5.471   1.697   5.556
 2087SOL     OW 7159   4.766   1.297   5.932
 2087SOL    HW1 7160   4.819   1.229   5.883
 2087SOL    HW2 7161   4.791   1.295   6.029
 2088SOL     OW 7162   0.646   3.389   5.613
 2088SOL    HW1 7163   0.573   3.332   5.574
 2088SOL    HW2 7164   0.735   3.349   5.589
 2089SOL     OW 7165   3.127   5.156   4.687
 2089SOL    HW1 7166   3.202   5.095   4.663
 2089SOL    HW2 7167   3.043   5.103   4.701
 2090SOL     OW 7168   5.452   2.463   6.243
 2090SOL    HW1 7169   5.449   2.367   6.273
 2090SOL    HW2 7170   5.439   2.468   6.144
 2091SOL     OW 7171   5.569   0.285   1.002
 2091SOL    HW1 7172   5.632   0.303   1.078
 2091SOL    HW2 7173   5.610   0.316   0.916
 2092SOL     OW 7174   3.621   3.182   2.614
 2092SOL    HW1 7175   3.692   3.247   2.639
 2092SOL    HW2 7176   3.531   3.222   2.634
 2093SOL     OW 7177   5.056   0.455   6.910
 2093SOL    HW1 7178   5.028   0.495   6.822
 2093SOL    HW2 7179   4.985   0.394   6.943
 2094SOL     OW 7180   4.772   2.883   1.147
 2094SOL    HW1 7181   4.864   2.899   1.182
 2094SOL    HW2 7182   4.722   2.970   1.143
 2095SOL     OW 7183   3.900   5.801   4.142
 2095SOL    HW1 7184   3.923   5.891   4.104
 2095SOL    HW2 7185   3.879   5.811   4.239
 2096SOL     OW 7186   3.816   0.549   2.804
 2096SOL    HW1 7187   3.810   0.449   2.806
 2096SOL    HW2 7188   3.903   0.576   2.763
 2097SOL     OW 7189   2.935   5.866   5.232
 2097SOL    HW1 7190   2.974   5.954   5.260
 2097SOL    HW2 7191   2.838   5.876   5.214
 2098SOL     OW 7192   1.566   0.150   4.170
 2098SOL    HW1 7193   1.654   0.192   4.193
 2098SOL    HW2 7194   1.582   0.069   4.114
 2099SOL     OW 7195   4.519   1.899   6.958
 2099SOL    HW1 7196   4.553   1.834   6.889
 2099SOL    HW2 7197   4.466   1.970   6.912
 2100SOL     OW 7198   5.033   0.186   0.943
 2100SOL    HW1 7199   5.125   0.164   0.909
 2100SOL    HW2 7200   5.040   0.242   1.025
 2101SOL     OW 7201   0.927   0.227   2.942
 2101SOL    HW1 7202   0.894   0.301   3.001
 2101SOL    HW2 7203   0.952   0.148   2.998
 2102SOL     OW 7204   3.795   3.003   2.761
 2102SOL    HW1 7205   3.720   3.059   2.726
 2102SOL    HW2 7206   3.864   2.991   2.690
 2103SOL     OW 7207   1.662   0.060   1.601
 2103SOL    HW1 7208   1.761   0.047   1.600
 2103SOL    HW2 7209   1.616   6.992   1.597
 2104SOL     OW 7210   0.873   4.743   2.471
 2104SOL    HW1 7211   0.887   4.799   2.553
 2104SOL    HW2 7212   0.961   4.717   2.433
 2105SOL     OW 7213   5.300   6.285   5.607
 2105SOL    HW1 7214   5.373   6.255   5.669
 2105SOL    HW2 7215   5.230   6.213   5.601
 2106SOL     OW 7216   3.488   3.736   0.606
 2106SOL    HW1 7217   3.526   3.751   0.515
 2106SOL    HW2 7218   3.412   3.799   0.621
 2107SOL     OW 7219   6.007   4.884   4.472
 2107SOL    HW1 7220   5.934   4.921   4.530
 2107SOL    HW2 7221   6.093   4.884   4.523
 2108SOL     OW 7222   4.382   6.339   5.753
 2108SOL    HW1 7223   4.333   6.302   5.674
 2108SOL    HW2 7224   4.317   6.356   5.827
 2109SOL     OW 7225   2.877   6.178   2.405
 2109SOL    HW1 7226   2.849   6.187   2.501
 2109SOL    HW2 7227   2.874   6.082   2.378
 2110SOL     OW 7228   3.788   5.965   0.766
 2110SOL    HW1 7229   3.797   5.892   0.699
 2110SOL    HW2 7230   3.692   5.993   0.773
 2111SOL     OW 7231   0.876   2.656   0.281
 2111SOL    HW1 7232   0.791   2.629   0.235
 2111SOL    HW2 7233   0.900   2.588   0.350
 2112SOL     OW 7234   0.785   0.842   6.502
 2112SOL    HW1 7235   0.763   0.900   6.424
 2112SOL    HW2 7236   0.878   0.808   6.493
 2113SOL     OW 7237   6.658   1.642   4.696
 2113SOL    HW1 7238   6.721   1.708   4.657
 2113SOL    HW2 7239   6.588   1.619   4.628
 2114SOL     OW 7240   2.967   0.568   5.653
 2114SOL    HW1 7241   2.951   0.664   5.631
 2114SOL    HW2 7242   2.958   0.555   5.752
 2115SOL     OW 7243   0.224   0.033   4.283
 2115SOL    HW1 7244   0.171   0.043   4.199
 2115SOL    HW2 7245   0.188   6.977   4.335
 2116SOL     OW 7246   2.678   6.667   6.608
 2116SOL    HW1 7247   2.630   6.582   6.585
 2116SOL    HW2 7248   2.619   6.724   6.665
 2117SOL     OW 7249   6.303   2.712   0.781
 2117SOL    HW1 7250   6.226   2.649   0.785
 2117SOL    HW2 7251   6.270   2.807   0.784
 2118SOL     OW 7252   0.013   3.101   2.555
 2118SOL    HW1 7253   0.089   3.042   2.528
 2118SOL    HW2 7254   7.017   3.092   2.653
 2119SOL     OW 7255   1.972   2.454   6.868
 2119SOL    HW1 7256   1.997   2.481   6.961
 2119SOL    HW2 7257   2.053   2.451   6.810
 2120SOL     OW 7258   6.242   1.613   0.865
 2120SOL    HW1 7259   6.340   1.636   0.865
 2120SOL    HW2 7260   6.212   1.594   0.958
 2121SOL     OW 7261   2.661   5.790   1.919
 2121SOL    HW1 7262   2.621   5.748   1.837
 2121SOL    HW2 7263   2.756   5.817   1.900
 2122SOL     OW 7264   0.449   1.371   5.498
 2122SOL    HW1 7265   0.465   1.457   5.546
 2122SOL    HW2 7266   0.537   1.327   5.478
 2123SOL     OW 7267   0.629   4.676   3.098
 2123SOL    HW1 7268   0.592   4.663   3.190
 2123SOL    HW2 7269   0.676   4.592   3.070
 2124SOL     OW 7270   5.673   3.481   6.472
 2124SOL    HW1 7271   5.587   3.443   6.504
 2124SOL    HW2 7272   5.718   3.531   6.546
 2125SOL     OW 7273   2.144   5.319   5.860
 2125SOL    HW1 7274   2.054   5.340   5.823
 2125SOL    HW2 7275   2.211   5.385   5.825
 2126SOL     OW 7276   2.474   6.234   2.372
 2126SOL    HW1 7277   2.527   6.154   2.396
 2126SOL    HW2 7278   2.424   6.217   2.286
 2127SOL     OW 7279   1.665   3.810   4.079
 2127SOL    HW1 7280   1.721   3.849   4.006
 2127SOL    HW2 7281   1.722   3.796   4.160
 2128SOL     OW 7282   5.182   3.153   1.030
 2128SOL    HW1 7283   5.165   3.252   1.030
 2128SOL    HW2 7284   5.118   3.108   0.968
 2129SOL     OW 7285   5.454   4.785   3.740
 2129SOL    HW1 7286   5.483   4.824   3.827
 2129SOL    HW2 7287   5.372   4.833   3.708
 2130SOL     OW 7288   2.039   0.059   3.098
 2130SOL    HW1 7289   2.087   0.138   3.060
 2130SOL    HW2 7290   2.106   7.009   3.123
 2131SOL     OW 7291   6.107   7.011   6.696
 2131SOL    HW1 7292   6.119   6.923   6.742
 2131SOL    HW2 7293   6.062   6.997   6.608
 2132SOL     OW 7294   2.967   1.770   0.483
 2132SOL    HW1 7295   2.981   1.841   0.552
 2132SOL    HW2 7296   3.019   1.688   0.509
 2133SOL     OW 7297   3.222   3.458   2.214
 2133SOL    HW1 7298   3.309   3.433   2.257
 2133SOL    HW2 7299   3.178   3.530   2.269
 2134SOL     OW 7300   2.449   6.908   4.856
 2134SOL    HW1 7301   2.399   6.822   4.846
 2134SOL    HW2 7302   2.424   6.970   4.782
 2135SOL     OW 7303   0.285   5.705   3.814
 2135SOL    HW1 7304   0.314   5.754   3.732
 2135SOL    HW2 7305   0.297   5.763   3.894
 2136SOL     OW 7306   0.358   4.709   3.546
 2136SOL    HW1 7307   0.368   4.781   3.477
 2136SOL    HW2 7308   0.410   4.734   3.628
 2137SOL     OW 7309   0.281   0.170   4.717
 2137SOL    HW1 7310   0.336   0.093   4.748
 2137SOL    HW2 7311   0.244   0.219   4.797
 2138SOL     OW 7312   1.256   2.038   0.219
 2138SOL    HW1 7313   1.328   1.969   0.209
 2138SOL    HW2 7314   1.232   2.048   0.316
 2139SOL     OW 7315   3.928   6.372   4.519
 2139SOL    HW1 7316   3.857   6.302   4.529
 2139SOL    HW2 7317   3.890   6.461   4.541
 2140SOL     OW 7318   0.950   5.632   3.450
 2140SOL    HW1 7319   1.014   5.595   3.383
 2140SOL    HW2 7320   0.933   5.563   3.521
 2141SOL     OW 7321   6.796   0.586   6.817
 2141SOL    HW1 7322   6.701   0.580   6.847
 2141SOL    HW2 7323   6.835   0.673   6.847
 2142SOL     OW 7324   3.952   1.578   3.325
 2142SOL    HW1 7325   3.993   1.669   3.327
 2142SOL    HW2 7326   3.952   1.543   3.231
 2143SOL     OW 7327   3.242   5.574   0.554
 2143SOL    HW1 7328   3.171   5.513   0.591
 2143SOL    HW2 7329   3.332   5.532   0.567
 2144SOL     OW 7330   1.014   1.104   1.983
 2144SOL    HW1 7331   1.077   1.162   2.034
 2144SOL    HW2 7332   0.973   1.037   2.044
 2145SOL     OW 7333   2.478   6.156   3.330
 2145SOL    HW1 7334   2.484   6.138   3.428
 2145SOL    HW2 7335   2.554   6.109   3.284
 2146SOL     OW 7336   2.851   2.079   1.295
 2146SOL    HW1 7337   2.933   2.048   1.344
 2146SOL    HW2 7338   2.809   2.155   1.344
 2147SOL     OW 7339   6.935   0.482   4.126
 2147SOL    HW1 7340   6.933   0.463   4.224
 2147SOL    HW2 7341   6.949   0.580   4.111
 2148SOL     OW 7342   6.598   4.219   4.006
 2148SOL    HW1 7343   6.576   4.167   4.089
 2148SOL    HW2 7344   6.681   4.181   3.965
 2149SOL     OW 7345   2.168   1.139   2.353
 2149SOL    HW1 7346   2.079   1.167   2.317
 2149SOL    HW2 7347   2.176   1.168   2.448
 2150SOL     OW 7348   5.723   0.633   3.137
 2150SOL    HW1 7349   5.812   0.677   3.134
 2150SOL    HW2 7350   5.729   0.541   3.098
 2151SOL     OW 7351   5.067   4.666   5.299
 2151SOL    HW1 7352   4.984   4.678   5.352
 2151SOL    HW2 7353   5.098   4.754   5.263
 2152SOL     OW 7354   6.919   6.261   2.593
 2152SOL    HW1 7355   6.999   6.226   2.642
 2152SOL    HW2 7356   6.949   6.306   2.509
 2153SOL     OW 7357   4.216   2.289   3.307
 2153SOL    HW1 7358   4.179   2.291   3.400
 2153SOL    HW2 7359   4.296   2.348   3.302
 2154SOL     OW 7360   4.415   0.247   4.052
 2154SOL    HW1 7361   4.318   0.236   4.074
 2154SOL    HW2 7362   4.428   0.331   4.000
 2155SOL     OW 7363   5.754   3.709   0.926
 2155SOL    HW1 7364   5.723   3.683   0.834
 2155SOL    HW2 7365   5.753   3.628   0.985
 2156SOL     OW 7366   5.877   5.644   2.759
 2156SOL    HW1 7367   5.956   5.649   2.820
 2156SOL    HW2 7368   5.902   5.685   2.671
 2157SOL     OW 7369   5.202   1.532   4.162
 2157SOL    HW1 7370   5.107   1.524   4.132
 2157SOL    HW2 7371   5.256   1.576   4.090
 2158SOL     OW 7372   4.313   1.139   3.533
 2158SOL    HW1 7373   4.357   1.204   3.594
 2158SOL    HW2 7374   4.214   1.144   3.545
 2159SOL     OW 7375   2.239   1.923   4.617
 2159SOL    HW1 7376   2.169   1.984   4.578
 2159SOL    HW2 7377   2.244   1.839   4.563
 2160SOL     OW 7378   2.155   3.994   0.667
 2160SOL    HW1 7379   2.135   4.022   0.573
 2160SOL    HW2 7380   2.248   3.958   0.672
 2161SOL     OW 7381   4.515   2.136   2.046
 2161SOL    HW1 7382   4.521   2.168   1.952
 2161SOL    HW2 7383   4.420   2.125   2.072
 2162SOL     OW 7384   1.839   1.648   2.867
 2162SOL    HW1 7385   1.878   1.663   2.958
 2162SOL    HW2 7386   1.762   1.584   2.874
 2163SOL     OW 7387   4.455   1.610   0.881
 2163SOL    HW1 7388   4.462   1.706   0.906
 2163SOL    HW2 7389   4.518   1.555   0.936
 2164SOL     OW 7390   6.417   0.351   1.966
 2164SOL    HW1 7391   6.332   0.405   1.970
 2164SOL    HW2 7392   6.429   0.315   1.874
 2165SOL     OW 7393   2.113   6.839   2.121
 2165SOL    HW1 7394   2.052   6.885   2.057
 2165SOL    HW2 7395   2.155   6.760   2.076
 2166SOL     OW 7396   5.583   2.560   4.991
 2166SOL    HW1 7397   5.531   2.564   5.076
 2166SOL    HW2 7398   5.611   2.466   4.972
 2167SOL     OW 7399   3.282   1.584   1.321
 2167SOL    HW1 7400   3.373   1.584   1.280
 2167SOL    HW2 7401   3.216   1.543   1.257
 2168SOL     OW 7402   5.653   6.630   4.518
 2168SOL    HW1 7403   5.673   6.573   4.438
 2168SOL    HW2 7404   5.558   6.614   4.547
 2169SOL     OW 7405   4.927   2.320   5.269
 2169SOL    HW1 7406   4.922   2.348   5.173
 2169SOL    HW2 7407   4.879   2.387   5.325
 2170SOL     OW 7408   4.749   5.642   4.647
 2170SOL    HW1 7409   4.656   5.637   4.612
 2170SOL    HW2 7410   4.813   5.653   4.571
 2171SOL     OW 7411   0.485   2.860   0.287
 2171SOL    HW1 7412   0.576   2.823   0.306
 2171SOL    HW2 7413   0.445   2.812   0.210
 2172SOL     OW 7414   2.670   0.549   3.422
 2172SOL    HW1 7415   2.686   0.573   3.517
 2172SOL    HW2 7416   2.723   0.468   3.398
 2173SOL     OW 7417   4.576   1.967   4.286
 2173SOL    HW1 7418   4.619   2.055   4.267
 2173SOL    HW2 7419   4.641   1.907   4.332
 2174SOL     OW 7420   0.997   6.223   5.358
 2174SOL    HW1 7421   0.972   6.133   5.395
 2174SOL    HW2 7422   1.090   6.219   5.323
 2175SOL     OW 7423   0.933   0.475   6.815
 2175SOL    HW1 7424   1.007   0.468   6.749
 2175SOL    HW2 7425   0.893   0.567   6.810
 2176SOL     OW 7426   2.439   2.398   1.988
 2176SOL    HW1 7427   2.434   2.495   2.010
 2176SOL    HW2 7428   2.349   2.367   1.956
 2177SOL     OW 7429   1.013   1.951   1.938
 2177SOL    HW1 7430   0.949   1.985   1.869
 2177SOL    HW2 7431   0.982   1.862   1.971
 2178SOL     OW 7432   6.454   5.744   0.288
 2178SOL    HW1 7433   6.418   5.683   0.359
 2178SOL    HW2 7434   6.378   5.775   0.230
 2179SOL     OW 7435   2.138   3.716   4.092
 2179SOL    HW1 7436   2.109   3.708   3.997
 2179SOL    HW2 7437   2.223   3.769   4.096
 2180SOL     OW 7438   3.300   2.915   3.074
 2180SOL    HW1 7439   3.236   2.840   3.057
 2180SOL    HW2 7440   3.370   2.916   3.002
 2181SOL     OW 7441   3.693   0.024   1.421
 2181SOL    HW1 7442   3.678   0.117   1.454
 2181SOL    HW2 7443   3.778   0.020   1.369
 2182SOL     OW 7444   4.835   4.132   0.251
 2182SOL    HW1 7445   4.847   4.121   0.153
 2182SOL    HW2 7446   4.743   4.167   0.269
 2183SOL     OW 7447   4.702   2.719   1.981
 2183SOL    HW1 7448   4.713   2.814   2.010
 2183SOL    HW2 7449   4.609   2.689   2.002
 2184SOL     OW 7450   4.609   2.555   6.100
 2184SOL    HW1 7451   4.607   2.573   6.002
 2184SOL    HW2 7452   4.531   2.601   6.144
 2185SOL     OW 7453   6.831   6.580   1.958
 2185SOL    HW1 7454   6.823   6.523   1.876
 2185SOL    HW2 7455   6.905   6.646   1.946
 2186SOL     OW 7456   6.735   4.708   3.154
 2186SOL    HW1 7457   6.792   4.776   3.200
 2186SOL    HW2 7458   6.793   4.642   3.106
 2187SOL     OW 7459   6.547   0.235   6.808
 2187SOL    HW1 7460   6.452   0.216   6.785
 2187SOL    HW2 7461   6.607   0.200   6.736
 2188SOL     OW 7462   4.749   2.835   3.557
 2188SOL    HW1 7463   4.705   2.778   3.626
 2188SOL    HW2 7464   4.845   2.808   3.548
 2189SOL     OW 7465   3.104   7.010   6.169
 2189SOL    HW1 7466   3.184   6.975   6.120
 2189SOL    HW2 7467   3.032   6.941   6.170
 2190SOL     OW 7468   5.906   3.316   1.293
 2190SOL    HW1 7469   5.981   3.381   1.291
 2190SOL    HW2 7470   5.935   3.229   1.254
 2191SOL     OW 7471   3.652   0.409   0.692
 2191SOL    HW1 7472   3.577   0.468   0.721
 2191SOL    HW2 7473   3.660   0.412   0.593
 2192SOL     OW 7474   4.490   6.570   2.011
 2192SOL    HW1 7475   4.507   6.518   2.095
 2192SOL    HW2 7476   4.458   6.508   1.940
 2193SOL     OW 7477   0.227   5.839   4.364
 2193SOL    HW1 7478   0.150   5.897   4.389
 2193SOL    HW2 7479   0.286   5.825   4.444
 2194SOL     OW 7480   2.378   0.048   3.076
 2194SOL    HW1 7481   2.304   7.003   3.061
 2194SOL    HW2 7482   2.432   0.057   2.992
 2195SOL     OW 7483   0.255   4.631   2.718
 2195SOL    HW1 7484   0.156   4.616   2.714
 2195SOL    HW2 7485   0.293   4.626   2.626
 2196SOL     OW 7486   4.690   4.095   6.987
 2196SOL    HW1 7487   4.730   4.046   6.910
 2196SOL    HW2 7488   4.709   4.193   6.976
 2197SOL     OW 7489   4.651   3.529   0.507
 2197SOL    HW1 7490   4.708   3.550   0.587
 2197SOL    HW2 7491   4.641   3.430   0.499
 2198SOL     OW 7492   0.996   4.660   6.327
 2198SOL    HW1 7493   0.898   4.643   6.320
 2198SOL    HW2 7494   1.038   4.593   6.389
 2199SOL     OW 7495   3.603   1.915   3.655
 2199SOL    HW1 7496   3.612   1.863   3.740
 2199SOL    HW2 7497   3.552   1.862   3.588
 2200SOL     OW 7498   3.749   0.465   3.746
 2200SOL    HW1 7499   3.726   0.542   3.687
 2200SOL    HW2 7500   3.823   0.413   3.704
 2201SOL     OW 7501   5.238   4.581   3.939
 2201SOL    HW1 7502   5.245   4.579   3.839
 2201SOL    HW2 7503   5.254   4.489   3.975
 2202SOL     OW 7504   4.531   5.805   4.483
 2202SOL    HW1 7505   4.471   5.783   4.559
 2202SOL    HW2 7506   4.484   5.787   4.397
 2203SOL     OW 7507   2.051   1.825   3.094
 2203SOL    HW1 7508   2.056   1.829   2.994
 2203SOL    HW2 7509   2.100   1.902   3.133
 2204SOL     OW 7510   3.895   2.405   0.819
 2204SOL    HW1 7511   3.965   2.470   0.789
 2204SOL    HW2 7512   3.857   2.357   0.740
 2205SOL     OW 7513   3.050   0.384   2.267
 2205SOL    HW1 7514   3.085   0.476   2.282
 2205SOL    HW2 7515   3.068   0.356   2.173
 2206SOL     OW 7516   1.509   5.068   0.044
 2206SOL    HW1 7517   1.601   5.071   0.082
 2206SOL    HW2 7518   1.451   5.011   0.103
 2207SOL     OW 7519   6.401   4.173   5.382
 2207SOL    HW1 7520   6.417   4.089   5.434
 2207SOL    HW2 7521   6.370   4.149   5.290
 2208SOL     OW 7522   6.769   4.844   2.478
 2208SOL    HW1 7523   6.757   4.898   2.395
 2208SOL    HW2 7524   6.858   4.798   2.476
 2209SOL     OW 7525   6.669   0.240   2.256
 2209SOL    HW1 7526   6.767   0.235   2.275
 2209SOL    HW2 7527   6.643   0.335   2.242
 2210SOL     OW 7528   2.631   4.615   3.634
 2210SOL    HW1 7529   2.683   4.699   3.622
 2210SOL    HW2 7530   2.655   4.550   3.561
 2211SOL     OW 7531   5.452   0.791   5.315
 2211SOL    HW1 7532   5.367   0.767   5.362
 2211SOL    HW2 7533   5.450   0.888   5.289
 2212SOL     OW 7534   2.303   5.937   6.323
 2212SOL    HW1 7535   2.262   5.906   6.237
 2212SOL    HW2 7536   2.246   5.908   6.400
 2213SOL     OW 7537   4.492   1.204   3.317
 2213SOL    HW1 7538   4.418   1.179   3.379
 2213SOL    HW2 7539   4.481   1.299   3.289
 2214SOL     OW 7540   4.366   0.319   4.336
 2214SOL    HW1 7541   4.419   0.277   4.262
 2214SOL    HW2 7542   4.406   0.296   4.424
 2215SOL     OW 7543   5.783   1.988   6.625
 2215SOL    HW1 7544   5.878   1.965   6.646
 2215SOL    HW2 7545   5.735   1.906   6.593
 2216SOL     OW 7546   3.167   1.350   2.497
 2216SOL    HW1 7547   3.168   1.361   2.596
 2216SOL    HW2 7548   3.260   1.357   2.461
 2217SOL     OW 7549   3.029   6.769   0.845
 2217SOL    HW1 7550   2.993   6.861   0.827
 2217SOL    HW2 7551   3.077   6.769   0.932
 2218SOL     OW 7552   6.622   0.981   2.462
 2218SOL    HW1 7553   6.655   0.899   2.414
 2218SOL    HW2 7554   6.545   0.956   2.521
 2219SOL     OW 7555   2.328   2.456   3.071
 2219SOL    HW1 7556   2.422   2.423   3.076
 2219SOL    HW2 7557   2.266   2.378   3.057
 2220SOL     OW 7558   1.858   6.125   3.127
 2220SOL    HW1 7559   1.902   6.088   3.209
 2220SOL    HW2 7560   1.762   6.097   3.125
 2221SOL     OW 7561   0.153   6.890   4.822
 2221SOL    HW1 7562   0.110   6.930   4.903
 2221SOL    HW2 7563   0.252   6.904   4.826
 2222SOL     OW 7564   5.122   5.611   3.537
 2222SOL    HW1 7565   5.196   5.590   3.473
 2222SOL    HW2 7566   5.039   5.631   3.486
 2223SOL     OW 7567   6.078   6.653   2.349
 2223SOL    HW1 7568   6.167   6.683   2.384
 2223SOL    HW2 7569   6.005   6.698   2.400
 2224SOL     OW 7570   0.703   5.615   1.462
 2224SOL    HW1 7571   0.789   5.608   1.513
 2224SOL    HW2 7572   0.645   5.684   1.504
 2225SOL     OW 7573   0.522   4.439   0.851
 2225SOL    HW1 7574   0.473   4.457   0.936
 2225SOL    HW2 7575   0.543   4.526   0.806
 2226SOL     OW 7576   3.247   4.076   2.805
 2226SOL    HW1 7577   3.217   3.985   2.836
 2226SOL    HW2 7578   3.217   4.090   2.711
 2227SOL     OW 7579   1.814   1.781   5.136
 2227SOL    HW1 7580   1.870   1.727   5.073
 2227SOL    HW2 7581   1.858   1.869   5.153
 2228SOL     OW 7582   1.262   4.746   4.286
 2228SOL    HW1 7583   1.362   4.757   4.289
 2228SOL    HW2 7584   1.227   4.790   4.204
 2229SOL     OW 7585   5.344   5.341   2.689
 2229SOL    HW1 7586   5.410   5.266   2.698
 2229SOL    HW2 7587   5.333   5.386   2.778
 2230SOL     OW 7588   1.742   5.405   3.039
 2230SOL    HW1 7589   1.756   5.307   3.054
 2230SOL    HW2 7590   1.737   5.423   2.941
 2231SOL     OW 7591   2.141   6.021   0.639
 2231SOL    HW1 7592   2.205   5.999   0.565
 2231SOL    HW2 7593   2.068   6.080   0.604
 2232SOL     OW 7594   6.181   2.682   3.587
 2232SOL    HW1 7595   6.208   2.762   3.641
 2232SOL    HW2 7596   6.254   2.614   3.589
 2233SOL     OW 7597   3.639   1.492   0.806
 2233SOL    HW1 7598   3.640   1.449   0.715
 2233SOL    HW2 7599   3.698   1.572   0.805
 2234SOL     OW 7600   4.359   2.683   1.162
 2234SOL    HW1 7601   4.374   2.754   1.231
 2234SOL    HW2 7602   4.442   2.674   1.106
 2235SOL     OW 7603   1.818   2.896   1.884
 2235SOL    HW1 7604   1.732   2.946   1.887
 2235SOL    HW2 7605   1.818   2.834   1.805
 2236SOL     OW 7606   1.302   3.852   5.469
 2236SOL    HW1 7607   1.372   3.786   5.443
 2236SOL    HW2 7608   1.337   3.911   5.542
 2237SOL     OW 7609   6.018   2.561   3.180
 2237SOL    HW1 7610   5.922   2.579   3.161
 2237SOL    HW2 7611   6.070   2.556   3.094
 2238SOL     OW 7612   4.746   6.370   6.960
 2238SOL    HW1 7613   4.806   6.340   6.886
 2238SOL    HW2 7614   4.677   6.433   6.923
 2239SOL     OW 7615   6.640   5.937   1.799
 2239SOL    HW1 7616   6.578   5.907   1.872
 2239SOL    HW2 7617   6.602   6.018   1.755
 2240SOL     OW 7618   0.691   3.995   2.040
 2240SOL    HW1 7619   0.668   3.919   1.978
 2240SOL    HW2 7620   0.664   3.971   2.133
 2241SOL     OW 7621   0.459   0.072   3.579
 2241SOL    HW1 7622   0.472   6.994   3.573
 2241SOL    HW2 7623   0.447   0.110   3.488
 2242SOL     OW 7624   1.925   1.636   3.449
 2242SOL    HW1 7625   1.904   1.639   3.352
 2242SOL    HW2 7626   2.004   1.696   3.467
 2243SOL     OW 7627   0.870   0.630   4.560
 2243SOL    HW1 7628   0.877   0.726   4.534
 2243SOL    HW2 7629   0.962   0.590   4.561
 2244SOL     OW 7630   3.238   0.103   4.390
 2244SOL    HW1 7631   3.151   0.152   4.393
 2244SOL    HW2 7632   3.312   0.166   4.371
 2245SOL     OW 7633   0.814   2.153   1.719
 2245SOL    HW1 7634   0.787   2.168   1.623
 2245SOL    HW2 7635   0.746   2.096   1.764
 2246SOL     OW 7636   0.607   4.445   4.695
 2246SOL    HW1 7637   0.526   4.407   4.651
 2246SOL    HW2 7638   0.609   4.417   4.791
 2247SOL     OW 7639   2.334   2.130   3.929
 2247SOL    HW1 7640   2.267   2.183   3.876
 2247SOL    HW2 7641   2.405   2.191   3.964
 2248SOL     OW 7642   5.100   3.961   5.978
 2248SOL    HW1 7643   5.057   4.046   5.946
 2248SOL    HW2 7644   5.141   3.977   6.068
 2249SOL     OW 7645   5.444   6.098   4.817
 2249SOL    HW1 7646   5.383   6.165   4.859
 2249SOL    HW2 7647   5.526   6.145   4.783
 2250SOL     OW 7648   4.139   4.787   2.652
 2250SOL    HW1 7649   4.207   4.763   2.582
 2250SOL    HW2 7650   4.175   4.764   2.742
 2251SOL     OW 7651   0.654   1.676   5.915
 2251SOL    HW1 7652   0.656   1.631   6.004
 2251SOL    HW2 7653   0.637   1.608   5.843
 2252SOL     OW 7654   4.053   1.386   6.440
 2252SOL    HW1 7655   4.015   1.317   6.501
 2252SOL    HW2 7656   4.101   1.342   6.365
 2253SOL     OW 7657   0.519   4.057   1.211
 2253SOL    HW1 7658   0.458   4.135   1.220
 2253SOL    HW2 7659   0.558   4.035   1.300
 2254SOL     OW 7660   1.519   5.305   5.745
 2254SOL    HW1 7661   1.429   5.262   5.747
 2254SOL    HW2 7662   1.528   5.367   5.823
 2255SOL     OW 7663   6.927   4.183   6.891
 2255SOL    HW1 7664   6.848   4.190   6.830
 2255SOL    HW2 7665   6.943   4.087   6.915
 2256SOL     OW 7666   2.531   5.615   2.559
 2256SOL    HW1 7667   2.567   5.595   2.468
 2256SOL    HW2 7668   2.607   5.640   2.620
 2257SOL     OW 7669   1.009   4.942   5.926
 2257SOL    HW1 7670   0.938   4.959   5.857
 2257SOL    HW2 7671   1.098   4.931   5.881
 2258SOL     OW 7672   2.102   6.517   6.145
 2258SOL    HW1 7673   2.068   6.557   6.230
 2258SOL    HW2 7674   2.028   6.467   6.100
 2259SOL     OW 7675   6.015   1.744   6.494
 2259SOL    HW1 7676   5.987   1.648   6.482
 2259SOL    HW2 7677   6.016   1.790   6.406
 2260SOL     OW 7678   4.753   3.121   1.459
 2260SOL    HW1 7679   4.764   3.024   1.480
 2260SOL    HW2 7680   4.656   3.142   1.453
 2261SOL     OW 7681   2.084   6.688   5.332
 2261SOL    HW1 7682   2.099   6.601   5.284
 2261SOL    HW2 7683   2.024   6.747   5.278
 2262SOL     OW 7684   2.535   1.747   4.309
 2262SOL    HW1 7685   2.628   1.779   4.324
 2262SOL    HW2 7686   2.507   1.768   4.215
 2263SOL     OW 7687   0.365   4.292   5.761
 2263SOL    HW1 7688   0.341   4.338   5.676
 2263SOL    HW2 7689   0.289   4.300   5.826
 2264SOL     OW 7690   3.310   2.982   4.427
 2264SOL    HW1 7691   3.344   3.073   4.404
 2264SOL    HW2 7692   3.289   2.978   4.524
 2265SOL     OW 7693   0.140   6.120   4.149
 2265SOL    HW1 7694   0.075   6.123   4.225
 2265SOL    HW2 7695   0.105   6.175   4.073
 2266SOL     OW 7696   6.924   0.744   5.470
 2266SOL    HW1 7697   7.009   0.768   5.424
 2266SOL    HW2 7698   6.925   0.782   5.563
 2267SOL     OW 7699   6.184   1.744   4.980
 2267SOL    HW1 7700   6.272   1.772   4.941
 2267SOL    HW2 7701   6.125   1.712   4.906
 2268SOL     OW 7702   0.512   6.821   0.483
 2268SOL    HW1 7703   0.430   6.849   0.433
 2268SOL    HW2 7704   0.510   6.722   0.499
 2269SOL     OW 7705   0.085   6.028   2.543
 2269SOL    HW1 7706   0.015   5.978   2.491
 2269SOL    HW2 7707   0.164   6.045   2.485
 2270SOL     OW 7708   3.291   2.906   3.369
 2270SOL    HW1 7709   3.286   2.915   3.269
 2270SOL    HW2 7710   3.375   2.857   3.393
 2271SOL     OW 7711   1.612   3.902   2.654
 2271SOL    HW1 7712   1.576   3.891   2.562
 2271SOL    HW2 7713   1.625   4.000   2.673
 2272SOL     OW 7714   4.599   0.765   6.286
 2272SOL    HW1 7715   4.656   0.809   6.216
 2272SOL    HW2 7716   4.529   0.710   6.241
 2273SOL     OW 7717   6.982   0.848   1.685
 2273SOL    HW1 7718   6.888   0.831   1.655
 2273SOL    HW2 7719   6.994   0.815   1.779
 2274SOL     OW 7720   6.615   4.899   3.467
 2274SOL    HW1 7721   6.631   4.972   3.534
 2274SOL    HW2 7722   6.541   4.926   3.406
 2275SOL     OW 7723   4.350   5.955   4.072
 2275SOL    HW1 7724   4.425   5.891   4.062
 2275SOL    HW2 7725   4.308   5.971   3.982
 2276SOL     OW 7726   3.304   5.767   3.028
 2276SOL    HW1 7727   3.293   5.671   3.051
 2276SOL    HW2 7728   3.349   5.776   2.939
 2277SOL     OW 7729   3.491   2.925   2.879
 2277SOL    HW1 7730   3.589   2.941   2.868
 2277SOL    HW2 7731   3.446   2.931   2.789
 2278SOL     OW 7732   4.303   4.849   1.645
 2278SOL    HW1 7733   4.292   4.924   1.580
 2278SOL    HW2 7734   4.271   4.764   1.603
 2279SOL     OW 7735   5.851   4.130   5.481
 2279SOL    HW1 7736   5.905   4.211   5.506
 2279SOL    HW2 7737   5.859   4.114   5.383
 2280SOL     OW 7738   5.337   0.997   5.615
 2280SOL    HW1 7739   5.265   0.961   5.675
 2280SOL    HW2 7740   5.349   0.936   5.537
 2281SOL     OW 7741   2.244   0.491   0.475
 2281SOL    HW1 7742   2.244   0.582   0.515
 2281SOL    HW2 7743   2.149   0.460   0.464
 2282SOL     OW 7744   3.563   0.475   2.479
 2282SOL    HW1 7745   3.527   0.429   2.560
 2282SOL    HW2 7746   3.488   0.504   2.420
 2283SOL     OW 7747   1.037   3.128   0.959
 2283SOL    HW1 7748   1.043   3.069   1.040
 2283SOL    HW2 7749   0.956   3.105   0.907
 2284SOL     OW 7750   1.793   2.803   0.643
 2284SOL    HW1 7751   1.787   2.882   0.704
 2284SOL    HW2 7752   1.802   2.835   0.549
 2285SOL     OW 7753   2.800   2.978   0.466
 2285SOL    HW1 7754   2.775   2.882   0.455
 2285SOL    HW2 7755   2.718   3.032   0.486
 2286SOL     OW 7756   6.613   5.529   4.107
 2286SOL    HW1 7757   6.518   5.558   4.122
 2286SOL    HW2 7758   6.630   5.444   4.157
 2287SOL     OW 7759   2.581   1.817   0.911
 2287SOL    HW1 7760   2.532   1.730   0.911
 2287SOL    HW2 7761   2.549   1.874   0.986
 2288SOL     OW 7762   3.231   5.867   4.652
 2288SOL    HW1 7763   3.259   5.916   4.735
 2288SOL    HW2 7764   3.228   5.931   4.575
 2289SOL     OW 7765   4.139   0.198   5.530
 2289SOL    HW1 7766   4.068   0.254   5.487
 2289SOL    HW2 7767   4.098   0.141   5.601
 2290SOL     OW 7768   2.190   3.761   6.084
 2290SOL    HW1 7769   2.253   3.711   6.024
 2290SOL    HW2 7770   2.142   3.831   6.031
 2291SOL     OW 7771   3.299   2.315   0.652
 2291SOL    HW1 7772   3.389   2.358   0.658
 2291SOL    HW2 7773   3.310   2.216   0.642
 2292SOL     OW 7774   5.064   2.441   2.755
 2292SOL    HW1 7775   5.072   2.500   2.836
 2292SOL    HW2 7776   4.984   2.382   2.765
 2293SOL     OW 7777   0.287   0.715   6.918
 2293SOL    HW1 7778   0.207   0.747   6.968
 2293SOL    HW2 7779   0.272   0.620   6.889
 2294SOL     OW 7780   6.837   2.405   5.575
 2294SOL    HW1 7781   6.746   2.436   5.549
 2294SOL    HW2 7782   6.879   2.474   5.635
 2295SOL     OW 7783   5.764   5.642   0.473
 2295SOL    HW1 7784   5.705   5.675   0.399
 2295SOL    HW2 7785   5.798   5.551   0.449
 2296SOL     OW 7786   4.152   6.145   4.729
 2296SOL    HW1 7787   4.107   6.142   4.640
 2296SOL    HW2 7788   4.239   6.193   4.721
 2297SOL     OW 7789   6.423   2.575   0.149
 2297SOL    HW1 7790   6.451   2.671   0.156
 2297SOL    HW2 7791   6.394   2.555   0.055
 2298SOL     OW 7792   1.880   3.942   4.899
 2298SOL    HW1 7793   1.826   3.932   4.816
 2298SOL    HW2 7794   1.923   4.032   4.901
 2299SOL     OW 7795   5.929   3.302   4.653
 2299SOL    HW1 7796   6.005   3.337   4.599
 2299SOL    HW2 7797   5.947   3.317   4.750
 2300SOL     OW 7798   4.068   0.987   2.726
 2300SOL    HW1 7799   4.052   1.079   2.693
 2300SOL    HW2 7800   4.083   0.989   2.825
 2301SOL     OW 7801   4.519   3.202   6.175
 2301SOL    HW1 7802   4.459   3.156   6.241
 2301SOL    HW2 7803   4.468   3.276   6.130
 2302SOL     OW 7804   0.145   3.432   4.991
 2302SOL    HW1 7805   0.218   3.432   5.059
 2302SOL    HW2 7806   0.086   3.352   5.004
 2303SOL     OW 7807   2.257   2.456   6.750
 2303SOL    HW1 7808   2.304   2.542   6.767
 2303SOL    HW2 7809   2.287   2.417   6.663
 2304SOL     OW 7810   3.517   0.365   3.398
 2304SOL    HW1 7811   3.446   0.375   3.328
 2304SOL    HW2 7812   3.543   0.268   3.404
 2305SOL     OW 7813   2.383   6.209   4.773
 2305SOL    HW1 7814   2.455   6.150   4.737
 2305SOL    HW2 7815   2.415   6.254   4.857
 2306SOL     OW 7816   0.937   4.777   5.672
 2306SOL    HW1 7817   0.938   4.714   5.595
 2306SOL    HW2 7818   0.852   4.766   5.724
 2307SOL     OW 7819   5.957   3.810   5.646
 2307SOL    HW1 7820   5.916   3.901   5.652
 2307SOL    HW2 7821   5.897   3.749   5.594
 2308SOL     OW 7822   1.051   6.232   3.175
 2308SOL    HW1 7823   0.977   6.293   3.203
 2308SOL    HW2 7824   1.077   6.252   3.081
 2309SOL     OW 7825   1.706   1.124   4.536
 2309SOL    HW1 7826   1.619   1.094   4.496
 2309SOL    HW2 7827   1.696   1.217   4.570
 2310SOL     OW 7828   5.148   6.102   0.091
 2310SOL    HW1 7829   5.242   6.091   0.124
 2310SOL    HW2 7830   5.085   6.055   0.152
 2311SOL     OW 7831   2.784   5.683   0.583
 2311SOL    HW1 7832   2.770   5.681   0.484
 2311SOL    HW2 7833   2.781   5.590   0.619
 2312SOL     OW 7834   2.648   5.062   1.880
 2312SOL    HW1 7835   2.682   4.971   1.854
 2312SOL    HW2 7836   2.556   5.075   1.844
 2313SOL     OW 7837   5.184   5.060   1.106
 2313SOL    HW1 7838   5.106   5.051   1.169
 2313SOL    HW2 7839   5.258   5.000   1.137
 2314SOL     OW 7840   2.189   4.515   2.397
 2314SOL    HW1 7841   2.167   4.607   2.430
 2314SOL    HW2 7842   2.288   4.501   2.400
 2315SOL     OW 7843   3.677   2.047   6.499
 2315SOL    HW1 7844   3.606   2.055   6.429
 2315SOL    HW2 7845   3.659   1.967   6.556
 2316SOL     OW 7846   6.057   4.101   1.370
 2316SOL    HW1 7847   6.025   4.143   1.285
 2316SOL    HW2 7848   6.074   4.172   1.438
 2317SOL     OW 7849   0.362   6.621   3.386
 2317SOL    HW1 7850   0.282   6.561   3.396
 2317SOL    HW2 7851   0.445   6.566   3.387
 2318SOL     OW 7852   6.691   1.520   3.499
 2318SOL    HW1 7853   6.710   1.480   3.410
 2318SOL    HW2 7854   6.775   1.525   3.552
 2319SOL     OW 7855   0.493   5.762   3.199
 2319SOL    HW1 7856   0.574   5.801   3.155
 2319SOL    HW2 7857   0.444   5.834   3.248
 2320SOL     OW 7858   6.636   4.648   3.587
 2320SOL    HW1 7859   6.629   4.733   3.535
 2320SOL    HW2 7860   6.731   4.614   3.582
 2321SOL     OW 7861   2.853   4.773   3.610
 2321SOL    HW1 7862   2.877   4.734   3.522
 2321SOL    HW2 7863   2.935   4.808   3.655
 2322SOL     OW 7864   1.751   1.714   4.589
 2322SOL    HW1 7865   1.775   1.637   4.648
 2322SOL    HW2 7866   1.791   1.700   4.499
 2323SOL     OW 7867   5.358   3.587   1.415
 2323SOL    HW1 7868   5.456   3.597   1.429
 2323SOL    HW2 7869   5.338   3.495   1.381
 2324SOL     OW 7870   0.199   5.314   4.020
 2324SOL    HW1 7871   0.133   5.344   4.088
 2324SOL    HW2 7872   0.290   5.312   4.061
 2325SOL     OW 7873   6.403   1.898   0.913
 2325SOL    HW1 7874   6.371   1.808   0.944
 2325SOL    HW2 7875   6.499   1.909   0.939
 2326SOL     OW 7876   0.481   5.433   0.105
 2326SOL    HW1 7877   0.522   5.342   0.099
 2326SOL    HW2 7878   0.534   5.489   0.168
 2327SOL     OW 7879   4.764   1.411   2.985
 2327SOL    HW1 7880   4.784   1.424   2.888
 2327SOL    HW2 7881   4.669   1.382   2.997
 2328SOL     OW 7882   5.819   5.252   3.806
 2328SOL    HW1 7883   5.905   5.203   3.791
 2328SOL    HW2 7884   5.776   5.272   3.719
 2329SOL     OW 7885   1.116   6.604   3.324
 2329SOL    HW1 7886   1.184   6.632   3.256
 2329SOL    HW2 7887   1.152   6.527   3.378
 2330SOL     OW 7888   1.810   4.133   6.958
 2330SOL    HW1 7889   1.734   4.071   6.939
 2330SOL    HW2 7890   1.807   4.163   0.032
 2331SOL     OW 7891   1.491   4.395   5.301
 2331SOL    HW1 7892   1.411   4.448   5.270
 2331SOL    HW2 7893   1.464   4.300   5.314
 2332SOL     OW 7894   7.004   3.468   6.655
 2332SOL    HW1 7895   6.905   3.486   6.659
 2332SOL    HW2 7896   0.032   3.550   6.684
 2333SOL     OW 7897   2.210   4.671   3.945
 2333SOL    HW1 7898   2.240   4.756   3.988
 2333SOL    HW2 7899   2.279   4.642   3.879
 2334SOL     OW 7900   1.979   0.240   6.035
 2334SOL    HW1 7901   1.935   0.254   6.124
 2334SOL    HW2 7902   2.040   0.160   6.041
 2335SOL     OW 7903   4.707   4.237   4.560
 2335SOL    HW1 7904   4.731   4.169   4.630
 2335SOL    HW2 7905   4.776   4.237   4.488
 2336SOL     OW 7906   4.324   1.324   5.548
 2336SOL    HW1 7907   4.234   1.286   5.571
 2336SOL    HW2 7908   4.364   1.272   5.473
 2337SOL     OW 7909   6.158   0.788   4.868
 2337SOL    HW1 7910   6.127   0.866   4.922
 2337SOL    HW2 7911   6.110   0.705   4.899
 2338SOL     OW 7912   1.616   6.600   0.079
 2338SOL    HW1 7913   1.536   6.541   0.064
 2338SOL    HW2 7914   1.696   6.559   0.037
 2339SOL     OW 7915   3.321   4.404   5.997
 2339SOL    HW1 7916   3.374   4.472   5.946
 2339SOL    HW2 7917   3.241   4.448   6.038
 2340SOL     OW 7918   3.965   5.167   4.095
 2340SOL    HW1 7919   4.049   5.200   4.137
 2340SOL    HW2 7920   3.969   5.068   4.082
 2341SOL     OW 7921   0.988   3.807   6.233
 2341SOL    HW1 7922   1.056   3.862   6.280
 2341SOL    HW2 7923   0.903   3.859   6.224
 2342SOL     OW 7924   4.789   1.198   5.194
 2342SOL    HW1 7925   4.853   1.257   5.243
 2342SOL    HW2 7926   4.703   1.247   5.180
 2343SOL     OW 7927   0.886   5.669   1.997
 2343SOL    HW1 7928   0.927   5.751   1.956
 2343SOL    HW2 7929   0.959   5.604   2.020
 2344SOL     OW 7930   1.966   0.455   2.935
 2344SOL    HW1 7931   1.963   0.386   2.863
 2344SOL    HW2 7932   1.875   0.469   2.972
 2345SOL     OW 7933   1.250   2.843   1.897
 2345SOL    HW1 7934   1.292   2.924   1.856
 2345SOL    HW2 7935   1.269   2.841   1.995
 2346SOL     OW 7936   5.521   2.979   5.080
 2346SOL    HW1 7937   5.560   2.963   4.990
 2346SOL    HW2 7938   5.558   3.064   5.117
 2347SOL     OW 7939   1.920   4.271   1.214
 2347SOL    HW1 7940   1.824   4.247   1.225
 2347SOL    HW2 7941   1.965   4.269   1.304
 2348SOL     OW 7942   3.342   0.179   1.874
 2348SOL    HW1 7943   3.423   0.213   1.826
 2348SOL    HW2 7944   3.320   0.087   1.841
 2349SOL     OW 7945   5.779   2.638   6.770
 2349SOL    HW1 7946   5.707   2.652   6.838
 2349SOL    HW2 7947   5.757   2.557   6.716
 2350SOL     OW 7948   2.416   5.665   5.147
 2350SOL    HW1 7949   2.377   5.747   5.105
 2350SOL    HW2 7950   2.458   5.608   5.076
 2351SOL     OW 7951   1.798   5.474   3.359
 2351SOL    HW1 7952   1.872   5.476   3.427
 2351SOL    HW2 7953   1.759   5.382   3.356
 2352SOL     OW 7954   6.217   6.131   6.242
 2352SOL    HW1 7955   6.198   6.044   6.196
 2352SOL    HW2 7956   6.147   6.148   6.311
 2353SOL     OW 7957   3.149   2.901   6.525
 2353SOL    HW1 7958   3.164   2.827   6.460
 2353SOL    HW2 7959   3.052   2.909   6.546
 2354SOL     OW 7960   3.317   1.784   2.207
 2354SOL    HW1 7961   3.312   1.879   2.179
 2354SOL    HW2 7962   3.307   1.777   2.306
 2355SOL     OW 7963   0.123   1.542   2.330
 2355SOL    HW1 7964   0.218   1.565   2.311
 2355SOL    HW2 7965   0.066   1.569   2.252
 2356SOL     OW 7966   3.519   5.011   3.925
 2356SOL    HW1 7967   3.516   5.100   3.971
 2356SOL    HW2 7968   3.573   4.947   3.980
 2357SOL     OW 7969   0.835   5.502   1.074
 2357SOL    HW1 7970   0.809   5.444   0.997
 2357SOL    HW2 7971   0.817   5.598   1.050
 2358SOL     OW 7972   2.294   0.812   5.100
 2358SOL    HW1 7973   2.255   0.769   5.181
 2358SOL    HW2 7974   2.382   0.768   5.078
 2359SOL     OW 7975   3.616   2.694   5.630
 2359SOL    HW1 7976   3.615   2.613   5.573
 2359SOL    HW2 7977   3.524   2.734   5.633
 2360SOL     OW 7978   3.526   5.149   1.842
 2360SOL    HW1 7979   3.549   5.233   1.793
 2360SOL    HW2 7980   3.534   5.071   1.779
 2361SOL     OW 7981   3.714   4.949   1.093
 2361SOL    HW1 7982   3.753   4.860   1.118
 2361SOL    HW2 7983   3.764   4.987   1.016
 2362SOL     OW 7984   2.821   4.825   4.387
 2362SOL    HW1 7985   2.778   4.779   4.309
 2362SOL    HW2 7986   2.784   4.788   4.472
 2363SOL     OW 7987   2.716   3.739   1.575
 2363SOL    HW1 7988   2.795   3.738   1.636
 2363SOL    HW2 7989   2.655   3.663   1.598
 2364SOL     OW 7990   4.496   0.808   2.793
 2364SOL    HW1 7991   4.538   0.883   2.844
 2364SOL    HW2 7992   4.449   0.747   2.856
 2365SOL     OW 7993   5.705   3.625   2.595
 2365SOL    HW1 7994   5.654   3.548   2.557
 2365SOL    HW2 7995   5.652   3.666   2.669
 2366SOL     OW 7996   4.174   5.250   4.841
 2366SOL    HW1 7997   4.273   5.258   4.842
 2366SOL    HW2 7998   4.137   5.306   4.767
 2367SOL     OW 7999   5.864   4.594   5.588
 2367SOL    HW1 8000   5.891   4.501   5.562
 2367SOL    HW2 8001   5.767   4.595   5.614
 2368SOL     OW 8002   4.988   1.695   5.299
 2368SOL    HW1 8003   5.081   1.687   5.334
 2368SOL    HW2 8004   4.989   1.749   5.214
 2369SOL     OW 8005   3.997   2.156   4.053
 2369SOL    HW1 8006   4.095   2.158   4.032
 2369SOL    HW2 8007   3.946   2.202   3.980
 2370SOL     OW 8008   4.036   2.273   0.478
 2370SOL    HW1 8009   4.112   2.216   0.510
 2370SOL    HW2 8010   4.067   2.368   0.470
 2371SOL     OW 8011   2.229   6.563   3.074
 2371SOL    HW1 8012   2.278   6.511   3.143
 2371SOL    HW2 8013   2.223   6.659   3.102
 2372SOL     OW 8014   5.584   6.808   6.633
 2372SOL    HW1 8015   5.556   6.818   6.538
 2372SOL    HW2 8016   5.657   6.873   6.653
 2373SOL     OW 8017   6.518   4.261   5.822
 2373SOL    HW1 8018   6.583   4.217   5.760
 2373SOL    HW2 8019   6.480   4.192   5.885
 2374SOL     OW 8020   0.466   5.287   2.723
 2374SOL    HW1 8021   0.503   5.239   2.803
 2374SOL    HW2 8022   0.534   5.349   2.687
 2375SOL     OW 8023   2.236   0.367   4.575
 2375SOL    HW1 8024   2.282   0.368   4.663
 2375SOL    HW2 8025   2.153   0.310   4.581
 2376SOL     OW 8026   5.930   2.898   4.344
 2376SOL    HW1 8027   5.921   2.961   4.421
 2376SOL    HW2 8028   5.857   2.830   4.348
 2377SOL     OW 8029   3.841   4.658   5.780
 2377SOL    HW1 8030   3.786   4.585   5.739
 2377SOL    HW2 8031   3.794   4.746   5.770
 2378SOL     OW 8032   0.622   0.151   0.618
 2378SOL    HW1 8033   0.664   0.206   0.690
 2378SOL    HW2 8034   0.563   0.081   0.658
 2379SOL     OW 8035   0.735   4.446   2.992
 2379SOL    HW1 8036   0.642   4.418   2.967
 2379SOL    HW2 8037   0.788   4.463   2.908
 2380SOL     OW 8038   4.830   5.763   6.546
 2380SOL    HW1 8039   4.747   5.707   6.548
 2380SOL    HW2 8040   4.844   5.805   6.635
 2381SOL     OW 8041   2.365   4.325   3.957
 2381SOL    HW1 8042   2.401   4.357   4.044
 2381SOL    HW2 8043   2.410   4.374   3.882
 2382SOL     OW 8044   6.310   5.769   2.429
 2382SOL    HW1 8045   6.357   5.856   2.445
 2382SOL    HW2 8046   6.295   5.757   2.330
 2383SOL     OW 8047   4.596   3.972   5.994
 2383SOL    HW1 8048   4.542   3.931   6.068
 2383SOL    HW2 8049   4.659   3.904   5.957
 2384SOL     OW 8050   0.751   2.220   3.226
 2384SOL    HW1 8051   0.832   2.212   3.167
 2384SOL    HW2 8052   0.703   2.305   3.205
 2385SOL     OW 8053   0.867   1.189   0.923
 2385SOL    HW1 8054   0.891   1.112   0.982
 2385SOL    HW2 8055   0.912   1.179   0.834
 2386SOL     OW 8056   6.908   4.762   6.316
 2386SOL    HW1 8057   6.971   4.719   6.381
 2386SOL    HW2 8058   6.958   4.828   6.261
 2387SOL     OW 8059   6.549   6.921   3.159
 2387SOL    HW1 8060   6.519   6.883   3.072
 2387SOL    HW2 8061   6.538   7.021   3.157
 2388SOL     OW 8062   1.909   4.859   3.779
 2388SOL    HW1 8063   1.950   4.783   3.728
 2388SOL    HW2 8064   1.909   4.838   3.876
 2389SOL     OW 8065   3.339   0.239   3.150
 2389SOL    HW1 8066   3.271   0.308   3.175
 2389SOL    HW2 8067   3.297   0.169   3.092
 2390SOL     OW 8068   5.151   3.209   4.966
 2390SOL    HW1 8069   5.182   3.197   4.871
 2390SOL    HW2 8070   5.122   3.121   5.003
 2391SOL     OW 8071   2.317   4.302   6.510
 2391SOL    HW1 8072   2.282   4.252   6.589
 2391SOL    HW2 8073   2.295   4.399   6.520
 2392SOL     OW 8074   4.034   4.958   5.678
 2392SOL    HW1 8075   4.058   4.922   5.768
 2392SOL    HW2 8076   4.115   4.998   5.635
 2393SOL     OW 8077   4.909   5.196   0.190
 2393SOL    HW1 8078   5.001   5.158   0.189
 2393SOL    HW2 8079   4.875   5.198   0.283
 2394SOL     OW 8080   6.908   2.504   2.916
 2394SOL    HW1 8081   6.881   2.453   2.998
 2394SOL    HW2 8082   6.924   2.599   2.939
 2395SOL     OW 8083   0.426   2.923   3.377
 2395SOL    HW1 8084   0.438   2.844   3.437
 2395SOL    HW2 8085   0.472   3.003   3.417
 2396SOL     OW 8086   0.375   0.765   5.607
 2396SOL    HW1 8087   0.339   0.682   5.563
 2396SOL    HW2 8088   0.364   0.756   5.706
 2397SOL     OW 8089   2.869   4.757   5.832
 2397SOL    HW1 8090   2.813   4.728   5.910
 2397SOL    HW2 8091   2.824   4.832   5.785
 2398SOL     OW 8092   4.063   6.228   5.259
 2398SOL    HW1 8093   4.028   6.293   5.191
 2398SOL    HW2 8094   4.071   6.138   5.217
 2399SOL     OW 8095   3.003   1.752   2.186
 2399SOL    HW1 8096   3.033   1.667   2.229
 2399SOL    HW2 8097   2.921   1.734   2.131
 2400SOL     OW 8098   1.085   1.550   6.314
 2400SOL    HW1 8099   1.003   1.570   6.368
 2400SOL    HW2 8100   1.115   1.634   6.268
 2401SOL     OW 8101   1.131   6.780   0.504
 2401SOL    HW1 8102   1.213   6.734   0.472
 2401SOL    HW2 8103   1.140   6.879   0.490
 2402SOL     OW 8104   0.721   3.135   1.476
 2402SOL    HW1 8105   0.681   3.067   1.415
 2402SOL    HW2 8106   0.666   3.141   1.559
 2403SOL     OW 8107   3.107   4.137   5.168
 2403SOL    HW1 8108   3.072   4.070   5.234
 2403SOL    HW2 8109   3.064   4.225   5.184
 2404SOL     OW 8110   6.489   1.915   1.798
 2404SOL    HW1 8111   6.488   1.816   1.806
 2404SOL    HW2 8112   6.422   1.954   1.862
 2405SOL     OW 8113   2.622   3.696   0.501
 2405SOL    HW1 8114   2.659   3.662   0.414
 2405SOL    HW2 8115   2.540   3.644   0.524
 2406SOL     OW 8116   4.848   6.363   5.191
 2406SOL    HW1 8117   4.928   6.412   5.226
 2406SOL    HW2 8118   4.878   6.287   5.133
 2407SOL     OW 8119   2.331   1.909   3.792
 2407SOL    HW1 8120   2.302   1.994   3.838
 2407SOL    HW2 8121   2.387   1.932   3.713
 2408SOL     OW 8122   4.579   6.726   5.682
 2408SOL    HW1 8123   4.502   6.789   5.687
 2408SOL    HW2 8124   4.646   6.761   5.616
 2409SOL     OW 8125   1.639   2.768   6.978
 2409SOL    HW1 8126   1.710   2.783   6.909
 2409SOL    HW2 8127   1.677   2.715   0.033
 2410SOL     OW 8128   6.564   3.150   5.022
 2410SOL    HW1 8129   6.468   3.178   5.024
 2410SOL    HW2 8130   6.585   3.114   4.931
 2411SOL     OW 8131   3.336   1.025   0.853
 2411SOL    HW1 8132   3.307   0.995   0.944
 2411SOL    HW2 8133   3.261   1.012   0.788
 2412SOL     OW 8134   3.696   2.615   0.067
 2412SOL    HW1 8135   3.606   2.576   0.047
 2412SOL    HW2 8136   3.761   2.588   7.017
 2413SOL     OW 8137   0.050   3.699   6.352
 2413SOL    HW1 8138   0.113   3.628   6.384
 2413SOL    HW2 8139   6.983   3.657   6.328
 2414SOL     OW 8140   6.481   1.928   5.127
 2414SOL    HW1 8141   6.413   1.999   5.105
 2414SOL    HW2 8142   6.434   1.846   5.160
 2415SOL     OW 8143   3.266   3.850   5.534
 2415SOL    HW1 8144   3.335   3.911   5.494
 2415SOL    HW2 8145   3.283   3.757   5.503
 2416SOL     OW 8146   6.478   3.307   3.174
 2416SOL    HW1 8147   6.569   3.275   3.147
 2416SOL    HW2 8148   6.444   3.370   3.104
 2417SOL     OW 8149   3.551   2.845   2.002
 2417SOL    HW1 8150   3.477   2.837   1.935
 2417SOL    HW2 8151   3.621   2.906   1.966
 2418SOL     OW 8152   6.166   3.591   6.601
 2418SOL    HW1 8153   6.227   3.513   6.597
 2418SOL    HW2 8154   6.131   3.611   6.510
 2419SOL     OW 8155   3.027   1.534   2.912
 2419SOL    HW1 8156   2.945   1.499   2.867
 2419SOL    HW2 8157   3.015   1.530   3.011
 2420SOL     OW 8158   0.475   2.787   1.603
 2420SOL    HW1 8159   0.419   2.845   1.662
 2420SOL    HW2 8160   0.433   2.780   1.513
 2421SOL     OW 8161   2.713   0.297   3.568
 2421SOL    HW1 8162   2.774   0.237   3.517
 2421SOL    HW2 8163   2.766   0.361   3.623
 2422SOL     OW 8164   3.943   0.080   0.295
 2422SOL    HW1 8165   3.851   0.048   0.272
 2422SOL    HW2 8166   3.953   0.082   0.395
 2423SOL     OW 8167   3.817   5.030   4.885
 2423SOL    HW1 8168   3.806   5.047   4.982
 2423SOL    HW2 8169   3.913   5.006   4.866
 2424SOL     OW 8170   4.866   0.434   6.486
 2424SOL    HW1 8171   4.802   0.464   6.556
 2424SOL    HW2 8172   4.855   0.336   6.469
 2425SOL     OW 8173   5.089   5.341   4.545
 2425SOL    HW1 8174   5.154   5.404   4.502
 2425SOL    HW2 8175   5.123   5.247   4.535
 2426SOL     OW 8176   2.974   2.216   5.300
 2426SOL    HW1 8177   3.040   2.191   5.229
 2426SOL    HW2 8178   3.014   2.196   5.390
 2427SOL     OW 8179   4.908   2.555   6.809
 2427SOL    HW1 8180   4.876   2.624   6.744
 2427SOL    HW2 8181   4.829   2.518   6.859
 2428SOL     OW 8182   1.751   1.925   1.941
 2428SOL    HW1 8183   1.826   1.973   1.897
 2428SOL    HW2 8184   1.671   1.984   1.945
 2429SOL     OW 8185   5.179   4.921   1.699
 2429SOL    HW1 8186   5.167   4.975   1.783
 2429SOL    HW2 8187   5.135   4.832   1.710
 2430SOL     OW 8188   0.101   6.160   6.655
 2430SOL    HW1 8189   0.035   6.085   6.650
 2430SOL    HW2 8190   0.149   6.156   6.743
 2431SOL     OW 8191   2.016   2.766   1.349
 2431SOL    HW1 8192   2.068   2.692   1.307
 2431SOL    HW2 8193   1.925   2.772   1.306
 2432SOL     OW 8194   2.921   5.926   2.588
 2432SOL    HW1 8195   2.879   5.906   2.677
 2432SOL    HW2 8196   3.014   5.961   2.602
 2433SOL     OW 8197   0.191   4.323   4.171
 2433SOL    HW1 8198   0.250   4.243   4.183
 2433SOL    HW2 8199   0.151   4.322   4.079
 2434SOL     OW 8200   3.850   2.077   2.941
 2434SOL    HW1 8201   3.911   2.128   3.001
 2434SOL    HW2 8202   3.889   1.986   2.924
 2435SOL     OW 8203   5.758   6.640   5.984
 2435SOL    HW1 8204   5.687   6.710   5.989
 2435SOL    HW2 8205   5.846   6.679   6.012
 2436SOL     OW 8206   0.295   2.930   0.019
 2436SOL    HW1 8207   0.208   2.951   6.995
 2436SOL    HW2 8208   0.286   2.845   0.070
 2437SOL     OW 8209   0.695   4.968   1.331
 2437SOL    HW1 8210   0.611   4.933   1.374
 2437SOL    HW2 8211   0.769   4.968   1.398
 2438SOL     OW 8212   4.130   1.854   4.273
 2438SOL    HW1 8213   4.198   1.882   4.206
 2438SOL    HW2 8214   4.123   1.754   4.273
 2439SOL     OW 8215   0.700   5.893   6.511
 2439SOL    HW1 8216   0.621   5.953   6.526
 2439SOL    HW2 8217   0.769   5.913   6.581
 2440SOL     OW 8218   0.061   2.836   5.075
 2440SOL    HW1 8219   0.108   2.803   5.156
 2440SOL    HW2 8220   0.098   2.926   5.050
 2441SOL     OW 8221   6.605   0.063   0.038
 2441SOL    HW1 8222   6.525   0.063   0.097
 2441SOL    HW2 8223   6.585   0.116   6.976
 2442SOL     OW 8224   5.404   2.943   3.081
 2442SOL    HW1 8225   5.476   2.983   3.138
 2442SOL    HW2 8226   5.326   3.005   3.080
 2443SOL     OW 8227   0.828   3.330   1.195
 2443SOL    HW1 8228   0.806   3.357   1.101
 2443SOL    HW2 8229   0.827   3.231   1.202
 2444SOL     OW 8230   3.266   5.057   2.696
 2444SOL    HW1 8231   3.296   5.006   2.616
 2444SOL    HW2 8232   3.213   5.137   2.668
 2445SOL     OW 8233   0.866   1.841   1.390
 2445SOL    HW1 8234   0.810   1.886   1.321
 2445SOL    HW2 8235   0.808   1.808   1.464
 2446SOL     OW 8236   6.455   5.660   1.033
 2446SOL    HW1 8237   6.399   5.588   0.991
 2446SOL    HW2 8238   6.415   5.686   1.122
 2447SOL     OW 8239   2.076   0.025   6.516
 2447SOL    HW1 8240   2.093   0.114   6.558
 2447SOL    HW2 8241   2.119   0.022   6.426
 2448SOL     OW 8242   5.121   0.758   4.357
 2448SOL    HW1 8243   5.121   0.707   4.271
 2448SOL    HW2 8244   5.027   0.772   4.388
 2449SOL     OW 8245   1.843   3.864   1.240
 2449SOL    HW1 8246   1.819   3.901   1.330
 2449SOL    HW2 8247   1.923   3.805   1.249
 2450SOL     OW 8248   6.742   6.529   5.577
 2450SOL    HW1 8249   6.705   6.437   5.573
 2450SOL    HW2 8250   6.842   6.525   5.570
 2451SOL     OW 8251   1.628   6.891   0.114
 2451SOL    HW1 8252   1.606   6.797   0.089
 2451SOL    HW2 8253   1.670   6.892   0.205
 2452SOL     OW 8254   1.902   2.375   3.818
 2452SOL    HW1 8255   1.847   2.450   3.855
 2452SOL    HW2 8256   1.866   2.348   3.728
 2453SOL     OW 8257   0.913   2.022   6.572
 2453SOL    HW1 8258   0.982   2.052   6.506
 2453SOL    HW2 8259   0.822   2.043   6.537
 2454SOL     OW 8260   2.202   6.555   0.287
 2454SOL    HW1 8261   2.218   6.500   0.204
 2454SOL    HW2 8262   2.290   6.586   0.323
 2455SOL     OW 8263   4.864   1.774   6.804
 2455SOL    HW1 8264   4.776   1.738   6.837
 2455SOL    HW2 8265   4.860   1.784   6.705
 2456SOL     OW 8266   1.046   3.250   5.938
 2456SOL    HW1 8267   0.976   3.321   5.932
 2456SOL    HW2 8268   1.133   3.292   5.965
 2457SOL     OW 8269   5.637   1.473   5.907
 2457SOL    HW1 8270   5.699   1.398   5.929
 2457SOL    HW2 8271   5.543   1.440   5.905
 2458SOL     OW 8272   0.931   0.136   1.977
 2458SOL    HW1 8273   0.986   0.072   1.923
 2458SOL    HW2 8274   0.992   0.202   2.021
 2459SOL     OW 8275   1.566   6.699   1.296
 2459SOL    HW1 8276   1.554   6.606   1.261
 2459SOL    HW2 8277   1.478   6.735   1.327
 2460SOL     OW 8278   0.490   0.667   4.044
 2460SOL    HW1 8279   0.521   0.754   4.081
 2460SOL    HW2 8280   0.399   0.645   4.081
 2461SOL     OW 8281   2.384   2.044   3.413
 2461SOL    HW1 8282   2.406   1.949   3.392
 2461SOL    HW2 8283   2.455   2.083   3.473
 2462SOL     OW 8284   0.295   5.742   0.629
 2462SOL    HW1 8285   0.384   5.780   0.601
 2462SOL    HW2 8286   0.230   5.753   0.554
 2463SOL     OW 8287   0.005   6.152   0.454
 2463SOL    HW1 8288   6.942   6.199   0.483
 2463SOL    HW2 8289   0.059   6.128   0.535
 2464SOL     OW 8290   0.828   2.771   4.705
 2464SOL    HW1 8291   0.846   2.870   4.705
 2464SOL    HW2 8292   0.860   2.731   4.791
 2465SOL     OW 8293   6.913   1.635   0.209
 2465SOL    HW1 8294   6.918   1.576   0.290
 2465SOL    HW2 8295   6.828   1.617   0.160
 2466SOL     OW 8296   1.229   1.871   1.070
 2466SOL    HW1 8297   1.197   1.779   1.045
 2466SOL    HW2 8298   1.166   1.911   1.136
 2467SOL     OW 8299   5.224   2.515   4.822
 2467SOL    HW1 8300   5.156   2.543   4.889
 2467SOL    HW2 8301   5.301   2.579   4.822
 2468SOL     OW 8302   3.192   6.769   4.680
 2468SOL    HW1 8303   3.256   6.767   4.604
 2468SOL    HW2 8304   3.113   6.711   4.659
 2469SOL     OW 8305   3.065   1.615   6.078
 2469SOL    HW1 8306   3.138   1.677   6.107
 2469SOL    HW2 8307   3.088   1.522   6.103
 2470SOL     OW 8308   1.939   5.124   6.253
 2470SOL    HW1 8309   2.033   5.130   6.285
 2470SOL    HW2 8310   1.885   5.199   6.291
 2471SOL     OW 8311   2.537   5.925   2.747
 2471SOL    HW1 8312   2.542   5.912   2.648
 2471SOL    HW2 8313   2.453   5.975   2.770
 2472SOL     OW 8314   5.047   0.462   3.033
 2472SOL    HW1 8315   5.044   0.521   3.114
 2472SOL    HW2 8316   4.965   0.478   2.978
 2473SOL     OW 8317   0.881   4.195   4.835
 2473SOL    HW1 8318   0.836   4.259   4.896
 2473SOL    HW2 8319   0.817   4.166   4.764
 2474SOL     OW 8320   1.980   0.220   1.327
 2474SOL    HW1 8321   1.983   0.319   1.343
 2474SOL    HW2 8322   1.926   0.176   1.398
 2475SOL     OW 8323   5.811   1.962   0.544
 2475SOL    HW1 8324   5.773   2.013   0.621
 2475SOL    HW2 8325   5.737   1.922   0.491
 2476SOL     OW 8326   4.750   6.799   6.984
 2476SOL    HW1 8327   4.794   6.888   6.976
 2476SOL    HW2 8328   4.774   6.743   6.905
 2477SOL     OW 8329   3.771   1.372   3.908
 2477SOL    HW1 8330   3.823   1.456   3.894
 2477SOL    HW2 8331   3.677   1.384   3.876
 2478SOL     OW 8332   3.222   0.466   4.085
 2478SOL    HW1 8333   3.309   0.480   4.037
 2478SOL    HW2 8334   3.197   0.369   4.080
 2479SOL     OW 8335   6.469   4.291   1.804
 2479SOL    HW1 8336   6.402   4.219   1.792
 2479SOL    HW2 8337   6.516   4.279   1.892
 2480SOL     OW 8338   2.887   1.964   1.720
 2480SOL    HW1 8339   2.969   1.915   1.687
 2480SOL    HW2 8340   2.904   2.062   1.718
 2481SOL     OW 8341   3.168   0.200   2.463
 2481SOL    HW1 8342   3.169   0.264   2.387
 2481SOL    HW2 8343   3.142   0.249   2.547
 2482SOL     OW 8344   0.269   3.225   0.019
 2482SOL    HW1 8345   0.343   3.253   6.979
 2482SOL    HW2 8346   0.280   3.128   0.041
 2483SOL     OW 8347   2.607   1.657   1.195
 2483SOL    HW1 8348   2.676   1.713   1.241
 2483SOL    HW2 8349   2.648   1.611   1.116
 2484SOL     OW 8350   4.459   0.839   6.545
 2484SOL    HW1 8351   4.518   0.792   6.480
 2484SOL    HW2 8352   4.398   0.901   6.496
 2485SOL     OW 8353   0.525   1.448   0.108
 2485SOL    HW1 8354   0.452   1.403   0.159
 2485SOL    HW2 8355   0.580   1.504   0.170
 2486SOL     OW 8356   6.718   5.728   2.581
 2486SOL    HW1 8357   6.772   5.809   2.601
 2486SOL    HW2 8358   6.637   5.726   2.640
 2487SOL     OW 8359   4.171   6.369   6.891
 2487SOL    HW1 8360   4.261   6.367   6.936
 2487SOL    HW2 8361   4.143   6.276   6.868
 2488SOL     OW 8362   0.636   3.787   0.347
 2488SOL    HW1 8363   0.671   3.860   0.406
 2488SOL    HW2 8364   0.538   3.776   0.361
 2489SOL     OW 8365   6.277   5.682   4.740
 2489SOL    HW1 8366   6.234   5.612   4.798
 2489SOL    HW2 8367   6.339   5.738   4.796
 2490SOL     OW 8368   3.086   6.144   2.247
 2490SOL    HW1 8369   3.159   6.189   2.299
 2490SOL    HW2 8370   2.997   6.172   2.284
 2491SOL     OW 8371   3.909   4.634   1.576
 2491SOL    HW1 8372   3.982   4.571   1.603
 2491SOL    HW2 8373   3.915   4.717   1.632
 2492SOL     OW 8374   6.823   4.800   1.998
 2492SOL    HW1 8375   6.819   4.874   2.066
 2492SOL    HW2 8376   6.884   4.728   2.032
 2493SOL     OW 8377   5.980   6.205   0.845
 2493SOL    HW1 8378   5.894   6.176   0.803
 2493SOL    HW2 8379   6.035   6.254   0.778
 2494SOL     OW 8380   6.739   3.542   1.317
 2494SOL    HW1 8381   6.671   3.598   1.364
 2494SOL    HW2 8382   6.693   3.475   1.259
 2495SOL     OW 8383   6.902   3.134   2.288
 2495SOL    HW1 8384   6.961   3.125   2.369
 2495SOL    HW2 8385   6.876   3.043   2.255
 2496SOL     OW 8386   5.151   3.804   5.714
 2496SOL    HW1 8387   5.240   3.839   5.684
 2496SOL    HW2 8388   5.122   3.854   5.796
 2497SOL     OW 8389   0.457   6.928   3.879
 2497SOL    HW1 8390   0.467   6.901   3.975
 2497SOL    HW2 8391   0.389   7.000   3.872
 2498SOL     OW 8392   2.089   3.454   4.666
 2498SOL    HW1 8393   2.066   3.539   4.620
 2498SOL    HW2 8394   2.106   3.382   4.598
 2499SOL     OW 8395   5.680   3.320   1.451
 2499SOL    HW1 8396   5.774   3.320   1.415
 2499SOL    HW2 8397   5.644   3.227   1.449
 2500SOL     OW 8398   3.894   3.967   2.163
 2500SOL    HW1 8399   3.913   3.876   2.200
 2500SOL    HW2 8400   3.967   4.030   2.189
 2501SOL     OW 8401   6.606   4.963   4.206
 2501SOL    HW1 8402   6.629   5.055   4.174
 2501SOL    HW2 8403   6.616   4.959   4.306
 2502SOL     OW 8404   2.529   6.106   3.595
 2502SOL    HW1 8405   2.503   6.146   3.683
 2502SOL    HW2 8406   2.628   6.094   3.592
 2503SOL     OW 8407   2.337   0.182   5.146
 2503SOL    HW1 8408   2.279   0.127   5.206
 2503SOL    HW2 8409   2.341   0.275   5.181
 2504SOL     OW 8410   3.965   1.003   3.285
 2504SOL    HW1 8411   3.923   0.989   3.374
 2504SOL    HW2 8412   3.953   1.098   3.257
 2505SOL     OW 8413   5.559   4.523   4.550
 2505SOL    HW1 8414   5.624   4.593   4.521
 2505SOL    HW2 8415   5.608   4.440   4.577
 2506SOL     OW 8416   6.216   4.509   6.238
 2506SOL    HW1 8417   6.218   4.447   6.159
 2506SOL    HW2 8418   6.309   4.534   6.263
 2507SOL     OW 8419   5.720   3.589   3.684
 2507SOL    HW1 8420   5.791   3.531   3.643
 2507SOL    HW2 8421   5.652   3.612   3.615
 2508SOL     OW 8422   5.627   0.889   3.779
 2508SOL    HW1 8423   5.645   0.979   3.819
 2508SOL    HW2 8424   5.710   0.834   3.785
 2509SOL     OW 8425   0.188   3.508   5.962
 2509SOL    HW1 8426   0.199   3.471   5.870
 2509SOL    HW2 8427   0.211   3.437   6.029
 2510SOL     OW 8428   3.135   3.959   2.582
 2510SOL    HW1 8429   3.120   3.904   2.664
 2510SOL    HW2 8430   3.091   3.915   2.504
 2511SOL     OW 8431   2.202   0.965   4.515
 2511SOL    HW1 8432   2.267   0.991   4.585
 2511SOL    HW2 8433   2.184   0.867   4.520
 2512SOL     OW 8434   3.106   4.881   3.715
 2512SOL    HW1 8435   3.183   4.834   3.672
 2512SOL    HW2 8436   3.139   4.960   3.766
 2513SOL     OW 8437   1.894   5.739   6.412
 2513SOL    HW1 8438   1.922   5.833   6.396
 2513SOL    HW2 8439   1.816   5.737   6.475
 2514SOL     OW 8440   0.971   2.481   2.780
 2514SOL    HW1 8441   1.059   2.436   2.765
 2514SOL    HW2 8442   0.964   2.561   2.720
 2515SOL     OW 8443   0.241   1.931   1.037
 2515SOL    HW1 8444   0.270   1.927   1.133
 2515SOL    HW2 8445   0.304   1.989   0.985
 2516SOL     OW 8446   6.602   2.559   4.759
 2516SOL    HW1 8447   6.608   2.524   4.852
 2516SOL    HW2 8448   6.538   2.502   4.707
 2517SOL     OW 8449   0.439   1.152   4.306
 2517SOL    HW1 8450   0.431   1.066   4.256
 2517SOL    HW2 8451   0.472   1.223   4.244
 2518SOL     OW 8452   3.344   3.519   1.000
 2518SOL    HW1 8453   3.392   3.606   1.007
 2518SOL    HW2 8454   3.395   3.457   0.941
 2519SOL     OW 8455   1.309   1.213   0.238
 2519SOL    HW1 8456   1.247   1.138   0.215
 2519SOL    HW2 8457   1.307   1.229   0.337
 2520SOL     OW 8458   2.949   2.810   1.281
 2520SOL    HW1 8459   2.889   2.828   1.359
 2520SOL    HW2 8460   2.908   2.848   1.198
 2521SOL     OW 8461   5.623   1.242   4.914
 2521SOL    HW1 8462   5.661   1.335   4.909
 2521SOL    HW2 8463   5.525   1.244   4.894
 2522SOL     OW 8464   1.958   2.061   0.290
 2522SOL    HW1 8465   1.932   2.139   0.232
 2522SOL    HW2 8466   2.047   2.026   0.261
 2523SOL     OW 8467   1.009   5.969   5.505
 2523SOL    HW1 8468   0.982   5.884   5.459
 2523SOL    HW2 8469   0.977   5.967   5.599
 2524SOL     OW 8470   0.822   2.218   4.744
 2524SOL    HW1 8471   0.738   2.165   4.729
 2524SOL    HW2 8472   0.875   2.220   4.659
 2525SOL     OW 8473   6.658   2.658   6.542
 2525SOL    HW1 8474   6.574   2.675   6.491
 2525SOL    HW2 8475   6.690   2.744   6.582
 2526SOL     OW 8476   2.059   1.182   1.002
 2526SOL    HW1 8477   2.110   1.198   1.087
 2526SOL    HW2 8478   1.961   1.179   1.022
 2527SOL     OW 8479   3.889   5.499   0.181
 2527SOL    HW1 8480   3.971   5.462   0.224
 2527SOL    HW2 8481   3.836   5.424   0.141
 2528SOL     OW 8482   4.238   5.653   6.389
 2528SOL    HW1 8483   4.138   5.657   6.384
 2528SOL    HW2 8484   4.276   5.658   6.297
 2529SOL     OW 8485   0.118   5.976   5.516
 2529SOL    HW1 8486   0.124   5.945   5.611
 2529SOL    HW2 8487   0.197   5.942   5.465
 2530SOL     OW 8488   2.146   6.046   6.798
 2530SOL    HW1 8489   2.187   6.017   6.885
 2530SOL    HW2 8490   2.189   5.995   6.723
 2531SOL     OW 8491   0.324   4.021   6.247
 2531SOL    HW1 8492   0.316   4.001   6.149
 2531SOL    HW2 8493   0.254   4.087   6.273
 2532SOL     OW 8494   5.345   6.090   3.056
 2532SOL    HW1 8495   5.292   6.115   2.975
 2532SOL    HW2 8496   5.441   6.078   3.030
 2533SOL     OW 8497   4.228   0.352   3.704
 2533SOL    HW1 8498   4.176   0.432   3.735
 2533SOL    HW2 8499   4.317   0.351   3.749
 2534SOL     OW 8500   4.533   1.681   2.481
 2534SOL    HW1 8501   4.493   1.636   2.401
 2534SOL    HW2 8502   4.630   1.697   2.466
 2535SOL     OW 8503   3.499   2.919   6.228
 2535SOL    HW1 8504   3.411   2.966   6.227
 2535SOL    HW2 8505   3.507   2.864   6.311
 2536SOL     OW 8506   1.110   0.479   1.145
 2536SOL    HW1 8507   1.189   0.539   1.158
 2536SOL    HW2 8508   1.142   0.385   1.134
 2537SOL     OW 8509   4.419   6.754   4.892
 2537SOL    HW1 8510   4.477   6.819   4.844
 2537SOL    HW2 8511   4.328   6.793   4.905
 2538SOL     OW 8512   5.757   3.895   3.690
 2538SOL    HW1 8513   5.693   3.852   3.753
 2538SOL    HW2 8514   5.785   3.830   3.620
 2539SOL     OW 8515   5.128   2.099   4.922
 2539SOL    HW1 8516   5.192   2.024   4.933
 2539SOL    HW2 8517   5.035   2.068   4.942
 2540SOL     OW 8518   2.533   2.290   1.637
 2540SOL    HW1 8519   2.580   2.280   1.549
 2540SOL    HW2 8520   2.599   2.322   1.706
 2541SOL     OW 8521   2.970   6.995   4.207
 2541SOL    HW1 8522   2.924   0.043   4.150
 2541SOL    HW2 8523   3.009   0.019   4.288
 2542SOL     OW 8524   1.724   5.790   5.959
 2542SOL    HW1 8525   1.635   5.783   5.915
 2542SOL    HW2 8526   1.714   5.776   6.058
 2543SOL     OW 8527   0.914   0.678   3.852
 2543SOL    HW1 8528   0.881   0.620   3.778
 2543SOL    HW2 8529   0.845   0.682   3.925
 2544SOL     OW 8530   0.924   5.905   5.756
 2544SOL    HW1 8531   0.966   5.957   5.829
 2544SOL    HW2 8532   0.887   5.819   5.793
 2545SOL     OW 8533   2.571   6.201   2.990
 2545SOL    HW1 8534   2.609   6.109   2.992
 2545SOL    HW2 8535   2.490   6.202   2.932
 2546SOL     OW 8536   6.680   0.998   1.836
 2546SOL    HW1 8537   6.589   0.970   1.803
 2546SOL    HW2 8538   6.716   0.928   1.898
 2547SOL     OW 8539   0.178   3.727   4.989
 2547SOL    HW1 8540   0.111   3.726   5.063
 2547SOL    HW2 8541   0.205   3.634   4.966
 2548SOL     OW 8542   7.020   0.841   5.941
 2548SOL    HW1 8543   0.010   0.743   5.958
 2548SOL    HW2 8544   7.020   0.890   6.028
 2549SOL     OW 8545   5.523   2.099   2.909
 2549SOL    HW1 8546   5.506   2.068   3.003
 2549SOL    HW2 8547   5.475   2.039   2.845
 2550SOL     OW 8548   5.285   5.339   0.212
 2550SOL    HW1 8549   5.221   5.369   0.283
 2550SOL    HW2 8550   5.254   5.252   0.173
 2551SOL     OW 8551   1.290   4.590   6.066
 2551SOL    HW1 8552   1.306   4.648   6.146
 2551SOL    HW2 8553   1.245   4.505   6.094
 2552SOL     OW 8554   1.511   5.857   3.443
 2552SOL    HW1 8555   1.581   5.878   3.511
 2552SOL    HW2 8556   1.531   5.769   3.401
 2553SOL     OW 8557   4.773   3.077   0.516
 2553SOL    HW1 8558   4.775   2.989   0.468
 2553SOL    HW2 8559   4.701   3.135   0.477
 2554SOL     OW 8560   1.022   1.890   0.551
 2554SOL    HW1 8561   1.089   1.918   0.619
 2554SOL    HW2 8562   0.937   1.863   0.596
 2555SOL     OW 8563   0.020   0.180   5.976
 2555SOL    HW1 8564   6.954   0.168   6.025
 2555SOL    HW2 8565   0.088   0.117   6.014
 2556SOL     OW 8566   4.165   5.088   0.048
 2556SOL    HW1 8567   4.212   5.062   6.985
 2556SOL    HW2 8568   4.194   5.029   0.123
 2557SOL     OW 8569   2.420   5.052   6.864
 2557SOL    HW1 8570   2.516   5.031   6.846
 2557SOL    HW2 8571   2.402   5.147   6.840
 2558SOL     OW 8572   4.253   0.806   5.281
 2558SOL    HW1 8573   4.325   0.843   5.223
 2558SOL    HW2 8574   4.276   0.712   5.307
 2559SOL     OW 8575   0.584   4.998   5.153
 2559SOL    HW1 8576   0.583   4.947   5.066
 2559SOL    HW2 8577   0.597   5.095   5.135
 2560SOL     OW 8578   6.148   0.349   0.324
 2560SOL    HW1 8579   6.201   0.310   0.400
 2560SOL    HW2 8580   6.104   0.276   0.273
 2561SOL     OW 8581   3.204   6.032   4.097
 2561SOL    HW1 8582   3.292   6.049   4.142
 2561SOL    HW2 8583   3.219   5.979   4.013
 2562SOL     OW 8584   2.069   4.036   0.380
 2562SOL    HW1 8585   1.977   3.997   0.374
 2562SOL    HW2 8586   2.066   4.133   0.357
 2563SOL     OW 8587   1.664   0.423   1.746
 2563SOL    HW1 8588   1.738   0.364   1.715
 2563SOL    HW2 8589   1.683   0.518   1.721
 2564SOL     OW 8590   1.651   6.255   2.343
 2564SOL    HW1 8591   1.709   6.309   2.404
 2564SOL    HW2 8592   1.587   6.201   2.396
 2565SOL     OW 8593   0.923   0.953   1.063
 2565SOL    HW1 8594   0.868   0.924   1.142
 2565SOL    HW2 8595   1.003   0.892   1.054
 2566SOL     OW 8596   2.460   6.576   5.078
 2566SOL    HW1 8597   2.411   6.561   5.163
 2566SOL    HW2 8598   2.523   6.654   5.088
 2567SOL     OW 8599   1.262   0.709   0.615
 2567SOL    HW1 8600   1.182   0.743   0.665
 2567SOL    HW2 8601   1.231   0.665   0.530
 2568SOL     OW 8602   5.668   3.704   0.677
 2568SOL    HW1 8603   5.648   3.799   0.653
 2568SOL    HW2 8604   5.583   3.652   0.686
 2569SOL     OW 8605   2.257   0.828   2.313
 2569SOL    HW1 8606   2.201   0.909   2.333
 2569SOL    HW2 8607   2.302   0.839   2.225
 2570SOL     OW 8608   5.902   2.053   6.303
 2570SOL    HW1 8609   5.812   2.017   6.326
 2570SOL    HW2 8610   5.973   1.988   6.330
 2571SOL     OW 8611   1.035   4.482   3.817
 2571SOL    HW1 8612   1.060   4.547   3.746
 2571SOL    HW2 8613   1.031   4.390   3.778
 2572SOL     OW 8614   1.474   5.130   3.452
 2572SOL    HW1 8615   1.501   5.047   3.499
 2572SOL    HW2 8616   1.451   5.201   3.519
 2573SOL     OW 8617   1.314   0.220   6.830
 2573SOL    HW1 8618   1.256   0.205   6.910
 2573SOL    HW2 8619   1.387   0.151   6.829
 2574SOL     OW 8620   6.575   3.382   1.173
 2574SOL    HW1 8621   6.512   3.387   1.251
 2574SOL    HW2 8622   6.550   3.304   1.116
 2575SOL     OW 8623   0.947   6.866   5.238
 2575SOL    HW1 8624   0.906   6.949   5.276
 2575SOL    HW2 8625   1.046   6.868   5.251
 2576SOL     OW 8626   4.205   6.291   6.010
 2576SOL    HW1 8627   4.160   6.326   6.093
 2576SOL    HW2 8628   4.135   6.261   5.945
 2577SOL     OW 8629   1.836   3.495   2.510
 2577SOL    HW1 8630   1.774   3.490   2.589
 2577SOL    HW2 8631   1.862   3.590   2.495
 2578SOL     OW 8632   4.125   1.597   2.037
 2578SOL    HW1 8633   4.060   1.663   1.999
 2578SOL    HW2 8634   4.084   1.551   2.116
 2579SOL     OW 8635   0.539   6.349   2.879
 2579SOL    HW1 8636   0.489   6.265   2.860
 2579SOL    HW2 8637   0.565   6.352   2.975
 2580SOL     OW 8638   3.080   2.112   5.534
 2580SOL    HW1 8639   3.029   2.171   5.596
 2580SOL    HW2 8640   3.126   2.040   5.587
 2581SOL     OW 8641   3.366   0.338   5.839
 2581SOL    HW1 8642   3.285   0.316   5.893
 2581SOL    HW2 8643   3.364   0.435   5.814
 2582SOL     OW 8644   0.218   3.818   0.730
 2582SOL    HW1 8645   0.188   3.829   0.825
 2582SOL    HW2 8646   0.313   3.848   0.722
 2583SOL     OW 8647   5.429   1.063   0.961
 2583SOL    HW1 8648   5.456   0.967   0.961
 2583SOL    HW2 8649   5.499   1.118   1.005
 2584SOL     OW 8650   3.416   4.567   6.537
 2584SOL    HW1 8651   3.399   4.470   6.519
 2584SOL    HW2 8652   3.388   4.621   6.457
 2585SOL     OW 8653   2.352   5.439   0.078
 2585SOL    HW1 8654   2.444   5.410   0.050
 2585SOL    HW2 8655   2.359   5.522   0.133
 2586SOL     OW 8656   1.947   1.345   2.932
 2586SOL    HW1 8657   1.958   1.246   2.940
 2586SOL    HW2 8658   1.886   1.377   3.004
 2587SOL     OW 8659   5.903   1.222   4.185
 2587SOL    HW1 8660   5.906   1.216   4.285
 2587SOL    HW2 8661   5.843   1.150   4.149
 2588SOL     OW 8662   4.731   1.637   6.520
 2588SOL    HW1 8663   4.814   1.671   6.478
 2588SOL    HW2 8664   4.718   1.540   6.498
 2589SOL     OW 8665   1.517   5.975   0.484
 2589SOL    HW1 8666   1.472   5.891   0.515
 2589SOL    HW2 8667   1.615   5.957   0.472
 2590SOL     OW 8668   2.577   5.246   0.705
 2590SOL    HW1 8669   2.529   5.304   0.639
 2590SOL    HW2 8670   2.510   5.200   0.763
 2591SOL     OW 8671   5.036   6.392   3.354
 2591SOL    HW1 8672   5.045   6.406   3.256
 2591SOL    HW2 8673   5.031   6.294   3.373
 2592SOL     OW 8674   3.245   3.515   0.687
 2592SOL    HW1 8675   3.313   3.585   0.662
 2592SOL    HW2 8676   3.153   3.555   0.680
 2593SOL     OW 8677   2.599   4.594   6.340
 2593SOL    HW1 8678   2.682   4.583   6.285
 2593SOL    HW2 8679   2.548   4.508   6.339
 2594SOL     OW 8680   2.312   2.765   3.476
 2594SOL    HW1 8681   2.363   2.717   3.404
 2594SOL    HW2 8682   2.355   2.748   3.564
 2595SOL     OW 8683   1.589   1.095   2.876
 2595SOL    HW1 8684   1.672   1.105   2.822
 2595SOL    HW2 8685   1.512   1.134   2.826
 2596SOL     OW 8686   7.003   1.148   0.815
 2596SOL    HW1 8687   0.071   1.109   0.841
 2596SOL    HW2 8688   6.943   1.151   0.895
 2597SOL     OW 8689   6.358   6.079   0.595
 2597SOL    HW1 8690   6.406   6.091   0.508
 2597SOL    HW2 8691   6.265   6.047   0.579
 2598SOL     OW 8692   4.728   2.824   2.290
 2598SOL    HW1 8693   4.754   2.891   2.359
 2598SOL    HW2 8694   4.752   2.860   2.199
 2599SOL     OW 8695   2.179   5.642   1.730
 2599SOL    HW1 8696   2.114   5.658   1.804
 2599SOL    HW2 8697   2.247   5.716   1.729
 2600SOL     OW 8698   5.458   5.611   4.257
 2600SOL    HW1 8699   5.542   5.577   4.215
 2600SOL    HW2 8700   5.399   5.650   4.187
 2601SOL     OW 8701   6.986   0.674   3.800
 2601SOL    HW1 8702   0.006   0.698   3.889
 2601SOL    HW2 8703   6.910   0.736   3.782
 2602SOL     OW 8704   1.808   4.475   3.362
 2602SOL    HW1 8705   1.781   4.460   3.457
 2602SOL    HW2 8706   1.733   4.448   3.301
 2603SOL     OW 8707   1.431   5.763   1.544
 2603SOL    HW1 8708   1.527   5.748   1.567
 2603SOL    HW2 8709   1.407   5.708   1.464
 2604SOL     OW 8710   4.898   3.456   2.795
 2604SOL    HW1 8711   4.817   3.471   2.851
 2604SOL    HW2 8712   4.885   3.374   2.738
 2605SOL     OW 8713   1.744   2.519   1.002
 2605SOL    HW1 8714   1.735   2.573   1.086
 2605SOL    HW2 8715   1.814   2.559   0.944
 2606SOL     OW 8716   5.053   3.999   1.002
 2606SOL    HW1 8717   5.106   4.064   1.056
 2606SOL    HW2 8718   4.998   4.047   0.934
 2607SOL     OW 8719   2.516   2.914   1.686
 2607SOL    HW1 8720   2.482   3.008   1.699
 2607SOL    HW2 8721   2.464   2.852   1.744
 2608SOL     OW 8722   3.464   4.950   4.851
 2608SOL    HW1 8723   3.374   4.933   4.891
 2608SOL    HW2 8724   3.524   4.988   4.921
 2609SOL     OW 8725   0.499   1.458   1.319
 2609SOL    HW1 8726   0.400   1.467   1.332
 2609SOL    HW2 8727   0.520   1.366   1.287
 2610SOL     OW 8728   1.607   4.674   4.808
 2610SOL    HW1 8729   1.576   4.583   4.779
 2610SOL    HW2 8730   1.631   4.671   4.905
 2611SOL     OW 8731   5.486   2.061   5.554
 2611SOL    HW1 8732   5.585   2.063   5.546
 2611SOL    HW2 8733   5.452   2.152   5.575
 2612SOL     OW 8734   6.796   6.282   6.964
 2612SOL    HW1 8735   6.880   6.318   7.003
 2612SOL    HW2 8736   6.747   6.355   6.916
 2613SOL     OW 8737   1.961   0.140   0.511
 2613SOL    HW1 8738   1.866   0.156   0.539
 2613SOL    HW2 8739   1.963   0.126   0.412
 2614SOL     OW 8740   6.144   1.980   0.830
 2614SOL    HW1 8741   6.145   2.050   0.759
 2614SOL    HW2 8742   6.237   1.962   0.860
 2615SOL     OW 8743   1.357   2.997   6.868
 2615SOL    HW1 8744   1.364   2.941   6.950
 2615SOL    HW2 8745   1.325   2.942   6.791
 2616SOL     OW 8746   0.915   1.473   4.940
 2616SOL    HW1 8747   0.831   1.495   4.889
 2616SOL    HW2 8748   0.994   1.493   4.882
 2617SOL     OW 8749   5.833   0.365   0.194
 2617SOL    HW1 8750   5.884   0.446   0.164
 2617SOL    HW2 8751   5.857   0.287   0.137
 2618SOL     OW 8752   1.879   0.341   0.058
 2618SOL    HW1 8753   1.873   0.320   6.981
 2618SOL    HW2 8754   1.809   0.409   0.082
 2619SOL     OW 8755   4.440   1.125   2.775
 2619SOL    HW1 8756   4.411   1.044   2.725
 2619SOL    HW2 8757   4.383   1.203   2.748
 2620SOL     OW 8758   5.687   2.413   1.786
 2620SOL    HW1 8759   5.779   2.452   1.780
 2620SOL    HW2 8760   5.622   2.486   1.808
 2621SOL     OW 8761   2.615   6.424   0.947
 2621SOL    HW1 8762   2.711   6.446   0.964
 2621SOL    HW2 8763   2.609   6.362   0.869
 2622SOL     OW 8764   2.340   3.376   6.790
 2622SOL    HW1 8765   2.342   3.413   6.883
 2622SOL    HW2 8766   2.277   3.428   6.733
 2623SOL     OW 8767   0.536   1.542   3.648
 2623SOL    HW1 8768   0.555   1.562   3.744
 2623SOL    HW2 8769   0.467   1.470   3.641
 2624SOL     OW 8770   1.254   1.239   5.326
 2624SOL    HW1 8771   1.234   1.145   5.351
 2624SOL    HW2 8772   1.253   1.249   5.227
 2625SOL     OW 8773   2.910   5.075   6.038
 2625SOL    HW1 8774   2.817   5.036   6.043
 2625SOL    HW2 8775   2.905   5.174   6.042
 2626SOL     OW 8776   6.830   6.587   0.490
 2626SOL    HW1 8777   6.819   6.534   0.406
 2626SOL    HW2 8778   6.876   6.531   0.559
 2627SOL     OW 8779   2.505   0.084   6.102
 2627SOL    HW1 8780   2.594   0.127   6.115
 2627SOL    HW2 8781   2.434   0.153   6.101
 2628SOL     OW 8782   6.763   5.493   1.648
 2628SOL    HW1 8783   6.703   5.534   1.580
 2628SOL    HW2 8784   6.855   5.531   1.638
 2629SOL     OW 8785   3.798   3.541   2.776
 2629SOL    HW1 8786   3.755   3.538   2.685
 2629SOL    HW2 8787   3.786   3.453   2.821
 2630SOL     OW 8788   2.935   1.149   4.816
 2630SOL    HW1 8789   2.888   1.111   4.896
 2630SOL    HW2 8790   3.024   1.104   4.805
 2631SOL     OW 8791   5.170   5.780   0.557
 2631SOL    HW1 8792   5.083   5.769   0.508
 2631SOL    HW2 8793   5.154   5.831   0.642
 2632SOL     OW 8794   4.661   5.024   2.067
 2632SOL    HW1 8795   4.581   5.055   2.016
 2632SOL    HW2 8796   4.632   4.978   2.151
 2633SOL     OW 8797   6.661   3.108   5.934
 2633SOL    HW1 8798   6.679   3.052   6.014
 2633SOL    HW2 8799   6.742   3.162   5.912
 2634SOL     OW 8800   2.091   2.169   6.217
 2634SOL    HW1 8801   2.014   2.130   6.268
 2634SOL    HW2 8802   2.101   2.266   6.242
 2635SOL     OW 8803   3.909   5.652   2.983
 2635SOL    HW1 8804   3.871   5.630   2.893
 2635SOL    HW2 8805   3.963   5.736   2.977
 2636SOL     OW 8806   3.244   6.895   5.939
 2636SOL    HW1 8807   3.275   6.933   5.852
 2636SOL    HW2 8808   3.245   6.795   5.934
 2637SOL     OW 8809   6.715   0.921   3.042
 2637SOL    HW1 8810   6.741   0.855   2.971
 2637SOL    HW2 8811   6.615   0.931   3.043
 2638SOL     OW 8812   0.697   6.268   5.066
 2638SOL    HW1 8813   0.726   6.297   5.157
 2638SOL    HW2 8814   0.767   6.207   5.026
 2639SOL     OW 8815   5.109   5.425   4.809
 2639SOL    HW1 8816   5.169   5.504   4.819
 2639SOL    HW2 8817   5.103   5.398   4.713
 2640SOL     OW 8818   2.263   0.963   3.012
 2640SOL    HW1 8819   2.202   0.988   2.937
 2640SOL    HW2 8820   2.314   0.881   2.986
 2641SOL     OW 8821   5.534   2.264   0.610
 2641SOL    HW1 8822   5.570   2.267   0.516
 2641SOL    HW2 8823   5.440   2.298   0.611
 2642SOL     OW 8824   0.047   0.802   2.992
 2642SOL    HW1 8825   0.054   0.886   2.937
 2642SOL    HW2 8826   0.121   0.801   3.060
 2643SOL     OW 8827   1.788   4.567   4.337
 2643SOL    HW1 8828   1.810   4.603   4.428
 2643SOL    HW2 8829   1.735   4.636   4.287
 2644SOL     OW 8830   5.436   5.325   3.419
 2644SOL    HW1 8831   5.415   5.229   3.399
 2644SOL    HW2 8832   5.384   5.384   3.358
 2645SOL     OW 8833   4.689   5.137   2.746
 2645SOL    HW1 8834   4.621   5.198   2.704
 2645SOL    HW2 8835   4.745   5.189   2.811
 2646SOL     OW 8836   1.225   1.526   6.556
 2646SOL    HW1 8837   1.243   1.432   6.586
 2646SOL    HW2 8838   1.173   1.524   6.471
 2647SOL     OW 8839   4.418   0.223   3.329
 2647SOL    HW1 8840   4.514   0.250   3.316
 2647SOL    HW2 8841   4.364   0.256   3.251
 2648SOL     OW 8842   2.343   0.499   5.949
 2648SOL    HW1 8843   2.320   0.586   5.993
 2648SOL    HW2 8844   2.259   0.456   5.914
 2649SOL     OW 8845   6.002   1.967   3.798
 2649SOL    HW1 8846   5.935   2.037   3.777
 2649SOL    HW2 8847   6.075   1.968   3.729
 2650SOL     OW 8848   1.796   6.899   4.553
 2650SOL    HW1 8849   1.815   6.826   4.488
 2650SOL    HW2 8850   1.840   6.984   4.522
 2651SOL     OW 8851   3.328   2.147   2.809
 2651SOL    HW1 8852   3.344   2.095   2.726
 2651SOL    HW2 8853   3.416   2.173   2.849
 2652SOL     OW 8854   4.416   3.441   6.081
 2652SOL    HW1 8855   4.478   3.466   6.155
 2652SOL    HW2 8856   4.323   3.436   6.117
 2653SOL     OW 8857   2.358   7.020   0.174
 2653SOL    HW1 8858   2.310   0.041   0.251
 2653SOL    HW2 8859   2.456   0.013   0.184
 2654SOL     OW 8860   6.597   0.287   1.040
 2654SOL    HW1 8861   6.621   0.299   0.944
 2654SOL    HW2 8862   6.646   0.208   1.077
 2655SOL     OW 8863   5.158   6.669   3.795
 2655SOL    HW1 8864   5.099   6.742   3.760
 2655SOL    HW2 8865   5.235   6.708   3.844
 2656SOL     OW 8866   4.826   0.052   4.935
 2656SOL    HW1 8867   4.845   6.980   4.964
 2656SOL    HW2 8868   4.879   0.073   4.852
 2657SOL     OW 8869   1.619   3.410   5.533
 2657SOL    HW1 8870   1.687   3.413   5.460
 2657SOL    HW2 8871   1.662   3.379   5.618
 2658SOL     OW 8872   3.527   4.211   0.557
 2658SOL    HW1 8873   3.550   4.209   0.654
 2658SOL    HW2 8874   3.531   4.118   0.520
 2659SOL     OW 8875   0.624   2.241   5.658
 2659SOL    HW1 8876   0.684   2.295   5.717
 2659SOL    HW2 8877   0.611   2.290   5.571
 2660SOL     OW 8878   1.141   1.658   0.471
 2660SOL    HW1 8879   1.095   1.745   0.487
 2660SOL    HW2 8880   1.162   1.648   0.373
 2661SOL     OW 8881   2.088   1.207   1.691
 2661SOL    HW1 8882   2.137   1.202   1.778
 2661SOL    HW2 8883   2.026   1.128   1.683
 2662SOL     OW 8884   2.685   1.368   1.596
 2662SOL    HW1 8885   2.688   1.275   1.560
 2662SOL    HW2 8886   2.766   1.418   1.567
 2663SOL     OW 8887   3.981   0.111   1.026
 2663SOL    HW1 8888   4.077   0.127   1.005
 2663SOL    HW2 8889   3.926   0.119   0.943
 2664SOL     OW 8890   4.902   3.511   5.881
 2664SOL    HW1 8891   4.866   3.425   5.918
 2664SOL    HW2 8892   4.928   3.498   5.786
 2665SOL     OW 8893   0.947   3.672   4.518
 2665SOL    HW1 8894   0.863   3.712   4.554
 2665SOL    HW2 8895   0.929   3.579   4.486
 2666SOL     OW 8896   1.878   3.687   1.636
 2666SOL    HW1 8897   1.832   3.763   1.682
 2666SOL    HW2 8898   1.967   3.717   1.601
 2667SOL     OW 8899   6.288   2.411   4.866
 2667SOL    HW1 8900   6.308   2.457   4.780
 2667SOL    HW2 8901   6.192   2.429   4.892
 2668SOL     OW 8902   6.091   0.547   4.361
 2668SOL    HW1 8903   6.020   0.487   4.397
 2668SOL    HW2 8904   6.077   0.640   4.394
 2669SOL     OW 8905   2.513   1.756   1.736
 2669SOL    HW1 8906   2.504   1.669   1.688
 2669SOL    HW2 8907   2.567   1.819   1.680
 2670SOL     OW 8908   0.409   6.893   1.186
 2670SOL    HW1 8909   0.502   6.862   1.164
 2670SOL    HW2 8910   0.413   6.967   1.252
 2671SOL     OW 8911   5.130   4.139   6.523
 2671SOL    HW1 8912   5.115   4.056   6.578
 2671SOL    HW2 8913   5.151   4.113   6.429
 2672SOL     OW 8914   1.745   1.033   2.209
 2672SOL    HW1 8915   1.744   0.958   2.275
 2672SOL    HW2 8916   1.668   1.024   2.146
 2673SOL     OW 8917   3.188   0.843   3.214
 2673SOL    HW1 8918   3.257   0.846   3.141
 2673SOL    HW2 8919   3.179   0.935   3.254
 2674SOL     OW 8920   5.705   5.668   3.024
 2674SOL    HW1 8921   5.678   5.607   2.949
 2674SOL    HW2 8922   5.624   5.696   3.075
 2675SOL     OW 8923   4.933   1.119   4.037
 2675SOL    HW1 8924   4.886   1.170   4.109
 2675SOL    HW2 8925   4.871   1.052   3.997
 2676SOL     OW 8926   3.945   3.664   5.374
 2676SOL    HW1 8927   3.848   3.650   5.352
 2676SOL    HW2 8928   3.986   3.727   5.308
 2677SOL     OW 8929   1.672   5.808   1.257
 2677SOL    HW1 8930   1.593   5.749   1.278
 2677SOL    HW2 8931   1.756   5.761   1.284
 2678SOL     OW 8932   3.512   1.961   1.943
 2678SOL    HW1 8933   3.558   2.048   1.958
 2678SOL    HW2 8934   3.453   1.941   2.022
 2679SOL     OW 8935   2.239   4.061   2.800
 2679SOL    HW1 8936   2.221   3.971   2.759
 2679SOL    HW2 8937   2.324   4.097   2.762
 2680SOL     OW 8938   6.021   1.899   6.713
 2680SOL    HW1 8939   6.040   1.838   6.637
 2680SOL    HW2 8940   5.968   1.851   6.782
 2681SOL     OW 8941   2.330   2.803   3.101
 2681SOL    HW1 8942   2.355   2.748   3.181
 2681SOL    HW2 8943   2.387   2.778   3.024
 2682SOL     OW 8944   3.437   4.104   2.112
 2682SOL    HW1 8945   3.397   4.136   2.198
 2682SOL    HW2 8946   3.397   4.154   2.036
 2683SOL     OW 8947   1.671   3.212   1.042
 2683SOL    HW1 8948   1.596   3.151   1.068
 2683SOL    HW2 8949   1.633   3.301   1.016
 2684SOL     OW 8950   5.501   6.987   4.085
 2684SOL    HW1 8951   5.528   6.997   3.990
 2684SOL    HW2 8952   5.576   6.947   4.137
 2685SOL     OW 8953   1.841   6.757   6.174
 2685SOL    HW1 8954   1.888   6.683   6.125
 2685SOL    HW2 8955   1.822   6.727   6.267
 2686SOL     OW 8956   2.635   2.089   5.812
 2686SOL    HW1 8957   2.729   2.099   5.844
 2686SOL    HW2 8958   2.583   2.171   5.834
 2687SOL     OW 8959   3.643   2.625   1.802
 2687SOL    HW1 8960   3.592   2.666   1.877
 2687SOL    HW2 8961   3.630   2.525   1.803
 2688SOL     OW 8962   4.577   2.314   0.176
 2688SOL    HW1 8963   4.642   2.376   0.221
 2688SOL    HW2 8964   4.521   2.269   0.244
 2689SOL     OW 8965   0.368   4.154   2.024
 2689SOL    HW1 8966   0.305   4.100   2.079
 2689SOL    HW2 8967   0.451   4.100   2.007
 2690SOL     OW 8968   5.398   1.186   4.505
 2690SOL    HW1 8969   5.456   1.240   4.444
 2690SOL    HW2 8970   5.312   1.165   4.458
 2691SOL     OW 8971   5.183   3.548   3.881
 2691SOL    HW1 8972   5.265   3.502   3.915
 2691SOL    HW2 8973   5.111   3.542   3.950
 2692SOL     OW 8974   1.220   5.695   0.890
 2692SOL    HW1 8975   1.243   5.773   0.949
 2692SOL    HW2 8976   1.300   5.667   0.838
 2693SOL     OW 8977   0.940   6.099   2.615
 2693SOL    HW1 8978   0.900   6.141   2.696
 2693SOL    HW2 8979   0.869   6.053   2.562
 2694SOL     OW 8980   2.523   0.807   2.949
 2694SOL    HW1 8981   2.605   0.759   2.983
 2694SOL    HW2 8982   2.462   0.741   2.906
 2695SOL     OW 8983   6.674   6.071   2.872
 2695SOL    HW1 8984   6.656   6.023   2.958
 2695SOL    HW2 8985   6.732   6.151   2.890
 2696SOL     OW 8986   3.440   4.588   6.254
 2696SOL    HW1 8987   3.525   4.603   6.304
 2696SOL    HW2 8988   3.456   4.600   6.156
 2697SOL     OW 8989   4.781   2.854   0.343
 2697SOL    HW1 8990   4.878   2.838   0.362
 2697SOL    HW2 8991   4.726   2.790   0.396
 2698SOL     OW 8992   1.946   5.807   0.507
 2698SOL    HW1 8993   2.009   5.818   0.584
 2698SOL    HW2 8994   1.983   5.740   0.443
 2699SOL     OW 8995   3.043   7.009   2.764
 2699SOL    HW1 8996   3.065   6.917   2.731
 2699SOL    HW2 8997   2.968   0.025   2.709
 2700SOL     OW 8998   4.937   2.222   0.905
 2700SOL    HW1 8999   4.974   2.286   0.838
 2700SOL    HW2 9000   4.847   2.254   0.935
 2701SOL     OW 9001   5.185   4.081   5.311
 2701SOL    HW1 9002   5.156   4.146   5.381
 2701SOL    HW2 9003   5.147   3.991   5.331
 2702SOL     OW 9004   1.296   1.802   5.403
 2702SOL    HW1 9005   1.313   1.857   5.321
 2702SOL    HW2 9006   1.199   1.779   5.408
 2703SOL     OW 9007   2.455   5.963   1.798
 2703SOL    HW1 9008   2.485   5.876   1.762
 2703SOL    HW2 9009   2.515   5.992   1.873
 2704SOL     OW 9010   4.421   0.873   3.526
 2704SOL    HW1 9011   4.394   0.964   3.495
 2704SOL    HW2 9012   4.342   0.826   3.564
 2705SOL     OW 9013   1.279   0.426   5.662
 2705SOL    HW1 9014   1.181   0.444   5.670
 2705SOL    HW2 9015   1.325   0.458   5.745
 2706SOL     OW 9016   0.956   4.663   4.771
 2706SOL    HW1 9017   0.931   4.616   4.686
 2706SOL    HW2 9018   1.028   4.612   4.818
 2707SOL     OW 9019   4.151   0.887   3.133
 2707SOL    HW1 9020   4.075   0.919   3.189
 2707SOL    HW2 9021   4.218   0.842   3.190
 2708SOL     OW 9022   5.449   3.153   5.351
 2708SOL    HW1 9023   5.363   3.189   5.316
 2708SOL    HW2 9024   5.520   3.160   5.281
 2709SOL     OW 9025   4.954   1.400   5.293
 2709SOL    HW1 9026   4.974   1.342   5.372
 2709SOL    HW2 9027   5.002   1.487   5.303
 2710SOL     OW 9028   1.102   3.075   3.821
 2710SOL    HW1 9029   1.098   3.079   3.921
 2710SOL    HW2 9030   1.146   3.158   3.786
 2711SOL     OW 9031   4.622   0.987   1.458
 2711SOL    HW1 9032   4.543   0.974   1.398
 2711SOL    HW2 9033   4.621   0.916   1.529
 2712SOL     OW 9034   4.984   6.196   1.615
 2712SOL    HW1 9035   4.951   6.188   1.521
 2712SOL    HW2 9036   4.909   6.172   1.678
 2713SOL     OW 9037   4.016   4.583   5.353
 2713SOL    HW1 9038   3.961   4.641   5.293
 2713SOL    HW2 9039   4.018   4.622   5.445
 2714SOL     OW 9040   3.220   4.146   6.032
 2714SOL    HW1 9041   3.175   4.117   6.117
 2714SOL    HW2 9042   3.252   4.241   6.043
 2715SOL     OW 9043   4.584   6.722   0.322
 2715SOL    HW1 9044   4.647   6.657   0.281
 2715SOL    HW2 9045   4.531   6.768   0.250
 2716SOL     OW 9046   4.473   1.065   2.068
 2716SOL    HW1 9047   4.451   1.161   2.052
 2716SOL    HW2 9048   4.566   1.057   2.103
 2717SOL     OW 9049   0.366   1.602   2.088
 2717SOL    HW1 9050   0.352   1.503   2.082
 2717SOL    HW2 9051   0.278   1.648   2.100
 2718SOL     OW 9052   6.030   1.197   6.120
 2718SOL    HW1 9053   6.098   1.185   6.048
 2718SOL    HW2 9054   6.050   1.135   6.195
 2719SOL     OW 9055   0.851   4.671   3.935
 2719SOL    HW1 9056   0.850   4.762   3.892
 2719SOL    HW2 9057   0.915   4.612   3.886
 2720SOL     OW 9058   2.211   5.226   6.290
 2720SOL    HW1 9059   2.202   5.195   6.196
 2720SOL    HW2 9060   2.307   5.229   6.316
 2721SOL     OW 9061   2.766   5.836   3.684
 2721SOL    HW1 9062   2.729   5.864   3.773
 2721SOL    HW2 9063   2.694   5.793   3.630
 2722SOL     OW 9064   3.384   4.154   0.039
 2722SOL    HW1 9065   3.452   4.189   0.102
 2722SOL    HW2 9066   3.293   4.185   0.067
 2723SOL     OW 9067   4.707   4.817   0.300
 2723SOL    HW1 9068   4.770   4.864   0.361
 2723SOL    HW2 9069   4.676   4.881   0.229
 2724SOL     OW 9070   0.226   6.016   1.033
 2724SOL    HW1 9071   0.154   6.084   1.047
 2724SOL    HW2 9072   0.185   5.927   1.014
 2725SOL     OW 9073   5.801   3.971   3.081
 2725SOL    HW1 9074   5.761   4.042   3.024
 2725SOL    HW2 9075   5.837   4.012   3.165
 2726SOL     OW 9076   6.357   2.486   2.011
 2726SOL    HW1 9077   6.422   2.545   2.059
 2726SOL    HW2 9078   6.382   2.390   2.028
 2727SOL     OW 9079   1.666   4.572   3.606
 2727SOL    HW1 9080   1.568   4.562   3.587
 2727SOL    HW2 9081   1.687   4.669   3.619
 2728SOL     OW 9082   4.672   4.449   6.483
 2728SOL    HW1 9083   4.573   4.444   6.478
 2728SOL    HW2 9084   4.711   4.451   6.390
 2729SOL     OW 9085   0.411   6.980   0.710
 2729SOL    HW1 9086   0.353   6.901   0.692
 2729SOL    HW2 9087   0.354   0.035   0.743
 2730SOL     OW 9088   1.276   5.042   2.879
 2730SOL    HW1 9089   1.241   5.045   2.972
 2730SOL    HW2 9090   1.267   5.132   2.836
 2731SOL     OW 9091   4.186   3.579   5.439
 2731SOL    HW1 9092   4.090   3.606   5.435
 2731SOL    HW2 9093   4.233   3.609   5.357
 2732SOL     OW 9094   4.243   0.864   2.337
 2732SOL    HW1 9095   4.240   0.964   2.340
 2732SOL    HW2 9096   4.331   0.835   2.301
 2733SOL     OW 9097   0.787   0.364   0.727
 2733SOL    HW1 9098   0.748   0.455   0.711
 2733SOL    HW2 9099   0.813   0.355   0.823
 2734SOL     OW 9100   3.620   0.468   1.889
 2734SOL    HW1 9101   3.694   0.406   1.915
 2734SOL    HW2 9102   3.611   0.540   1.958
 2735SOL     OW 9103   0.901   2.621   3.016
 2735SOL    HW1 9104   0.854   2.565   2.948
 2735SOL    HW2 9105   0.904   2.716   2.986
 2736SOL     OW 9106   5.259   4.420   2.763
 2736SOL    HW1 9107   5.216   4.371   2.838
 2736SOL    HW2 9108   5.348   4.456   2.792
 2737SOL     OW 9109   2.948   0.363   6.328
 2737SOL    HW1 9110   2.987   0.410   6.408
 2737SOL    HW2 9111   2.981   0.268   6.327
 2738SOL     OW 9112   5.267   5.802   1.359
 2738SOL    HW1 9113   5.251   5.876   1.425
 2738SOL    HW2 9114   5.284   5.717   1.409
 2739SOL     OW 9115   0.660   5.031   1.686
 2739SOL    HW1 9116   0.581   5.023   1.624
 2739SOL    HW2 9117   0.631   5.074   1.771
 2740SOL     OW 9118   6.689   5.756   5.207
 2740SOL    HW1 9119   6.655   5.845   5.237
 2740SOL    HW2 9120   6.662   5.741   5.112
 2741SOL     OW 9121   0.123   6.857   0.087
 2741SOL    HW1 9122   0.067   6.824   0.164
 2741SOL    HW2 9123   0.207   6.803   0.082
 2742SOL     OW 9124   2.828   4.988   1.513
 2742SOL    HW1 9125   2.745   4.935   1.531
 2742SOL    HW2 9126   2.901   4.928   1.481
 2743SOL     OW 9127   5.746   1.927   3.369
 2743SOL    HW1 9128   5.833   1.972   3.389
 2743SOL    HW2 9129   5.750   1.887   3.278
 2744SOL     OW 9130   3.239   3.346   2.973
 2744SOL    HW1 9131   3.258   3.440   2.998
 2744SOL    HW2 9132   3.199   3.297   3.051
 2745SOL     OW 9133   0.690   6.281   6.916
 2745SOL    HW1 9134   0.751   6.350   6.879
 2745SOL    HW2 9135   0.743   6.199   6.939
 2746SOL     OW 9136   1.487   0.918   4.346
 2746SOL    HW1 9137   1.530   0.993   4.296
 2746SOL    HW2 9138   1.391   0.940   4.362
 2747SOL     OW 9139   5.126   4.811   0.344
 2747SOL    HW1 9140   5.045   4.849   0.388
 2747SOL    HW2 9141   5.105   4.789   0.249
 2748SOL     OW 9142   4.325   0.110   0.606
 2748SOL    HW1 9143   4.303   0.136   0.512
 2748SOL    HW2 9144   4.365   0.189   0.654
 2749SOL     OW 9145   4.480   0.564   0.366
 2749SOL    HW1 9146   4.415   0.552   0.441
 2749SOL    HW2 9147   4.502   0.661   0.356
 2750SOL     OW 9148   2.050   6.150   1.645
 2750SOL    HW1 9149   1.960   6.147   1.601
 2750SOL    HW2 9150   2.085   6.056   1.655
 2751SOL     OW 9151   6.200   5.515   1.848
 2751SOL    HW1 9152   6.203   5.435   1.789
 2751SOL    HW2 9153   6.116   5.566   1.832
 2752SOL     OW 9154   4.079   5.293   6.495
 2752SOL    HW1 9155   4.108   5.374   6.545
 2752SOL    HW2 9156   4.018   5.238   6.553
 2753SOL     OW 9157   4.406   4.994   5.704
 2753SOL    HW1 9158   4.492   5.044   5.695
 2753SOL    HW2 9159   4.365   5.014   5.793
 2754SOL     OW 9160   0.875   0.900   4.465
 2754SOL    HW1 9161   0.900   0.926   4.372
 2754SOL    HW2 9162   0.923   0.958   4.531
 2755SOL     OW 9163   3.940   0.198   2.482
 2755SOL    HW1 9164   3.992   0.284   2.486
 2755SOL    HW2 9165   3.849   0.216   2.443
 2756SOL     OW 9166   4.556   5.633   6.354
 2756SOL    HW1 9167   4.532   5.586   6.439
 2756SOL    HW2 9168   4.495   5.604   6.281
 2757SOL     OW 9169   1.090   4.478   0.422
 2757SOL    HW1 9170   1.116   4.455   0.328
 2757SOL    HW2 9171   1.029   4.557   0.420
 2758SOL     OW 9172   5.173   0.194   6.033
 2758SOL    HW1 9173   5.106   0.145   6.090
 2758SOL    HW2 9174   5.249   0.132   6.011
 2759SOL     OW 9175   4.515   4.932   3.112
 2759SOL    HW1 9176   4.482   4.922   3.019
 2759SOL    HW2 9177   4.601   4.984   3.112
 2760SOL     OW 9178   0.574   6.439   3.409
 2760SOL    HW1 9179   0.535   6.380   3.480
 2760SOL    HW2 9180   0.672   6.423   3.403
 2761SOL     OW 9181   2.562   4.602   5.082
 2761SOL    HW1 9182   2.658   4.594   5.054
 2761SOL    HW2 9183   2.557   4.602   5.182
 2762SOL     OW 9184   1.681   2.118   5.735
 2762SOL    HW1 9185   1.623   2.195   5.759
 2762SOL    HW2 9186   1.698   2.062   5.816
 2763SOL     OW 9187   5.590   0.206   2.063
 2763SOL    HW1 9188   5.644   0.287   2.088
 2763SOL    HW2 9189   5.555   0.217   1.970
 2764SOL     OW 9190   6.338   0.577   1.764
 2764SOL    HW1 9191   6.273   0.568   1.688
 2764SOL    HW2 9192   6.295   0.544   1.848
 2765SOL     OW 9193   5.434   1.686   3.536
 2765SOL    HW1 9194   5.354   1.636   3.502
 2765SOL    HW2 9195   5.515   1.628   3.528
 2766SOL     OW 9196   5.213   6.471   2.682
 2766SOL    HW1 9197   5.233   6.497   2.588
 2766SOL    HW2 9198   5.297   6.448   2.730
 2767SOL     OW 9199   6.829   4.005   5.352
 2767SOL    HW1 9200   6.852   4.076   5.285
 2767SOL    HW2 9201   6.754   4.037   5.410
 2768SOL     OW 9202   5.321   0.573   6.139
 2768SOL    HW1 9203   5.377   0.519   6.202
 2768SOL    HW2 9204   5.238   0.522   6.116
 2769SOL     OW 9205   1.513   3.951   1.370
 2769SOL    HW1 9206   1.513   3.984   1.464
 2769SOL    HW2 9207   1.475   4.022   1.310
 2770SOL     OW 9208   4.480   6.133   2.319
 2770SOL    HW1 9209   4.505   6.059   2.381
 2770SOL    HW2 9210   4.562   6.169   2.274
 2771SOL     OW 9211   4.622   0.796   1.646
 2771SOL    HW1 9212   4.560   0.721   1.623
 2771SOL    HW2 9213   4.580   0.853   1.716
 2772SOL     OW 9214   3.467   1.182   0.458
 2772SOL    HW1 9215   3.427   1.262   0.411
 2772SOL    HW2 9216   3.421   1.099   0.425
 2773SOL     OW 9217   3.466   5.005   1.456
 2773SOL    HW1 9218   3.470   5.086   1.397
 2773SOL    HW2 9219   3.514   4.929   1.411
 2774SOL     OW 9220   4.981   2.976   1.995
 2774SOL    HW1 9221   4.886   2.969   2.026
 2774SOL    HW2 9222   5.039   3.001   2.072
 2775SOL     OW 9223   0.497   0.223   2.276
 2775SOL    HW1 9224   0.537   0.241   2.366
 2775SOL    HW2 9225   0.557   0.161   2.225
 2776SOL     OW 9226   2.890   5.959   0.048
 2776SOL    HW1 9227   2.990   5.969   0.053
 2776SOL    HW2 9228   2.857   5.912   0.130
 2777SOL     OW 9229   1.293   2.743   4.041
 2777SOL    HW1 9230   1.295   2.685   3.960
 2777SOL    HW2 9231   1.221   2.812   4.031
 2778SOL     OW 9232   3.323   2.224   5.340
 2778SOL    HW1 9233   3.299   2.303   5.283
 2778SOL    HW2 9234   3.249   2.157   5.335
 2779SOL     OW 9235   6.427   0.607   0.295
 2779SOL    HW1 9236   6.465   0.635   0.383
 2779SOL    HW2 9237   6.385   0.686   0.250
 2780SOL     OW 9238   3.321   6.427   6.401
 2780SOL    HW1 9239   3.403   6.441   6.457
 2780SOL    HW2 9240   3.304   6.330   6.392
 2781SOL     OW 9241   5.501   3.848   6.709
 2781SOL    HW1 9242   5.439   3.837   6.787
 2781SOL    HW2 9243   5.593   3.870   6.743
 2782SOL     OW 9244   3.345   0.549   6.019
 2782SOL    HW1 9245   3.351   0.468   6.078
 2782SOL    HW2 9246   3.260   0.598   6.040
 2783SOL     OW 9247   0.380   3.881   5.094
 2783SOL    HW1 9248   0.302   3.828   5.064
 2783SOL    HW2 9249   0.414   3.845   5.181
 2784SOL     OW 9250   2.786   1.809   1.377
 2784SOL    HW1 9251   2.857   1.825   1.310
 2784SOL    HW2 9252   2.771   1.893   1.430
 2785SOL     OW 9253   5.566   2.584   2.318
 2785SOL    HW1 9254   5.513   2.629   2.390
 2785SOL    HW2 9255   5.609   2.501   2.356
 2786SOL     OW 9256   3.683   0.357   1.345
 2786SOL    HW1 9257   3.764   0.357   1.404
 2786SOL    HW2 9258   3.712   0.363   1.249
 2787SOL     OW 9259   1.755   4.472   5.940
 2787SOL    HW1 9260   1.673   4.518   5.904
 2787SOL    HW2 9261   1.801   4.424   5.866
 2788SOL     OW 9262   1.570   2.695   0.550
 2788SOL    HW1 9263   1.508   2.687   0.628
 2788SOL    HW2 9264   1.661   2.721   0.582
 2789SOL     OW 9265   6.940   3.342   3.247
 2789SOL    HW1 9266   6.947   3.396   3.163
 2789SOL    HW2 9267   6.984   3.253   3.233
 2790SOL     OW 9268   3.107   6.207   4.710
 2790SOL    HW1 9269   3.095   6.121   4.760
 2790SOL    HW2 9270   3.019   6.254   4.703
 2791SOL     OW 9271   2.086   3.344   2.213
 2791SOL    HW1 9272   2.159   3.332   2.146
 2791SOL    HW2 9273   2.084   3.440   2.243
 2792SOL     OW 9274   0.205   1.840   5.969
 2792SOL    HW1 9275   0.277   1.866   5.904
 2792SOL    HW2 9276   0.219   1.887   6.056
 2793SOL     OW 9277   5.087   0.551   4.914
 2793SOL    HW1 9278   5.158   0.489   4.882
 2793SOL    HW2 9279   5.005   0.540   4.858
 2794SOL     OW 9280   1.189   1.357   2.176
 2794SOL    HW1 9281   1.106   1.339   2.229
 2794SOL    HW2 9282   1.255   1.404   2.234
 2795SOL     OW 9283   0.852   3.685   0.639
 2795SOL    HW1 9284   0.851   3.785   0.642
 2795SOL    HW2 9285   0.760   3.650   0.655
 2796SOL     OW 9286   4.127   5.058   2.050
 2796SOL    HW1 9287   4.152   5.114   1.971
 2796SOL    HW2 9288   4.109   4.964   2.021
 2797SOL     OW 9289   5.004   4.465   5.111
 2797SOL    HW1 9290   4.979   4.378   5.155
 2797SOL    HW2 9291   5.015   4.535   5.181
 2798SOL     OW 9292   2.108   3.616   3.198
 2798SOL    HW1 9293   2.155   3.663   3.123
 2798SOL    HW2 9294   2.021   3.662   3.216
 2799SOL     OW 9295   6.789   5.373   6.333
 2799SOL    HW1 9296   6.816   5.423   6.415
 2799SOL    HW2 9297   6.725   5.300   6.358
 2800SOL     OW 9298   2.797   0.608   6.547
 2800SOL    HW1 9299   2.794   0.585   6.644
 2800SOL    HW2 9300   2.836   0.700   6.535
 2801SOL     OW 9301   3.918   5.414   1.922
 2801SOL    HW1 9302   3.889   5.321   1.898
 2801SOL    HW2 9303   3.865   5.480   1.868
 2802SOL     OW 9304   6.469   0.197   6.446
 2802SOL    HW1 9305   6.554   0.145   6.435
 2802SOL    HW2 9306   6.430   0.179   6.536
 2803SOL     OW 9307   2.537   5.971   4.728
 2803SOL    HW1 9308   2.474   5.898   4.753
 2803SOL    HW2 9309   2.588   5.945   4.646
 2804SOL     OW 9310   0.691   5.420   2.350
 2804SOL    HW1 9311   0.611   5.365   2.373
 2804SOL    HW2 9312   0.769   5.360   2.330
 2805SOL     OW 9313   6.499   4.370   6.372
 2805SOL    HW1 9314   6.560   4.352   6.295
 2805SOL    HW2 9315   6.406   4.343   6.348
 2806SOL     OW 9316   5.746   4.398   2.867
 2806SOL    HW1 9317   5.821   4.415   2.803
 2806SOL    HW2 9318   5.749   4.303   2.898
 2807SOL     OW 9319   3.755   4.863   3.820
 2807SOL    HW1 9320   3.673   4.810   3.798
 2807SOL    HW2 9321   3.817   4.862   3.741
 2808SOL     OW 9322   4.578   7.017   4.287
 2808SOL    HW1 9323   4.602   6.951   4.359
 2808SOL    HW2 9324   4.641   0.073   4.289
 2809SOL     OW 9325   5.308   1.881   0.558
 2809SOL    HW1 9326   5.290   1.955   0.623
 2809SOL    HW2 9327   5.224   1.826   0.546
 2810SOL     OW 9328   2.491   1.215   6.213
 2810SOL    HW1 9329   2.429   1.293   6.221
 2810SOL    HW2 9330   2.475   1.151   6.288
 2811SOL     OW 9331   0.271   0.554   4.097
 2811SOL    HW1 9332   0.178   0.578   4.125
 2811SOL    HW2 9333   0.325   0.531   4.179
 2812SOL     OW 9334   4.713   4.600   3.035
 2812SOL    HW1 9335   4.681   4.511   3.068
 2812SOL    HW2 9336   4.812   4.599   3.027
 2813SOL     OW 9337   6.153   1.824   5.878
 2813SOL    HW1 9338   6.236   1.776   5.907
 2813SOL    HW2 9339   6.120   1.882   5.952
 2814SOL     OW 9340   5.576   4.588   5.638
 2814SOL    HW1 9341   5.528   4.600   5.551
 2814SOL    HW2 9342   5.513   4.547   5.704
 2815SOL     OW 9343   1.534   1.129   4.154
 2815SOL    HW1 9344   1.503   1.086   4.070
 2815SOL    HW2 9345   1.485   1.215   4.168
 2816SOL     OW 9346   4.114   6.281   3.540
 2816SOL    HW1 9347   4.206   6.270   3.501
 2816SOL    HW2 9348   4.084   6.195   3.580
 2817SOL     OW 9349   1.304   1.074   1.021
 2817SOL    HW1 9350   1.260   1.077   1.111
 2817SOL    HW2 9351   1.394   1.118   1.026
 2818SOL     OW 9352   1.467   2.141   6.557
 2818SOL    HW1 9353   1.441   2.176   6.647
 2818SOL    HW2 9354   1.430   2.200   6.486
 2819SOL     OW 9355   6.391   3.666   2.060
 2819SOL    HW1 9356   6.341   3.583   2.035
 2819SOL    HW2 9357   6.375   3.687   2.156
 2820SOL     OW 9358   5.306   3.183   3.975
 2820SOL    HW1 9359   5.373   3.247   3.938
 2820SOL    HW2 9360   5.289   3.111   3.907
 2821SOL     OW 9361   1.618   3.506   2.687
 2821SOL    HW1 9362   1.638   3.416   2.727
 2821SOL    HW2 9363   1.525   3.507   2.651
 2822SOL     OW 9364   3.682   2.634   0.729
 2822SOL    HW1 9365   3.770   2.601   0.695
 2822SOL    HW2 9366   3.650   2.709   0.671
 2823SOL     OW 9367   1.155   0.743   4.312
 2823SOL    HW1 9368   1.092   0.666   4.305
 2823SOL    HW2 9369   1.194   0.762   4.221
 2824SOL     OW 9370   3.683   2.749   6.107
 2824SOL    HW1 9371   3.661   2.664   6.154
 2824SOL    HW2 9372   3.603   2.809   6.108
 2825SOL     OW 9373   5.558   6.276   1.184
 2825SOL    HW1 9374   5.644   6.242   1.222
 2825SOL    HW2 9375   5.569   6.292   1.086
 2826SOL     OW 9376   5.423   3.864   5.019
 2826SOL    HW1 9377   5.422   3.953   5.063
 2826SOL    HW2 9378   5.348   3.858   4.953
 2827SOL     OW 9379   0.288   0.053   6.009
 2827SOL    HW1 9380   0.279   0.015   6.101
 2827SOL    HW2 9381   0.362   0.121   6.008
 2828SOL     OW 9382   3.396   2.434   6.104
 2828SOL    HW1 9383   3.334   2.357   6.099
 2828SOL    HW2 9384   3.490   2.403   6.086
 2829SOL     OW 9385   2.818   1.379   6.859
 2829SOL    HW1 9386   2.889   1.310   6.847
 2829SOL    HW2 9387   2.745   1.343   6.917
 2830SOL     OW 9388   3.101   3.893   6.887
 2830SOL    HW1 9389   3.013   3.940   6.876
 2830SOL    HW2 9390   3.150   3.894   6.799
 2831SOL     OW 9391   6.126   6.449   4.370
 2831SOL    HW1 9392   6.141   6.407   4.460
 2831SOL    HW2 9393   6.037   6.422   4.334
 2832SOL     OW 9394   0.394   0.923   2.277
 2832SOL    HW1 9395   0.432   0.986   2.344
 2832SOL    HW2 9396   0.408   0.829   2.309
 2833SOL     OW 9397   5.577   2.927   2.751
 2833SOL    HW1 9398   5.619   2.884   2.830
 2833SOL    HW2 9399   5.639   2.924   2.673
 2834SOL     OW 9400   4.545   1.160   4.890
 2834SOL    HW1 9401   4.624   1.099   4.891
 2834SOL    HW2 9402   4.553   1.225   4.815
 2835SOL     OW 9403   6.027   6.357   3.004
 2835SOL    HW1 9404   6.045   6.447   3.044
 2835SOL    HW2 9405   6.102   6.331   2.943
 2836SOL     OW 9406   6.341   6.991   1.627
 2836SOL    HW1 9407   6.291   7.013   1.711
 2836SOL    HW2 9408   6.304   6.907   1.587
 2837SOL     OW 9409   6.065   2.305   4.016
 2837SOL    HW1 9410   5.992   2.269   3.957
 2837SOL    HW2 9411   6.035   2.391   4.057
 2838SOL     OW 9412   1.897   4.850   4.079
 2838SOL    HW1 9413   1.836   4.774   4.103
 2838SOL    HW2 9414   1.992   4.823   4.097
 2839SOL     OW 9415   5.363   3.064   1.227
 2839SOL    HW1 9416   5.296   2.998   1.261
 2839SOL    HW2 9417   5.327   3.109   1.145
 2840SOL     OW 9418   0.690   2.801   4.997
 2840SOL    HW1 9419   0.777   2.755   4.978
 2840SOL    HW2 9420   0.621   2.733   5.021
 2841SOL     OW 9421   0.299   5.998   0.091
 2841SOL    HW1 9422   0.284   5.917   0.034
 2841SOL    HW2 9423   0.216   6.018   0.142
 2842SOL     OW 9424   5.352   3.142   2.762
 2842SOL    HW1 9425   5.405   3.058   2.753
 2842SOL    HW2 9426   5.288   3.150   2.685
 2843SOL     OW 9427   3.708   0.560   3.496
 2843SOL    HW1 9428   3.774   0.572   3.422
 2843SOL    HW2 9429   3.640   0.491   3.469
 2844SOL     OW 9430   1.312   4.083   5.315
 2844SOL    HW1 9431   1.394   4.070   5.259
 2844SOL    HW2 9432   1.296   4.000   5.369
 2845SOL     OW 9433   0.689   4.152   6.412
 2845SOL    HW1 9434   0.646   4.214   6.476
 2845SOL    HW2 9435   0.696   4.061   6.453
 2846SOL     OW 9436   5.162   0.878   5.785
 2846SOL    HW1 9437   5.093   0.805   5.782
 2846SOL    HW2 9438   5.241   0.848   5.838
 2847SOL     OW 9439   4.076   4.821   4.244
 2847SOL    HW1 9440   4.000   4.845   4.183
 2847SOL    HW2 9441   4.099   4.901   4.301
 2848SOL     OW 9442   2.059   6.958   6.037
 2848SOL    HW1 9443   1.985   6.918   5.982
 2848SOL    HW2 9444   2.133   6.892   6.047
 2849SOL     OW 9445   2.608   2.706   1.303
 2849SOL    HW1 9446   2.642   2.738   1.392
 2849SOL    HW2 9447   2.646   2.615   1.284
 2850SOL     OW 9448   4.187   1.684   0.477
 2850SOL    HW1 9449   4.284   1.690   0.454
 2850SOL    HW2 9450   4.159   1.767   0.525
 2851SOL     OW 9451   3.479   5.979   5.055
 2851SOL    HW1 9452   3.561   6.005   5.106
 2851SOL    HW2 9453   3.398   6.014   5.102
 2852SOL     OW 9454   0.140   2.122   6.643
 2852SOL    HW1 9455   0.123   2.127   6.741
 2852SOL    HW2 9456   0.065   2.074   6.598
 2853SOL     OW 9457   4.014   2.795   1.415
 2853SOL    HW1 9458   4.041   2.737   1.339
 2853SOL    HW2 9459   3.916   2.817   1.407
 2854SOL     OW 9460   0.446   0.883   3.456
 2854SOL    HW1 9461   0.362   0.882   3.509
 2854SOL    HW2 9462   0.513   0.822   3.498
 2855SOL     OW 9463   2.965   1.719   3.664
 2855SOL    HW1 9464   2.950   1.622   3.684
 2855SOL    HW2 9465   2.979   1.768   3.750
 2856SOL     OW 9466   3.253   1.306   5.496
 2856SOL    HW1 9467   3.230   1.369   5.422
 2856SOL    HW2 9468   3.176   1.301   5.560
 2857SOL     OW 9469   3.154   3.035   5.053
 2857SOL    HW1 9470   3.114   2.949   5.021
 2857SOL    HW2 9471   3.163   3.032   5.153
 2858SOL     OW 9472   5.330   2.759   2.857
 2858SOL    HW1 9473   5.282   2.768   2.944
 2858SOL    HW2 9474   5.399   2.830   2.849
 2859SOL     OW 9475   6.010   5.379   6.861
 2859SOL    HW1 9476   6.098   5.362   6.907
 2859SOL    HW2 9477   6.010   5.332   6.773
 2860SOL     OW 9478   4.364   2.626   0.690
 2860SOL    HW1 9479   4.356   2.587   0.782
 2860SOL    HW2 9480   4.425   2.568   0.635
 2861SOL     OW 9481   4.772   4.436   5.963
 2861SOL    HW1 9482   4.749   4.349   6.005
 2861SOL    HW2 9483   4.702   4.504   5.987
 2862SOL     OW 9484   6.964   6.454   3.718
 2862SOL    HW1 9485   6.998   6.396   3.644
 2862SOL    HW2 9486   6.932   6.541   3.680
 2863SOL     OW 9487   6.322   6.685   0.171
 2863SOL    HW1 9488   6.289   6.590   0.170
 2863SOL    HW2 9489   6.255   6.744   0.126
 2864SOL     OW 9490   4.283   2.262   0.134
 2864SOL    HW1 9491   4.357   2.323   0.163
 2864SOL    HW2 9492   4.195   2.308   0.147
 2865SOL     OW 9493   4.894   4.753   4.968
 2865SOL    HW1 9494   4.890   4.838   5.022
 2865SOL    HW2 9495   4.989   4.732   4.945
 2866SOL     OW 9496   0.725   0.243   6.384
 2866SOL    HW1 9497   0.773   0.284   6.306
 2866SOL    HW2 9498   0.760   0.151   6.400
 2867SOL     OW 9499   6.219   4.090   4.822
 2867SOL    HW1 9500   6.243   4.172   4.874
 2867SOL    HW2 9501   6.256   4.009   4.868
 2868SOL     OW 9502   2.027   5.412   5.096
 2868SOL    HW1 9503   2.048   5.336   5.157
 2868SOL    HW2 9504   2.037   5.382   5.001
 2869SOL     OW 9505   5.852   1.601   2.634
 2869SOL    HW1 9506   5.922   1.634   2.570
 2869SOL    HW2 9507   5.893   1.536   2.698
 2870SOL     OW 9508   4.379   2.069   1.547
 2870SOL    HW1 9509   4.377   2.027   1.638
 2870SOL    HW2 9510   4.400   1.999   1.479
 2871SOL     OW 9511   1.237   1.383   5.816
 2871SOL    HW1 9512   1.200   1.476   5.820
 2871SOL    HW2 9513   1.333   1.384   5.844
 2872SOL     OW 9514   1.344   0.534   3.861
 2872SOL    HW1 9515   1.297   0.454   3.825
 2872SOL    HW2 9516   1.331   0.540   3.960
 2873SOL     OW 9517   6.242   5.038   2.529
 2873SOL    HW1 9518   6.149   5.051   2.563
 2873SOL    HW2 9519   6.307   5.071   2.597
 2874SOL     OW 9520   5.293   1.933   1.807
 2874SOL    HW1 9521   5.239   1.989   1.870
 2874SOL    HW2 9522   5.233   1.870   1.758
 2875SOL     OW 9523   2.884   5.143   0.437
 2875SOL    HW1 9524   2.815   5.144   0.365
 2875SOL    HW2 9525   2.949   5.218   0.423
 2876SOL     OW 9526   5.935   1.943   1.902
 2876SOL    HW1 9527   5.972   1.964   1.812
 2876SOL    HW2 9528   5.874   2.017   1.931
 2877SOL     OW 9529   1.504   3.723   5.363
 2877SOL    HW1 9530   1.571   3.769   5.421
 2877SOL    HW2 9531   1.549   3.681   5.284
 2878SOL     OW 9532   4.914   4.904   0.448
 2878SOL    HW1 9533   4.890   4.999   0.466
 2878SOL    HW2 9534   4.914   4.853   0.533
 2879SOL     OW 9535   5.261   4.804   6.794
 2879SOL    HW1 9536   5.323   4.728   6.813
 2879SOL    HW2 9537   5.189   4.772   6.732
 2880SOL     OW 9538   1.435   6.605   3.537
 2880SOL    HW1 9539   1.452   6.521   3.486
 2880SOL    HW2 9540   1.458   6.684   3.480
 2881SOL     OW 9541   6.556   0.148   0.477
 2881SOL    HW1 9542   6.626   0.218   0.466
 2881SOL    HW2 9543   6.599   0.060   0.493
 2882SOL     OW 9544   6.539   4.280   3.189
 2882SOL    HW1 9545   6.579   4.340   3.258
 2882SOL    HW2 9546   6.485   4.209   3.233
 2883SOL     OW 9547   3.681   6.783   2.540
 2883SOL    HW1 9548   3.587   6.751   2.533
 2883SOL    HW2 9549   3.737   6.713   2.585
 2884SOL     OW 9550   2.148   4.873   2.879
 2884SOL    HW1 9551   2.197   4.826   2.805
 2884SOL    HW2 9552   2.210   4.885   2.956
 2885SOL     OW 9553   0.941   2.232   4.469
 2885SOL    HW1 9554   1.041   2.235   4.467
 2885SOL    HW2 9555   0.905   2.241   4.376
 2886SOL     OW 9556   2.610   2.719   6.185
 2886SOL    HW1 9557   2.570   2.782   6.252
 2886SOL    HW2 9558   2.622   2.767   6.098
 2887SOL     OW 9559   2.741   0.604   5.240
 2887SOL    HW1 9560   2.803   0.629   5.165
 2887SOL    HW2 9561   2.780   0.632   5.327
 2888SOL     OW 9562   0.207   5.763   7.003
 2888SOL    HW1 9563   0.284   5.720   6.956
 2888SOL    HW2 9564   0.129   5.769   6.940
 2889SOL     OW 9565   1.555   0.858   1.004
 2889SOL    HW1 9566   1.544   0.853   1.103
 2889SOL    HW2 9567   1.489   0.798   0.960
 2890SOL     OW 9568   2.530   0.569   0.470
 2890SOL    HW1 9569   2.436   0.540   0.451
 2890SOL    HW2 9570   2.531   0.668   0.488
 2891SOL     OW 9571   3.140   4.709   5.273
 2891SOL    HW1 9572   3.099   4.663   5.194
 2891SOL    HW2 9573   3.069   4.753   5.328
 2892SOL     OW 9574   4.261   3.976   5.296
 2892SOL    HW1 9575   4.206   4.056   5.318
 2892SOL    HW2 9576   4.222   3.929   5.217
 2893SOL     OW 9577   2.877   0.682   5.024
 2893SOL    HW1 9578   2.927   0.616   4.968
 2893SOL    HW2 9579   2.800   0.717   4.972
 2894SOL     OW 9580   4.147   3.236   2.291
 2894SOL    HW1 9581   4.094   3.320   2.302
 2894SOL    HW2 9582   4.236   3.246   2.337
 2895SOL     OW 9583   3.839   2.845   0.082
 2895SOL    HW1 9584   3.783   2.763   0.074
 2895SOL    HW2 9585   3.790   2.923   0.043
 2896SOL     OW 9586   1.263   4.584   6.948
 2896SOL    HW1 9587   1.226   4.664   6.996
 2896SOL    HW2 9588   1.251   4.595   6.850
 2897SOL     OW 9589   0.219   7.004   3.122
 2897SOL    HW1 9590   0.247   0.076   3.099
 2897SOL    HW2 9591   0.288   6.939   3.090
 2898SOL     OW 9592   1.849   5.159   2.742
 2898SOL    HW1 9593   1.758   5.181   2.776
 2898SOL    HW2 9594   1.870   5.063   2.760
 2899SOL     OW 9595   5.948   0.939   0.905
 2899SOL    HW1 9596   5.903   0.995   0.835
 2899SOL    HW2 9597   5.929   0.977   0.995
 2900SOL     OW 9598   2.540   5.769   6.633
 2900SOL    HW1 9599   2.488   5.737   6.554
 2900SOL    HW2 9600   2.515   5.864   6.653
 2901SOL     OW 9601   2.845   6.743   1.691
 2901SOL    HW1 9602   2.886   6.652   1.687
 2901SOL    HW2 9603   2.917   6.812   1.693
 2902SOL     OW 9604   4.575   5.430   1.233
 2902SOL    HW1 9605   4.670   5.455   1.212
 2902SOL    HW2 9606   4.566   5.330   1.227
 2903SOL     OW 9607   3.129   2.435   1.671
 2903SOL    HW1 9608   3.062   2.434   1.746
 2903SOL    HW2 9609   3.186   2.353   1.677
 2904SOL     OW 9610   2.714   2.011   4.742
 2904SOL    HW1 9611   2.732   2.103   4.706
 2904SOL    HW2 9612   2.615   1.999   4.753
 2905SOL     OW 9613   0.915   2.711   2.037
 2905SOL    HW1 9614   0.997   2.673   2.079
 2905SOL    HW2 9615   0.938   2.793   1.985
 2906SOL     OW 9616   5.051   5.244   2.760
 2906SOL    HW1 9617   5.142   5.206   2.745
 2906SOL    HW2 9618   5.009   5.202   2.840
 2907SOL     OW 9619   5.766   0.342   4.961
 2907SOL    HW1 9620   5.668   0.336   4.945
 2907SOL    HW2 9621   5.815   0.287   4.894
 2908SOL     OW 9622   4.362   6.330   4.732
 2908SOL    HW1 9623   4.316   6.389   4.666
 2908SOL    HW2 9624   4.354   6.370   4.824
 2909SOL     OW 9625   2.149   5.909   6.083
 2909SOL    HW1 9626   2.143   5.824   6.031
 2909SOL    HW2 9627   2.059   5.953   6.086
 2910SOL     OW 9628   3.985   5.284   5.080
 2910SOL    HW1 9629   3.917   5.227   5.125
 2910SOL    HW2 9630   4.027   5.232   5.005
 2911SOL     OW 9631   2.577   4.810   3.045
 2911SOL    HW1 9632   2.554   4.738   3.111
 2911SOL    HW2 9633   2.676   4.816   3.035
 2912SOL     OW 9634   2.852   5.257   1.432
 2912SOL    HW1 9635   2.831   5.183   1.496
 2912SOL    HW2 9636   2.820   5.233   1.341
 2913SOL     OW 9637   0.351   2.714   1.395
 2913SOL    HW1 9638   0.339   2.758   1.306
 2913SOL    HW2 9639   0.356   2.615   1.384
 2914SOL     OW 9640   5.057   4.667   6.657
 2914SOL    HW1 9641   4.969   4.711   6.643
 2914SOL    HW2 9642   5.051   4.570   6.634
 2915SOL     OW 9643   4.797   1.108   3.161
 2915SOL    HW1 9644   4.741   1.134   3.240
 2915SOL    HW2 9645   4.892   1.136   3.177
 2916SOL     OW 9646   5.181   0.451   4.391
 2916SOL    HW1 9647   5.258   0.402   4.350
 2916SOL    HW2 9648   5.117   0.478   4.319
 2917SOL     OW 9649   4.306   0.553   2.500
 2917SOL    HW1 9650   4.267   0.576   2.410
 2917SOL    HW2 9651   4.296   0.455   2.516
 2918SOL     OW 9652   1.127   3.335   4.763
 2918SOL    HW1 9653   1.159   3.317   4.856
 2918SOL    HW2 9654   1.182   3.408   4.722
 2919SOL     OW 9655   5.792   5.359   0.388
 2919SOL    HW1 9656   5.776   5.283   0.450
 2919SOL    HW2 9657   5.729   5.354   0.311
 2920SOL     OW 9658   4.338   1.362   2.670
 2920SOL    HW1 9659   4.279   1.422   2.725
 2920SOL    HW2 9660   4.329   1.387   2.574
 2921SOL     OW 9661   6.657   1.140   0.207
 2921SOL    HW1 9662   6.737   1.174   0.158
 2921SOL    HW2 9663   6.587   1.211   0.209
 2922SOL     OW 9664   4.890   0.435   4.748
 2922SOL    HW1 9665   4.941   0.388   4.675
 2922SOL    HW2 9666   4.795   0.445   4.720
 2923SOL     OW 9667   0.180   4.555   0.233
 2923SOL    HW1 9668   0.086   4.525   0.214
 2923SOL    HW2 9669   0.243   4.481   0.208
 2924SOL     OW 9670   6.028   6.672   6.587
 2924SOL    HW1 9671   5.992   6.747   6.532
 2924SOL    HW2 9672   6.116   6.697   6.626
 2925SOL     OW 9673   6.513   4.655   0.526
 2925SOL    HW1 9674   6.606   4.680   0.554
 2925SOL    HW2 9675   6.510   4.646   0.426
 2926SOL     OW 9676   0.252   1.317   3.087
 2926SOL    HW1 9677   0.278   1.414   3.091
 2926SOL    HW2 9678   0.173   1.307   3.027
 2927SOL     OW 9679   6.365   3.034   2.590
 2927SOL    HW1 9680   6.269   3.008   2.594
 2927SOL    HW2 9681   6.383   3.107   2.656
 2928SOL     OW 9682   5.410   6.233   0.924
 2928SOL    HW1 9683   5.507   6.225   0.904
 2928SOL    HW2 9684   5.379   6.151   0.971
 2929SOL     OW 9685   6.885   0.879   5.716
 2929SOL    HW1 9686   6.789   0.869   5.742
 2929SOL    HW2 9687   6.943   0.855   5.794
 2930SOL     OW 9688   2.278   0.078   3.943
 2930SOL    HW1 9689   2.239   0.033   4.023
 2930SOL    HW2 9690   2.303   0.172   3.966
 2931SOL     OW 9691   4.701   4.701   6.291
 2931SOL    HW1 9692   4.634   4.650   6.236
 2931SOL    HW2 9693   4.655   4.778   6.336
 2932SOL     OW 9694   0.736   4.720   1.708
 2932SOL    HW1 9695   0.737   4.709   1.807
 2932SOL    HW2 9696   0.690   4.806   1.685
 2933SOL     OW 9697   4.721   2.288   3.171
 2933SOL    HW1 9698   4.662   2.367   3.185
 2933SOL    HW2 9699   4.778   2.302   3.091
 2934SOL     OW 9700   1.880   1.034   1.645
 2934SOL    HW1 9701   1.831   1.013   1.560
 2934SOL    HW2 9702   1.815   1.058   1.716
 2935SOL     OW 9703   0.198   1.113   1.411
 2935SOL    HW1 9704   0.106   1.112   1.373
 2935SOL    HW2 9705   0.195   1.089   1.508
 2936SOL     OW 9706   4.222   4.609   1.541
 2936SOL    HW1 9707   4.288   4.539   1.567
 2936SOL    HW2 9708   4.145   4.566   1.494
 2937SOL     OW 9709   2.579   4.660   0.509
 2937SOL    HW1 9710   2.506   4.603   0.471
 2937SOL    HW2 9711   2.638   4.604   0.567
 2938SOL     OW 9712   4.170   5.671   0.037
 2938SOL    HW1 9713   4.202   5.747   0.093
 2938SOL    HW2 9714   4.073   5.683   0.017
 2939SOL     OW 9715   6.960   6.276   6.167
 2939SOL    HW1 9716   6.862   6.267   6.180
 2939SOL    HW2 9717   6.981   6.281   6.069
 2940SOL     OW 9718   3.723   0.274   5.600
 2940SOL    HW1 9719   3.758   0.367   5.592
 2940SOL    HW2 9720   3.781   0.212   5.548
 2941SOL     OW 9721   3.876   1.432   5.456
 2941SOL    HW1 9722   3.822   1.407   5.536
 2941SOL    HW2 9723   3.816   1.439   5.376
 2942SOL     OW 9724   3.138   6.668   3.914
 2942SOL    HW1 9725   3.220   6.720   3.889
 2942SOL    HW2 9726   3.153   6.571   3.892
 2943SOL     OW 9727   5.502   4.502   2.816
 2943SOL    HW1 9728   5.593   4.463   2.829
 2943SOL    HW2 9729   5.502   4.597   2.849
 2944SOL     OW 9730   5.293   5.554   0.628
 2944SOL    HW1 9731   5.264   5.495   0.552
 2944SOL    HW2 9732   5.256   5.646   0.615
 2945SOL     OW 9733   3.266   3.720   4.536
 2945SOL    HW1 9734   3.280   3.760   4.627
 2945SOL    HW2 9735   3.184   3.760   4.495
 2946SOL     OW 9736   1.396   6.363   5.158
 2946SOL    HW1 9737   1.382   6.461   5.144
 2946SOL    HW2 9738   1.377   6.314   5.073
 2947SOL     OW 9739   7.015   5.166   6.837
 2947SOL    HW1 9740   7.002   5.214   6.924
 2947SOL    HW2 9741   6.933   5.178   6.780
 2948SOL     OW 9742   6.330   3.133   5.408
 2948SOL    HW1 9743   6.405   3.195   5.388
 2948SOL    HW2 9744   6.347   3.088   5.496
 2949SOL     OW 9745   0.841   6.792   0.960
 2949SOL    HW1 9746   0.789   6.829   0.883
 2949SOL    HW2 9747   0.854   6.694   0.948
 2950SOL     OW 9748   5.195   3.418   4.824
 2950SOL    HW1 9749   5.199   3.478   4.744
 2950SOL    HW2 9750   5.270   3.352   4.820
 2951SOL     OW 9751   6.444   0.390   0.120
 2951SOL    HW1 9752   6.540   0.416   0.107
 2951SOL    HW2 9753   6.398   0.461   0.174
 2952SOL     OW 9754   0.535   3.486   2.184
 2952SOL    HW1 9755   0.575   3.412   2.130
 2952SOL    HW2 9756   0.460   3.528   2.133
 2953SOL     OW 9757   5.779   1.678   1.718
 2953SOL    HW1 9758   5.709   1.717   1.778
 2953SOL    HW2 9759   5.813   1.593   1.757
 2954SOL     OW 9760   4.775   6.406   1.993
 2954SOL    HW1 9761   4.812   6.495   2.021
 2954SOL    HW2 9762   4.737   6.415   1.900
 2955SOL     OW 9763   5.676   1.663   1.464
 2955SOL    HW1 9764   5.705   1.687   1.556
 2955SOL    HW2 9765   5.612   1.732   1.430
 2956SOL     OW 9766   5.674   6.133   3.311
 2956SOL    HW1 9767   5.601   6.155   3.376
 2956SOL    HW2 9768   5.705   6.039   3.326
 2957SOL     OW 9769   1.429   4.687   1.798
 2957SOL    HW1 9770   1.438   4.744   1.716
 2957SOL    HW2 9771   1.372   4.607   1.777
 2958SOL     OW 9772   2.390   4.723   6.432
 2958SOL    HW1 9773   2.465   4.666   6.401
 2958SOL    HW2 9774   2.303   4.679   6.409
 2959SOL     OW 9775   3.378   5.564   6.811
 2959SOL    HW1 9776   3.443   5.616   6.866
 2959SOL    HW2 9777   3.406   5.468   6.809
 2960SOL     OW 9778   3.022   1.603   0.085
 2960SOL    HW1 9779   2.925   1.595   0.109
 2960SOL    HW2 9780   3.053   1.516   0.046
 2961SOL     OW 9781   5.362   1.330   4.117
 2961SOL    HW1 9782   5.317   1.252   4.072
 2961SOL    HW2 9783   5.300   1.407   4.120
 2962SOL     OW 9784   4.426   0.094   2.410
 2962SOL    HW1 9785   4.430   0.108   2.509
 2962SOL    HW2 9786   4.465   0.004   2.389
 2963SOL     OW 9787   2.183   3.114   4.881
 2963SOL    HW1 9788   2.179   3.214   4.889
 2963SOL    HW2 9789   2.265   3.080   4.926
 2964SOL     OW 9790   2.326   6.109   0.170
 2964SOL    HW1 9791   2.359   6.154   0.253
 2964SOL    HW2 9792   2.397   6.047   0.135
 2965SOL     OW 9793   0.972   2.987   6.092
 2965SOL    HW1 9794   1.029   3.012   6.014
 2965SOL    HW2 9795   1.019   3.010   6.177
 2966SOL     OW 9796   4.551   5.313   2.976
 2966SOL    HW1 9797   4.522   5.295   3.071
 2966SOL    HW2 9798   4.650   5.317   2.972
 2967SOL     OW 9799   5.787   2.694   4.446
 2967SOL    HW1 9800   5.880   2.679   4.481
 2967SOL    HW2 9801   5.753   2.610   4.406
 2968SOL     OW 9802   6.686   4.371   4.285
 2968SOL    HW1 9803   6.610   4.402   4.227
 2968SOL    HW2 9804   6.741   4.305   4.235
 2969SOL     OW 9805   3.659   1.218   5.101
 2969SOL    HW1 9806   3.589   1.226   5.030
 2969SOL    HW2 9807   3.634   1.276   5.178
 2970SOL     OW 9808   1.138   4.350   6.159
 2970SOL    HW1 9809   1.137   4.265   6.108
 2970SOL    HW2 9810   1.179   4.334   6.249
 2971SOL     OW 9811   5.577   2.658   1.845
 2971SOL    HW1 9812   5.617   2.737   1.799
 2971SOL    HW2 9813   5.505   2.689   1.906
 2972SOL     OW 9814   0.698   4.367   4.390
 2972SOL    HW1 9815   0.694   4.374   4.291
 2972SOL    HW2 9816   0.606   4.369   4.428
 2973SOL     OW 9817   5.739   6.846   4.211
 2973SOL    HW1 9818   5.735   6.800   4.299
 2973SOL    HW2 9819   5.820   6.905   4.207
 2974SOL     OW 9820   6.243   3.993   1.202
 2974SOL    HW1 9821   6.181   3.930   1.155
 2974SOL    HW2 9822   6.202   4.023   1.288
 2975SOL     OW 9823   6.073   1.631   4.117
 2975SOL    HW1 9824   5.995   1.684   4.150
 2975SOL    HW2 9825   6.092   1.656   4.022
 2976SOL     OW 9826   2.509   5.654   0.966
 2976SOL    HW1 9827   2.486   5.741   1.010
 2976SOL    HW2 9828   2.499   5.663   0.867
 2977SOL     OW 9829   2.656   6.885   3.275
 2977SOL    HW1 9830   2.678   6.804   3.329
 2977SOL    HW2 9831   2.696   6.876   3.184
 2978SOL     OW 9832   2.301   0.530   6.489
 2978SOL    HW1 9833   2.397   0.548   6.467
 2978SOL    HW2 9834   2.249   0.523   6.404
 2979SOL     OW 9835   2.556   1.294   3.286
 2979SOL    HW1 9836   2.556   1.262   3.380
 2979SOL    HW2 9837   2.646   1.332   3.263
 2980SOL     OW 9838   5.703   0.204   3.390
 2980SOL    HW1 9839   5.723   0.234   3.297
 2980SOL    HW2 9840   5.724   0.107   3.399
 2981SOL     OW 9841   1.453   1.111   5.690
 2981SOL    HW1 9842   1.494   1.203   5.688
 2981SOL    HW2 9843   1.354   1.119   5.695
 2982SOL     OW 9844   5.305   5.820   2.359
 2982SOL    HW1 9845   5.330   5.903   2.309
 2982SOL    HW2 9846   5.373   5.801   2.429
 2983SOL     OW 9847   0.729   1.145   2.577
 2983SOL    HW1 9848   0.714   1.182   2.669
 2983SOL    HW2 9849   0.751   1.047   2.585
 2984SOL     OW 9850   6.323   4.230   1.493
 2984SOL    HW1 9851   6.373   4.302   1.444
 2984SOL    HW2 9852   6.386   4.157   1.519
 2985SOL     OW 9853   6.492   2.239   2.883
 2985SOL    HW1 9854   6.441   2.154   2.897
 2985SOL    HW2 9855   6.483   2.297   2.964
 2986SOL     OW 9856   1.630   3.508   4.477
 2986SOL    HW1 9857   1.637   3.582   4.544
 2986SOL    HW2 9858   1.607   3.423   4.523
 2987SOL     OW 9859   5.197   1.809   4.682
 2987SOL    HW1 9860   5.099   1.825   4.669
 2987SOL    HW2 9861   5.220   1.818   4.779
 2988SOL     OW 9862   0.481   1.048   2.485
 2988SOL    HW1 9863   0.555   1.114   2.503
 2988SOL    HW2 9864   0.447   1.012   2.572
 2989SOL     OW 9865   0.027   5.250   0.673
 2989SOL    HW1 9866   6.968   5.247   0.613
 2989SOL    HW2 9867   0.065   5.343   0.673
 2990SOL     OW 9868   2.677   1.112   1.364
 2990SOL    HW1 9869   2.711   1.157   1.281
 2990SOL    HW2 9870   2.754   1.096   1.426
 2991SOL     OW 9871   5.843   4.570   0.070
 2991SOL    HW1 9872   5.932   4.591   0.111
 2991SOL    HW2 9873   5.828   4.471   0.071
 2992SOL     OW 9874   4.253   4.669   6.585
 2992SOL    HW1 9875   4.181   4.662   6.654
 2992SOL    HW2 9876   4.325   4.729   6.618
 2993SOL     OW 9877   1.225   4.133   0.038
 2993SOL    HW1 9878   1.130   4.104   0.027
 2993SOL    HW2 9879   1.284   4.053   0.041
 2994SOL     OW 9880   4.149   6.741   6.476
 2994SOL    HW1 9881   4.059   6.781   6.494
 2994SOL    HW2 9882   4.218   6.813   6.476
 2995SOL     OW 9883   2.584   0.771   5.455
 2995SOL    HW1 9884   2.624   0.826   5.529
 2995SOL    HW2 9885   2.535   0.693   5.494
 2996SOL     OW 9886   4.648   6.428   6.028
 2996SOL    HW1 9887   4.696   6.385   5.952
 2996SOL    HW2 9888   4.714   6.459   6.096
 2997SOL     OW 9889   3.777   5.733   0.585
 2997SOL    HW1 9890   3.876   5.720   0.594
 2997SOL    HW2 9891   3.758   5.787   0.503
 2998SOL     OW 9892   6.520   3.763   6.215
 2998SOL    HW1 9893   6.488   3.824   6.288
 2998SOL    HW2 9894   6.590   3.810   6.161
 2999SOL     OW 9895   2.599   1.476   1.890
 2999SOL    HW1 9896   2.635   1.433   1.808
 2999SOL    HW2 9897   2.629   1.425   1.971
 3000SOL     OW 9898   1.340   1.959   5.162
 3000SOL    HW1 9899   1.288   2.035   5.124
 3000SOL    HW2 9900   1.430   1.955   5.118
 3001SOL     OW 9901   4.663   5.797   5.849
 3001SOL    HW1 9902   4.584   5.747   5.885
 3001SOL    HW2 9903   4.747   5.751   5.875
 3002SOL     OW 9904   3.501   0.081   5.506
 3002SOL    HW1 9905   3.474   0.070   5.410
 3002SOL    HW2 9906   3.552   0.167   5.516
 3003SOL     OW 9907   1.547   0.313   5.850
 3003SOL    HW1 9908   1.634   0.331   5.895
 3003SOL    HW2 9909   1.490   0.395   5.852
 3004SOL     OW 9910   0.232   3.258   6.166
 3004SOL    HW1 9911   0.282   3.282   6.249
 3004SOL    HW2 9912   0.180   3.174   6.182
 3005SOL     OW 9913   4.829   2.030   0.621
 3005SOL    HW1 9914   4.891   2.042   0.544
 3005SOL    HW2 9915   4.746   1.984   0.591
 3006SOL     OW 9916   4.412   6.391   1.819
 3006SOL    HW1 9917   4.391   6.343   1.904
 3006SOL    HW2 9918   4.327   6.409   1.769
 3007SOL     OW 9919   5.847   5.483   1.652
 3007SOL    HW1 9920   5.854   5.580   1.675
 3007SOL    HW2 9921   5.800   5.435   1.726
 3008SOL     OW 9922   4.669   5.069   5.714
 3008SOL    HW1 9923   4.714   5.120   5.787
 3008SOL    HW2 9924   4.733   5.054   5.639
 3009SOL     OW 9925   1.735   0.314   2.175
 3009SOL    HW1 9926   1.772   0.315   2.082
 3009SOL    HW2 9927   1.692   0.226   2.193
 3010SOL     OW 9928   3.141   0.507   3.655
 3010SOL    HW1 9929   3.090   0.499   3.569
 3010SOL    HW2 9930   3.232   0.469   3.643
 3011SOL     OW 9931   5.176   0.367   0.461
 3011SOL    HW1 9932   5.223   0.445   0.420
 3011SOL    HW2 9933   5.169   0.293   0.395
 3012SOL     OW 9934   6.929   4.920   1.546
 3012SOL    HW1 9935   6.865   4.898   1.620
 3012SOL    HW2 9936   6.980   5.003   1.569
 3013SOL     OW 9937   5.636   4.619   1.750
 3013SOL    HW1 9938   5.633   4.706   1.702
 3013SOL    HW2 9939   5.543   4.583   1.762
 3014SOL     OW 9940   5.649   5.603   5.356
 3014SOL    HW1 9941   5.604   5.691   5.342
 3014SOL    HW2 9942   5.743   5.608   5.325
 3015SOL     OW 9943   3.158   1.344   0.490
 3015SOL    HW1 9944   3.170   1.387   0.580
 3015SOL    HW2 9945   3.139   1.414   0.422
 3016SOL     OW 9946   4.094   6.033   4.286
 3016SOL    HW1 9947   4.160   6.085   4.342
 3016SOL    HW2 9948   4.130   6.024   4.193
 3017SOL     OW 9949   0.695   6.873   1.986
 3017SOL    HW1 9950   0.619   6.826   2.030
 3017SOL    HW2 9951   0.673   6.890   1.890
 3018SOL     OW 9952   4.583   6.864   5.970
 3018SOL    HW1 9953   4.544   6.918   5.896
 3018SOL    HW2 9954   4.546   6.771   5.966
 3019SOL     OW 9955   4.898   0.855   1.671
 3019SOL    HW1 9956   4.883   0.893   1.763
 3019SOL    HW2 9957   4.811   0.851   1.622
 3020SOL     OW 9958   1.863   0.297   1.636
 3020SOL    HW1 9959   1.904   0.378   1.595
 3020SOL    HW2 9960   1.913   0.215   1.608
 3021SOL     OW 9961   4.088   0.528   6.255
 3021SOL    HW1 9962   4.087   0.488   6.347
 3021SOL    HW2 9963   4.019   0.601   6.251
 3022SOL     OW 9964   6.968   0.423   3.168
 3022SOL    HW1 9965   0.041   0.444   3.195
 3022SOL    HW2 9966   6.948   0.327   3.187
 3023SOL     OW 9967   5.812   0.019   1.783
 3023SOL    HW1 9968   5.778   6.964   1.727
 3023SOL    HW2 9969   5.740   0.088   1.792
 3024SOL     OW 9970   1.834   6.985   6.991
 3024SOL    HW1 9971   1.902   0.016   0.021
 3024SOL    HW2 9972   1.772   6.939   0.034
 3025SOL     OW 9973   1.916   2.761   2.114
 3025SOL    HW1 9974   1.902   2.800   2.023
 3025SOL    HW2 9975   2.014   2.755   2.133
 3026SOL     OW 9976   3.031   5.802   0.676
 3026SOL    HW1 9977   2.945   5.761   0.647
 3026SOL    HW2 9978   3.079   5.839   0.596
 3027SOL     OW 9979   1.467   2.013   3.902
 3027SOL    HW1 9980   1.429   2.035   3.811
 3027SOL    HW2 9981   1.451   2.090   3.964
 3028SOL     OW 9982   1.542   0.686   4.274
 3028SOL    HW1 9983   1.515   0.775   4.310
 3028SOL    HW2 9984   1.619   0.650   4.327
 3029SOL     OW 9985   6.370   4.946   5.603
 3029SOL    HW1 9986   6.337   4.923   5.511
 3029SOL    HW2 9987   6.340   4.876   5.668
 3030SOL     OW 9988   0.856   0.895   5.548
 3030SOL    HW1 9989   0.949   0.874   5.578
 3030SOL    HW2 9990   0.839   0.853   5.459
 3031SOL     OW 9991   6.927   5.596   6.013
 3031SOL    HW1 9992   6.967   5.666   5.954
 3031SOL    HW2 9993   6.875   5.531   5.958
 3032SOL     OW 9994   3.945   6.671   6.049
 3032SOL    HW1 9995   3.873   6.716   5.995
 3032SOL    HW2 9996   3.912   6.582   6.081
 3033SOL     OW 9997   5.162   4.305   6.181
 3033SOL    HW1 9998   5.203   4.216   6.200
 3033SOL    HW2 9999   5.224   4.358   6.122
 3034SOL     OW10000   2.642   6.792   5.167
 3034SOL    HW110001   2.705   6.723   5.202
 3034SOL    HW210002   2.589   6.830   5.242
 3035SOL     OW10003   6.029   6.658   0.098
 3035SOL    HW110004   5.967   6.597   0.049
 3035SOL    HW210005   6.025   6.640   0.196
 3036SOL     OW10006   0.567   5.291   5.577
 3036SOL    HW110007   0.634   5.226   5.540
 3036SOL    HW210008   0.510   5.245   5.645
 3037SOL     OW10009   5.176   6.325   6.056
 3037SOL    HW110010   5.091   6.289   6.096
 3037SOL    HW210011   5.254   6.291   6.110
 3038SOL     OW10012   5.853   5.904   5.472
 3038SOL    HW110013   5.908   5.884   5.553
 3038SOL    HW210014   5.778   5.965   5.496
 3039SOL     OW10015   0.536   4.940   0.347
 3039SOL    HW110016   0.630   4.933   0.313
 3039SOL    HW210017   0.473   4.900   0.280
 3040SOL     OW10018   2.562   1.085   0.315
 3040SOL    HW110019   2.584   1.181   0.301
 3040SOL    HW210020   2.565   1.064   0.413
 3041SOL     OW10021   1.649   2.019   6.106
 3041SOL    HW110022   1.728   2.037   6.046
 3041SOL    HW210023   1.648   1.922   6.130
 3042SOL     OW10024   5.627   0.341   1.442
 3042SOL    HW110025   5.568   0.281   1.388
 3042SOL    HW210026   5.711   0.292   1.467
 3043SOL     OW10027   0.633   5.113   6.666
 3043SOL    HW110028   0.589   5.201   6.684
 3043SOL    HW210029   0.569   5.052   6.619
 3044SOL     OW10030   2.635   2.985   6.621
 3044SOL    HW110031   2.593   2.951   6.537
 3044SOL    HW210032   2.581   3.060   6.658
 3045SOL     OW10033   4.756   2.622   4.514
 3045SOL    HW110034   4.777   2.701   4.457
 3045SOL    HW210035   4.700   2.651   4.592
 3046SOL     OW10036   2.953   2.246   5.735
 3046SOL    HW110037   2.985   2.267   5.828
 3046SOL    HW210038   2.920   2.330   5.692
 3047SOL     OW10039   6.616   5.142   1.930
 3047SOL    HW110040   6.671   5.225   1.925
 3047SOL    HW210041   6.521   5.163   1.905
 3048SOL     OW10042   3.399   3.097   2.251
 3048SOL    HW110043   3.327   3.044   2.207
 3048SOL    HW210044   3.478   3.038   2.268
 3049SOL     OW10045   1.015   0.756   0.713
 3049SOL    HW110046   0.953   0.735   0.789
 3049SOL    HW210047   0.983   0.711   0.630
 3050SOL     OW10048   1.338   0.560   4.144
 3050SOL    HW110049   1.254   0.571   4.198
 3050SOL    HW210050   1.416   0.591   4.198
 3051SOL     OW10051   2.976   4.806   5.525
 3051SOL    HW110052   2.958   4.710   5.544
 3051SOL    HW210053   3.066   4.830   5.561
 3052SOL     OW10054   4.863   6.296   2.686
 3052SOL    HW110055   4.958   6.281   2.712
 3052SOL    HW210056   4.821   6.363   2.747
 3053SOL     OW10057   3.700   6.143   1.886
 3053SOL    HW110058   3.667   6.101   1.970
 3053SOL    HW210059   3.685   6.241   1.890
 3054SOL     OW10060   1.657   4.560   5.174
 3054SOL    HW110061   1.613   4.475   5.203
 3054SOL    HW210062   1.747   4.539   5.136
 3055SOL     OW10063   6.476   6.649   2.640
 3055SOL    HW110064   6.378   6.640   2.655
 3055SOL    HW210065   6.512   6.564   2.601
 3056SOL     OW10066   4.784   0.937   2.641
 3056SOL    HW110067   4.767   1.027   2.682
 3056SOL    HW210068   4.813   0.873   2.712
 3057SOL     OW10069   0.045   4.895   2.600
 3057SOL    HW110070   0.016   4.988   2.578
 3057SOL    HW210071   0.039   4.838   2.517
 3058SOL     OW10072   5.965   6.773   1.548
 3058SOL    HW110073   5.922   6.846   1.496
 3058SOL    HW210074   5.939   6.684   1.510
 3059SOL     OW10075   2.628   2.488   6.643
 3059SOL    HW110076   2.650   2.567   6.700
 3059SOL    HW210077   2.661   2.405   6.688
 3060SOL     OW10078   0.472   6.070   6.572
 3060SOL    HW110079   0.495   6.137   6.642
 3060SOL    HW210080   0.401   6.107   6.512
 3061SOL     OW10081   6.427   0.745   5.696
 3061SOL    HW110082   6.393   0.765   5.604
 3061SOL    HW210083   6.400   0.653   5.723
 3062SOL     OW10084   3.335   4.878   6.182
 3062SOL    HW110085   3.242   4.892   6.148
 3062SOL    HW210086   3.332   4.831   6.270
 3063SOL     OW10087   3.065   6.327   1.192
 3063SOL    HW110088   3.162   6.306   1.203
 3063SOL    HW210089   3.014   6.243   1.172
 3064SOL     OW10090   0.015   4.515   3.310
 3064SOL    HW110091   6.992   4.519   3.220
 3064SOL    HW210092   0.049   4.423   3.327
 3065SOL     OW10093   3.194   1.844   1.624
 3065SOL    HW110094   3.290   1.820   1.608
 3065SOL    HW210095   3.176   1.845   1.722
 3066SOL     OW10096   5.780   5.129   0.910
 3066SOL    HW110097   5.869   5.166   0.937
 3066SOL    HW210098   5.793   5.052   0.848
 3067SOL     OW10099   4.015   6.994   3.106
 3067SOL    HW110100   4.091   6.967   3.047
 3067SOL    HW210101   3.993   0.070   3.090
 3068SOL     OW10102   6.160   4.394   6.905
 3068SOL    HW110103   6.233   4.352   6.852
 3068SOL    HW210104   6.103   4.450   6.845
 3069SOL     OW10105   1.083   4.868   3.201
 3069SOL    HW110106   1.176   4.859   3.164
 3069SOL    HW210107   1.083   4.938   3.273
 3070SOL     OW10108   4.746   1.660   3.536
 3070SOL    HW110109   4.763   1.634   3.441
 3070SOL    HW210110   4.704   1.750   3.538
 3071SOL     OW10111   5.750   0.254   3.696
 3071SOL    HW110112   5.770   0.166   3.739
 3071SOL    HW210113   5.736   0.241   3.597
 3072SOL     OW10114   6.775   0.733   1.522
 3072SOL    HW110115   6.682   0.768   1.510
 3072SOL    HW210116   6.801   0.681   1.441
 3073SOL     OW10117   1.466   1.619   4.998
 3073SOL    HW110118   1.417   1.616   5.085
 3073SOL    HW210119   1.494   1.713   4.979
 3074SOL     OW10120   4.721   3.885   5.697
 3074SOL    HW110121   4.714   3.985   5.695
 3074SOL    HW210122   4.769   3.853   5.615
 3075SOL     OW10123   0.147   5.058   1.249
 3075SOL    HW110124   0.116   5.085   1.158
 3075SOL    HW210125   0.071   5.018   1.300
 3076SOL     OW10126   0.809   0.829   5.263
 3076SOL    HW110127   0.840   0.776   5.184
 3076SOL    HW210128   0.728   0.881   5.239
 3077SOL     OW10129   4.219   4.812   3.432
 3077SOL    HW110130   4.304   4.761   3.447
 3077SOL    HW210131   4.181   4.788   3.343
 3078SOL     OW10132   2.152   2.999   0.682
 3078SOL    HW110133   2.093   3.028   0.607
 3078SOL    HW210134   2.240   2.970   0.646
 3079SOL     OW10135   5.161   3.256   5.981
 3079SOL    HW110136   5.178   3.159   5.964
 3079SOL    HW210137   5.106   3.293   5.906
 3080SOL     OW10138   6.003   0.062   2.372
 3080SOL    HW110139   6.090   0.111   2.368
 3080SOL    HW210140   5.978   0.031   2.280
 3081SOL     OW10141   1.004   4.692   6.031
 3081SOL    HW110142   1.074   4.695   6.103
 3081SOL    HW210143   1.004   4.780   5.982
 3082SOL     OW10144   3.797   6.530   2.566
 3082SOL    HW110145   3.763   6.503   2.656
 3082SOL    HW210146   3.884   6.483   2.547
 3083SOL     OW10147   4.102   6.805   2.581
 3083SOL    HW110148   4.069   6.863   2.507
 3083SOL    HW210149   4.024   6.764   2.629
 3084SOL     OW10150   4.564   6.574   3.889
 3084SOL    HW110151   4.510   6.575   3.806
 3084SOL    HW210152   4.565   6.665   3.931
 3085SOL     OW10153   1.091   4.686   2.331
 3085SOL    HW110154   1.026   4.723   2.265
 3085SOL    HW210155   1.184   4.708   2.301
 3086SOL     OW10156   6.347   1.281   4.641
 3086SOL    HW110157   6.417   1.210   4.649
 3086SOL    HW210158   6.260   1.240   4.616
 3087SOL     OW10159   5.629   3.593   1.436
 3087SOL    HW110160   5.675   3.636   1.514
 3087SOL    HW210161   5.647   3.495   1.436
 3088SOL     OW10162   3.028   3.825   6.556
 3088SOL    HW110163   3.100   3.894   6.554
 3088SOL    HW210164   3.066   3.738   6.587
 3089SOL     OW10165   3.335   2.118   1.728
 3089SOL    HW110166   3.281   2.121   1.812
 3089SOL    HW210167   3.386   2.032   1.724
 3090SOL     OW10168   6.159   1.579   1.135
 3090SOL    HW110169   6.136   1.484   1.154
 3090SOL    HW210170   6.080   1.637   1.152
 3091SOL     OW10171   2.262   6.401   6.514
 3091SOL    HW110172   2.202   6.448   6.449
 3091SOL    HW210173   2.248   6.302   6.507
 3092SOL     OW10174   4.285   4.991   0.345
 3092SOL    HW110175   4.374   5.037   0.350
 3092SOL    HW210176   4.285   4.925   0.270
 3093SOL     OW10177   4.321   6.696   3.139
 3093SOL    HW110178   4.246   6.646   3.183
 3093SOL    HW210179   4.392   6.715   3.206
 3094SOL     OW10180   4.004   5.518   4.323
 3094SOL    HW110181   3.956   5.582   4.263
 3094SOL    HW210182   3.939   5.481   4.390
 3095SOL     OW10183   1.631   5.616   4.956
 3095SOL    HW110184   1.680   5.672   5.025
 3095SOL    HW210185   1.601   5.531   4.999
 3096SOL     OW10186   0.558   2.137   5.951
 3096SOL    HW110187   0.649   2.152   5.914
 3096SOL    HW210188   0.504   2.221   5.944
 3097SOL     OW10189   1.657   0.756   6.812
 3097SOL    HW110190   1.746   0.717   6.837
 3097SOL    HW210191   1.669   0.853   6.790
 3098SOL     OW10192   3.760   2.944   0.620
 3098SOL    HW110193   3.674   2.898   0.599
 3098SOL    HW210194   3.815   2.951   0.536
 3099SOL     OW10195   1.509   6.084   5.521
 3099SOL    HW110196   1.441   6.129   5.580
 3099SOL    HW210197   1.561   6.018   5.574
 3100SOL     OW10198   6.224   0.197   6.358
 3100SOL    HW110199   6.184   0.289   6.366
 3100SOL    HW210200   6.318   0.198   6.393
 3101SOL     OW10201   3.096   0.769   1.241
 3101SOL    HW110202   3.010   0.819   1.252
 3101SOL    HW210203   3.125   0.771   1.145
 3102SOL     OW10204   1.187   6.124   0.861
 3102SOL    HW110205   1.219   6.214   0.892
 3102SOL    HW210206   1.198   6.118   0.762
 3103SOL     OW10207   4.250   4.407   1.740
 3103SOL    HW110208   4.275   4.324   1.789
 3103SOL    HW210209   4.175   4.388   1.677
 3104SOL     OW10210   5.624   6.082   3.633
 3104SOL    HW110211   5.527   6.065   3.616
 3104SOL    HW210212   5.669   5.996   3.657
 3105SOL     OW10213   5.408   6.115   4.114
 3105SOL    HW110214   5.375   6.166   4.034
 3105SOL    HW210215   5.478   6.049   4.085
 3106SOL     OW10216   6.696   3.429   4.377
 3106SOL    HW110217   6.636   3.412   4.455
 3106SOL    HW210218   6.776   3.369   4.383
 3107SOL     OW10219   2.522   6.859   4.006
 3107SOL    HW110220   2.553   6.941   4.054
 3107SOL    HW210221   2.499   6.883   3.911
 3108SOL     OW10222   1.781   0.045   3.031
 3108SOL    HW110223   1.871   0.063   3.069
 3108SOL    HW210224   1.772   6.970   3.008
 3109SOL     OW10225   4.315   5.518   3.578
 3109SOL    HW110226   4.257   5.509   3.659
 3109SOL    HW210227   4.406   5.482   3.598
 3110SOL     OW10228   0.381   2.659   1.869
 3110SOL    HW110229   0.417   2.684   1.780
 3110SOL    HW210230   0.421   2.718   1.939
 3111SOL     OW10231   0.491   4.983   2.318
 3111SOL    HW110232   0.511   4.996   2.415
 3111SOL    HW210233   0.432   4.904   2.306
 3112SOL     OW10234   3.333   3.423   5.960
 3112SOL    HW110235   3.394   3.449   5.886
 3112SOL    HW210236   3.289   3.336   5.939
 3113SOL     OW10237   4.131   0.212   4.125
 3113SOL    HW110238   4.108   0.237   4.219
 3113SOL    HW210239   4.110   0.116   4.110
 3114SOL     OW10240   5.343   5.420   0.845
 3114SOL    HW110241   5.377   5.339   0.797
 3114SOL    HW210242   5.328   5.494   0.778
 3115SOL     OW10243   3.313   3.248   2.711
 3115SOL    HW110244   3.247   3.280   2.642
 3115SOL    HW210245   3.301   3.302   2.795
 3116SOL     OW10246   0.402   1.577   6.765
 3116SOL    HW110247   0.490   1.532   6.751
 3116SOL    HW210248   0.335   1.540   6.701
 3117SOL     OW10249   3.062   4.292   6.260
 3117SOL    HW110250   3.103   4.373   6.301
 3117SOL    HW210251   3.050   4.222   6.330
 3118SOL     OW10252   6.203   5.246   0.001
 3118SOL    HW110253   6.177   5.151   7.002
 3118SOL    HW210254   6.158   5.277   0.084
 3119SOL     OW10255   2.240   4.151   6.704
 3119SOL    HW110256   2.145   4.121   6.697
 3119SOL    HW210257   2.253   4.201   6.790
 3120SOL     OW10258   2.737   5.521   6.702
 3120SOL    HW110259   2.803   5.557   6.636
 3120SOL    HW210260   2.785   5.492   6.785
 3121SOL     OW10261   6.677   5.881   3.852
 3121SOL    HW110262   6.681   5.781   3.851
 3121SOL    HW210263   6.725   5.917   3.772
 3122SOL     OW10264   3.584   5.940   1.583
 3122SOL    HW110265   3.618   5.887   1.660
 3122SOL    HW210266   3.484   5.933   1.579
 3123SOL     OW10267   3.066   0.096   3.815
 3123SOL    HW110268   2.974   0.081   3.778
 3123SOL    HW210269   3.132   0.042   3.762
 3124SOL     OW10270   3.935   6.817   5.665
 3124SOL    HW110271   3.947   6.718   5.653
 3124SOL    HW210272   3.848   6.845   5.625
 3125SOL     OW10273   6.892   1.917   6.011
 3125SOL    HW110274   6.848   1.974   5.941
 3125SOL    HW210275   6.975   1.876   5.973
 3126SOL     OW10276   3.697   5.914   6.396
 3126SOL    HW110277   3.765   5.986   6.397
 3126SOL    HW210278   3.716   5.849   6.469
 3127SOL     OW10279   0.935   1.023   4.243
 3127SOL    HW110280   0.995   1.101   4.226
 3127SOL    HW210281   0.906   0.983   4.156
 3128SOL     OW10282   1.812   0.934   1.057
 3128SOL    HW110283   1.720   0.910   1.026
 3128SOL    HW210284   1.880   0.896   0.995
 3129SOL     OW10285   1.288   3.492   2.606
 3129SOL    HW110286   1.206   3.444   2.576
 3129SOL    HW210287   1.338   3.526   2.526
 3130SOL     OW10288   2.451   5.575   2.878
 3130SOL    HW110289   2.550   5.592   2.874
 3130SOL    HW210290   2.404   5.634   2.813
 3131SOL     OW10291   0.522   3.491   3.761
 3131SOL    HW110292   0.452   3.421   3.745
 3131SOL    HW210293   0.567   3.473   3.849
 3132SOL     OW10294   4.750   3.739   5.940
 3132SOL    HW110295   4.739   3.784   5.851
 3132SOL    HW210296   4.812   3.661   5.930
 3133SOL     OW10297   2.263   1.505   4.001
 3133SOL    HW110298   2.236   1.469   4.090
 3133SOL    HW210299   2.244   1.437   3.930
 3134SOL     OW10300   5.820   2.228   1.984
 3134SOL    HW110301   5.866   2.316   1.974
 3134SOL    HW210302   5.760   2.212   1.904
 3135SOL     OW10303   1.186   2.627   3.026
 3135SOL    HW110304   1.219   2.714   2.989
 3135SOL    HW210305   1.086   2.627   3.030
 3136SOL     OW10306   6.555   0.779   4.602
 3136SOL    HW110307   6.643   0.735   4.619
 3136SOL    HW210308   6.553   0.814   4.508
 3137SOL     OW10309   0.510   1.677   4.220
 3137SOL    HW110310   0.443   1.715   4.284
 3137SOL    HW210311   0.514   1.578   4.232
 3138SOL     OW10312   6.367   2.274   4.297
 3138SOL    HW110313   6.406   2.364   4.317
 3138SOL    HW210314   6.389   2.248   4.203
 3139SOL     OW10315   5.210   5.597   5.461
 3139SOL    HW110316   5.203   5.638   5.370
 3139SOL    HW210317   5.258   5.661   5.522
 3140SOL     OW10318   6.333   6.005   5.429
 3140SOL    HW110319   6.349   6.087   5.483
 3140SOL    HW210320   6.258   6.022   5.365
 3141SOL     OW10321   0.945   0.552   1.854
 3141SOL    HW110322   0.860   0.501   1.849
 3141SOL    HW210323   0.937   0.635   1.798
 3142SOL     OW10324   3.616   7.014   0.824
 3142SOL    HW110325   3.573   7.010   0.914
 3142SOL    HW210326   3.606   6.926   0.778
 3143SOL     OW10327   0.191   1.432   0.494
 3143SOL    HW110328   0.258   1.503   0.472
 3143SOL    HW210329   0.181   1.425   0.593
 3144SOL     OW10330   2.848   2.964   0.167
 3144SOL    HW110331   2.857   2.982   0.265
 3144SOL    HW210332   2.938   2.944   0.129
 3145SOL     OW10333   1.902   5.240   2.471
 3145SOL    HW110334   1.863   5.225   2.562
 3145SOL    HW210335   1.880   5.332   2.440
 3146SOL     OW10336   1.993   7.008   4.098
 3146SOL    HW110337   2.014   6.952   4.179
 3146SOL    HW210338   1.895   7.001   4.078
 3147SOL     OW10339   4.199   4.150   0.947
 3147SOL    HW110340   4.141   4.178   0.870
 3147SOL    HW210341   4.207   4.050   0.948
 3148SOL     OW10342   2.696   5.830   4.522
 3148SOL    HW110343   2.666   5.747   4.477
 3148SOL    HW210344   2.738   5.807   4.610
 3149SOL     OW10345   2.151   6.437   5.769
 3149SOL    HW110346   2.238   6.448   5.817
 3149SOL    HW210347   2.098   6.363   5.810
 3150SOL     OW10348   6.296   0.395   4.612
 3150SOL    HW110349   6.298   0.494   4.626
 3150SOL    HW210350   6.342   0.373   4.526
 3151SOL     OW10351   3.832   6.609   1.685
 3151SOL    HW110352   3.786   6.694   1.657
 3151SOL    HW210353   3.924   6.629   1.716
 3152SOL     OW10354   1.601   4.961   6.566
 3152SOL    HW110355   1.696   4.991   6.567
 3152SOL    HW210356   1.577   4.927   6.475
 3153SOL     OW10357   6.914   3.952   3.398
 3153SOL    HW110358   6.940   4.002   3.315
 3153SOL    HW210359   6.870   4.015   3.462
 3154SOL     OW10360   6.077   2.701   6.434
 3154SOL    HW110361   6.003   2.764   6.407
 3154SOL    HW210362   6.070   2.683   6.532
 3155SOL     OW10363   4.475   5.842   0.322
 3155SOL    HW110364   4.556   5.783   0.323
 3155SOL    HW210365   4.498   5.930   0.363
 3156SOL     OW10366   3.397   3.881   3.687
 3156SOL    HW110367   3.436   3.806   3.740
 3156SOL    HW210368   3.423   3.870   3.591
 3157SOL     OW10369   2.002   1.985   4.914
 3157SOL    HW110370   1.925   1.969   4.853
 3157SOL    HW210371   2.087   1.958   4.868
 3158SOL     OW10372   4.716   6.972   2.016
 3158SOL    HW110373   4.755   6.955   2.107
 3158SOL    HW210374   4.695   6.884   1.973
 3159SOL     OW10375   5.731   4.425   0.669
 3159SOL    HW110376   5.698   4.378   0.751
 3159SOL    HW210377   5.654   4.443   0.608
 3160SOL     OW10378   6.047   4.485   0.439
 3160SOL    HW110379   5.992   4.568   0.450
 3160SOL    HW210380   6.015   4.416   0.503
 3161SOL     OW10381   0.776   1.767   3.785
 3161SOL    HW110382   0.814   1.836   3.847
 3161SOL    HW210383   0.730   1.696   3.838
 3162SOL     OW10384   0.285   0.746   6.305
 3162SOL    HW110385   0.248   0.675   6.245
 3162SOL    HW210386   0.262   0.725   6.400
 3163SOL     OW10387   1.728   4.424   5.471
 3163SOL    HW110388   1.656   4.431   5.402
 3163SOL    HW210389   1.809   4.474   5.440
 3164SOL     OW10390   6.238   5.167   5.750
 3164SOL    HW110391   6.190   5.207   5.672
 3164SOL    HW210392   6.276   5.078   5.723
 3165SOL     OW10393   6.877   2.529   1.757
 3165SOL    HW110394   6.942   2.586   1.706
 3165SOL    HW210395   6.927   2.470   1.820
 3166SOL     OW10396   3.570   3.155   6.486
 3166SOL    HW110397   3.588   3.248   6.453
 3166SOL    HW210398   3.476   3.130   6.463
 3167SOL     OW10399   0.333   4.752   2.278
 3167SOL    HW110400   0.351   4.694   2.357
 3167SOL    HW210401   0.252   4.719   2.230
 3168SOL     OW10402   6.650   3.399   0.529
 3168SOL    HW110403   6.638   3.299   0.528
 3168SOL    HW210404   6.563   3.443   0.507
 3169SOL     OW10405   3.154   2.477   5.887
 3169SOL    HW110406   3.227   2.539   5.859
 3169SOL    HW210407   3.077   2.530   5.922
 3170SOL     OW10408   3.245   0.338   4.598
 3170SOL    HW110409   3.276   0.425   4.636
 3170SOL    HW210410   3.179   0.355   4.525
 3171SOL     OW10411   6.487   5.656   2.708
 3171SOL    HW110412   6.539   5.586   2.757
 3171SOL    HW210413   6.444   5.615   2.627
 3172SOL     OW10414   5.355   6.826   5.260
 3172SOL    HW110415   5.433   6.887   5.274
 3172SOL    HW210416   5.325   6.832   5.165
 3173SOL     OW10417   1.358   0.914   1.625
 3173SOL    HW110418   1.388   0.942   1.534
 3173SOL    HW210419   1.431   0.931   1.691
 3174SOL     OW10420   2.519   3.111   7.020
 3174SOL    HW110421   2.421   3.102   0.015
 3174SOL    HW210422   2.563   3.152   0.079
 3175SOL     OW10423   0.075   5.980   0.252
 3175SOL    HW110424   0.047   6.049   0.318
 3175SOL    HW210425   7.015   5.941   0.208
 3176SOL     OW10426   0.784   5.274   6.985
 3176SOL    HW110427   0.820   5.363   6.954
 3176SOL    HW210428   0.833   5.201   6.939
 3177SOL     OW10429   0.745   0.176   3.517
 3177SOL    HW110430   0.708   0.248   3.576
 3177SOL    HW210431   0.671   0.135   3.464
 3178SOL     OW10432   3.869   3.441   0.109
 3178SOL    HW110433   3.770   3.445   0.097
 3178SOL    HW210434   3.913   3.508   0.049
 3179SOL     OW10435   1.420   2.803   4.666
 3179SOL    HW110436   1.463   2.860   4.737
 3179SOL    HW210437   1.324   2.830   4.656
 3180SOL     OW10438   6.676   1.554   6.864
 3180SOL    HW110439   6.584   1.526   6.834
 3180SOL    HW210440   6.741   1.539   6.790
 3181SOL     OW10441   0.271   1.352   2.099
 3181SOL    HW110442   0.243   1.319   2.189
 3181SOL    HW210443   0.249   1.284   2.029
 3182SOL     OW10444   1.684   6.057   5.868
 3182SOL    HW110445   1.710   6.134   5.810
 3182SOL    HW210446   1.736   5.976   5.840
 3183SOL     OW10447   4.773   3.797   1.131
 3183SOL    HW110448   4.848   3.776   1.193
 3183SOL    HW210449   4.721   3.875   1.167
 3184SOL     OW10450   0.087   2.111   2.836
 3184SOL    HW110451   0.013   2.054   2.802
 3184SOL    HW210452   0.101   2.188   2.774
 3185SOL     OW10453   0.596   6.365   0.149
 3185SOL    HW110454   0.635   6.322   0.067
 3185SOL    HW210455   0.507   6.324   0.169
 3186SOL     OW10456   3.458   0.533   1.688
 3186SOL    HW110457   3.478   0.631   1.681
 3186SOL    HW210458   3.526   0.489   1.747
 3187SOL     OW10459   3.734   4.464   0.589
 3187SOL    HW110460   3.684   4.380   0.567
 3187SOL    HW210461   3.674   4.543   0.578
 3188SOL     OW10462   3.491   0.114   3.767
 3188SOL    HW110463   3.585   0.100   3.736
 3188SOL    HW210464   3.487   0.107   3.867
 3189SOL     OW10465   6.003   6.225   2.119
 3189SOL    HW110466   6.047   6.271   2.195
 3189SOL    HW210467   5.939   6.288   2.074
 3190SOL     OW10468   1.433   0.312   2.110
 3190SOL    HW110469   1.473   0.355   2.191
 3190SOL    HW210470   1.435   0.376   2.033
 3191SOL     OW10471   3.166   1.427   1.042
 3191SOL    HW110472   3.203   1.386   0.959
 3191SOL    HW210473   3.133   1.520   1.022
 3192SOL     OW10474   5.643   3.378   4.667
 3192SOL    HW110475   5.736   3.345   4.652
 3192SOL    HW210476   5.645   3.475   4.693
 3193SOL     OW10477   5.308   4.382   1.827
 3193SOL    HW110478   5.321   4.480   1.810
 3193SOL    HW210479   5.293   4.335   1.739
 3194SOL     OW10480   3.252   5.598   4.562
 3194SOL    HW110481   3.166   5.619   4.515
 3194SOL    HW210482   3.277   5.676   4.619
 3195SOL     OW10483   6.367   4.072   4.291
 3195SOL    HW110484   6.300   4.132   4.248
 3195SOL    HW210485   6.359   4.078   4.390
 3196SOL     OW10486   6.838   5.941   6.243
 3196SOL    HW110487   6.903   5.985   6.304
 3196SOL    HW210488   6.767   6.006   6.217
 3197SOL     OW10489   0.607   4.487   5.694
 3197SOL    HW110490   0.508   4.473   5.690
 3197SOL    HW210491   0.627   4.582   5.715
 3198SOL     OW10492   5.968   0.384   1.328
 3198SOL    HW110493   5.923   0.352   1.412
 3198SOL    HW210494   6.005   0.476   1.343
 3199SOL     OW10495   2.787   2.004   3.125
 3199SOL    HW110496   2.869   1.956   3.093
 3199SOL    HW210497   2.706   1.950   3.104
 3200SOL     OW10498   6.688   1.603   0.455
 3200SOL    HW110499   6.596   1.581   0.490
 3200SOL    HW210500   6.708   1.546   0.376
 3201SOL     OW10501   3.753   4.933   2.899
 3201SOL    HW110502   3.804   4.948   2.814
 3201SOL    HW210503   3.657   4.916   2.878
 3202SOL     OW10504   1.488   4.910   1.967
 3202SOL    HW110505   1.576   4.922   2.013
 3202SOL    HW210506   1.491   4.828   1.909
 3203SOL     OW10507   4.687   0.143   0.993
 3203SOL    HW110508   4.777   0.165   0.957
 3203SOL    HW210509   4.655   0.217   1.051
 3204SOL     OW10510   6.404   6.434   2.125
 3204SOL    HW110511   6.422   6.408   2.030
 3204SOL    HW210512   6.310   6.414   2.149
 3205SOL     OW10513   1.423   4.161   4.421
 3205SOL    HW110514   1.359   4.149   4.497
 3205SOL    HW210515   1.422   4.256   4.391
 3206SOL     OW10516   2.063   6.198   0.181
 3206SOL    HW110517   2.053   6.206   0.280
 3206SOL    HW210518   2.159   6.211   0.155
 3207SOL     OW10519   1.594   0.973   3.119
 3207SOL    HW110520   1.597   1.016   3.028
 3207SOL    HW210521   1.518   1.012   3.171
 3208SOL     OW10522   5.879   6.432   6.200
 3208SOL    HW110523   5.896   6.421   6.102
 3208SOL    HW210524   5.895   6.527   6.226
 3209SOL     OW10525   0.931   6.586   3.114
 3209SOL    HW110526   1.016   6.609   3.162
 3209SOL    HW210527   0.899   6.666   3.063
 3210SOL     OW10528   0.359   6.373   2.224
 3210SOL    HW110529   0.380   6.275   2.226
 3210SOL    HW210530   0.444   6.425   2.208
 3211SOL     OW10531   0.128   4.692   3.795
 3211SOL    HW110532   0.213   4.642   3.780
 3211SOL    HW210533   0.091   4.669   3.885
 3212SOL     OW10534   4.492   2.514   4.883
 3212SOL    HW110535   4.433   2.435   4.900
 3212SOL    HW210536   4.567   2.515   4.949
 3213SOL     OW10537   5.223   0.042   1.995
 3213SOL    HW110538   5.247   0.139   1.990
 3213SOL    HW210539   5.130   0.029   1.961
 3214SOL     OW10540   4.781   3.605   0.251
 3214SOL    HW110541   4.827   3.662   0.182
 3214SOL    HW210542   4.830   3.613   0.338
 3215SOL     OW10543   6.668   1.553   0.105
 3215SOL    HW110544   6.623   1.467   0.129
 3215SOL    HW210545   6.677   1.560   0.005
 3216SOL     OW10546   5.137   6.803   5.924
 3216SOL    HW110547   5.092   6.773   5.840
 3216SOL    HW210548   5.124   6.733   5.995
 3217SOL     OW10549   0.407   4.514   6.501
 3217SOL    HW110550   0.379   4.537   6.407
 3217SOL    HW210551   0.335   4.539   6.565
 3218SOL     OW10552   4.182   2.835   1.634
 3218SOL    HW110553   4.119   2.827   1.557
 3218SOL    HW210554   4.270   2.794   1.609
 3219SOL     OW10555   0.575   2.061   3.391
 3219SOL    HW110556   0.628   1.994   3.442
 3219SOL    HW210557   0.636   2.114   3.332
 3220SOL     OW10558   6.792   2.588   6.753
 3220SOL    HW110559   6.863   2.518   6.755
 3220SOL    HW210560   6.762   2.602   6.659
 3221SOL     OW10561   4.178   0.268   1.775
 3221SOL    HW110562   4.161   0.366   1.767
 3221SOL    HW210563   4.118   0.218   1.713
 3222SOL     OW10564   6.066   3.735   2.003
 3222SOL    HW110565   6.066   3.816   1.946
 3222SOL    HW210566   6.159   3.716   2.035
 3223SOL     OW10567   0.909   4.267   5.549
 3223SOL    HW110568   1.006   4.244   5.547
 3223SOL    HW210569   0.891   4.332   5.623
 3224SOL     OW10570   2.668   6.536   1.380
 3224SOL    HW110571   2.623   6.588   1.307
 3224SOL    HW210572   2.669   6.590   1.464
 3225SOL     OW10573   1.369   1.710   0.597
 3225SOL    HW110574   1.281   1.684   0.559
 3225SOL    HW210575   1.443   1.671   0.541
 3226SOL     OW10576   6.747   1.137   3.872
 3226SOL    HW110577   6.697   1.050   3.871
 3226SOL    HW210578   6.711   1.197   3.800
 3227SOL     OW10579   2.432   1.630   4.851
 3227SOL    HW110580   2.409   1.620   4.754
 3227SOL    HW210581   2.385   1.559   4.903
 3228SOL     OW10582   4.872   3.078   5.010
 3228SOL    HW110583   4.837   3.146   5.074
 3228SOL    HW210584   4.869   3.116   4.917
 3229SOL     OW10585   4.781   1.541   4.436
 3229SOL    HW110586   4.750   1.463   4.380
 3229SOL    HW210587   4.851   1.510   4.500
 3230SOL     OW10588   1.224   6.987   4.040
 3230SOL    HW110589   1.192   6.971   3.946
 3230SOL    HW210590   1.243   0.063   4.052
 3231SOL     OW10591   4.356   4.559   0.220
 3231SOL    HW110592   4.310   4.585   0.304
 3231SOL    HW210593   4.401   4.471   0.232
 3232SOL     OW10594   0.912   4.033   3.652
 3232SOL    HW110595   0.966   3.954   3.683
 3232SOL    HW210596   0.830   4.000   3.605
 3233SOL     OW10597   2.031   4.324   0.316
 3233SOL    HW110598   2.130   4.328   0.330
 3233SOL    HW210599   1.987   4.398   0.367
 3234SOL     OW10600   0.011   1.391   3.917
 3234SOL    HW110601   6.940   1.410   3.953
 3234SOL    HW210602   0.031   1.455   3.843
 3235SOL     OW10603   6.232   1.049   2.297
 3235SOL    HW110604   6.242   1.131   2.353
 3235SOL    HW210605   6.307   1.045   2.231
 3236SOL     OW10606   6.832   1.586   1.357
 3236SOL    HW110607   6.897   1.657   1.329
 3236SOL    HW210608   6.878   1.522   1.419
 3237SOL     OW10609   3.047   5.714   4.825
 3237SOL    HW110610   3.121   5.669   4.875
 3237SOL    HW210611   3.080   5.738   4.733
 3238SOL     OW10612   7.014   6.082   6.378
 3238SOL    HW110613   7.019   6.161   6.318
 3238SOL    HW210614   0.001   6.112   6.473
 3239SOL     OW10615   2.285   6.317   6.191
 3239SOL    HW110616   2.225   6.389   6.156
 3239SOL    HW210617   2.378   6.353   6.199
 3240SOL     OW10618   1.293   2.443   4.840
 3240SOL    HW110619   1.281   2.344   4.851
 3240SOL    HW210620   1.242   2.474   4.760
 3241SOL     OW10621   4.344   6.328   5.300
 3241SOL    HW110622   4.337   6.274   5.216
 3241SOL    HW210623   4.403   6.407   5.284
 3242SOL     OW10624   2.815   1.190   1.132
 3242SOL    HW110625   2.780   1.153   1.045
 3242SOL    HW210626   2.911   1.214   1.121
 3243SOL     OW10627   3.478   5.849   2.251
 3243SOL    HW110628   3.564   5.816   2.213
 3243SOL    HW210629   3.405   5.784   2.231
 3244SOL     OW10630   1.511   0.119   5.055
 3244SOL    HW110631   1.431   0.151   5.004
 3244SOL    HW210632   1.572   0.196   5.072
 3245SOL     OW10633   3.491   2.191   5.897
 3245SOL    HW110634   3.478   2.167   5.801
 3245SOL    HW210635   3.573   2.248   5.906
 3246SOL     OW10636   5.795   6.706   2.106
 3246SOL    HW110637   5.887   6.722   2.071
 3246SOL    HW210638   5.728   6.729   2.035
 3247SOL     OW10639   6.109   2.890   5.059
 3247SOL    HW110640   6.147   2.877   5.151
 3247SOL    HW210641   6.145   2.819   4.998
 3248SOL     OW10642   5.227   4.152   3.391
 3248SOL    HW110643   5.196   4.240   3.354
 3248SOL    HW210644   5.167   4.079   3.358
 3249SOL     OW10645   3.654   4.909   5.713
 3249SOL    HW110646   3.555   4.908   5.698
 3249SOL    HW210647   3.700   4.946   5.632
 3250SOL     OW10648   4.879   4.749   0.689
 3250SOL    HW110649   4.843   4.793   0.771
 3250SOL    HW210650   4.840   4.657   0.680
 3251SOL     OW10651   2.584   1.778   3.454
 3251SOL    HW110652   2.624   1.702   3.506
 3251SOL    HW210653   2.499   1.747   3.409
 3252SOL     OW10654   3.054   2.216   2.936
 3252SOL    HW110655   3.148   2.227   2.901
 3252SOL    HW210656   2.995   2.187   2.861
 3253SOL     OW10657   5.021   4.365   2.036
 3253SOL    HW110658   4.952   4.414   2.088
 3253SOL    HW210659   5.096   4.338   2.097
 3254SOL     OW10660   5.717   3.705   3.032
 3254SOL    HW110661   5.760   3.795   3.040
 3254SOL    HW210662   5.787   3.634   3.030
 3255SOL     OW10663   3.027   4.742   0.347
 3255SOL    HW110664   2.935   4.770   0.372
 3255SOL    HW210665   3.085   4.822   0.337
 3256SOL     OW10666   6.491   6.833   5.496
 3256SOL    HW110667   6.468   6.870   5.586
 3256SOL    HW210668   6.414   6.847   5.434
 3257SOL     OW10669   2.690   0.917   1.866
 3257SOL    HW110670   2.676   0.869   1.952
 3257SOL    HW210671   2.689   0.852   1.790
 3258SOL     OW10672   4.601   6.947   2.595
 3258SOL    HW110673   4.535   6.978   2.663
 3258SOL    HW210674   4.555   6.890   2.527
 3259SOL     OW10675   5.906   5.589   3.180
 3259SOL    HW110676   5.852   5.522   3.232
 3259SOL    HW210677   5.845   5.644   3.123
 3260SOL     OW10678   1.832   1.679   1.361
 3260SOL    HW110679   1.862   1.774   1.375
 3260SOL    HW210680   1.887   1.618   1.417
 3261SOL     OW10681   4.545   6.814   4.031
 3261SOL    HW110682   4.538   6.800   4.130
 3261SOL    HW210683   4.628   6.866   4.011
 3262SOL     OW10684   4.848   2.221   3.410
 3262SOL    HW110685   4.824   2.268   3.495
 3262SOL    HW210686   4.793   2.258   3.335
 3263SOL     OW10687   2.956   5.035   2.925
 3263SOL    HW110688   2.939   4.970   2.998
 3263SOL    HW210689   2.932   4.995   2.837
 3264SOL     OW10690   5.053   3.916   6.629
 3264SOL    HW110691   4.979   3.946   6.568
 3264SOL    HW210692   5.081   3.823   6.605
 3265SOL     OW10693   5.336   6.996   6.057
 3265SOL    HW110694   5.436   6.989   6.053
 3265SOL    HW210695   5.295   6.917   6.012
 3266SOL     OW10696   1.039   2.418   6.100
 3266SOL    HW110697   1.040   2.516   6.083
 3266SOL    HW210698   1.070   2.370   6.018
 3267SOL     OW10699   5.687   3.969   0.905
 3267SOL    HW110700   5.707   3.872   0.919
 3267SOL    HW210701   5.589   3.981   0.889
 3268SOL     OW10702   2.294   5.642   0.582
 3268SOL    HW110703   2.266   5.709   0.651
 3268SOL    HW210704   2.261   5.671   0.492
 3269SOL     OW10705   4.391   3.315   1.240
 3269SOL    HW110706   4.392   3.270   1.329
 3269SOL    HW210707   4.433   3.405   1.248
 3270SOL     OW10708   6.639   5.461   2.794
 3270SOL    HW110709   6.720   5.510   2.824
 3270SOL    HW210710   6.619   5.386   2.858
 3271SOL     OW10711   5.003   0.063   0.672
 3271SOL    HW110712   4.978   0.073   0.768
 3271SOL    HW210713   4.930   0.100   0.614
 3272SOL     OW10714   4.030   5.593   6.090
 3272SOL    HW110715   3.934   5.577   6.114
 3272SOL    HW210716   4.055   5.539   6.010
 3273SOL     OW10717   6.978   6.945   3.006
 3273SOL    HW110718   6.984   6.977   2.912
 3273SOL    HW210719   0.045   6.956   3.052
 3274SOL     OW10720   3.245   0.474   1.485
 3274SOL    HW110721   3.328   0.503   1.533
 3274SOL    HW210722   3.220   0.382   1.516
 3275SOL     OW10723   4.606   0.591   5.815
 3275SOL    HW110724   4.592   0.496   5.785
 3275SOL    HW210725   4.518   0.638   5.818
 3276SOL     OW10726   2.131   5.242   1.295
 3276SOL    HW110727   2.032   5.256   1.300
 3276SOL    HW210728   2.156   5.158   1.343
 3277SOL     OW10729   0.414   5.855   6.324
 3277SOL    HW110730   0.343   5.789   6.349
 3277SOL    HW210731   0.441   5.907   6.405
 3278SOL     OW10732   1.289   6.829   0.211
 3278SOL    HW110733   1.308   6.872   0.300
 3278SOL    HW210734   1.282   6.899   0.141
 3279SOL     OW10735   1.907   6.566   1.661
 3279SOL    HW110736   1.830   6.503   1.675
 3279SOL    HW210737   1.991   6.513   1.651
 3280SOL     OW10738   2.873   5.867   3.417
 3280SOL    HW110739   2.793   5.891   3.362
 3280SOL    HW210740   2.843   5.840   3.509
 3281SOL     OW10741   1.628   6.902   1.090
 3281SOL    HW110742   1.728   6.906   1.091
 3281SOL    HW210743   1.597   6.838   1.159
 3282SOL     OW10744   1.575   4.468   1.980
 3282SOL    HW110745   1.523   4.519   1.911
 3282SOL    HW210746   1.520   4.459   2.063
 3283SOL     OW10747   1.400   0.766   3.187
 3283SOL    HW110748   1.396   0.677   3.142
 3283SOL    HW210749   1.421   0.837   3.119
 3284SOL     OW10750   2.514   6.263   5.574
 3284SOL    HW110751   2.445   6.197   5.544
 3284SOL    HW210752   2.531   6.251   5.672
 3285SOL     OW10753   0.558   3.596   4.176
 3285SOL    HW110754   0.557   3.621   4.273
 3285SOL    HW210755   0.620   3.656   4.126
 3286SOL     OW10756   5.065   4.895   6.970
 3286SOL    HW110757   4.993   4.828   6.987
 3286SOL    HW210758   5.124   4.863   6.896
 3287SOL     OW10759   0.823   2.214   1.189
 3287SOL    HW110760   0.760   2.163   1.247
 3287SOL    HW210761   0.831   2.170   1.100
 3288SOL     OW10762   0.729   6.970   0.476
 3288SOL    HW110763   0.704   0.033   0.523
 3288SOL    HW210764   0.652   6.907   0.475
 3289SOL     OW10765   1.668   0.666   3.959
 3289SOL    HW110766   1.612   0.664   4.042
 3289SOL    HW210767   1.764   0.653   3.984
 3290SOL     OW10768   6.914   4.756   4.601
 3290SOL    HW110769   6.830   4.810   4.598
 3290SOL    HW210770   6.951   4.746   4.509
 3291SOL     OW10771   1.424   1.800   1.518
 3291SOL    HW110772   1.372   1.846   1.590
 3291SOL    HW210773   1.507   1.760   1.557
 3292SOL     OW10774   1.028   6.952   3.817
 3292SOL    HW110775   1.038   7.009   3.736
 3292SOL    HW210776   0.936   6.964   3.855
 3293SOL     OW10777   5.997   0.525   3.022
 3293SOL    HW110778   5.950   0.570   2.946
 3293SOL    HW210779   5.931   0.502   3.094
 3294SOL     OW10780   6.919   6.375   1.437
 3294SOL    HW110781   6.891   6.280   1.424
 3294SOL    HW210782   6.859   6.435   1.385
 3295SOL     OW10783   2.857   3.199   6.342
 3295SOL    HW110784   2.865   3.111   6.390
 3295SOL    HW210785   2.766   3.238   6.361
 3296SOL     OW10786   1.018   6.902   1.492
 3296SOL    HW110787   0.932   6.914   1.542
 3296SOL    HW210788   1.060   6.815   1.518
 3297SOL     OW10789   3.687   0.176   5.256
 3297SOL    HW110790   3.659   0.080   5.248
 3297SOL    HW210791   3.611   0.235   5.230
 3298SOL     OW10792   7.008   5.715   3.281
 3298SOL    HW110793   0.028   5.748   3.196
 3298SOL    HW210794   6.917   5.755   3.292
 3299SOL     OW10795   2.115   1.363   4.485
 3299SOL    HW110796   2.183   1.381   4.414
 3299SOL    HW210797   2.047   1.298   4.451
 3300SOL     OW10798   0.433   6.983   4.791
 3300SOL    HW110799   0.451   6.923   4.712
 3300SOL    HW210800   0.516   6.989   4.847
 3301SOL     OW10801   6.435   4.190   2.323
 3301SOL    HW110802   6.511   4.236   2.277
 3301SOL    HW210803   6.470   4.109   2.370
 3302SOL     OW10804   1.870   5.779   5.434
 3302SOL    HW110805   1.960   5.810   5.402
 3302SOL    HW210806   1.832   5.714   5.368
 3303SOL     OW10807   3.435   3.470   5.191
 3303SOL    HW110808   3.464   3.412   5.115
 3303SOL    HW210809   3.483   3.444   5.274
 3304SOL     OW10810   1.779   1.088   3.995
 3304SOL    HW110811   1.712   1.064   4.065
 3304SOL    HW210812   1.860   1.128   4.039
 3305SOL     OW10813   1.665   2.274   0.531
 3305SOL    HW110814   1.602   2.198   0.515
 3305SOL    HW210815   1.624   2.338   0.596
 3306SOL     OW10816   1.226   1.303   0.834
 3306SOL    HW110817   1.224   1.203   0.832
 3306SOL    HW210818   1.298   1.333   0.896
 3307SOL     OW10819   0.380   6.766   0.067
 3307SOL    HW110820   0.400   6.679   0.113
 3307SOL    HW210821   0.457   6.828   0.080
 3308SOL     OW10822   5.499   5.575   6.892
 3308SOL    HW110823   5.460   5.542   6.806
 3308SOL    HW210824   5.584   5.527   6.910
 3309SOL     OW10825   0.526   4.599   2.157
 3309SOL    HW110826   0.611   4.569   2.199
 3309SOL    HW210827   0.474   4.655   2.221
 3310SOL     OW10828   2.430   6.797   2.112
 3310SOL    HW110829   2.409   6.791   2.015
 3310SOL    HW210830   2.376   6.728   2.162
 3311SOL     OW10831   4.614   5.235   0.617
 3311SOL    HW110832   4.545   5.175   0.657
 3311SOL    HW210833   4.641   5.304   0.685
 3312SOL     OW10834   1.958   2.573   5.866
 3312SOL    HW110835   2.008   2.512   5.928
 3312SOL    HW210836   1.983   2.551   5.772
 3313SOL     OW10837   5.489   6.466   5.048
 3313SOL    HW110838   5.511   6.563   5.040
 3313SOL    HW210839   5.562   6.420   5.100
 3314SOL     OW10840   0.737   3.912   6.520
 3314SOL    HW110841   0.836   3.895   6.520
 3314SOL    HW210842   0.691   3.844   6.576
 3315SOL     OW10843   6.392   3.501   3.339
 3315SOL    HW110844   6.429   3.417   3.298
 3315SOL    HW210845   6.449   3.579   3.312
 3316SOL     OW10846   3.603   0.533   6.311
 3316SOL    HW110847   3.679   0.548   6.374
 3316SOL    HW210848   3.525   0.497   6.361
 3317SOL     OW10849   6.485   2.831   1.044
 3317SOL    HW110850   6.475   2.772   0.964
 3317SOL    HW210851   6.397   2.840   1.090
 3318SOL     OW10852   2.705   4.763   6.579
 3318SOL    HW110853   2.689   4.732   6.673
 3318SOL    HW210854   2.673   4.693   6.515
 3319SOL     OW10855   1.125   6.056   6.151
 3319SOL    HW110856   1.220   6.086   6.146
 3319SOL    HW210857   1.106   5.993   6.076
 3320SOL     OW10858   1.361   0.582   1.184
 3320SOL    HW110859   1.387   0.679   1.175
 3320SOL    HW210860   1.422   0.527   1.127
 3321SOL     OW10861   3.682   4.106   4.018
 3321SOL    HW110862   3.774   4.068   4.010
 3321SOL    HW210863   3.614   4.033   4.010
 3322SOL     OW10864   5.129   4.001   2.704
 3322SOL    HW110865   5.045   3.976   2.657
 3322SOL    HW210866   5.107   4.037   2.795
 3323SOL     OW10867   1.466   4.383   0.684
 3323SOL    HW110868   1.489   4.420   0.775
 3323SOL    HW210869   1.550   4.358   0.636
 3324SOL     OW10870   6.307   3.087   2.126
 3324SOL    HW110871   6.340   2.992   2.129
 3324SOL    HW210872   6.363   3.140   2.063
 3325SOL     OW10873   1.191   4.863   5.728
 3325SOL    HW110874   1.110   4.812   5.700
 3325SOL    HW210875   1.236   4.901   5.647
 3326SOL     OW10876   4.508   6.856   2.336
 3326SOL    HW110877   4.463   6.768   2.355
 3326SOL    HW210878   4.471   6.895   2.251
 3327SOL     OW10879   4.674   5.935   2.110
 3327SOL    HW110880   4.725   5.969   2.031
 3327SOL    HW210881   4.657   6.011   2.173
 3328SOL     OW10882   6.378   5.857   3.121
 3328SOL    HW110883   6.380   5.833   3.218
 3328SOL    HW210884   6.362   5.956   3.111
 3329SOL     OW10885   5.637   0.328   6.069
 3329SOL    HW110886   5.708   0.301   6.134
 3329SOL    HW210887   5.638   0.265   5.991
 3330SOL     OW10888   5.697   0.531   3.718
 3330SOL    HW110889   5.695   0.431   3.714
 3330SOL    HW210890   5.690   0.568   3.626
 3331SOL     OW10891   0.106   3.339   2.441
 3331SOL    HW110892   0.041   3.270   2.474
 3331SOL    HW210893   0.199   3.308   2.458
 3332SOL     OW10894   4.558   5.093   1.230
 3332SOL    HW110895   4.516   5.136   1.311
 3332SOL    HW210896   4.513   5.006   1.211
 3333SOL     OW10897   2.200   3.970   0.997
 3333SOL    HW110898   2.250   4.055   1.009
 3333SOL    HW210899   2.168   3.963   0.902
 3334SOL     OW10900   2.436   2.635   2.143
 3334SOL    HW110901   2.528   2.669   2.162
 3334SOL    HW210902   2.400   2.590   2.225
 3335SOL     OW10903   4.686   4.394   6.777
 3335SOL    HW110904   4.783   4.389   6.799
 3335SOL    HW210905   4.675   4.407   6.679
 3336SOL     OW10906   3.492   5.813   6.242
 3336SOL    HW110907   3.468   5.735   6.300
 3336SOL    HW210908   3.578   5.854   6.275
 3337SOL     OW10909   3.064   3.884   4.338
 3337SOL    HW110910   3.026   3.862   4.428
 3337SOL    HW210911   3.144   3.943   4.349
 3338SOL     OW10912   3.505   2.950   1.592
 3338SOL    HW110913   3.567   2.973   1.516
 3338SOL    HW210914   3.423   3.007   1.587
 3339SOL     OW10915   0.696   0.359   5.827
 3339SOL    HW110916   0.632   0.380   5.754
 3339SOL    HW210917   0.758   0.286   5.798
 3340SOL     OW10918   5.103   1.964   6.450
 3340SOL    HW110919   5.019   1.961   6.503
 3340SOL    HW210920   5.113   2.055   6.408
 3341SOL     OW10921   1.225   3.592   1.588
 3341SOL    HW110922   1.204   3.689   1.571
 3341SOL    HW210923   1.308   3.585   1.643
 3342SOL     OW10924   5.814   0.490   3.412
 3342SOL    HW110925   5.779   0.397   3.413
 3342SOL    HW210926   5.770   0.542   3.339
 3343SOL     OW10927   3.557   4.986   0.308
 3343SOL    HW110928   3.494   5.061   0.327
 3343SOL    HW210929   3.651   5.015   0.329
 3344SOL     OW10930   1.800   3.772   0.838
 3344SOL    HW110931   1.703   3.789   0.858
 3344SOL    HW210932   1.854   3.851   0.866
 3345SOL     OW10933   4.419   5.057   0.711
 3345SOL    HW110934   4.353   5.117   0.666
 3345SOL    HW210935   4.388   4.962   0.705
 3346SOL     OW10936   0.834   0.624   0.525
 3346SOL    HW110937   0.803   0.538   0.486
 3346SOL    HW210938   0.844   0.693   0.453
 3347SOL     OW10939   1.073   3.132   5.695
 3347SOL    HW110940   1.044   3.179   5.777
 3347SOL    HW210941   1.147   3.067   5.717
 3348SOL     OW10942   3.204   4.102   5.773
 3348SOL    HW110943   3.134   4.037   5.742
 3348SOL    HW210944   3.208   4.101   5.873
 3349SOL     OW10945   2.359   5.176   1.714
 3349SOL    HW110946   2.388   5.193   1.808
 3349SOL    HW210947   2.343   5.263   1.668
 3350SOL     OW10948   3.098   5.160   4.301
 3350SOL    HW110949   3.198   5.158   4.308
 3350SOL    HW210950   3.058   5.128   4.386
 3351SOL     OW10951   4.471   0.003   2.098
 3351SOL    HW110952   4.571   0.005   2.088
 3351SOL    HW210953   4.430   0.068   2.033
 3352SOL     OW10954   6.312   0.934   0.433
 3352SOL    HW110955   6.225   0.953   0.479
 3352SOL    HW210956   6.387   0.976   0.485
 3353SOL     OW10957   4.628   0.240   5.898
 3353SOL    HW110958   4.709   0.183   5.908
 3353SOL    HW210959   4.552   0.185   5.864
 3354SOL     OW10960   3.641   1.715   0.527
 3354SOL    HW110961   3.720   1.768   0.497
 3354SOL    HW210962   3.661   1.618   0.520
 3355SOL     OW10963   0.817   2.084   5.877
 3355SOL    HW110964   0.847   2.179   5.884
 3355SOL    HW210965   0.793   2.049   5.968
 3356SOL     OW10966   2.939   0.308   5.174
 3356SOL    HW110967   2.927   0.383   5.239
 3356SOL    HW210968   2.863   0.307   5.109
 3357SOL     OW10969   3.259   3.525   4.295
 3357SOL    HW110970   3.279   3.519   4.197
 3357SOL    HW210971   3.292   3.613   4.330
 3358SOL     OW10972   6.840   1.934   1.566
 3358SOL    HW110973   6.751   1.977   1.581
 3358SOL    HW210974   6.857   1.926   1.468
 3359SOL     OW10975   0.653   6.770   3.225
 3359SOL    HW110976   0.677   6.850   3.169
 3359SOL    HW210977   0.712   6.768   3.306
 3360SOL     OW10978   1.428   5.861   4.872
 3360SOL    HW110979   1.358   5.823   4.933
 3360SOL    HW210980   1.506   5.798   4.868
 3361SOL     OW10981   0.739   6.898   4.585
 3361SOL    HW110982   0.837   6.893   4.603
 3361SOL    HW210983   0.723   6.922   4.489
 3362SOL     OW10984   3.479   0.327   5.147
 3362SOL    HW110985   3.393   0.362   5.183
 3362SOL    HW210986   3.485   0.346   5.049
 3363SOL     OW10987   5.169   3.305   0.697
 3363SOL    HW110988   5.141   3.364   0.772
 3363SOL    HW210989   5.096   3.239   0.677
 3364SOL     OW10990   2.416   3.080   1.181
 3364SOL    HW110991   2.392   3.147   1.111
 3364SOL    HW210992   2.333   3.047   1.225
 3365SOL     OW10993   0.387   3.043   2.809
 3365SOL    HW110994   0.300   2.994   2.818
 3365SOL    HW210995   0.383   3.127   2.863
 3366SOL     OW10996   5.622   2.950   3.232
 3366SOL    HW110997   5.625   2.856   3.266
 3366SOL    HW210998   5.716   2.985   3.224
 3367SOL     OW10999   3.291   3.565   3.354
 3367SOL    HW111000   3.210   3.617   3.381
 3367SOL    HW211001   3.314   3.500   3.427
 3368SOL     OW11002   1.515   1.203   3.773
 3368SOL    HW111003   1.606   1.180   3.807
 3368SOL    HW211004   1.495   1.298   3.796
 3369SOL     OW11005   5.938   2.971   0.693
 3369SOL    HW111006   5.918   2.883   0.737
 3369SOL    HW211007   5.872   2.986   0.619
 3370SOL     OW11008   0.020   6.060   3.648
 3370SOL    HW111009   0.071   6.005   3.582
 3370SOL    HW211010   7.017   6.003   3.727
 3371SOL     OW11011   3.210   2.689   1.669
 3371SOL    HW111012   3.307   2.684   1.645
 3371SOL    HW211013   3.168   2.599   1.660
 3372SOL     OW11014   5.694   2.723   3.389
 3372SOL    HW111015   5.634   2.661   3.440
 3372SOL    HW211016   5.739   2.786   3.452
 3373SOL     OW11017   0.801   4.914   0.811
 3373SOL    HW111018   0.753   4.982   0.756
 3373SOL    HW211019   0.741   4.883   0.884
 3374SOL     OW11020   1.088   5.544   3.833
 3374SOL    HW111021   1.041   5.632   3.835
 3374SOL    HW211022   1.113   5.517   3.926
 3375SOL     OW11023   6.986   6.941   5.604
 3375SOL    HW111024   0.038   6.980   5.660
 3375SOL    HW211025   7.021   6.921   5.513
 3376SOL     OW11026   3.448   3.913   5.020
 3376SOL    HW111027   3.431   3.845   5.092
 3376SOL    HW211028   3.484   3.997   5.062
 3377SOL     OW11029   6.044   5.470   4.554
 3377SOL    HW111030   6.070   5.556   4.511
 3377SOL    HW211031   6.044   5.481   4.654
 3378SOL     OW11032   0.890   6.053   6.951
 3378SOL    HW111033   0.921   6.107   0.008
 3378SOL    HW211034   0.893   5.956   6.974
 3379SOL     OW11035   5.614   4.995   3.915
 3379SOL    HW111036   5.633   5.065   3.845
 3379SOL    HW211037   5.658   5.021   4.001
 3380SOL     OW11038   1.316   4.446   1.756
 3380SOL    HW111039   1.222   4.461   1.787
 3380SOL    HW211040   1.340   4.349   1.769
 3381SOL     OW11041   3.224   4.438   0.020
 3381SOL    HW111042   3.134   4.481   0.027
 3381SOL    HW211043   3.270   4.442   0.109
 3382SOL     OW11044   0.365   3.520   6.616
 3382SOL    HW111045   0.384   3.536   6.519
 3382SOL    HW211046   0.286   3.574   6.644
 3383SOL     OW11047   3.851   5.912   0.360
 3383SOL    HW111048   3.882   6.007   0.354
 3383SOL    HW211049   3.920   5.858   0.408
 3384SOL     OW11050   3.218   2.676   6.364
 3384SOL    HW111051   3.206   2.711   6.271
 3384SOL    HW211052   3.161   2.595   6.377
 3385SOL     OW11053   5.966   2.108   4.659
 3385SOL    HW111054   6.066   2.116   4.662
 3385SOL    HW211055   5.941   2.028   4.604
 3386SOL     OW11056   6.743   4.598   5.172
 3386SOL    HW111057   6.706   4.648   5.251
 3386SOL    HW211058   6.667   4.570   5.113
 3387SOL     OW11059   6.082   0.765   2.826
 3387SOL    HW111060   6.023   0.701   2.775
 3387SOL    HW211061   6.030   0.805   2.901
 3388SOL     OW11062   1.148   4.062   0.996
 3388SOL    HW111063   1.100   3.999   0.934
 3388SOL    HW211064   1.227   4.101   0.949
 3389SOL     OW11065   6.383   4.937   6.248
 3389SOL    HW111066   6.357   4.851   6.293
 3389SOL    HW211067   6.399   5.007   6.318
 3390SOL     OW11068   3.109   4.290   1.033
 3390SOL    HW111069   3.065   4.380   1.031
 3390SOL    HW211070   3.051   4.224   0.985
 3391SOL     OW11071   5.581   3.984   5.493
 3391SOL    HW111072   5.575   3.938   5.404
 3391SOL    HW211073   5.655   4.051   5.491
 3392SOL     OW11074   4.972   5.387   5.713
 3392SOL    HW111075   5.009   5.409   5.803
 3392SOL    HW211076   4.920   5.464   5.678
 3393SOL     OW11077   3.470   0.823   0.463
 3393SOL    HW111078   3.484   0.839   0.561
 3393SOL    HW211079   3.400   0.885   0.428
 3394SOL     OW11080   3.060   5.740   1.653
 3394SOL    HW111081   3.154   5.774   1.645
 3394SOL    HW211082   3.062   5.644   1.683
 3395SOL     OW11083   1.664   5.956   2.884
 3395SOL    HW111084   1.654   6.004   2.971
 3395SOL    HW211085   1.587   5.981   2.824
 3396SOL     OW11086   3.676   0.147   4.315
 3396SOL    HW111087   3.651   0.129   4.220
 3396SOL    HW211088   3.774   0.168   4.321
 3397SOL     OW11089   3.569   6.082   2.133
 3397SOL    HW111090   3.600   6.163   2.182
 3397SOL    HW211091   3.530   6.017   2.199
 3398SOL     OW11092   6.339   0.288   1.140
 3398SOL    HW111093   6.351   0.235   1.224
 3398SOL    HW211094   6.425   0.291   1.090
 3399SOL     OW11095   5.997   6.454   2.691
 3399SOL    HW111096   6.019   6.357   2.696
 3399SOL    HW211097   5.909   6.471   2.737
 3400SOL     OW11098   3.624   3.237   5.715
 3400SOL    HW111099   3.572   3.181   5.780
 3400SOL    HW211100   3.704   3.186   5.684
 3401SOL     OW11101   6.336   3.704   3.808
 3401SOL    HW111102   6.258   3.751   3.850
 3401SOL    HW211103   6.355   3.620   3.860
 3402SOL     OW11104   6.848   4.174   0.205
 3402SOL    HW111105   6.786   4.114   0.156
 3402SOL    HW211106   6.932   4.125   0.229
 3403SOL     OW11107   5.133   6.986   4.040
 3403SOL    HW111108   5.079   6.916   3.993
 3403SOL    HW211109   5.132   0.050   3.987
 3404SOL     OW11110   5.202   4.778   3.127
 3404SOL    HW111111   5.173   4.770   3.032
 3404SOL    HW211112   5.292   4.735   3.138
 3405SOL     OW11113   4.779   0.120   0.525
 3405SOL    HW111114   4.723   0.048   0.567
 3405SOL    HW211115   4.783   0.104   0.426
 3406SOL     OW11116   4.690   4.450   1.235
 3406SOL    HW111117   4.749   4.424   1.311
 3406SOL    HW211118   4.712   4.544   1.206
 3407SOL     OW11119   2.385   1.745   0.675
 3407SOL    HW111120   2.479   1.769   0.653
 3407SOL    HW211121   2.347   1.813   0.738
 3408SOL     OW11122   2.766   6.763   4.503
 3408SOL    HW111123   2.805   6.779   4.412
 3408SOL    HW211124   2.829   6.708   4.558
 3409SOL     OW11125   4.693   2.077   0.082
 3409SOL    HW111126   4.667   2.029   7.019
 3409SOL    HW211127   4.613   2.123   0.120
 3410SOL     OW11128   6.337   1.966   2.410
 3410SOL    HW111129   6.372   1.982   2.502
 3410SOL    HW211130   6.414   1.945   2.349
 3411SOL     OW11131   5.134   3.643   6.603
 3411SOL    HW111132   5.227   3.667   6.573
 3411SOL    HW211133   5.071   3.650   6.526
 3412SOL     OW11134   4.919   3.873   2.584
 3412SOL    HW111135   4.894   3.935   2.510
 3412SOL    HW211136   4.919   3.779   2.550
 3413SOL     OW11137   1.432   2.626   0.777
 3413SOL    HW111138   1.341   2.650   0.811
 3413SOL    HW211139   1.477   2.565   0.842
 3414SOL     OW11140   3.017   3.263   1.951
 3414SOL    HW111141   2.920   3.285   1.941
 3414SOL    HW211142   3.067   3.344   1.983
 3415SOL     OW11143   2.813   1.212   0.108
 3415SOL    HW111144   2.887   1.233   0.172
 3415SOL    HW211145   2.817   1.115   0.083
 3416SOL     OW11146   5.385   6.004   6.430
 3416SOL    HW111147   5.459   5.976   6.491
 3416SOL    HW211148   5.386   6.103   6.419
 3417SOL     OW11149   6.218   0.115   2.758
 3417SOL    HW111150   6.188   0.139   2.850
 3417SOL    HW211151   6.242   0.199   2.709
 3418SOL     OW11152   4.381   5.938   1.344
 3418SOL    HW111153   4.347   5.929   1.251
 3418SOL    HW211154   4.480   5.947   1.343
 3419SOL     OW11155   2.726   4.533   5.365
 3419SOL    HW111156   2.782   4.562   5.288
 3419SOL    HW211157   2.774   4.553   5.450
 3420SOL     OW11158   4.989   0.317   2.777
 3420SOL    HW111159   5.013   0.327   2.680
 3420SOL    HW211160   4.912   0.377   2.799
 3421SOL     OW11161   0.601   1.431   4.280
 3421SOL    HW111162   0.625   1.443   4.376
 3421SOL    HW211163   0.684   1.409   4.227
 3422SOL     OW11164   3.228   4.971   1.604
 3422SOL    HW111165   3.255   4.909   1.678
 3422SOL    HW211166   3.300   4.971   1.534
 3423SOL     OW11167   1.657   5.874   5.627
 3423SOL    HW111168   1.747   5.834   5.607
 3423SOL    HW211169   1.585   5.813   5.592
 3424SOL     OW11170   6.084   5.601   2.927
 3424SOL    HW111171   6.068   5.588   3.025
 3424SOL    HW211172   6.159   5.667   2.915
 3425SOL     OW11173   5.836   3.272   6.414
 3425SOL    HW111174   5.782   3.352   6.438
 3425SOL    HW211175   5.876   3.285   6.323
 3426SOL     OW11176   6.463   5.247   5.879
 3426SOL    HW111177   6.546   5.208   5.839
 3426SOL    HW211178   6.383   5.214   5.828
 3427SOL     OW11179   1.762   1.179   6.546
 3427SOL    HW111180   1.859   1.179   6.522
 3427SOL    HW211181   1.717   1.100   6.504
 3428SOL     OW11182   4.118   1.093   3.801
 3428SOL    HW111183   4.106   1.138   3.712
 3428SOL    HW211184   4.190   1.139   3.853
 3429SOL     OW11185   5.614   5.715   0.237
 3429SOL    HW111186   5.574   5.624   0.225
 3429SOL    HW211187   5.587   5.774   0.161
 3430SOL     OW11188   2.781   4.460   6.994
 3430SOL    HW111189   2.796   4.506   0.061
 3430SOL    HW211190   2.859   4.402   6.972
 3431SOL     OW11191   1.434   3.801   1.987
 3431SOL    HW111192   1.425   3.807   1.887
 3431SOL    HW211193   1.474   3.713   2.012
 3432SOL     OW11194   6.921   5.616   6.571
 3432SOL    HW111195   6.890   5.629   6.477
 3432SOL    HW211196   6.985   5.539   6.575
 3433SOL     OW11197   0.705   1.128   0.244
 3433SOL    HW111198   0.766   1.206   0.252
 3433SOL    HW211199   0.686   1.109   0.148
 3434SOL     OW11200   4.428   2.958   1.300
 3434SOL    HW111201   4.370   3.000   1.230
 3434SOL    HW211202   4.439   3.022   1.376
 3435SOL     OW11203   3.242   2.823   1.337
 3435SOL    HW111204   3.294   2.748   1.380
 3435SOL    HW211205   3.149   2.792   1.317
 3436SOL     OW11206   4.602   5.412   5.091
 3436SOL    HW111207   4.635   5.342   5.028
 3436SOL    HW211208   4.551   5.368   5.166
 3437SOL     OW11209   2.769   5.427   0.709
 3437SOL    HW111210   2.692   5.365   0.695
 3437SOL    HW211211   2.761   5.470   0.799
 3438SOL     OW11212   2.446   4.244   0.607
 3438SOL    HW111213   2.466   4.179   0.681
 3438SOL    HW211214   2.445   4.337   0.644
 3439SOL     OW11215   3.086   5.630   0.981
 3439SOL    HW111216   3.107   5.538   1.016
 3439SOL    HW211217   3.081   5.694   1.057
 3440SOL     OW11218   4.304   4.744   5.575
 3440SOL    HW111219   4.330   4.824   5.628
 3440SOL    HW211220   4.217   4.708   5.609
 3441SOL     OW11221   0.190   5.537   5.696
 3441SOL    HW111222   0.114   5.577   5.645
 3441SOL    HW211223   0.267   5.600   5.697
 3442SOL     OW11224   2.057   1.849   0.467
 3442SOL    HW111225   2.048   1.844   0.567
 3442SOL    HW211226   1.997   1.921   0.432
 3443SOL     OW11227   6.881   5.676   2.028
 3443SOL    HW111228   6.805   5.667   2.093
 3443SOL    HW211229   6.965   5.642   2.071
 3444SOL     OW11230   1.481   3.833   5.754
 3444SOL    HW111231   1.529   3.838   5.841
 3444SOL    HW211232   1.547   3.817   5.680
 3445SOL     OW11233   5.733   4.749   4.099
 3445SOL    HW111234   5.673   4.776   4.023
 3445SOL    HW211235   5.761   4.654   4.087
 3446SOL     OW11236   5.298   1.192   6.932
 3446SOL    HW111237   5.395   1.205   6.953
 3446SOL    HW211238   5.258   1.279   6.904
 3447SOL     OW11239   5.473   1.589   6.266
 3447SOL    HW111240   5.430   1.512   6.219
 3447SOL    HW211241   5.545   1.627   6.207
 3448SOL     OW11242   0.745   5.557   4.819
 3448SOL    HW111243   0.794   5.612   4.751
 3448SOL    HW211244   0.713   5.615   4.893
 3449SOL     OW11245   1.107   4.431   4.547
 3449SOL    HW111246   1.180   4.495   4.572
 3449SOL    HW211247   1.030   4.481   4.509
 3450SOL     OW11248   1.901   6.549   3.256
 3450SOL    HW111249   1.832   6.477   3.268
 3450SOL    HW211250   1.992   6.509   3.256
 3451SOL     OW11251   2.353   1.594   1.297
 3451SOL    HW111252   2.438   1.624   1.254
 3451SOL    HW211253   2.276   1.640   1.253
 3452SOL     OW11254   4.450   1.163   5.332
 3452SOL    HW111255   4.422   1.078   5.287
 3452SOL    HW211256   4.481   1.228   5.263
 3453SOL     OW11257   4.276   6.851   5.668
 3453SOL    HW111258   4.203   6.918   5.683
 3453SOL    HW211259   4.243   6.759   5.690
 3454SOL     OW11260   1.420   3.340   4.078
 3454SOL    HW111261   1.436   3.304   3.986
 3454SOL    HW211262   1.442   3.438   4.079
 3455SOL     OW11263   1.597   3.807   6.006
 3455SOL    HW111264   1.597   3.709   6.025
 3455SOL    HW211265   1.554   3.856   6.082
 3456SOL     OW11266   4.461   4.960   2.838
 3456SOL    HW111267   4.502   4.875   2.806
 3456SOL    HW211268   4.522   5.036   2.817
 3457SOL     OW11269   4.268   4.010   0.327
 3457SOL    HW111270   4.220   4.060   0.399
 3457SOL    HW211271   4.362   3.992   0.356
 3458SOL     OW11272   4.199   1.606   1.013
 3458SOL    HW111273   4.271   1.547   0.978
 3458SOL    HW211274   4.226   1.702   1.004
 3459SOL     OW11275   6.430   0.819   3.052
 3459SOL    HW111276   6.431   0.780   2.960
 3459SOL    HW211277   6.335   0.840   3.078
 3460SOL     OW11278   5.000   1.832   5.050
 3460SOL    HW111279   4.982   1.921   5.091
 3460SOL    HW211280   4.917   1.797   5.008
 3461SOL     OW11281   4.999   4.373   4.634
 3461SOL    HW111282   5.064   4.305   4.667
 3461SOL    HW211283   4.907   4.333   4.631
 3462SOL     OW11284   1.223   3.816   6.976
 3462SOL    HW111285   1.298   3.789   0.016
 3462SOL    HW211286   1.152   3.745   6.978
 3463SOL     OW11287   6.731   3.505   6.693
 3463SOL    HW111288   6.685   3.530   6.607
 3463SOL    HW211289   6.670   3.449   6.748
 3464SOL     OW11290   0.579   4.884   4.858
 3464SOL    HW111291   0.535   4.798   4.834
 3464SOL    HW211292   0.652   4.904   4.793
 3465SOL     OW11293   1.146   2.617   0.849
 3465SOL    HW111294   1.094   2.679   0.790
 3465SOL    HW211295   1.102   2.527   0.850
 3466SOL     OW11296   4.814   4.197   3.351
 3466SOL    HW111297   4.792   4.150   3.266
 3466SOL    HW211298   4.876   4.141   3.405
 3467SOL     OW11299   1.901   1.491   6.081
 3467SOL    HW111300   1.867   1.511   6.174
 3467SOL    HW211301   1.876   1.398   6.056
 3468SOL     OW11302   5.483   4.867   1.776
 3468SOL    HW111303   5.576   4.874   1.814
 3468SOL    HW211304   5.417   4.897   1.846
 3469SOL     OW11305   5.784   3.457   0.784
 3469SOL    HW111306   5.881   3.479   0.770
 3469SOL    HW211307   5.734   3.470   0.699
 3470SOL     OW11308   6.306   6.017   6.529
 3470SOL    HW111309   6.266   6.070   6.455
 3470SOL    HW211310   6.249   5.938   6.549
 3471SOL     OW11311   3.814   6.797   4.418
 3471SOL    HW111312   3.912   6.790   4.403
 3471SOL    HW211313   3.774   6.706   4.422
 3472SOL     OW11314   3.284   0.724   4.003
 3472SOL    HW111315   3.184   0.718   3.996
 3472SOL    HW211316   3.324   0.642   3.964
 3473SOL     OW11317   4.933   6.648   3.456
 3473SOL    HW111318   4.943   6.553   3.427
 3473SOL    HW211319   4.839   6.666   3.482
 3474SOL     OW11320   6.023   5.276   0.996
 3474SOL    HW111321   6.069   5.266   1.085
 3474SOL    HW211322   5.997   5.371   0.982
 3475SOL     OW11323   1.917   5.917   5.077
 3475SOL    HW111324   1.956   6.009   5.069
 3475SOL    HW211325   1.957   5.858   5.007
 3476SOL     OW11326   2.531   1.960   2.944
 3476SOL    HW111327   2.558   1.870   2.979
 3476SOL    HW211328   2.579   1.978   2.858
 3477SOL     OW11329   4.820   5.678   2.467
 3477SOL    HW111330   4.796   5.616   2.542
 3477SOL    HW211331   4.909   5.653   2.430
 3478SOL     OW11332   3.755   5.277   0.077
 3478SOL    HW111333   3.713   5.210   0.017
 3478SOL    HW211334   3.758   5.242   0.170
 3479SOL     OW11335   1.887   0.989   0.663
 3479SOL    HW111336   1.846   0.998   0.572
 3479SOL    HW211337   1.947   1.067   0.680
 3480SOL     OW11338   2.030   6.739   4.698
 3480SOL    HW111339   2.021   6.813   4.765
 3480SOL    HW211340   2.032   6.778   4.606
 3481SOL     OW11341   1.625   4.661   0.682
 3481SOL    HW111342   1.688   4.646   0.606
 3481SOL    HW211343   1.656   4.611   0.763
 3482SOL     OW11344   0.198   1.901   1.315
 3482SOL    HW111345   0.120   1.862   1.267
 3482SOL    HW211346   0.191   2.001   1.316
 3483SOL     OW11347   4.296   1.869   1.013
 3483SOL    HW111348   4.365   1.926   1.059
 3483SOL    HW211349   4.219   1.927   0.985
 3484SOL     OW11350   3.558   4.125   3.485
 3484SOL    HW111351   3.515   4.117   3.575
 3484SOL    HW211352   3.652   4.155   3.496
 3485SOL     OW11353   6.297   2.837   3.993
 3485SOL    HW111354   6.387   2.879   3.975
 3485SOL    HW211355   6.272   2.853   4.089
 3486SOL     OW11356   6.081   1.708   2.863
 3486SOL    HW111357   6.123   1.793   2.830
 3486SOL    HW211358   6.103   1.633   2.800
 3487SOL     OW11359   1.327   6.416   1.549
 3487SOL    HW111360   1.284   6.342   1.602
 3487SOL    HW211361   1.372   6.377   1.469
 3488SOL     OW11362   6.581   2.740   5.374
 3488SOL    HW111363   6.672   2.768   5.404
 3488SOL    HW211364   6.559   2.786   5.288
 3489SOL     OW11365   2.306   5.680   0.178
 3489SOL    HW111366   2.253   5.696   0.095
 3489SOL    HW211367   2.349   5.766   0.207
 3490SOL     OW11368   5.440   3.684   0.375
 3490SOL    HW111369   5.399   3.719   0.291
 3490SOL    HW211370   5.527   3.640   0.354
 3491SOL     OW11371   6.140   2.498   5.181
 3491SOL    HW111372   6.066   2.432   5.192
 3491SOL    HW211373   6.131   2.569   5.251
 3492SOL     OW11374   0.965   4.152   6.448
 3492SOL    HW111375   0.974   4.148   6.547
 3492SOL    HW211376   0.870   4.134   6.422
 3493SOL     OW11377   0.376   4.987   1.044
 3493SOL    HW111378   0.343   5.014   1.135
 3493SOL    HW211379   0.313   5.020   0.974
 3494SOL     OW11380   3.096   6.760   1.169
 3494SOL    HW111381   3.110   6.732   1.264
 3494SOL    HW211382   2.999   6.781   1.155
 3495SOL     OW11383   5.527   4.236   5.939
 3495SOL    HW111384   5.488   4.270   5.853
 3495SOL    HW211385   5.485   4.284   6.016
 3496SOL     OW11386   1.018   6.569   1.301
 3496SOL    HW111387   1.022   6.650   1.242
 3496SOL    HW211388   1.078   6.498   1.263
 3497SOL     OW11389   3.066   0.193   4.875
 3497SOL    HW111390   3.047   0.114   4.816
 3497SOL    HW211391   3.099   0.161   4.963
 3498SOL     OW11392   1.801   1.738   0.795
 3498SOL    HW111393   1.762   1.655   0.833
 3498SOL    HW211394   1.893   1.719   0.761
 3499SOL     OW11395   6.884   4.113   3.172
 3499SOL    HW111396   6.801   4.124   3.117
 3499SOL    HW211397   6.963   4.100   3.112
 3500SOL     OW11398   6.970   2.459   0.434
 3500SOL    HW111399   6.912   2.397   0.381
 3500SOL    HW211400   6.945   2.452   0.531
 3501SOL     OW11401   0.033   5.095   3.016
 3501SOL    HW111402   0.066   5.100   2.922
 3501SOL    HW211403   7.007   5.007   3.030
 3502SOL     OW11404   1.110   6.650   1.536
 3502SOL    HW111405   1.063   6.631   1.450
 3502SOL    HW211406   1.173   6.574   1.557
 3503SOL     OW11407   2.922   1.263   3.376
 3503SOL    HW111408   3.000   1.213   3.338
 3503SOL    HW211409   2.927   1.359   3.347
 3504SOL     OW11410   2.049   2.263   2.280
 3504SOL    HW111411   1.958   2.277   2.319
 3504SOL    HW211412   2.064   2.166   2.263
 3505SOL     OW11413   4.236   0.008   4.586
 3505SOL    HW111414   4.239   6.959   4.515
 3505SOL    HW211415   4.151   7.020   4.638
 3506SOL     OW11416   6.317   3.099   3.110
 3506SOL    HW111417   6.392   3.124   3.171
 3506SOL    HW211418   6.341   3.125   3.016
 3507SOL     OW11419   0.063   6.832   5.299
 3507SOL    HW111420   0.137   6.765   5.294
 3507SOL    HW211421   0.069   6.894   5.220
 3508SOL     OW11422   0.534   4.445   6.994
 3508SOL    HW111423   0.497   4.528   6.951
 3508SOL    HW211424   0.531   4.456   0.073
 3509SOL     OW11425   3.637   6.743   0.153
 3509SOL    HW111426   3.583   6.673   0.107
 3509SOL    HW211427   3.728   6.706   0.173
 3510SOL     OW11428   2.319   1.466   3.301
 3510SOL    HW111429   2.261   1.470   3.219
 3510SOL    HW211430   2.398   1.408   3.282
 3511SOL     OW11431   1.038   1.290   3.921
 3511SOL    HW111432   1.058   1.201   3.963
 3511SOL    HW211433   1.018   1.277   3.824
 3512SOL     OW11434   3.228   2.934   2.094
 3512SOL    HW111435   3.149   2.936   2.033
 3512SOL    HW211436   3.306   2.892   2.047
 3513SOL     OW11437   6.831   4.955   0.254
 3513SOL    HW111438   6.835   4.861   0.221
 3513SOL    HW211439   6.749   4.967   0.310
 3514SOL     OW11440   3.208   5.649   3.603
 3514SOL    HW111441   3.176   5.681   3.514
 3514SOL    HW211442   3.150   5.574   3.634
 3515SOL     OW11443   3.713   5.504   4.238
 3515SOL    HW111444   3.643   5.543   4.298
 3515SOL    HW211445   3.779   5.452   4.293
 3516SOL     OW11446   1.755   1.432   0.574
 3516SOL    HW111447   1.834   1.435   0.635
 3516SOL    HW211448   1.739   1.338   0.544
 3517SOL     OW11449   0.498   1.234   6.534
 3517SOL    HW111450   0.416   1.210   6.585
 3517SOL    HW211451   0.501   1.180   6.450
 3518SOL     OW11452   4.321   3.762   6.084
 3518SOL    HW111453   4.379   3.748   6.004
 3518SOL    HW211454   4.238   3.707   6.075
 3519SOL     OW11455   4.367   0.586   6.251
 3519SOL    HW111456   4.405   0.532   6.176
 3519SOL    HW211457   4.267   0.574   6.253
 3520SOL     OW11458   4.303   5.216   1.332
 3520SOL    HW111459   4.305   5.286   1.404
 3520SOL    HW211460   4.244   5.247   1.257
 3521SOL     OW11461   0.334   1.972   5.450
 3521SOL    HW111462   0.293   1.880   5.449
 3521SOL    HW211463   0.361   1.995   5.543
 3522SOL     OW11464   2.474   0.208   0.904
 3522SOL    HW111465   2.564   0.245   0.926
 3522SOL    HW211466   2.410   0.284   0.889
 3523SOL     OW11467   2.243   4.688   4.480
 3523SOL    HW111468   2.342   4.696   4.464
 3523SOL    HW211469   2.224   4.696   4.577
 3524SOL     OW11470   2.823   1.664   3.279
 3524SOL    HW111471   2.870   1.751   3.298
 3524SOL    HW211472   2.785   1.628   3.364
 3525SOL     OW11473   2.177   3.397   3.794
 3525SOL    HW111474   2.138   3.489   3.797
 3525SOL    HW211475   2.188   3.362   3.887
 3526SOL     OW11476   3.508   5.675   3.861
 3526SOL    HW111477   3.537   5.695   3.767
 3526SOL    HW211478   3.474   5.581   3.865
 3527SOL     OW11479   0.064   3.929   6.824
 3527SOL    HW111480   0.057   4.012   6.769
 3527SOL    HW211481   7.006   3.871   6.807
 3528SOL     OW11482   0.703   6.167   3.778
 3528SOL    HW111483   0.744   6.241   3.725
 3528SOL    HW211484   0.604   6.181   3.784
 3529SOL     OW11485   3.696   6.979   0.237
 3529SOL    HW111486   3.652   6.994   0.326
 3529SOL    HW211487   3.668   6.889   0.202
 3530SOL     OW11488   2.037   5.128   2.204
 3530SOL    HW111489   1.964   5.109   2.269
 3530SOL    HW211490   2.101   5.194   2.243
 3531SOL     OW11491   5.426   4.105   6.968
 3531SOL    HW111492   5.392   4.174   6.903
 3531SOL    HW211493   5.478   4.035   6.919
 3532SOL     OW11494   2.630   0.326   6.283
 3532SOL    HW111495   2.727   0.351   6.284
 3532SOL    HW211496   2.604   0.292   6.374
 3533SOL     OW11497   1.403   1.266   2.780
 3533SOL    HW111498   1.382   1.338   2.714
 3533SOL    HW211499   1.320   1.213   2.799
 3534SOL     OW11500   4.632   6.834   4.503
 3534SOL    HW111501   4.671   6.743   4.518
 3534SOL    HW211502   4.571   6.856   4.578
 3535SOL     OW11503   3.921   4.528   6.995
 3535SOL    HW111504   3.837   4.519   6.941
 3535SOL    HW211505   3.902   4.582   0.056
 3536SOL     OW11506   2.174   3.085   2.569
 3536SOL    HW111507   2.114   3.163   2.549
 3536SOL    HW211508   2.186   3.077   2.668
 3537SOL     OW11509   3.105   5.134   1.399
 3537SOL    HW111510   3.127   5.126   1.497
 3537SOL    HW211511   3.011   5.167   1.389
 3538SOL     OW11512   2.732   0.183   3.853
 3538SOL    HW111513   2.781   0.159   3.937
 3538SOL    HW211514   2.744   0.110   3.785
 3539SOL     OW11515   5.134   5.564   6.297
 3539SOL    HW111516   5.147   5.661   6.319
 3539SOL    HW211517   5.183   5.507   6.362
 3540SOL     OW11518   5.400   3.746   6.965
 3540SOL    HW111519   5.478   3.708   6.914
 3540SOL    HW211520   5.401   3.710   0.037
 3541SOL     OW11521   0.271   2.958   2.508
 3541SOL    HW111522   0.284   3.003   2.420
 3541SOL    HW211523   0.344   2.892   2.523
 3542SOL     OW11524   6.333   0.868   6.909
 3542SOL    HW111525   6.271   0.945   6.891
 3542SOL    HW211526   6.329   0.804   6.832
 3543SOL     OW11527   0.486   3.050   4.913
 3543SOL    HW111528   0.544   2.972   4.934
 3543SOL    HW211529   0.538   3.134   4.925
 3544SOL     OW11530   4.087   4.613   5.667
 3544SOL    HW111531   4.005   4.636   5.720
 3544SOL    HW211532   4.135   4.537   5.710
 3545SOL     OW11533   2.629   6.393   1.979
 3545SOL    HW111534   2.647   6.333   2.058
 3545SOL    HW211535   2.591   6.479   2.011
 3546SOL     OW11536   6.857   4.253   1.207
 3546SOL    HW111537   6.761   4.246   1.232
 3546SOL    HW211538   6.872   4.213   1.116
 3547SOL     OW11539   1.847   4.147   4.339
 3547SOL    HW111540   1.897   4.222   4.297
 3547SOL    HW211541   1.823   4.171   4.433
 3548SOL     OW11542   6.206   6.590   5.365
 3548SOL    HW111543   6.233   6.495   5.379
 3548SOL    HW211544   6.119   6.607   5.411
 3549SOL     OW11545   1.592   0.210   6.584
 3549SOL    HW111546   1.593   0.213   6.684
 3549SOL    HW211547   1.667   0.153   6.551
 3550SOL     OW11548   6.631   2.301   4.586
 3550SOL    HW111549   6.691   2.321   4.663
 3550SOL    HW211550   6.560   2.237   4.615
 3551SOL     OW11551   6.496   1.884   5.498
 3551SOL    HW111552   6.508   1.820   5.423
 3551SOL    HW211553   6.586   1.917   5.528
 3552SOL     OW11554   6.256   0.789   3.994
 3552SOL    HW111555   6.192   0.751   3.928
 3552SOL    HW211556   6.255   0.734   4.078
 3553SOL     OW11557   5.773   6.006   6.555
 3553SOL    HW111558   5.867   5.996   6.588
 3553SOL    HW211559   5.766   6.089   6.499
 3554SOL     OW11560   5.957   3.280   6.979
 3554SOL    HW111561   5.925   3.253   6.888
 3554SOL    HW211562   5.991   3.373   6.976
 3555SOL     OW11563   2.823   1.070   5.047
 3555SOL    HW111564   2.759   1.142   5.021
 3555SOL    HW211565   2.778   1.006   5.109
 3556SOL     OW11566   5.224   1.565   0.691
 3556SOL    HW111567   5.240   1.568   0.789
 3556SOL    HW211568   5.303   1.602   0.643
 3557SOL     OW11569   5.018   0.405   1.120
 3557SOL    HW111570   5.110   0.444   1.129
 3557SOL    HW211571   4.950   0.471   1.152
 3558SOL     OW11572   4.393   5.803   3.559
 3558SOL    HW111573   4.317   5.823   3.498
 3558SOL    HW211574   4.389   5.706   3.586
 3559SOL     OW11575   4.401   6.263   6.981
 3559SOL    HW111576   4.399   6.179   6.927
 3559SOL    HW211577   4.457   6.331   6.934
 3560SOL     OW11578   1.764   5.710   4.288
 3560SOL    HW111579   1.764   5.709   4.188
 3560SOL    HW211580   1.777   5.803   4.321
 3561SOL     OW11581   4.377   3.114   6.380
 3561SOL    HW111582   4.291   3.063   6.371
 3561SOL    HW211583   4.361   3.195   6.437
 3562SOL     OW11584   2.846   1.069   0.707
 3562SOL    HW111585   2.836   1.164   0.736
 3562SOL    HW211586   2.846   1.010   0.787
 3563SOL     OW11587   6.057   2.054   6.030
 3563SOL    HW111588   6.005   2.107   5.963
 3563SOL    HW211589   6.000   2.035   6.110
 3564SOL     OW11590   5.851   2.730   2.794
 3564SOL    HW111591   5.788   2.718   2.871
 3564SOL    HW211592   5.848   2.649   2.736
 3565SOL     OW11593   5.100   6.451   5.237
 3565SOL    HW111594   5.165   6.503   5.293
 3565SOL    HW211595   5.130   6.356   5.230
 3566SOL     OW11596   0.640   0.908   4.599
 3566SOL    HW111597   0.645   0.884   4.696
 3566SOL    HW211598   0.727   0.887   4.555
 3567SOL     OW11599   1.507   4.416   6.730
 3567SOL    HW111600   1.476   4.374   6.815
 3567SOL    HW211601   1.436   4.477   6.695
 3568SOL     OW11602   1.953   3.956   5.407
 3568SOL    HW111603   1.953   3.861   5.374
 3568SOL    HW211604   1.955   3.956   5.507
 3569SOL     OW11605   0.495   0.135   3.309
 3569SOL    HW111606   0.421   0.123   3.242
 3569SOL    HW211607   0.564   0.196   3.271
 3570SOL     OW11608   0.340   1.607   4.659
 3570SOL    HW111609   0.368   1.685   4.603
 3570SOL    HW211610   0.241   1.608   4.671
 3571SOL     OW11611   0.013   5.553   4.990
 3571SOL    HW111612   6.996   5.589   5.075
 3571SOL    HW211613   0.073   5.476   5.010
 3572SOL     OW11614   5.070   6.901   5.517
 3572SOL    HW111615   5.149   6.959   5.538
 3572SOL    HW211616   5.093   6.805   5.536
 3573SOL     OW11617   0.073   2.860   2.123
 3573SOL    HW111618   7.004   2.827   2.154
 3573SOL    HW211619   0.062   2.950   2.080
 3574SOL     OW11620   1.063   3.880   0.244
 3574SOL    HW111621   1.053   3.793   0.196
 3574SOL    HW211622   1.027   3.954   0.186
 3575SOL     OW11623   6.766   0.510   2.512
 3575SOL    HW111624   6.800   0.503   2.418
 3575SOL    HW211625   6.720   0.598   2.524
 3576SOL     OW11626   0.635   1.058   0.832
 3576SOL    HW111627   0.686   1.127   0.884
 3576SOL    HW211628   0.631   1.084   0.736
 3577SOL     OW11629   2.012   4.572   0.471
 3577SOL    HW111630   2.015   4.522   0.557
 3577SOL    HW211631   2.086   4.639   0.468
 3578SOL     OW11632   3.562   4.925   1.713
 3578SOL    HW111633   3.574   4.831   1.744
 3578SOL    HW211634   3.534   4.925   1.617
 3579SOL     OW11635   2.688   2.742   6.762
 3579SOL    HW111636   2.696   2.824   6.705
 3579SOL    HW211637   2.698   2.767   6.858
 3580SOL     OW11638   5.527   0.764   2.406
 3580SOL    HW111639   5.508   0.835   2.473
 3580SOL    HW211640   5.525   0.674   2.450
 3581SOL     OW11641   0.215   1.887   2.530
 3581SOL    HW111642   0.126   1.899   2.574
 3581SOL    HW211643   0.270   1.823   2.583
 3582SOL     OW11644   0.707   0.588   6.018
 3582SOL    HW111645   0.685   0.518   5.951
 3582SOL    HW211646   0.664   0.675   5.991
 3583SOL     OW11647   1.086   6.958   2.293
 3583SOL    HW111648   1.114   0.032   2.280
 3583SOL    HW211649   0.988   6.949   2.273
 3584SOL     OW11650   5.148   0.524   5.190
 3584SOL    HW111651   5.124   0.607   5.241
 3584SOL    HW211652   5.115   0.533   5.096
 3585SOL     OW11653   2.107   5.044   2.527
 3585SOL    HW111654   2.075   5.133   2.495
 3585SOL    HW211655   2.184   5.056   2.589
 3586SOL     OW11656   1.258   1.264   6.722
 3586SOL    HW111657   1.306   1.256   6.809
 3586SOL    HW211658   1.163   1.235   6.733
 3587SOL     OW11659   3.969   6.212   5.513
 3587SOL    HW111660   3.949   6.265   5.431
 3587SOL    HW211661   3.883   6.189   5.560
 3588SOL     OW11662   2.783   2.486   5.225
 3588SOL    HW111663   2.784   2.407   5.163
 3588SOL    HW211664   2.701   2.540   5.209
 3589SOL     OW11665   2.850   6.211   4.820
 3589SOL    HW111666   2.924   6.193   4.884
 3589SOL    HW211667   2.767   6.234   4.870
 3590SOL     OW11668   1.106   6.133   6.826
 3590SOL    HW111669   1.178   6.155   6.891
 3590SOL    HW211670   1.018   6.129   6.873
 3591SOL     OW11671   4.625   2.289   4.093
 3591SOL    HW111672   4.574   2.266   4.176
 3591SOL    HW211673   4.718   2.315   4.117
 3592SOL     OW11674   5.651   1.019   2.291
 3592SOL    HW111675   5.649   1.108   2.245
 3592SOL    HW211676   5.558   0.985   2.303
 3593SOL     OW11677   1.149   4.887   4.846
 3593SOL    HW111678   1.227   4.825   4.838
 3593SOL    HW211679   1.066   4.841   4.815
 3594SOL     OW11680   4.453   2.028   4.517
 3594SOL    HW111681   4.536   2.073   4.550
 3594SOL    HW211682   4.470   1.989   4.426
 3595SOL     OW11683   1.986   6.807   6.590
 3595SOL    HW111684   2.011   6.896   6.551
 3595SOL    HW211685   2.001   6.809   6.689
 3596SOL     OW11686   6.091   3.367   2.702
 3596SOL    HW111687   6.078   3.466   2.704
 3596SOL    HW211688   6.017   3.325   2.648
 3597SOL     OW11689   3.955   0.330   3.643
 3597SOL    HW111690   4.046   0.338   3.683
 3597SOL    HW211691   3.897   0.276   3.702
 3598SOL     OW11692   2.129   6.992   0.009
 3598SOL    HW111693   2.131   6.929   6.953
 3598SOL    HW211694   2.215   6.985   0.061
 3599SOL     OW11695   0.548   2.205   4.356
 3599SOL    HW111696   0.470   2.198   4.294
 3599SOL    HW211697   0.515   2.227   4.448
 3600SOL     OW11698   6.574   6.388   0.958
 3600SOL    HW111699   6.480   6.378   0.992
 3600SOL    HW211700   6.592   6.317   0.889
 3601SOL     OW11701   6.981   3.919   6.083
 3601SOL    HW111702   0.016   3.933   6.164
 3601SOL    HW211703   0.018   3.889   6.007
 3602SOL     OW11704   3.725   2.245   0.972
 3602SOL    HW111705   3.777   2.309   0.916
 3602SOL    HW211706   3.782   2.166   0.995
 3603SOL     OW11707   3.805   5.482   5.010
 3603SOL    HW111708   3.882   5.443   5.059
 3603SOL    HW211709   3.790   5.434   4.924
 3604SOL     OW11710   5.583   4.101   3.557
 3604SOL    HW111711   5.565   4.180   3.616
 3604SOL    HW211712   5.645   4.038   3.603
 3605SOL     OW11713   5.615   1.085   6.654
 3605SOL    HW111714   5.561   1.109   6.735
 3605SOL    HW211715   5.555   1.081   6.574
 3606SOL     OW11716   1.898   3.915   2.652
 3606SOL    HW111717   1.925   4.009   2.636
 3606SOL    HW211718   1.832   3.911   2.727
 3607SOL     OW11719   4.373   6.491   4.960
 3607SOL    HW111720   4.418   6.572   4.922
 3607SOL    HW211721   4.430   6.451   5.031
 3608SOL     OW11722   6.765   3.509   2.328
 3608SOL    HW111723   6.741   3.571   2.253
 3608SOL    HW211724   6.765   3.559   2.414
 3609SOL     OW11725   0.983   1.163   3.676
 3609SOL    HW111726   1.019   1.097   3.609
 3609SOL    HW211727   0.887   1.183   3.655
 3610SOL     OW11728   1.543   4.792   5.171
 3610SOL    HW111729   1.557   4.693   5.169
 3610SOL    HW211730   1.474   4.817   5.103
 3611SOL     OW11731   4.315   4.992   6.561
 3611SOL    HW111732   4.370   5.034   6.490
 3611SOL    HW211733   4.249   4.929   6.519
 3612SOL     OW11734   2.647   5.763   1.483
 3612SOL    HW111735   2.628   5.795   1.391
 3612SOL    HW211736   2.690   5.672   1.479
 3613SOL     OW11737   5.574   4.362   6.320
 3613SOL    HW111738   5.484   4.353   6.364
 3613SOL    HW211739   5.610   4.454   6.335
 3614SOL     OW11740   3.960   3.205   4.897
 3614SOL    HW111741   3.983   3.207   4.800
 3614SOL    HW211742   3.942   3.111   4.925
 3615SOL     OW11743   6.162   6.788   6.858
 3615SOL    HW111744   6.250   6.743   6.845
 3615SOL    HW211745   6.117   6.752   6.939
 3616SOL     OW11746   0.082   1.230   4.158
 3616SOL    HW111747   0.084   1.256   4.061
 3616SOL    HW211748   0.147   1.287   4.209
 3617SOL     OW11749   0.046   0.818   1.424
 3617SOL    HW111750   0.006   0.839   1.513
 3617SOL    HW211751   0.008   0.732   1.390
 3618SOL     OW11752   3.626   5.240   6.412
 3618SOL    HW111753   3.587   5.272   6.498
 3618SOL    HW211754   3.632   5.140   6.413
 3619SOL     OW11755   4.882   3.303   3.793
 3619SOL    HW111756   4.960   3.344   3.747
 3619SOL    HW211757   4.861   3.215   3.751
 3620SOL     OW11758   5.792   1.779   5.479
 3620SOL    HW111759   5.864   1.752   5.543
 3620SOL    HW211760   5.704   1.749   5.515
 3621SOL     OW11761   2.563   2.461   6.347
 3621SOL    HW111762   2.604   2.480   6.436
 3621SOL    HW211763   2.578   2.539   6.287
 3622SOL     OW11764   1.398   4.144   0.829
 3622SOL    HW111765   1.428   4.217   0.769
 3622SOL    HW211766   1.477   4.106   0.877
 3623SOL     OW11767   6.611   5.196   4.605
 3623SOL    HW111768   6.634   5.287   4.639
 3623SOL    HW211769   6.524   5.167   4.644
 3624SOL     OW11770   1.964   6.937   1.913
 3624SOL    HW111771   1.968   6.870   1.839
 3624SOL    HW211772   1.868   6.962   1.930
 3625SOL     OW11773   1.607   2.130   5.258
 3625SOL    HW111774   1.517   2.171   5.276
 3625SOL    HW211775   1.634   2.073   5.335
 3626SOL     OW11776   1.867   3.366   5.413
 3626SOL    HW111777   1.835   3.274   5.388
 3626SOL    HW211778   1.965   3.372   5.397
 3627SOL     OW11779   4.145   3.329   4.221
 3627SOL    HW111780   4.070   3.277   4.264
 3627SOL    HW211781   4.232   3.284   4.241
 3628SOL     OW11782   2.633   5.180   4.054
 3628SOL    HW111783   2.550   5.188   3.998
 3628SOL    HW211784   2.643   5.262   4.110
 3629SOL     OW11785   6.144   3.778   4.643
 3629SOL    HW111786   6.169   3.824   4.728
 3629SOL    HW211787   6.226   3.741   4.599
 3630SOL     OW11788   6.254   1.850   4.590
 3630SOL    HW111789   6.210   1.939   4.594
 3630SOL    HW211790   6.303   1.833   4.676
 3631SOL     OW11791   2.289   1.076   4.231
 3631SOL    HW111792   2.282   1.061   4.330
 3631SOL    HW211793   2.328   0.994   4.188
 3632SOL     OW11794   4.993   6.840   6.585
 3632SOL    HW111795   5.009   6.936   6.610
 3632SOL    HW211796   4.982   6.832   6.486
 3633SOL     OW11797   1.111   2.761   5.625
 3633SOL    HW111798   1.150   2.796   5.539
 3633SOL    HW211799   1.049   2.686   5.605
 3634SOL     OW11800   2.181   4.588   6.633
 3634SOL    HW111801   2.091   4.546   6.640
 3634SOL    HW211802   2.174   4.686   6.652
 3635SOL     OW11803   1.538   2.112   4.337
 3635SOL    HW111804   1.502   2.206   4.341
 3635SOL    HW211805   1.637   2.115   4.329
 3636SOL     OW11806   0.719   6.528   1.358
 3636SOL    HW111807   0.818   6.534   1.343
 3636SOL    HW211808   0.699   6.552   1.453
 3637SOL     OW11809   5.565   1.339   2.381
 3637SOL    HW111810   5.604   1.431   2.374
 3637SOL    HW211811   5.545   1.319   2.477
 3638SOL     OW11812   6.646   5.161   3.305
 3638SOL    HW111813   6.589   5.200   3.232
 3638SOL    HW211814   6.722   5.111   3.265
 3639SOL     OW11815   2.677   5.708   7.007
 3639SOL    HW111816   2.753   5.718   6.943
 3639SOL    HW211817   2.631   5.621   6.991
 3640SOL     OW11818   2.395   6.915   3.342
 3640SOL    HW111819   2.367   7.010   3.352
 3640SOL    HW211820   2.478   6.911   3.286
 3641SOL     OW11821   2.141   0.547   4.940
 3641SOL    HW111822   2.190   0.540   5.026
 3641SOL    HW211823   2.106   0.641   4.928
 3642SOL     OW11824   6.233   0.419   2.985
 3642SOL    HW111825   6.144   0.461   2.972
 3642SOL    HW211826   6.223   0.319   2.988
 3643SOL     OW11827   3.752   0.025   3.811
 3643SOL    HW111828   3.826   0.067   3.864
 3643SOL    HW211829   3.792   6.989   3.738
 3644SOL     OW11830   6.141   0.602   1.585
 3644SOL    HW111831   6.083   0.567   1.512
 3644SOL    HW211832   6.181   0.689   1.558
 3645SOL     OW11833   4.275   5.290   3.840
 3645SOL    HW111834   4.287   5.389   3.832
 3645SOL    HW211835   4.224   5.270   3.924
 3646SOL     OW11836   0.650   5.259   5.143
 3646SOL    HW111837   0.722   5.310   5.189
 3646SOL    HW211838   0.561   5.301   5.163
 3647SOL     OW11839   4.229   2.815   0.824
 3647SOL    HW111840   4.302   2.750   0.805
 3647SOL    HW211841   4.240   2.895   0.766
 3648SOL     OW11842   2.077   6.354   3.850
 3648SOL    HW111843   2.080   6.356   3.750
 3648SOL    HW211844   2.128   6.431   3.887
 3649SOL     OW11845   3.789   2.906   3.045
 3649SOL    HW111846   3.876   2.867   3.077
 3649SOL    HW211847   3.794   2.920   2.946
 3650SOL     OW11848   5.564   5.802   1.958
 3650SOL    HW111849   5.577   5.818   1.860
 3650SOL    HW211850   5.536   5.888   2.002
 3651SOL     OW11851   1.854   5.409   1.619
 3651SOL    HW111852   1.918   5.332   1.621
 3651SOL    HW211853   1.769   5.384   1.664
 3652SOL     OW11854   4.352   6.385   3.990
 3652SOL    HW111855   4.417   6.458   3.970
 3652SOL    HW211856   4.267   6.401   3.940
 3653SOL     OW11857   0.093   3.687   3.243
 3653SOL    HW111858   0.007   3.673   3.194
 3653SOL    HW211859   0.073   3.725   3.334
 3654SOL     OW11860   2.343   6.896   1.802
 3654SOL    HW111861   2.354   6.902   1.703
 3654SOL    HW211862   2.260   6.843   1.823
 3655SOL     OW11863   6.266   1.092   3.930
 3655SOL    HW111864   6.253   0.994   3.941
 3655SOL    HW211865   6.310   1.110   3.842
 3656SOL     OW11866   1.733   1.741   2.626
 3656SOL    HW111867   1.752   1.704   2.717
 3656SOL    HW211868   1.747   1.669   2.558
 3657SOL     OW11869   5.745   4.916   1.182
 3657SOL    HW111870   5.695   4.980   1.123
 3657SOL    HW211871   5.744   4.949   1.276
 3658SOL     OW11872   2.805   4.223   5.589
 3658SOL    HW111873   2.742   4.241   5.665
 3658SOL    HW211874   2.759   4.246   5.502
 3659SOL     OW11875   1.589   3.114   6.920
 3659SOL    HW111876   1.614   3.085   7.012
 3659SOL    HW211877   1.498   3.078   6.897
 3660SOL     OW11878   4.993   3.731   0.958
 3660SOL    HW111879   4.912   3.740   1.016
 3660SOL    HW211880   5.027   3.822   0.934
 3661SOL     OW11881   5.239   0.681   2.521
 3661SOL    HW111882   5.147   0.718   2.514
 3661SOL    HW211883   5.254   0.616   2.446
 3662SOL     OW11884   1.614   6.554   4.421
 3662SOL    HW111885   1.524   6.596   4.406
 3662SOL    HW211886   1.601   6.459   4.451
 3663SOL     OW11887   2.565   2.767   5.691
 3663SOL    HW111888   2.540   2.676   5.660
 3663SOL    HW211889   2.510   2.835   5.642
 3664SOL     OW11890   3.981   0.029   2.008
 3664SOL    HW111891   4.005   6.953   1.997
 3664SOL    HW211892   4.053   0.075   2.060
 3665SOL     OW11893   2.397   1.830   5.346
 3665SOL    HW111894   2.310   1.817   5.300
 3665SOL    HW211895   2.444   1.909   5.307
 3666SOL     OW11896   0.953   4.857   2.949
 3666SOL    HW111897   0.861   4.898   2.952
 3666SOL    HW211898   0.984   4.841   3.043
 3667SOL     OW11899   0.162   0.540   0.214
 3667SOL    HW111900   0.228   0.583   0.275
 3667SOL    HW211901   0.116   0.610   0.159
 3668SOL     OW11902   1.996   0.123   1.029
 3668SOL    HW111903   2.023   0.212   0.993
 3668SOL    HW211904   1.964   0.133   1.123
 3669SOL     OW11905   5.220   1.458   4.432
 3669SOL    HW111906   5.189   1.365   4.417
 3669SOL    HW211907   5.255   1.497   4.347
 3670SOL     OW11908   3.283   5.017   5.797
 3670SOL    HW111909   3.242   5.030   5.887
 3670SOL    HW211910   3.356   5.084   5.784
 3671SOL     OW11911   1.832   1.704   3.168
 3671SOL    HW111912   1.746   1.752   3.187
 3671SOL    HW211913   1.903   1.771   3.146
 3672SOL     OW11914   6.005   6.111   0.164
 3672SOL    HW111915   5.919   6.077   0.125
 3672SOL    HW211916   5.988   6.197   0.212
 3673SOL     OW11917   3.676   6.897   6.171
 3673SOL    HW111918   3.640   6.990   6.159
 3673SOL    HW211919   3.601   6.837   6.199
 3674SOL     OW11920   1.273   6.381   0.942
 3674SOL    HW111921   1.204   6.453   0.954
 3674SOL    HW211922   1.308   6.383   0.848
 3675SOL     OW11923   1.948   2.073   4.150
 3675SOL    HW111924   1.916   1.978   4.158
 3675SOL    HW211925   1.884   2.125   4.094
 3676SOL     OW11926   0.510   4.840   2.763
 3676SOL    HW111927   0.492   4.912   2.696
 3676SOL    HW211928   0.569   4.770   2.721
 3677SOL     OW11929   6.404   1.031   3.406
 3677SOL    HW111930   6.477   1.069   3.348
 3677SOL    HW211931   6.418   0.932   3.415
 3678SOL     OW11932   0.781   2.620   4.148
 3678SOL    HW111933   0.687   2.598   4.174
 3678SOL    HW211934   0.786   2.715   4.118
 3679SOL     OW11935   6.404   1.332   1.688
 3679SOL    HW111936   6.328   1.384   1.727
 3679SOL    HW211937   6.466   1.305   1.761
 3680SOL     OW11938   6.265   4.107   5.149
 3680SOL    HW111939   6.233   4.174   5.082
 3680SOL    HW211940   6.199   4.033   5.156
 3681SOL     OW11941   5.227   0.550   4.656
 3681SOL    HW111942   5.203   0.642   4.687
 3681SOL    HW211943   5.212   0.543   4.557
 3682SOL     OW11944   0.523   1.878   0.044
 3682SOL    HW111945   0.496   1.918   6.977
 3682SOL    HW211946   0.622   1.860   0.043
 3683SOL     OW11947   4.272   6.019   3.827
 3683SOL    HW111948   4.357   6.040   3.780
 3683SOL    HW211949   4.195   6.025   3.763
 3684SOL     OW11950   2.145   3.893   2.002
 3684SOL    HW111951   2.123   3.962   1.933
 3684SOL    HW211952   2.135   3.802   1.962
 3685SOL     OW11953   5.716   5.635   5.975
 3685SOL    HW111954   5.629   5.618   5.929
 3685SOL    HW211955   5.699   5.651   6.072
 3686SOL     OW11956   0.650   4.014   0.558
 3686SOL    HW111957   0.583   3.996   0.630
 3686SOL    HW211958   0.710   4.089   0.586
 3687SOL     OW11959   4.007   1.095   1.022
 3687SOL    HW111960   4.041   1.176   1.069
 3687SOL    HW211961   3.931   1.055   1.073
 3688SOL     OW11962   7.010   2.409   6.747
 3688SOL    HW111963   0.019   2.321   6.785
 3688SOL    HW211964   0.012   2.412   6.649
 3689SOL     OW11965   1.127   6.059   3.759
 3689SOL    HW111966   1.218   6.093   3.735
 3689SOL    HW211967   1.108   5.976   3.708
 3690SOL     OW11968   4.824   4.633   5.797
 3690SOL    HW111969   4.812   4.550   5.851
 3690SOL    HW211970   4.864   4.609   5.708
 3691SOL     OW11971   3.116   3.286   6.391
 3691SOL    HW111972   3.158   3.341   6.319
 3691SOL    HW211973   3.016   3.288   6.380
 3692SOL     OW11974   6.461   0.422   5.094
 3692SOL    HW111975   6.448   0.506   5.040
 3692SOL    HW211976   6.502   0.445   5.182
 3693SOL     OW11977   1.684   1.437   3.598
 3693SOL    HW111978   1.735   1.520   3.576
 3693SOL    HW211979   1.735   1.384   3.667
 3694SOL     OW11980   1.754   4.854   3.428
 3694SOL    HW111981   1.833   4.811   3.386
 3694SOL    HW211982   1.784   4.925   3.492
 3695SOL     OW11983   2.507   2.750   0.892
 3695SOL    HW111984   2.496   2.760   0.991
 3695SOL    HW211985   2.523   2.654   0.870
 3696SOL     OW11986   2.836   5.673   5.810
 3696SOL    HW111987   2.906   5.659   5.740
 3696SOL    HW211988   2.806   5.768   5.810
 3697SOL     OW11989   5.521   0.993   3.226
 3697SOL    HW111990   5.498   0.900   3.198
 3697SOL    HW211991   5.512   1.002   3.325
 3698SOL     OW11992   3.640   0.128   5.822
 3698SOL    HW111993   3.572   0.070   5.777
 3698SOL    HW211994   3.664   0.204   5.762
 3699SOL     OW11995   1.227   5.102   2.374
 3699SOL    HW111996   1.305   5.072   2.429
 3699SOL    HW211997   1.196   5.026   2.317
 3700SOL     OW11998   6.368   0.167   4.055
 3700SOL    HW111999   6.306   0.124   3.990
 3700SOL    HW212000   6.448   0.108   4.069
 3701SOL     OW12001   4.101   1.496   3.588
 3701SOL    HW112002   4.044   1.518   3.509
 3701SOL    HW212003   4.164   1.572   3.606
 3702SOL     OW12004   4.356   1.277   6.499
 3702SOL    HW112005   4.311   1.345   6.557
 3702SOL    HW212006   4.339   1.299   6.403
 3703SOL     OW12007   3.425   4.888   0.791
 3703SOL    HW112008   3.422   4.880   0.891
 3703SOL    HW212009   3.478   4.969   0.766
 3704SOL     OW12010   3.681   6.294   0.878
 3704SOL    HW112011   3.694   6.221   0.945
 3704SOL    HW212012   3.734   6.374   0.906
 3705SOL     OW12013   0.186   0.901   3.825
 3705SOL    HW112014   0.193   0.857   3.736
 3705SOL    HW212015   0.114   0.970   3.823
 3706SOL     OW12016   2.614   2.434   3.121
 3706SOL    HW112017   2.676   2.402   3.049
 3706SOL    HW212018   2.661   2.429   3.210
 3707SOL     OW12019   4.136   2.194   5.444
 3707SOL    HW112020   4.217   2.137   5.433
 3707SOL    HW212021   4.072   2.150   5.507
 3708SOL     OW12022   6.197   6.499   0.800
 3708SOL    HW112023   6.222   6.586   0.757
 3708SOL    HW212024   6.202   6.426   0.733
 3709SOL     OW12025   0.672   6.381   6.354
 3709SOL    HW112026   0.702   6.287   6.338
 3709SOL    HW212027   0.662   6.428   6.267
 3710SOL     OW12028   1.017   5.034   6.248
 3710SOL    HW112029   1.083   5.032   6.173
 3710SOL    HW212030   0.942   4.971   6.229
 3711SOL     OW12031   6.380   5.016   2.282
 3711SOL    HW112032   6.342   4.978   2.197
 3711SOL    HW212033   6.326   4.983   2.360
 3712SOL     OW12034   1.652   0.168   5.635
 3712SOL    HW112035   1.647   0.243   5.700
 3712SOL    HW212036   1.565   0.118   5.634
 3713SOL     OW12037   3.354   4.681   5.976
 3713SOL    HW112038   3.363   4.760   6.037
 3713SOL    HW212039   3.267   4.686   5.927
 3714SOL     OW12040   4.998   2.577   4.371
 3714SOL    HW112041   4.909   2.554   4.412
 3714SOL    HW212042   5.071   2.543   4.430
 3715SOL     OW12043   4.599   4.347   3.736
 3715SOL    HW112044   4.533   4.423   3.735
 3715SOL    HW212045   4.602   4.307   3.828
 3716SOL     OW12046   1.376   1.157   4.593
 3716SOL    HW112047   1.369   1.236   4.533
 3716SOL    HW212048   1.321   1.082   4.556
 3717SOL     OW12049   6.112   0.478   6.712
 3717SOL    HW112050   6.127   0.450   6.807
 3717SOL    HW212051   6.014   0.476   6.692
 3718SOL     OW12052   1.113   6.633   6.288
 3718SOL    HW112053   1.048   6.561   6.312
 3718SOL    HW212054   1.141   6.682   6.371
 3719SOL     OW12055   3.829   4.194   0.397
 3719SOL    HW112056   3.840   4.105   0.355
 3719SOL    HW212057   3.786   4.184   0.487
 3720SOL     OW12058   6.810   1.141   6.274
 3720SOL    HW112059   6.886   1.204   6.286
 3720SOL    HW212060   6.729   1.192   6.246
 3721SOL     OW12061   5.783   2.784   0.492
 3721SOL    HW112062   5.784   2.883   0.486
 3721SOL    HW212063   5.816   2.745   0.406
 3722SOL     OW12064   4.521   5.726   0.702
 3722SOL    HW112065   4.545   5.677   0.786
 3722SOL    HW212066   4.493   5.819   0.725
 3723SOL     OW12067   3.679   1.450   0.512
 3723SOL    HW112068   3.591   1.406   0.494
 3723SOL    HW212069   3.744   1.424   0.441
 3724SOL     OW12070   1.161   3.667   6.691
 3724SOL    HW112071   1.165   3.578   6.645
 3724SOL    HW212072   1.111   3.658   6.777
 3725SOL     OW12073   4.909   6.024   1.955
 3725SOL    HW112074   4.975   5.968   1.905
 3725SOL    HW212075   4.947   6.047   2.045
 3726SOL     OW12076   5.968   3.317   1.973
 3726SOL    HW112077   5.959   3.358   2.064
 3726SOL    HW212078   5.898   3.356   1.913
 3727SOL     OW12079   2.874   2.489   5.604
 3727SOL    HW112080   2.775   2.492   5.617
 3727SOL    HW212081   2.900   2.547   5.527
 3728SOL     OW12082   0.669   3.709   6.702
 3728SOL    HW112083   0.587   3.660   6.674
 3728SOL    HW212084   0.675   3.710   6.801
 3729SOL     OW12085   1.077   3.539   3.528
 3729SOL    HW112086   1.153   3.554   3.592
 3729SOL    HW212087   0.993   3.575   3.567
 3730SOL     OW12088   1.927   6.892   1.076
 3730SOL    HW112089   1.940   6.985   1.042
 3730SOL    HW212090   1.934   6.827   1.001
 3731SOL     OW12091   2.638   6.434   0.153
 3731SOL    HW112092   2.592   6.522   0.141
 3731SOL    HW212093   2.737   6.449   0.160
 3732SOL     OW12094   1.849   3.889   4.265
 3732SOL    HW112095   1.784   3.853   4.333
 3732SOL    HW212096   1.861   3.987   4.278
 3733SOL     OW12097   3.245   3.156   1.809
 3733SOL    HW112098   3.167   3.190   1.862
 3733SOL    HW212099   3.267   3.221   1.736
 3734SOL     OW12100   4.268   1.413   3.306
 3734SOL    HW112101   4.268   1.436   3.403
 3734SOL    HW212102   4.317   1.485   3.255
 3735SOL     OW12103   3.875   2.228   1.690
 3735SOL    HW112104   3.793   2.212   1.635
 3735SOL    HW212105   3.852   2.284   1.769
 3736SOL     OW12106   5.095   0.749   6.170
 3736SOL    HW112107   5.170   0.686   6.193
 3736SOL    HW212108   5.060   0.727   6.079
 3737SOL     OW12109   2.859   0.003   3.668
 3737SOL    HW112110   2.872   6.932   3.706
 3737SOL    HW212111   2.794   7.019   3.592
 3738SOL     OW12112   0.655   0.399   4.215
 3738SOL    HW112113   0.714   0.407   4.295
 3738SOL    HW212114   0.565   0.437   4.236
 3739SOL     OW12115   0.233   3.547   0.708
 3739SOL    HW112116   0.217   3.646   0.702
 3739SOL    HW212117   0.252   3.522   0.803
 3740SOL     OW12118   5.664   6.947   0.308
 3740SOL    HW112119   5.754   6.937   0.266
 3740SOL    HW212120   5.674   6.942   0.408
 3741SOL     OW12121   3.983   0.475   6.885
 3741SOL    HW112122   3.996   0.411   6.960
 3741SOL    HW212123   4.021   0.564   6.911
 3742SOL     OW12124   3.591   3.379   6.327
 3742SOL    HW112125   3.530   3.456   6.345
 3742SOL    HW212126   3.660   3.406   6.260
 3743SOL     OW12127   1.329   6.199   5.681
 3743SOL    HW112128   1.299   6.129   5.746
 3743SOL    HW212129   1.252   6.257   5.657
 3744SOL     OW12130   6.262   4.636   3.585
 3744SOL    HW112131   6.337   4.601   3.642
 3744SOL    HW212132   6.189   4.568   3.580
 3745SOL     OW12133   5.263   4.929   1.443
 3745SOL    HW112134   5.344   4.873   1.423
 3745SOL    HW212135   5.226   4.904   1.532
 3746SOL     OW12136   4.545   1.474   1.099
 3746SOL    HW112137   4.643   1.493   1.113
 3746SOL    HW212138   4.493   1.512   1.175
 3747SOL     OW12139   3.082   6.640   1.438
 3747SOL    HW112140   3.028   6.555   1.435
 3747SOL    HW212141   3.171   6.621   1.479
 3748SOL     OW12142   5.334   0.425   1.852
 3748SOL    HW112143   5.308   0.385   1.940
 3748SOL    HW212144   5.322   0.524   1.855
 3749SOL     OW12145   1.148   0.758   3.988
 3749SOL    HW112146   1.069   0.721   3.940
 3749SOL    HW212147   1.231   0.714   3.953
 3750SOL     OW12148   0.590   3.627   6.979
 3750SOL    HW112149   0.572   3.719   7.014
 3750SOL    HW212150   0.618   3.567   0.033
 3751SOL     OW12151   2.156   4.972   1.418
 3751SOL    HW112152   2.124   4.926   1.501
 3751SOL    HW212153   2.255   4.961   1.408
 3752SOL     OW12154   5.541   5.291   6.293
 3752SOL    HW112155   5.517   5.194   6.284
 3752SOL    HW212156   5.634   5.305   6.261
 3753SOL     OW12157   0.233   1.339   3.393
 3753SOL    HW112158   0.266   1.295   3.477
 3753SOL    HW212159   0.191   1.270   3.334
 3754SOL     OW12160   3.926   1.484   1.399
 3754SOL    HW112161   3.978   1.566   1.376
 3754SOL    HW212162   3.898   1.489   1.495
 3755SOL     OW12163   2.739   6.274   4.577
 3755SOL    HW112164   2.660   6.323   4.614
 3755SOL    HW212165   2.794   6.239   4.653
 3756SOL     OW12166   1.402   6.411   0.689
 3756SOL    HW112167   1.445   6.322   0.674
 3756SOL    HW212168   1.364   6.445   0.603
 3757SOL     OW12169   1.007   5.081   7.016
 3757SOL    HW112170   1.065   5.018   6.963
 3757SOL    HW212171   1.028   5.175   6.989
 3758SOL     OW12172   0.164   5.868   4.090
 3758SOL    HW112173   0.167   5.965   4.114
 3758SOL    HW212174   0.240   5.821   4.134
 3759SOL     OW12175   4.729   0.838   3.510
 3759SOL    HW112176   4.633   0.864   3.517
 3759SOL    HW212177   4.754   0.833   3.413
 3760SOL     OW12178   0.533   1.107   3.304
 3760SOL    HW112179   0.514   1.019   3.348
 3760SOL    HW212180   0.538   1.094   3.205
 3761SOL     OW12181   3.959   1.127   4.496
 3761SOL    HW112182   4.045   1.119   4.545
 3761SOL    HW212183   3.887   1.077   4.545
 3762SOL     OW12184   6.737   2.197   3.300
 3762SOL    HW112185   6.673   2.122   3.287
 3762SOL    HW212186   6.778   2.222   3.213
 3763SOL     OW12187   0.821   7.010   6.426
 3763SOL    HW112188   0.786   6.920   6.452
 3763SOL    HW212189   0.879   0.024   6.500
 3764SOL     OW12190   4.496   2.033   2.491
 3764SOL    HW112191   4.588   2.022   2.454
 3764SOL    HW212192   4.432   1.980   2.436
 3765SOL     OW12193   5.631   3.869   2.129
 3765SOL    HW112194   5.569   3.933   2.175
 3765SOL    HW212195   5.672   3.913   2.049
 3766SOL     OW12196   2.349   2.584   2.388
 3766SOL    HW112197   2.314   2.648   2.456
 3766SOL    HW212198   2.307   2.494   2.402
 3767SOL     OW12199   1.592   6.356   5.700
 3767SOL    HW112200   1.591   6.455   5.710
 3767SOL    HW212201   1.497   6.322   5.703
 3768SOL     OW12202   1.109   6.688   3.856
 3768SOL    HW112203   1.105   6.624   3.779
 3768SOL    HW212204   1.063   6.773   3.831
 3769SOL     OW12205   5.012   4.994   6.119
 3769SOL    HW112206   4.916   5.015   6.138
 3769SOL    HW212207   5.018   4.905   6.074
 3770SOL     OW12208   2.701   0.324   0.544
 3770SOL    HW112209   2.627   0.257   0.545
 3770SOL    HW212210   2.672   0.404   0.492
 3771SOL     OW12211   6.359   6.210   5.678
 3771SOL    HW112212   6.389   6.236   5.770
 3771SOL    HW212213   6.351   6.111   5.672
 3772SOL     OW12214   3.463   5.524   1.469
 3772SOL    HW112215   3.402   5.482   1.401
 3772SOL    HW212216   3.408   5.576   1.535
 3773SOL     OW12217   5.053   3.963   6.899
 3773SOL    HW112218   5.075   3.887   6.960
 3773SOL    HW212219   5.025   3.927   6.810
 3774SOL     OW12220   0.034   4.182   0.783
 3774SOL    HW112221   0.050   4.277   0.757
 3774SOL    HW212222   0.110   4.150   0.839
 3775SOL     OW12223   5.842   6.803   5.289
 3775SOL    HW112224   5.917   6.813   5.224
 3775SOL    HW212225   5.764   6.858   5.259
 3776SOL     OW12226   4.047   2.682   6.710
 3776SOL    HW112227   4.110   2.749   6.671
 3776SOL    HW212228   3.970   2.668   6.647
 3777SOL     OW12229   2.892   5.176   3.399
 3777SOL    HW112230   2.836   5.121   3.337
 3777SOL    HW212231   2.874   5.147   3.494
 3778SOL     OW12232   2.750   5.712   6.451
 3778SOL    HW112233   2.700   5.745   6.370
 3778SOL    HW212234   2.691   5.718   6.531
 3779SOL     OW12235   6.439   4.686   6.384
 3779SOL    HW112236   6.400   4.644   6.466
 3779SOL    HW212237   6.539   4.682   6.390
 3780SOL     OW12238   6.155   2.143   1.528
 3780SOL    HW112239   6.094   2.077   1.571
 3780SOL    HW212240   6.146   2.136   1.428
 3781SOL     OW12241   1.216   0.422   6.655
 3781SOL    HW112242   1.143   0.377   6.604
 3781SOL    HW212243   1.266   0.355   6.709
 3782SOL     OW12244   3.137   5.459   6.833
 3782SOL    HW112245   3.142   5.414   6.744
 3782SOL    HW212246   3.202   5.535   6.836
 3783SOL     OW12247   4.877   5.185   5.531
 3783SOL    HW112248   4.851   5.247   5.457
 3783SOL    HW212249   4.924   5.237   5.603
 3784SOL     OW12250   5.330   3.707   5.266
 3784SOL    HW112251   5.377   3.777   5.213
 3784SOL    HW212252   5.232   3.728   5.269
 3785SOL     OW12253   0.616   3.503   2.672
 3785SOL    HW112254   0.575   3.526   2.584
 3785SOL    HW212255   0.695   3.443   2.658
 3786SOL     OW12256   2.983   3.025   6.172
 3786SOL    HW112257   2.930   2.943   6.191
 3786SOL    HW212258   2.944   3.102   6.222
 3787SOL     OW12259   5.536   5.796   5.724
 3787SOL    HW112260   5.579   5.868   5.779
 3787SOL    HW212261   5.606   5.747   5.671
 3788SOL     OW12262   5.793   3.018   5.795
 3788SOL    HW112263   5.714   2.973   5.754
 3788SOL    HW212264   5.783   3.118   5.786
 3789SOL     OW12265   2.030   4.809   1.604
 3789SOL    HW112266   2.057   4.835   1.697
 3789SOL    HW212267   1.932   4.825   1.592
 3790SOL     OW12268   2.940   0.197   1.693
 3790SOL    HW112269   2.888   0.186   1.778
 3790SOL    HW212270   2.879   0.187   1.614
 3791SOL     OW12271   5.021   0.681   3.952
 3791SOL    HW112272   5.075   0.672   3.868
 3791SOL    HW212273   4.955   0.755   3.941
 3792SOL     OW12274   6.156   0.337   3.714
 3792SOL    HW112275   6.091   0.316   3.787
 3792SOL    HW212276   6.242   0.288   3.730
 3793SOL     OW12277   5.167   3.066   6.749
 3793SOL    HW112278   5.072   3.038   6.733
 3793SOL    HW212279   5.169   3.139   6.817
 3794SOL     OW12280   1.854   5.561   5.272
 3794SOL    HW112281   1.795   5.623   5.220
 3794SOL    HW212282   1.915   5.513   5.209
 3795SOL     OW12283   3.640   6.154   0.546
 3795SOL    HW112284   3.606   6.082   0.606
 3795SOL    HW212285   3.565   6.191   0.491
 3796SOL     OW12286   5.571   0.992   0.567
 3796SOL    HW112287   5.517   0.908   0.575
 3796SOL    HW212288   5.520   1.068   0.608
 3797SOL     OW12289   7.015   1.779   1.172
 3797SOL    HW112290   0.052   1.702   1.146
 3797SOL    HW212291   6.999   1.837   1.092
 3798SOL     OW12292   6.562   3.582   4.203
 3798SOL    HW112293   6.615   3.533   4.271
 3798SOL    HW212294   6.622   3.639   4.147
 3799SOL     OW12295   6.612   2.147   2.419
 3799SOL    HW112296   6.650   2.123   2.330
 3799SOL    HW212297   6.518   2.179   2.408
 3800SOL     OW12298   5.759   3.628   1.963
 3800SOL    HW112299   5.852   3.662   1.956
 3800SOL    HW212300   5.714   3.670   2.042
 3801SOL     OW12301   5.470   1.622   0.526
 3801SOL    HW112302   5.546   1.652   0.469
 3801SOL    HW212303   5.506   1.567   0.602
 3802SOL     OW12304   6.060   3.429   3.666
 3802SOL    HW112305   6.159   3.446   3.659
 3802SOL    HW212306   6.039   3.340   3.625
 3803SOL     OW12307   3.970   4.405   6.469
 3803SOL    HW112308   3.985   4.461   6.387
 3803SOL    HW212309   4.058   4.375   6.505
 3804SOL     OW12310   3.422   6.152   3.061
 3804SOL    HW112311   3.353   6.208   3.015
 3804SOL    HW212312   3.497   6.132   2.998
 3805SOL     OW12313   2.768   2.017   0.136
 3805SOL    HW112314   2.744   2.065   0.052
 3805SOL    HW212315   2.685   1.990   0.184
 3806SOL     OW12316   1.986   3.982   2.238
 3806SOL    HW112317   2.043   3.961   2.159
 3806SOL    HW212318   2.044   3.991   2.319
 3807SOL     OW12319   6.872   3.967   4.380
 3807SOL    HW112320   6.876   3.924   4.290
 3807SOL    HW212321   6.953   4.024   4.393
 3808SOL     OW12322   2.464   6.280   5.853
 3808SOL    HW112323   2.548   6.274   5.908
 3808SOL    HW212324   2.403   6.204   5.877
 3809SOL     OW12325   6.164   2.117   1.258
 3809SOL    HW112326   6.149   2.042   1.193
 3809SOL    HW212327   6.105   2.194   1.233
 3810SOL     OW12328   4.558   1.940   3.850
 3810SOL    HW112329   4.558   1.856   3.796
 3810SOL    HW212330   4.485   2.001   3.818
 3811SOL     OW12331   0.433   6.261   5.705
 3811SOL    HW112332   0.337   6.250   5.682
 3811SOL    HW212333   0.451   6.355   5.733
 3812SOL     OW12334   4.201   5.826   0.278
 3812SOL    HW112335   4.301   5.827   0.274
 3812SOL    HW212336   4.165   5.904   0.227
 3813SOL     OW12337   6.982   2.992   6.535
 3813SOL    HW112338   6.950   3.077   6.495
 3813SOL    HW212339   6.939   2.978   6.625
 3814SOL     OW12340   0.116   0.410   4.842
 3814SOL    HW112341   0.084   0.492   4.889
 3814SOL    HW212342   0.046   0.338   4.850
 3815SOL     OW12343   4.598   1.969   5.466
 3815SOL    HW112344   4.516   2.019   5.438
 3815SOL    HW212345   4.647   1.936   5.385
 3816SOL     OW12346   6.267   6.463   1.717
 3816SOL    HW112347   6.236   6.395   1.783
 3816SOL    HW212348   6.237   6.554   1.745
 3817SOL     OW12349   3.778   4.011   2.751
 3817SOL    HW112350   3.692   3.981   2.792
 3817SOL    HW212351   3.762   4.040   2.657
 3818SOL     OW12352   4.602   5.682   2.277
 3818SOL    HW112353   4.685   5.653   2.325
 3818SOL    HW212354   4.618   5.770   2.233
 3819SOL     OW12355   6.092   2.708   2.525
 3819SOL    HW112356   6.109   2.724   2.428
 3819SOL    HW212357   6.146   2.772   2.580
 3820SOL     OW12358   3.120   6.294   5.900
 3820SOL    HW112359   3.210   6.313   5.938
 3820SOL    HW212360   3.094   6.367   5.838
 3821SOL     OW12361   1.337   6.786   1.392
 3821SOL    HW112362   1.328   6.882   1.418
 3821SOL    HW212363   1.277   6.730   1.448
 3822SOL     OW12364   6.100   6.245   1.555
 3822SOL    HW112365   6.016   6.220   1.602
 3822SOL    HW212366   6.133   6.333   1.590
 3823SOL     OW12367   5.775   5.838   4.276
 3823SOL    HW112368   5.857   5.875   4.232
 3823SOL    HW212369   5.785   5.739   4.287
 3824SOL     OW12370   1.912   2.633   0.811
 3824SOL    HW112371   1.982   2.577   0.767
 3824SOL    HW212372   1.854   2.675   0.742
 3825SOL     OW12373   0.284   4.468   5.564
 3825SOL    HW112374   0.319   4.517   5.485
 3825SOL    HW212375   0.249   4.533   5.631
 3826SOL     OW12376   4.764   4.112   3.755
 3826SOL    HW112377   4.796   4.162   3.835
 3826SOL    HW212378   4.673   4.145   3.730
 3827SOL     OW12379   0.301   1.350   0.248
 3827SOL    HW112380   0.263   1.383   0.334
 3827SOL    HW212381   0.241   1.280   0.210
 3828SOL     OW12382   3.195   3.377   5.583
 3828SOL    HW112383   3.106   3.333   5.575
 3828SOL    HW212384   3.190   3.470   5.546
 3829SOL     OW12385   6.611   2.603   1.864
 3829SOL    HW112386   6.562   2.656   1.795
 3829SOL    HW212387   6.706   2.592   1.837
 3830SOL     OW12388   5.312   6.071   3.572
 3830SOL    HW112389   5.312   6.050   3.474
 3830SOL    HW212390   5.218   6.079   3.604
 3831SOL     OW12391   5.502   2.364   4.211
 3831SOL    HW112392   5.410   2.388   4.242
 3831SOL    HW212393   5.519   2.404   4.121
 3832SOL     OW12394   6.508   1.455   3.986
 3832SOL    HW112395   6.449   1.472   4.065
 3832SOL    HW212396   6.458   1.476   3.902
 3833SOL     OW12397   2.305   3.242   5.975
 3833SOL    HW112398   2.242   3.264   6.049
 3833SOL    HW212399   2.255   3.237   5.888
 3834SOL     OW12400   4.829   4.682   1.102
 3834SOL    HW112401   4.879   4.753   1.151
 3834SOL    HW212402   4.796   4.720   1.015
 3835SOL     OW12403   4.763   5.305   4.370
 3835SOL    HW112404   4.787   5.243   4.295
 3835SOL    HW212405   4.831   5.377   4.376
 3836SOL     OW12406   0.309   0.106   5.014
 3836SOL    HW112407   0.359   0.190   4.993
 3836SOL    HW212408   0.371   0.027   5.009
 3837SOL     OW12409   4.893   4.284   5.612
 3837SOL    HW112410   4.847   4.353   5.556
 3837SOL    HW212411   4.826   4.214   5.639
 3838SOL     OW12412   0.763   1.480   3.530
 3838SOL    HW112413   0.671   1.509   3.557
 3838SOL    HW212414   0.831   1.529   3.584
 3839SOL     OW12415   4.599   1.663   3.770
 3839SOL    HW112416   4.638   1.657   3.862
 3839SOL    HW212417   4.669   1.641   3.702
 3840SOL     OW12418   3.923   1.545   6.003
 3840SOL    HW112419   3.885   1.605   5.932
 3840SOL    HW212420   3.888   1.575   6.092
 3841SOL     OW12421   5.516   4.033   2.701
 3841SOL    HW112422   5.486   3.972   2.775
 3841SOL    HW212423   5.593   3.992   2.653
 3842SOL     OW12424   1.632   4.171   4.953
 3842SOL    HW112425   1.730   4.166   4.972
 3842SOL    HW212426   1.614   4.245   4.888
 3843SOL     OW12427   5.620   1.696   6.928
 3843SOL    HW112428   5.654   1.625   6.989
 3843SOL    HW212429   5.523   1.682   6.909
 3844SOL     OW12430   5.814   6.490   0.915
 3844SOL    HW112431   5.865   6.496   1.001
 3844SOL    HW212432   5.857   6.549   0.847
 3845SOL     OW12433   2.100   5.623   0.356
 3845SOL    HW112434   2.162   5.629   0.278
 3845SOL    HW212435   2.072   5.528   0.370
 3846SOL     OW12436   6.534   3.241   2.666
 3846SOL    HW112437   6.600   3.250   2.591
 3846SOL    HW212438   6.584   3.226   2.752
 3847SOL     OW12439   0.534   0.795   6.905
 3847SOL    HW112440   0.435   0.782   6.911
 3847SOL    HW212441   0.554   0.855   6.827
 3848SOL     OW12442   5.669   4.629   2.488
 3848SOL    HW112443   5.728   4.596   2.415
 3848SOL    HW212444   5.636   4.552   2.543
 3849SOL     OW12445   0.266   2.967   5.562
 3849SOL    HW112446   0.180   3.005   5.528
 3849SOL    HW212447   0.257   2.946   5.659
 3850SOL     OW12448   3.499   3.053   1.327
 3850SOL    HW112449   3.419   3.031   1.272
 3850SOL    HW212450   3.518   3.151   1.318
 3851SOL     OW12451   0.064   5.501   2.132
 3851SOL    HW112452   0.044   5.491   2.230
 3851SOL    HW212453   0.163   5.500   2.119
 3852SOL     OW12454   3.232   0.430   5.211
 3852SOL    HW112455   3.228   0.527   5.236
 3852SOL    HW212456   3.219   0.374   5.292
 3853SOL     OW12457   1.937   1.055   3.057
 3853SOL    HW112458   1.950   0.959   3.032
 3853SOL    HW212459   1.931   1.064   3.157
 3854SOL     OW12460   0.280   1.225   1.864
 3854SOL    HW112461   0.267   1.281   1.782
 3854SOL    HW212462   0.366   1.250   1.909
 3855SOL     OW12463   3.084   5.842   6.787
 3855SOL    HW112464   3.114   5.831   6.882
 3855SOL    HW212465   2.985   5.851   6.784
 3856SOL     OW12466   6.910   2.896   6.271
 3856SOL    HW112467   6.946   2.855   6.355
 3856SOL    HW212468   6.825   2.850   6.245
 3857SOL     OW12469   0.910   0.260   5.320
 3857SOL    HW112470   0.885   0.340   5.374
 3857SOL    HW212471   0.966   0.290   5.242
 3858SOL     OW12472   3.296   0.627   4.970
 3858SOL    HW112473   3.392   0.601   4.963
 3858SOL    HW212474   3.280   0.673   5.057
 3859SOL     OW12475   5.220   0.229   2.902
 3859SOL    HW112476   5.137   0.278   2.872
 3859SOL    HW212477   5.198   0.171   2.980
 3860SOL     OW12478   1.557   6.519   4.857
 3860SOL    HW112479   1.467   6.561   4.848
 3860SOL    HW212480   1.623   6.569   4.802
 3861SOL     OW12481   2.582   5.988   2.379
 3861SOL    HW112482   2.675   5.953   2.370
 3861SOL    HW212483   2.522   5.917   2.416
 3862SOL     OW12484   1.905   0.616   4.055
 3862SOL    HW112485   1.990   0.599   4.006
 3862SOL    HW212486   1.890   0.545   4.123
 3863SOL     OW12487   4.197   0.428   1.111
 3863SOL    HW112488   4.177   0.333   1.087
 3863SOL    HW212489   4.127   0.461   1.175
 3864SOL     OW12490   1.036   0.729   4.817
 3864SOL    HW112491   0.981   0.700   4.895
 3864SOL    HW212492   1.131   0.742   4.845
 3865SOL     OW12493   5.193   1.174   1.010
 3865SOL    HW112494   5.286   1.148   0.985
 3865SOL    HW212495   5.155   1.107   1.074
 3866SOL     OW12496   3.631   1.115   6.680
 3866SOL    HW112497   3.555   1.181   6.681
 3866SOL    HW212498   3.717   1.165   6.691
 3867SOL     OW12499   6.706   3.240   1.951
 3867SOL    HW112500   6.736   3.327   1.991
 3867SOL    HW212501   6.607   3.231   1.962
 3868SOL     OW12502   4.147   0.888   0.306
 3868SOL    HW112503   4.076   0.842   0.253
 3868SOL    HW212504   4.171   0.833   0.386
 3869SOL     OW12505   3.499   0.861   3.738
 3869SOL    HW112506   3.421   0.800   3.725
 3869SOL    HW212507   3.528   0.897   3.649
 3870SOL     OW12508   6.783   1.672   5.744
 3870SOL    HW112509   6.726   1.646   5.666
 3870SOL    HW212510   6.795   1.771   5.744
 3871SOL     OW12511   2.563   4.977   4.203
 3871SOL    HW112512   2.595   5.047   4.140
 3871SOL    HW212513   2.615   4.982   4.289
 3872SOL     OW12514   2.958   3.988   5.375
 3872SOL    HW112515   2.911   4.068   5.412
 3872SOL    HW212516   2.996   3.934   5.450
 3873SOL     OW12517   5.267   2.515   6.421
 3873SOL    HW112518   5.336   2.509   6.349
 3873SOL    HW212519   5.187   2.565   6.387
 3874SOL     OW12520   1.945   0.844   2.018
 3874SOL    HW112521   1.888   0.913   2.061
 3874SOL    HW212522   2.033   0.885   1.991
 3875SOL     OW12523   0.663   0.986   6.744
 3875SOL    HW112524   0.645   0.952   6.652
 3875SOL    HW212525   0.716   1.071   6.738
 3876SOL     OW12526   3.187   5.488   1.880
 3876SOL    HW112527   3.230   5.401   1.904
 3876SOL    HW212528   3.136   5.523   1.958
 3877SOL     OW12529   0.749   1.387   6.055
 3877SOL    HW112530   0.769   1.369   5.959
 3877SOL    HW212531   0.834   1.383   6.108
 3878SOL     OW12532   4.249   1.677   4.856
 3878SOL    HW112533   4.234   1.585   4.892
 3878SOL    HW212534   4.181   1.697   4.785
 3879SOL     OW12535   5.373   5.421   6.518
 3879SOL    HW112536   5.416   5.376   6.440
 3879SOL    HW212537   5.347   5.352   6.586
 3880SOL     OW12538   5.194   4.918   3.658
 3880SOL    HW112539   5.123   4.905   3.589
 3880SOL    HW212540   5.152   4.936   3.747
 3881SOL     OW12541   1.825   2.646   0.130
 3881SOL    HW112542   1.787   2.571   0.185
 3881SOL    HW212543   1.923   2.630   0.115
 3882SOL     OW12544   0.396   2.354   5.932
 3882SOL    HW112545   0.397   2.426   6.002
 3882SOL    HW212546   0.373   2.394   5.843
 3883SOL     OW12547   3.837   6.092   4.426
 3883SOL    HW112548   3.751   6.100   4.376
 3883SOL    HW212549   3.912   6.075   4.362
 3884SOL     OW12550   6.727   2.986   1.936
 3884SOL    HW112551   6.783   2.947   1.863
 3884SOL    HW212552   6.741   3.085   1.939
 3885SOL     OW12553   4.128   5.484   2.089
 3885SOL    HW112554   4.192   5.407   2.086
 3885SOL    HW212555   4.068   5.481   2.009
 3886SOL     OW12556   2.927   4.975   6.311
 3886SOL    HW112557   2.920   5.006   6.217
 3886SOL    HW212558   2.841   4.993   6.359
 3887SOL     OW12559   1.711   5.756   1.594
 3887SOL    HW112560   1.721   5.817   1.673
 3887SOL    HW212561   1.788   5.692   1.591
 3888SOL     OW12562   5.452   4.685   3.175
 3888SOL    HW112563   5.492   4.717   3.261
 3888SOL    HW212564   5.495   4.599   3.148
 3889SOL     OW12565   5.638   3.445   0.546
 3889SOL    HW112566   5.659   3.542   0.539
 3889SOL    HW212567   5.548   3.427   0.506
 3890SOL     OW12568   4.870   4.131   4.042
 3890SOL    HW112569   4.878   4.068   4.120
 3890SOL    HW212570   4.952   4.124   3.986
 3891SOL     OW12571   4.544   5.042   3.883
 3891SOL    HW112572   4.539   5.051   3.982
 3891SOL    HW212573   4.617   5.102   3.848
 3892SOL     OW12574   0.047   2.176   1.268
 3892SOL    HW112575   0.031   2.215   1.178
 3892SOL    HW212576   7.014   2.225   1.336
 3893SOL     OW12577   3.598   2.853   3.435
 3893SOL    HW112578   3.697   2.867   3.432
 3893SOL    HW212579   3.565   2.868   3.528
 3894SOL     OW12580   4.203   0.872   6.034
 3894SOL    HW112581   4.183   0.953   5.980
 3894SOL    HW212582   4.124   0.849   6.091
 3895SOL     OW12583   0.493   0.111   4.193
 3895SOL    HW112584   0.555   0.179   4.154
 3895SOL    HW212585   0.398   0.141   4.179
 3896SOL     OW12586   1.951   1.694   6.665
 3896SOL    HW112587   2.044   1.658   6.660
 3896SOL    HW212588   1.895   1.632   6.721
 3897SOL     OW12589   3.092   5.984   0.894
 3897SOL    HW112590   3.080   5.929   0.811
 3897SOL    HW212591   3.117   5.925   0.970
 3898SOL     OW12592   3.923   3.067   1.154
 3898SOL    HW112593   3.951   3.027   1.067
 3898SOL    HW212594   3.873   3.152   1.138
 3899SOL     OW12595   3.267   6.795   5.259
 3899SOL    HW112596   3.341   6.727   5.265
 3899SOL    HW212597   3.201   6.766   5.190
 3900SOL     OW12598   4.214   4.733   2.908
 3900SOL    HW112599   4.215   4.833   2.917
 3900SOL    HW212600   4.275   4.693   2.976
 3901SOL     OW12601   3.149   1.566   6.663
 3901SOL    HW112602   3.155   1.638   6.593
 3901SOL    HW212603   3.054   1.539   6.674
 3902SOL     OW12604   5.066   2.957   2.584
 3902SOL    HW112605   5.111   2.878   2.625
 3902SOL    HW212606   5.135   3.018   2.544
 3903SOL     OW12607   3.514   5.000   6.667
 3903SOL    HW112608   3.597   4.994   6.611
 3903SOL    HW212609   3.492   4.909   6.703
 3904SOL     OW12610   1.918   6.365   0.848
 3904SOL    HW112611   1.860   6.343   0.770
 3904SOL    HW212612   2.010   6.327   0.834
 3905SOL     OW12613   0.127   6.302   5.298
 3905SOL    HW112614   0.200   6.368   5.316
 3905SOL    HW212615   0.047   6.350   5.261
 3906SOL     OW12616   0.694   6.007   5.363
 3906SOL    HW112617   0.679   5.945   5.287
 3906SOL    HW212618   0.643   6.092   5.348
 3907SOL     OW12619   5.523   2.044   4.094
 3907SOL    HW112620   5.445   2.065   4.035
 3907SOL    HW212621   5.599   2.104   4.071
 3908SOL     OW12622   2.661   4.021   5.968
 3908SOL    HW112623   2.598   3.961   5.919
 3908SOL    HW212624   2.678   4.103   5.913
 3909SOL     OW12625   4.283   5.560   3.860
 3909SOL    HW112626   4.371   5.573   3.905
 3909SOL    HW212627   4.211   5.601   3.916
 3910SOL     OW12628   3.735   4.101   2.476
 3910SOL    HW112629   3.798   4.173   2.448
 3910SOL    HW212630   3.690   4.062   2.396
 3911SOL     OW12631   5.758   2.050   5.520
 3911SOL    HW112632   5.793   1.958   5.500
 3911SOL    HW212633   5.816   2.118   5.474
 3912SOL     OW12634   5.903   2.919   6.448
 3912SOL    HW112635   5.877   2.999   6.395
 3912SOL    HW212636   5.825   2.887   6.502
 3913SOL     OW12637   1.347   0.004   1.496
 3913SOL    HW112638   1.293   0.089   1.492
 3913SOL    HW212639   1.440   0.023   1.463
 3914SOL     OW12640   3.091   5.706   5.378
 3914SOL    HW112641   3.022   5.755   5.324
 3914SOL    HW212642   3.124   5.628   5.325
 3915SOL     OW12643   5.248   5.696   1.919
 3915SOL    HW112644   5.176   5.638   1.957
 3915SOL    HW212645   5.217   5.735   1.832
 3916SOL     OW12646   0.119   0.017   3.382
 3916SOL    HW112647   0.052   6.970   3.411
 3916SOL    HW212648   0.180   6.998   3.313
 3917SOL     OW12649   2.968   0.043   6.946
 3917SOL    HW112650   2.993   6.976   6.987
 3917SOL    HW212651   3.044   0.108   6.959
 3918SOL     OW12652   6.053   3.548   6.875
 3918SOL    HW112653   6.085   3.524   6.783
 3918SOL    HW212654   6.080   3.642   6.896
 3919SOL     OW12655   3.405   6.528   0.547
 3919SOL    HW112656   3.364   6.605   0.497
 3919SOL    HW212657   3.392   6.541   0.645
 3920SOL     OW12658   2.312   0.973   0.142
 3920SOL    HW112659   2.334   0.882   0.104
 3920SOL    HW212660   2.365   0.988   0.225
 3921SOL     OW12661   0.739   3.413   0.945
 3921SOL    HW112662   0.744   3.506   0.982
 3921SOL    HW212663   0.779   3.412   0.853
 3922SOL     OW12664   0.529   5.302   1.248
 3922SOL    HW112665   0.544   5.314   1.149
 3922SOL    HW212666   0.472   5.221   1.263
 3923SOL     OW12667   0.212   5.778   0.357
 3923SOL    HW112668   0.181   5.865   0.318
 3923SOL    HW212669   0.136   5.713   0.359
 3924SOL     OW12670   6.328   5.156   4.074
 3924SOL    HW112671   6.385   5.169   3.993
 3924SOL    HW212672   6.239   5.120   4.046
 3925SOL     OW12673   0.638   4.933   1.040
 3925SOL    HW112674   0.652   4.913   1.137
 3925SOL    HW212675   0.545   4.967   1.026
 3926SOL     OW12676   2.767   5.651   3.110
 3926SOL    HW112677   2.745   5.597   3.191
 3926SOL    HW212678   2.858   5.692   3.121
 3927SOL     OW12679   2.354   3.434   6.457
 3927SOL    HW112680   2.320   3.439   6.551
 3927SOL    HW212681   2.379   3.526   6.426
 3928SOL     OW12682   0.033   6.532   6.233
 3928SOL    HW112683   0.084   6.513   6.317
 3928SOL    HW212684   7.007   6.449   6.203
 3929SOL     OW12685   1.175   1.832   4.911
 3929SOL    HW112686   1.187   1.735   4.887
 3929SOL    HW212687   1.189   1.888   4.829
 3930SOL     OW12688   3.199   1.718   4.396
 3930SOL    HW112689   3.254   1.773   4.332
 3930SOL    HW212690   3.258   1.683   4.469
 3931SOL     OW12691   3.986   6.745   2.209
 3931SOL    HW112692   4.057   6.675   2.213
 3931SOL    HW212693   3.991   6.802   2.291
 3932SOL     OW12694   1.916   3.508   3.598
 3932SOL    HW112695   1.967   3.468   3.521
 3932SOL    HW212696   1.880   3.435   3.655
 3933SOL     OW12697   2.164   1.208   6.069
 3933SOL    HW112698   2.164   1.250   5.978
 3933SOL    HW212699   2.169   1.109   6.060
 3934SOL     OW12700   5.292   5.726   6.998
 3934SOL    HW112701   5.308   5.815   6.956
 3934SOL    HW212702   5.362   5.662   6.968
 3935SOL     OW12703   4.784   6.964   2.263
 3935SOL    HW112704   4.704   6.977   2.321
 3935SOL    HW212705   4.865   6.997   2.312
 3936SOL     OW12706   0.841   4.287   2.413
 3936SOL    HW112707   0.877   4.197   2.389
 3936SOL    HW212708   0.832   4.294   2.512
 3937SOL     OW12709   0.401   2.085   2.501
 3937SOL    HW112710   0.319   2.027   2.511
 3937SOL    HW212711   0.483   2.029   2.513
 3938SOL     OW12712   6.005   2.928   2.884
 3938SOL    HW112713   5.963   2.844   2.851
 3938SOL    HW212714   5.934   2.999   2.894
 3939SOL     OW12715   2.162   2.481   1.634
 3939SOL    HW112716   2.127   2.575   1.632
 3939SOL    HW212717   2.213   2.463   1.550
 3940SOL     OW12718   4.393   4.685   0.917
 3940SOL    HW112719   4.305   4.653   0.882
 3940SOL    HW212720   4.463   4.615   0.902
 3941SOL     OW12721   5.479   3.212   0.301
 3941SOL    HW112722   5.412   3.157   0.251
 3941SOL    HW212723   5.449   3.307   0.304
 3942SOL     OW12724   6.347   6.673   1.049
 3942SOL    HW112725   6.410   6.682   0.972
 3942SOL    HW212726   6.298   6.586   1.043
 3943SOL     OW12727   6.783   2.839   4.843
 3943SOL    HW112728   6.764   2.817   4.939
 3943SOL    HW212729   6.879   2.819   4.824
 3944SOL     OW12730   5.622   1.853   5.164
 3944SOL    HW112731   5.587   1.770   5.120
 3944SOL    HW212732   5.717   1.868   5.136
 3945SOL     OW12733   0.222   6.786   0.738
 3945SOL    HW112734   0.194   6.834   0.821
 3945SOL    HW212735   0.145   6.736   0.700
 3946SOL     OW12736   3.540   5.032   3.634
 3946SOL    HW112737   3.515   5.036   3.731
 3946SOL    HW212738   3.640   5.027   3.626
 3947SOL     OW12739   0.034   4.249   5.969
 3947SOL    HW112740   6.955   4.247   5.972
 3947SOL    HW212741   0.066   4.196   5.890
 3948SOL     OW12742   6.386   3.386   1.371
 3948SOL    HW112743   6.322   3.424   1.304
 3948SOL    HW212744   6.399   3.452   1.446
 3949SOL     OW12745   5.466   6.382   2.842
 3949SOL    HW112746   5.526   6.413   2.768
 3949SOL    HW212747   5.512   6.311   2.895
 3950SOL     OW12748   1.480   6.121   0.258
 3950SOL    HW112749   1.408   6.067   0.215
 3950SOL    HW212750   1.517   6.073   0.337
 3951SOL     OW12751   5.462   5.250   1.908
 3951SOL    HW112752   5.524   5.178   1.939
 3951SOL    HW212753   5.435   5.232   1.813
 3952SOL     OW12754   6.033   1.250   6.647
 3952SOL    HW112755   6.132   1.239   6.635
 3952SOL    HW212756   5.985   1.199   6.576
 3953SOL     OW12757   2.865   3.439   2.466
 3953SOL    HW112758   2.781   3.412   2.514
 3953SOL    HW212759   2.854   3.422   2.368
 3954SOL     OW12760   4.292   4.015   6.157
 3954SOL    HW112761   4.299   4.074   6.077
 3954SOL    HW212762   4.286   3.920   6.128
 3955SOL     OW12763   3.590   0.951   5.053
 3955SOL    HW112764   3.618   1.029   5.109
 3955SOL    HW212765   3.494   0.962   5.025
 3956SOL     OW12766   2.189   1.543   0.969
 3956SOL    HW112767   2.225   1.461   1.013
 3956SOL    HW212768   2.245   1.565   0.889
 3957SOL     OW12769   4.249   2.013   3.759
 3957SOL    HW112770   4.158   1.975   3.776
 3957SOL    HW212771   4.290   1.968   3.679
 3958SOL     OW12772   5.148   6.592   6.101
 3958SOL    HW112773   5.161   6.497   6.073
 3958SOL    HW212774   5.066   6.600   6.157
 3959SOL     OW12775   5.623   5.654   6.250
 3959SOL    HW112776   5.574   5.694   6.328
 3959SOL    HW212777   5.713   5.623   6.279
 3960SOL     OW12778   6.066   2.373   4.618
 3960SOL    HW112779   6.000   2.351   4.547
 3960SOL    HW212780   6.031   2.343   4.707
 3961SOL     OW12781   5.141   6.796   4.542
 3961SOL    HW112782   5.048   6.802   4.578
 3961SOL    HW212783   5.187   6.884   4.553
 3962SOL     OW12784   6.807   5.318   4.865
 3962SOL    HW112785   6.816   5.266   4.949
 3962SOL    HW212786   6.739   5.390   4.877
 3963SOL     OW12787   3.399   6.435   1.774
 3963SOL    HW112788   3.499   6.432   1.776
 3963SOL    HW212789   3.365   6.454   1.866
 3964SOL     OW12790   5.943   2.512   3.736
 3964SOL    HW112791   6.006   2.504   3.659
 3964SOL    HW212792   5.984   2.569   3.808
 3965SOL     OW12793   5.248   4.040   4.207
 3965SOL    HW112794   5.314   4.008   4.140
 3965SOL    HW212795   5.276   4.130   4.242
 3966SOL     OW12796   2.934   6.580   6.707
 3966SOL    HW112797   2.843   6.621   6.698
 3966SOL    HW212798   3.003   6.652   6.709
 3967SOL     OW12799   1.518   4.123   3.942
 3967SOL    HW112800   1.563   4.144   4.029
 3967SOL    HW212801   1.581   4.070   3.885
 3968SOL     OW12802   4.218   6.696   0.687
 3968SOL    HW112803   4.190   6.639   0.765
 3968SOL    HW212804   4.269   6.775   0.720
 3969SOL     OW12805   0.166   4.302   3.342
 3969SOL    HW112806   0.206   4.316   3.432
 3969SOL    HW212807   0.173   4.205   3.317
 3970SOL     OW12808   4.482   6.343   1.388
 3970SOL    HW112809   4.500   6.269   1.452
 3970SOL    HW212810   4.503   6.431   1.431
 3971SOL     OW12811   0.720   5.880   3.739
 3971SOL    HW112812   0.727   5.870   3.639
 3971SOL    HW212813   0.719   5.977   3.762
 3972SOL     OW12814   1.604   3.854   0.312
 3972SOL    HW112815   1.564   3.934   0.266
 3972SOL    HW212816   1.595   3.774   0.253
 3973SOL     OW12817   1.790   4.531   0.845
 3973SOL    HW112818   1.868   4.491   0.797
 3973SOL    HW212819   1.822   4.589   0.919
 3974SOL     OW12820   3.138   0.569   6.253
 3974SOL    HW112821   3.126   0.655   6.205
 3974SOL    HW212822   3.048   0.531   6.277
 3975SOL     OW12823   6.830   2.970   0.026
 3975SOL    HW112824   6.801   2.875   0.040
 3975SOL    HW212825   6.818   3.021   0.111
 3976SOL     OW12826   1.558   4.286   2.881
 3976SOL    HW112827   1.496   4.210   2.901
 3976SOL    HW212828   1.506   4.369   2.863
 3977SOL     OW12829   0.666   2.448   0.158
 3977SOL    HW112830   0.614   2.426   0.076
 3977SOL    HW212831   0.731   2.375   0.178
 3978SOL     OW12832   5.512   4.042   4.055
 3978SOL    HW112833   5.582   4.110   4.034
 3978SOL    HW212834   5.548   3.950   4.037
 3979SOL     OW12835   3.794   5.834   6.037
 3979SOL    HW112836   3.725   5.904   6.057
 3979SOL    HW212837   3.774   5.751   6.089
 3980SOL     OW12838   5.408   4.714   5.890
 3980SOL    HW112839   5.364   4.749   5.807
 3980SOL    HW212840   5.383   4.618   5.903
 3981SOL     OW12841   4.547   5.517   6.581
 3981SOL    HW112842   4.635   5.477   6.555
 3981SOL    HW212843   4.557   5.567   6.667
 3982SOL     OW12844   2.252   6.388   2.834
 3982SOL    HW112845   2.272   6.471   2.887
 3982SOL    HW212846   2.156   6.362   2.847
 3983SOL     OW12847   3.427   6.365   4.498
 3983SOL    HW112848   3.329   6.351   4.507
 3983SOL    HW212849   3.461   6.418   4.576
 3984SOL     OW12850   6.185   2.860   3.083
 3984SOL    HW112851   6.238   2.941   3.106
 3984SOL    HW212852   6.113   2.884   3.018
 3985SOL     OW12853   4.173   5.201   6.276
 3985SOL    HW112854   4.120   5.122   6.242
 3985SOL    HW212855   4.135   5.231   6.363
 3986SOL     OW12856   5.291   0.518   2.939
 3986SOL    HW112857   5.198   0.530   2.972
 3986SOL    HW212858   5.298   0.431   2.890
 3987SOL     OW12859   3.453   5.367   5.624
 3987SOL    HW112860   3.519   5.302   5.664
 3987SOL    HW212861   3.370   5.318   5.599
 3988SOL     OW12862   4.838   5.936   0.825
 3988SOL    HW112863   4.937   5.946   0.815
 3988SOL    HW212864   4.793   5.962   0.741
 3989SOL     OW12865   6.435   2.799   1.439
 3989SOL    HW112866   6.532   2.819   1.425
 3989SOL    HW212867   6.382   2.882   1.423
 3990SOL     OW12868   6.733   1.482   1.639
 3990SOL    HW112869   6.683   1.566   1.660
 3990SOL    HW212870   6.686   1.433   1.565
 3991SOL     OW12871   5.229   1.409   3.488
 3991SOL    HW112872   5.187   1.319   3.479
 3991SOL    HW212873   5.175   1.477   3.438
 3992SOL     OW12874   4.744   1.683   1.641
 3992SOL    HW112875   4.699   1.673   1.730
 3992SOL    HW212876   4.700   1.755   1.589
 3993SOL     OW12877   1.263   3.404   1.368
 3993SOL    HW112878   1.247   3.458   1.451
 3993SOL    HW212879   1.206   3.439   1.294
 3994SOL     OW12880   2.540   5.626   4.406
 3994SOL    HW112881   2.520   5.618   4.309
 3994SOL    HW212882   2.585   5.542   4.438
 3995SOL     OW12883   1.585   2.380   3.835
 3995SOL    HW112884   1.538   2.371   3.748
 3995SOL    HW212885   1.664   2.439   3.824
 3996SOL     OW12886   0.032   5.647   4.540
 3996SOL    HW112887   0.038   5.567   4.600
 3996SOL    HW212888   7.009   5.621   4.454
 3997SOL     OW12889   2.920   0.637   2.967
 3997SOL    HW112890   3.007   0.588   2.977
 3997SOL    HW212891   2.909   0.667   2.872
 3998SOL     OW12892   4.448   2.058   3.031
 3998SOL    HW112893   4.473   2.013   2.945
 3998SOL    HW212894   4.436   2.156   3.016
 3999SOL     OW12895   4.439   1.519   4.294
 3999SOL    HW112896   4.430   1.568   4.381
 3999SOL    HW212897   4.395   1.572   4.221
 4000SOL     OW12898   4.781   5.428   4.816
 4000SOL    HW112899   4.775   5.514   4.765
 4000SOL    HW212900   4.867   5.383   4.795
 4001SOL     OW12901   0.538   1.881   4.903
 4001SOL    HW112902   0.635   1.881   4.925
 4001SOL    HW212903   0.526   1.879   4.804
 4002SOL     OW12904   2.123   4.888   1.837
 4002SOL    HW112905   2.135   4.824   1.912
 4002SOL    HW212906   2.093   4.977   1.873
 4003SOL     OW12907   3.859   2.173   4.796
 4003SOL    HW112908   3.895   2.178   4.703
 4003SOL    HW212909   3.772   2.124   4.796
 4004SOL     OW12910   6.846   1.847   6.435
 4004SOL    HW112911   6.790   1.777   6.391
 4004SOL    HW212912   6.902   1.804   6.507
 4005SOL     OW12913   6.682   4.908   4.483
 4005SOL    HW112914   6.622   4.859   4.546
 4005SOL    HW212915   6.692   5.003   4.515
 4006SOL     OW12916   3.833   6.284   3.434
 4006SOL    HW112917   3.801   6.192   3.411
 4006SOL    HW212918   3.929   6.280   3.464
 4007SOL     OW12919   0.452   1.707   5.509
 4007SOL    HW112920   0.511   1.706   5.429
 4007SOL    HW212921   0.492   1.650   5.581
 4008SOL     OW12922   2.854   1.315   5.249
 4008SOL    HW112923   2.795   1.270   5.182
 4008SOL    HW212924   2.949   1.297   5.226
 4009SOL     OW12925   3.518   3.969   2.838
 4009SOL    HW112926   3.500   3.874   2.863
 4009SOL    HW212927   3.432   4.019   2.831
 4010SOL     OW12928   1.371   3.092   0.516
 4010SOL    HW112929   1.458   3.124   0.554
 4010SOL    HW212930   1.381   2.998   0.484
 4011SOL     OW12931   0.554   1.286   0.552
 4011SOL    HW112932   0.647   1.260   0.575
 4011SOL    HW212933   0.556   1.352   0.476
 4012SOL     OW12934   5.361   3.335   3.330
 4012SOL    HW112935   5.392   3.244   3.359
 4012SOL    HW212936   5.391   3.353   3.236
 4013SOL     OW12937   5.146   2.703   2.659
 4013SOL    HW112938   5.235   2.715   2.704
 4013SOL    HW212939   5.120   2.607   2.663
 4014SOL     OW12940   5.114   4.577   2.593
 4014SOL    HW112941   5.169   4.508   2.639
 4014SOL    HW212942   5.153   4.597   2.503
 4015SOL     OW12943   5.316   3.462   0.465
 4015SOL    HW112944   5.284   3.472   0.559
 4015SOL    HW212945   5.364   3.546   0.437
 4016SOL     OW12946   2.944   6.590   4.605
 4016SOL    HW112947   2.965   6.551   4.694
 4016SOL    HW212948   2.931   6.517   4.538
 4017SOL     OW12949   5.611   6.888   6.277
 4017SOL    HW112950   5.666   6.806   6.260
 4017SOL    HW212951   5.525   6.881   6.227
 4018SOL     OW12952   2.174   0.276   6.584
 4018SOL    HW112953   2.207   0.361   6.543
 4018SOL    HW212954   2.133   0.295   6.673
 4019SOL     OW12955   5.176   6.731   4.264
 4019SOL    HW112956   5.233   6.813   4.256
 4019SOL    HW212957   5.136   6.726   4.355
 4020SOL     OW12958   5.474   1.748   4.122
 4020SOL    HW112959   5.490   1.846   4.110
 4020SOL    HW212960   5.548   1.709   4.176
 4021SOL     OW12961   5.344   3.509   0.110
 4021SOL    HW112962   5.299   3.450   0.042
 4021SOL    HW212963   5.431   3.467   0.137
 4022SOL     OW12964   5.828   0.808   1.253
 4022SOL    HW112965   5.761   0.740   1.282
 4022SOL    HW212966   5.783   0.878   1.197
 4023SOL     OW12967   6.555   6.006   5.266
 4023SOL    HW112968   6.595   6.095   5.285
 4023SOL    HW212969   6.458   6.008   5.289
 4024SOL     OW12970   4.387   4.340   5.595
 4024SOL    HW112971   4.318   4.304   5.658
 4024SOL    HW212972   4.435   4.416   5.637
 4025SOL     OW12973   6.866   3.825   4.155
 4025SOL    HW112974   6.810   3.788   4.081
 4025SOL    HW212975   6.901   3.750   4.211
 4026SOL     OW12976   6.285   1.116   4.919
 4026SOL    HW112977   6.244   1.195   4.873
 4026SOL    HW212978   6.213   1.060   4.960
 4027SOL     OW12979   2.620   4.947   2.787
 4027SOL    HW112980   2.566   4.907   2.862
 4027SOL    HW212981   2.659   4.874   2.731
 4028SOL     OW12982   1.465   5.467   3.080
 4028SOL    HW112983   1.395   5.402   3.052
 4028SOL    HW212984   1.556   5.430   3.058
 4029SOL     OW12985   1.577   3.947   3.510
 4029SOL    HW112986   1.589   3.982   3.417
 4029SOL    HW212987   1.645   3.876   3.528
 4030SOL     OW12988   2.417   1.058   6.411
 4030SOL    HW112989   2.394   0.961   6.412
 4030SOL    HW212990   2.372   1.104   6.487
 4031SOL     OW12991   6.767   5.921   4.331
 4031SOL    HW112992   6.797   5.870   4.250
 4031SOL    HW212993   6.671   5.902   4.348
 4032SOL     OW12994   3.522   6.641   5.250
 4032SOL    HW112995   3.609   6.615   5.292
 4032SOL    HW212996   3.480   6.560   5.207
 4033SOL     OW12997   3.616   4.034   6.454
 4033SOL    HW112998   3.689   4.086   6.411
 4033SOL    HW212999   3.656   3.965   6.514
 4034SOL     OW13000   5.853   3.505   5.094
 4034SOL    HW113001   5.864   3.436   5.165
 4034SOL    HW213002   5.762   3.544   5.098
 4035SOL     OW13003   0.179   6.537   2.100
 4035SOL    HW113004   0.104   6.471   2.105
 4035SOL    HW213005   0.263   6.494   2.132
 4036SOL     OW13006   5.868   5.888   1.257
 4036SOL    HW113007   5.932   5.878   1.181
 4036SOL    HW213008   5.907   5.845   1.339
 4037SOL     OW13009   0.773   3.652   6.304
 4037SOL    HW113010   0.856   3.697   6.272
 4037SOL    HW213011   0.693   3.709   6.281
 4038SOL     OW13012   6.347   5.430   3.389
 4038SOL    HW113013   6.326   5.381   3.474
 4038SOL    HW213014   6.266   5.428   3.329
 4039SOL     OW13015   2.773   4.881   1.233
 4039SOL    HW113016   2.688   4.929   1.251
 4039SOL    HW213017   2.815   4.853   1.320
 4040SOL     OW13018   3.124   6.814   0.095
 4040SOL    HW113019   3.072   6.749   0.040
 4040SOL    HW213020   3.088   6.816   0.188
 4041SOL     OW13021   0.330   6.241   3.340
 4041SOL    HW113022   0.333   6.312   3.411
 4041SOL    HW213023   0.282   6.276   3.260
 4042SOL     OW13024   5.446   5.127   1.641
 4042SOL    HW113025   5.402   5.138   1.551
 4042SOL    HW213026   5.424   5.036   1.677
 4043SOL     OW13027   0.228   3.500   1.042
 4043SOL    HW113028   0.281   3.580   1.072
 4043SOL    HW213029   0.216   3.438   1.119
 4044SOL     OW13030   5.403   4.757   2.489
 4044SOL    HW113031   5.341   4.692   2.445
 4044SOL    HW213032   5.488   4.710   2.514
 4045SOL     OW13033   2.712   5.360   5.329
 4045SOL    HW113034   2.749   5.310   5.251
 4045SOL    HW213035   2.780   5.364   5.402
 4046SOL     OW13036   0.639   3.500   0.337
 4046SOL    HW113037   0.736   3.507   0.362
 4046SOL    HW213038   0.593   3.586   0.361
 4047SOL     OW13039   2.877   3.441   3.287
 4047SOL    HW113040   2.929   3.526   3.299
 4047SOL    HW213041   2.844   3.435   3.193
 4048SOL     OW13042   4.991   2.259   0.217
 4048SOL    HW113043   5.087   2.239   0.198
 4048SOL    HW213044   4.938   2.175   0.219
 4049SOL     OW13045   7.016   6.449   6.626
 4049SOL    HW113046   0.016   6.474   6.720
 4049SOL    HW213047   0.056   6.375   6.597
 4050SOL     OW13048   2.338   1.179   2.605
 4050SOL    HW113049   2.347   1.266   2.556
 4050SOL    HW213050   2.429   1.145   2.628
 4051SOL     OW13051   2.781   3.641   0.887
 4051SOL    HW113052   2.865   3.624   0.939
 4051SOL    HW213053   2.761   3.560   0.831
 4052SOL     OW13054   1.211   0.303   0.830
 4052SOL    HW113055   1.138   0.266   0.888
 4052SOL    HW213056   1.291   0.324   0.886
 4053SOL     OW13057   2.382   5.400   2.493
 4053SOL    HW113058   2.473   5.359   2.501
 4053SOL    HW213059   2.387   5.496   2.519
 4054SOL     OW13060   5.157   1.604   6.485
 4054SOL    HW113061   5.226   1.534   6.466
 4054SOL    HW213062   5.117   1.587   6.575
 4055SOL     OW13063   4.453   3.730   6.323
 4055SOL    HW113064   4.373   3.757   6.269
 4055SOL    HW213065   4.527   3.702   6.261
 4056SOL     OW13066   4.309   2.930   6.814
 4056SOL    HW113067   4.376   3.001   6.793
 4056SOL    HW213068   4.236   2.931   6.746
 4057SOL     OW13069   6.377   2.585   0.535
 4057SOL    HW113070   6.392   2.612   0.630
 4057SOL    HW213071   6.446   2.517   0.509
 4058SOL     OW13072   0.729   3.735   4.005
 4058SOL    HW113073   0.809   3.677   4.020
 4058SOL    HW213074   0.757   3.831   4.010
 4059SOL     OW13075   0.178   1.961   4.721
 4059SOL    HW113076   0.194   1.986   4.817
 4059SOL    HW213077   0.191   1.862   4.710
 4060SOL     OW13078   2.236   6.735   5.998
 4060SOL    HW113079   2.194   6.659   6.047
 4060SOL    HW213080   2.314   6.701   5.945
 4061SOL     OW13081   2.016   2.719   1.646
 4061SOL    HW113082   1.926   2.682   1.666
 4061SOL    HW213083   2.018   2.752   1.551
 4062SOL     OW13084   2.783   0.831   3.459
 4062SOL    HW113085   2.724   0.905   3.426
 4062SOL    HW213086   2.812   0.774   3.381
 4063SOL     OW13087   3.565   6.372   6.190
 4063SOL    HW113088   3.549   6.405   6.283
 4063SOL    HW213089   3.660   6.391   6.164
 4064SOL     OW13090   6.132   6.737   4.704
 4064SOL    HW113091   6.207   6.802   4.719
 4064SOL    HW213092   6.050   6.786   4.676
 4065SOL     OW13093   1.116   4.549   5.786
 4065SOL    HW113094   1.096   4.582   5.878
 4065SOL    HW213095   1.039   4.495   5.753
 4066SOL     OW13096   4.832   4.517   2.165
 4066SOL    HW113097   4.847   4.600   2.220
 4066SOL    HW213098   4.751   4.469   2.198
 4067SOL     OW13099   5.321   0.422   1.390
 4067SOL    HW113100   5.358   0.432   1.298
 4067SOL    HW213101   5.371   0.482   1.453
 4068SOL     OW13102   5.204   0.827   4.634
 4068SOL    HW113103   5.284   0.885   4.620
 4068SOL    HW213104   5.156   0.815   4.547
 4069SOL     OW13105   6.676   6.205   0.781
 4069SOL    HW113106   6.699   6.185   0.686
 4069SOL    HW213107   6.719   6.138   0.841
 4070SOL     OW13108   6.757   3.800   2.237
 4070SOL    HW113109   6.832   3.837   2.293
 4070SOL    HW213110   6.795   3.747   2.161
 4071SOL     OW13111   2.774   6.948   4.734
 4071SOL    HW113112   2.763   6.877   4.663
 4071SOL    HW213113   2.871   6.962   4.751
 4072SOL     OW13114   0.338   0.231   4.428
 4072SOL    HW113115   0.292   0.155   4.382
 4072SOL    HW213116   0.312   0.233   4.524
 4073SOL     OW13117   2.561   4.457   1.805
 4073SOL    HW113118   2.521   4.480   1.717
 4073SOL    HW213119   2.660   4.451   1.797
 4074SOL     OW13120   0.280   2.941   1.732
 4074SOL    HW113121   0.337   2.948   1.814
 4074SOL    HW213122   0.223   3.023   1.725
 4075SOL     OW13123   6.736   0.517   3.442
 4075SOL    HW113124   6.678   0.530   3.361
 4075SOL    HW213125   6.764   0.606   3.478
 4076SOL     OW13126   1.845   3.760   3.301
 4076SOL    HW113127   1.788   3.732   3.378
 4076SOL    HW213128   1.868   3.857   3.310
 4077SOL     OW13129   4.032   0.738   1.919
 4077SOL    HW113130   4.057   0.773   2.009
 4077SOL    HW213131   3.995   0.812   1.863
 4078SOL     OW13132   4.858   4.550   2.566
 4078SOL    HW113133   4.956   4.560   2.583
 4078SOL    HW213134   4.833   4.603   2.485
 4079SOL     OW13135   4.286   1.289   3.045
 4079SOL    HW113136   4.264   1.324   3.137
 4079SOL    HW213137   4.381   1.259   3.044
 4080SOL     OW13138   3.688   4.124   4.506
 4080SOL    HW113139   3.717   4.156   4.596
 4080SOL    HW213140   3.768   4.104   4.449
 4081SOL     OW13141   2.614   0.106   0.222
 4081SOL    HW113142   2.657   0.099   0.132
 4081SOL    HW213143   2.613   0.202   0.251
 4082SOL     OW13144   1.915   1.437   5.747
 4082SOL    HW113145   1.940   1.441   5.650
 4082SOL    HW213146   1.843   1.503   5.766
 4083SOL     OW13147   5.708   4.312   2.447
 4083SOL    HW113148   5.622   4.284   2.490
 4083SOL    HW213149   5.734   4.245   2.378
 4084SOL     OW13150   4.105   5.867   3.039
 4084SOL    HW113151   4.090   5.897   3.133
 4084SOL    HW213152   4.151   5.939   2.988
 4085SOL     OW13153   1.839   4.313   2.466
 4085SOL    HW113154   1.776   4.277   2.397
 4085SOL    HW213155   1.820   4.410   2.481
 4086SOL     OW13156   5.956   5.055   5.124
 4086SOL    HW113157   5.878   5.002   5.090
 4086SOL    HW213158   5.940   5.079   5.220
 4087SOL     OW13159   1.442   1.372   1.345
 4087SOL    HW113160   1.353   1.411   1.369
 4087SOL    HW213161   1.430   1.278   1.313
 4088SOL     OW13162   0.121   2.493   4.942
 4088SOL    HW113163   0.138   2.399   4.970
 4088SOL    HW213164   0.165   2.556   5.007
 4089SOL     OW13165   6.623   6.437   2.559
 4089SOL    HW113166   6.576   6.349   2.566
 4089SOL    HW213167   6.610   6.475   2.467
 4090SOL     OW13168   3.606   2.472   5.444
 4090SOL    HW113169   3.597   2.375   5.423
 4090SOL    HW213170   3.522   2.520   5.417
 4091SOL     OW13171   4.314   7.008   3.448
 4091SOL    HW113172   4.291   0.003   3.544
 4091SOL    HW213173   4.346   0.073   3.407
 4092SOL     OW13174   4.511   1.933   6.607
 4092SOL    HW113175   4.464   1.845   6.595
 4092SOL    HW213176   4.596   1.919   6.657
 4093SOL     OW13177   5.780   4.322   1.449
 4093SOL    HW113178   5.855   4.256   1.445
 4093SOL    HW213179   5.749   4.331   1.544
 4094SOL     OW13180   6.266   6.023   0.227
 4094SOL    HW113181   6.338   6.022   0.157
 4094SOL    HW213182   6.183   6.062   0.188
 4095SOL     OW13183   1.443   5.327   7.001
 4095SOL    HW113184   1.475   5.234   7.017
 4095SOL    HW213185   1.441   5.377   0.067
 4096SOL     OW13186   0.903   6.524   6.022
 4096SOL    HW113187   0.986   6.579   6.022
 4096SOL    HW213188   0.921   6.437   6.067
 4097SOL     OW13189   1.864   3.817   6.104
 4097SOL    HW113190   1.880   3.893   6.041
 4097SOL    HW213191   1.806   3.749   6.061
 4098SOL     OW13192   1.296   5.863   1.790
 4098SOL    HW113193   1.296   5.824   1.697
 4098SOL    HW213194   1.389   5.861   1.826
 4099SOL     OW13195   0.067   2.625   5.840
 4099SOL    HW113196   0.093   2.540   5.885
 4099SOL    HW213197   7.014   2.669   5.891
 4100SOL     OW13198   2.129   0.942   3.596
 4100SOL    HW113199   2.185   0.874   3.548
 4100SOL    HW213200   2.060   0.978   3.534
 4101SOL     OW13201   5.637   6.143   6.081
 4101SOL    HW113202   5.680   6.144   6.171
 4101SOL    HW213203   5.676   6.215   6.025
 4102SOL     OW13204   2.844   5.132   0.694
 4102SOL    HW113205   2.873   5.138   0.599
 4102SOL    HW213206   2.750   5.167   0.702
 4103SOL     OW13207   2.168   5.338   2.325
 4103SOL    HW113208   2.090   5.379   2.373
 4103SOL    HW213209   2.248   5.338   2.384
 4104SOL     OW13210   2.447   5.624   5.478
 4104SOL    HW113211   2.445   5.525   5.460
 4104SOL    HW213212   2.541   5.658   5.467
 4105SOL     OW13213   3.913   0.387   1.877
 4105SOL    HW113214   3.953   0.300   1.904
 4105SOL    HW213215   3.967   0.427   1.803
 4106SOL     OW13216   1.515   6.846   3.053
 4106SOL    HW113217   1.475   6.864   2.963
 4106SOL    HW213218   1.452   6.789   3.106
 4107SOL     OW13219   2.403   2.158   0.802
 4107SOL    HW113220   2.501   2.142   0.806
 4107SOL    HW213221   2.371   2.195   0.890
 4108SOL     OW13222   0.787   5.525   5.254
 4108SOL    HW113223   0.867   5.481   5.296
 4108SOL    HW213224   0.738   5.577   5.324
 4109SOL     OW13225   5.431   0.374   5.185
 4109SOL    HW113226   5.354   0.437   5.193
 4109SOL    HW213227   5.491   0.383   5.264
 4110SOL     OW13228   4.796   2.323   0.538
 4110SOL    HW113229   4.833   2.294   0.449
 4110SOL    HW213230   4.806   2.248   0.604
 4111SOL     OW13231   6.382   4.477   4.213
 4111SOL    HW113232   6.342   4.529   4.289
 4111SOL    HW213233   6.321   4.482   4.133
 4112SOL     OW13234   3.818   5.099   5.165
 4112SOL    HW113235   3.883   5.076   5.237
 4112SOL    HW213236   3.730   5.124   5.206
 4113SOL     OW13237   5.266   6.112   5.904
 4113SOL    HW113238   5.213   6.047   5.850
 4113SOL    HW213239   5.205   6.164   5.963
 4114SOL     OW13240   6.330   1.397   3.595
 4114SOL    HW113241   6.349   1.477   3.652
 4114SOL    HW213242   6.234   1.398   3.567
 4115SOL     OW13243   4.657   0.184   4.629
 4115SOL    HW113244   4.744   0.134   4.632
 4115SOL    HW213245   4.592   0.133   4.572
 4116SOL     OW13246   5.625   3.470   3.208
 4116SOL    HW113247   5.651   3.563   3.180
 4116SOL    HW213248   5.577   3.425   3.133
 4117SOL     OW13249   0.755   3.142   2.774
 4117SOL    HW113250   0.714   3.070   2.829
 4117SOL    HW213251   0.855   3.140   2.786
 4118SOL     OW13252   0.787   1.032   1.793
 4118SOL    HW113253   0.826   1.083   1.717
 4118SOL    HW213254   0.844   1.044   1.874
 4119SOL     OW13255   6.388   1.209   4.369
 4119SOL    HW113256   6.351   1.267   4.296
 4119SOL    HW213257   6.487   1.211   4.366
 4120SOL     OW13258   1.977   0.117   0.227
 4120SOL    HW113259   2.035   0.075   0.158
 4120SOL    HW213260   1.934   0.199   0.189
 4121SOL     OW13261   6.602   0.150   1.342
 4121SOL    HW113262   6.630   0.130   1.248
 4121SOL    HW213263   6.506   0.123   1.355
 4122SOL     OW13264   0.929   4.314   3.231
 4122SOL    HW113265   0.962   4.325   3.324
 4122SOL    HW213266   0.831   4.333   3.228
 4123SOL     OW13267   5.791   4.572   2.059
 4123SOL    HW113268   5.708   4.621   2.084
 4123SOL    HW213269   5.839   4.621   1.987
 4124SOL     OW13270   5.428   6.132   0.372
 4124SOL    HW113271   5.392   6.224   0.358
 4124SOL    HW213272   5.413   6.077   0.289
 4125SOL     OW13273   0.900   2.875   0.078
 4125SOL    HW113274   0.837   2.831   0.014
 4125SOL    HW213275   0.915   2.816   0.157
 4126SOL     OW13276   1.865   4.222   3.111
 4126SOL    HW113277   1.813   4.307   3.095
 4126SOL    HW213278   1.815   4.145   3.072
 4127SOL     OW13279   4.798   2.683   4.070
 4127SOL    HW113280   4.814   2.780   4.083
 4127SOL    HW213281   4.762   2.643   4.155
 4128SOL     OW13282   6.269   2.885   6.447
 4128SOL    HW113283   6.208   2.806   6.455
 4128SOL    HW213284   6.223   2.957   6.396
 4129SOL     OW13285   3.437   6.937   2.176
 4129SOL    HW113286   3.423   0.015   2.177
 4129SOL    HW213287   3.439   6.905   2.081
 4130SOL     OW13288   5.020   1.070   6.971
 4130SOL    HW113289   4.999   0.975   6.946
 4130SOL    HW213290   5.087   1.107   6.908
 4131SOL     OW13291   5.404   5.794   4.505
 4131SOL    HW113292   5.456   5.878   4.520
 4131SOL    HW213293   5.434   5.752   4.419
 4132SOL     OW13294   7.020   3.488   2.244
 4132SOL    HW113295   0.034   3.433   2.320
 4132SOL    HW213296   6.920   3.483   2.243
 4133SOL     OW13297   5.341   6.169   3.846
 4133SOL    HW113298   5.330   6.134   3.753
 4133SOL    HW213299   5.340   6.269   3.844
 4134SOL     OW13300   2.062   2.753   1.036
 4134SOL    HW113301   2.153   2.720   1.061
 4134SOL    HW213302   2.019   2.689   0.973
 4135SOL     OW13303   6.139   0.470   0.879
 4135SOL    HW113304   6.084   0.538   0.927
 4135SOL    HW213305   6.139   0.385   0.931
 4136SOL     OW13306   0.615   5.154   0.116
 4136SOL    HW113307   0.660   5.087   0.175
 4136SOL    HW213308   0.684   5.210   0.070
 4137SOL     OW13309   0.449   2.299   5.051
 4137SOL    HW113310   0.395   2.367   5.100
 4137SOL    HW213311   0.521   2.264   5.110
 4138SOL     OW13312   5.722   6.527   6.553
 4138SOL    HW113313   5.682   6.583   6.626
 4138SOL    HW213314   5.814   6.561   6.533
 4139SOL     OW13315   1.450   4.174   1.976
 4139SOL    HW113316   1.361   4.129   1.966
 4139SOL    HW213317   1.438   4.260   2.027
 4140SOL     OW13318   2.738   6.773   0.662
 4140SOL    HW113319   2.764   6.723   0.579
 4140SOL    HW213320   2.737   6.709   0.739
 4141SOL     OW13321   4.954   0.110   6.170
 4141SOL    HW113322   4.934   0.136   6.264
 4141SOL    HW213323   4.882   0.048   6.136
 4142SOL     OW13324   0.094   6.836   1.799
 4142SOL    HW113325   0.114   6.751   1.750
 4142SOL    HW213326   0.079   6.815   1.896
 4143SOL     OW13327   6.540   3.787   6.686
 4143SOL    HW113328   6.502   3.721   6.620
 4143SOL    HW213329   6.511   3.762   6.778
 4144SOL     OW13330   5.044   0.471   1.461
 4144SOL    HW113331   5.133   0.452   1.421
 4144SOL    HW213332   5.048   0.459   1.560
 4145SOL     OW13333   4.429   0.984   1.263
 4145SOL    HW113334   4.330   1.000   1.264
 4145SOL    HW213335   4.471   1.041   1.192
 4146SOL     OW13336   3.007   1.316   1.945
 4146SOL    HW113337   3.106   1.316   1.956
 4146SOL    HW213338   2.978   1.229   1.904
 4147SOL     OW13339   5.242   4.213   0.140
 4147SOL    HW113340   5.170   4.144   0.151
 4147SOL    HW213341   5.315   4.176   0.083
 4148SOL     OW13342   3.356   0.894   6.312
 4148SOL    HW113343   3.372   0.908   6.214
 4148SOL    HW213344   3.370   0.797   6.334
 4149SOL     OW13345   2.102   2.438   6.310
 4149SOL    HW113346   2.146   2.517   6.266
 4149SOL    HW213347   2.012   2.465   6.345
 4150SOL     OW13348   0.221   1.540   1.388
 4150SOL    HW113349   0.165   1.519   1.308
 4150SOL    HW213350   0.244   1.638   1.388
 4151SOL     OW13351   2.845   5.539   4.550
 4151SOL    HW113352   2.899   5.479   4.609
 4151SOL    HW213353   2.820   5.622   4.601
 4152SOL     OW13354   2.893   4.164   1.304
 4152SOL    HW113355   2.848   4.178   1.392
 4152SOL    HW213356   2.872   4.240   1.243
 4153SOL     OW13357   5.828   6.561   0.540
 4153SOL    HW113358   5.749   6.616   0.568
 4153SOL    HW213359   5.798   6.468   0.522
 4154SOL     OW13360   0.844   6.494   3.362
 4154SOL    HW113361   0.826   6.579   3.411
 4154SOL    HW213362   0.887   6.514   3.274
 4155SOL     OW13363   5.219   1.060   2.551
 4155SOL    HW113364   5.221   1.035   2.454
 4155SOL    HW213365   5.284   1.004   2.602
 4156SOL     OW13366   0.853   5.658   5.866
 4156SOL    HW113367   0.798   5.592   5.814
 4156SOL    HW213368   0.842   5.639   5.964
 4157SOL     OW13369   4.403   6.303   0.614
 4157SOL    HW113370   4.394   6.397   0.580
 4157SOL    HW213371   4.473   6.301   0.686
 4158SOL     OW13372   6.734   0.946   6.712
 4158SOL    HW113373   6.735   0.945   6.612
 4158SOL    HW213374   6.815   0.994   6.746
 4159SOL     OW13375   3.399   0.770   4.281
 4159SOL    HW113376   3.363   0.859   4.254
 4159SOL    HW213377   3.352   0.698   4.230
 4160SOL     OW13378   1.374   0.508   5.902
 4160SOL    HW113379   1.392   0.606   5.892
 4160SOL    HW213380   1.403   0.478   5.993
 4161SOL     OW13381   3.380   3.732   5.204
 4161SOL    HW113382   3.304   3.727   5.268
 4161SOL    HW213383   3.415   3.640   5.187
 4162SOL     OW13384   4.459   6.899   1.145
 4162SOL    HW113385   4.453   6.802   1.169
 4162SOL    HW213386   4.508   6.910   1.059
 4163SOL     OW13387   3.750   6.149   1.511
 4163SOL    HW113388   3.684   6.078   1.535
 4163SOL    HW213389   3.728   6.186   1.420
 4164SOL     OW13390   5.904   1.272   0.019
 4164SOL    HW113391   5.992   1.299   0.058
 4164SOL    HW213392   5.913   1.182   6.998
 4165SOL     OW13393   3.225   1.360   4.691
 4165SOL    HW113394   3.150   1.367   4.626
 4165SOL    HW213395   3.213   1.280   4.749
 4166SOL     OW13396   5.656   1.621   2.436
 4166SOL    HW113397   5.692   1.607   2.528
 4166SOL    HW213398   5.728   1.656   2.376
 4167SOL     OW13399   3.775   6.376   4.833
 4167SOL    HW113400   3.765   6.310   4.759
 4167SOL    HW213401   3.852   6.437   4.813
 4168SOL     OW13402   5.579   3.576   6.864
 4168SOL    HW113403   5.612   3.579   6.769
 4168SOL    HW213404   5.557   3.482   6.889
 4169SOL     OW13405   5.204   4.347   6.808
 4169SOL    HW113406   5.107   4.371   6.814
 4169SOL    HW213407   5.214   4.264   6.752
 4170SOL     OW13408   0.997   3.169   5.118
 4170SOL    HW113409   0.898   3.172   5.107
 4170SOL    HW213410   1.038   3.118   5.042
 4171SOL     OW13411   0.008   0.562   5.988
 4171SOL    HW113412   0.084   0.513   6.029
 4171SOL    HW213413   6.949   0.503   5.984
 4172SOL     OW13414   3.608   3.171   0.074
 4172SOL    HW113415   3.584   3.264   0.102
 4172SOL    HW213416   3.585   3.158   6.999
 4173SOL     OW13417   5.533   1.191   5.964
 4173SOL    HW113418   5.488   1.125   6.024
 4173SOL    HW213419   5.557   1.147   5.878
 4174SOL     OW13420   2.406   6.741   3.551
 4174SOL    HW113421   2.421   6.794   3.634
 4174SOL    HW213422   2.375   6.802   3.477
 4175SOL     OW13423   1.609   3.505   6.364
 4175SOL    HW113424   1.538   3.573   6.346
 4175SOL    HW213425   1.699   3.548   6.358
 4176SOL     OW13426   4.461   6.881   5.177
 4176SOL    HW113427   4.502   6.827   5.103
 4176SOL    HW213428   4.527   6.949   5.209
 4177SOL     OW13429   5.096   6.464   4.213
 4177SOL    HW113430   5.121   6.560   4.228
 4177SOL    HW213431   5.164   6.405   4.258
 4178SOL     OW13432   3.388   6.561   0.822
 4178SOL    HW113433   3.381   6.623   0.901
 4178SOL    HW213434   3.366   6.468   0.851
 4179SOL     OW13435   3.876   1.646   0.012
 4179SOL    HW113436   3.875   1.726   6.972
 4179SOL    HW213437   3.851   1.673   0.104
 4180SOL     OW13438   4.099   4.202   6.912
 4180SOL    HW113439   4.114   4.275   6.978
 4180SOL    HW213440   4.007   4.164   6.923
 4181SOL     OW13441   5.007   6.028   5.740
 4181SOL    HW113442   4.942   5.960   5.707
 4181SOL    HW213443   4.958   6.109   5.772
 4182SOL     OW13444   6.565   5.177   5.366
 4182SOL    HW113445   6.631   5.143   5.432
 4182SOL    HW213446   6.558   5.277   5.375
 4183SOL     OW13447   5.746   2.521   0.084
 4183SOL    HW113448   5.727   2.532   0.182
 4183SOL    HW213449   5.659   2.516   0.034
 4184SOL     OW13450   3.530   5.848   3.255
 4184SOL    HW113451   3.450   5.844   3.195
 4184SOL    HW213452   3.513   5.794   3.337
 4185SOL     OW13453   4.469   4.684   3.394
 4185SOL    HW113454   4.479   4.591   3.431
 4185SOL    HW213455   4.543   4.701   3.328
 4186SOL     OW13456   2.052   4.855   0.857
 4186SOL    HW113457   1.960   4.889   0.837
 4186SOL    HW213458   2.073   4.868   0.954
 4187SOL     OW13459   1.181   3.575   6.246
 4187SOL    HW113460   1.174   3.515   6.167
 4187SOL    HW213461   1.120   3.653   6.235
 4188SOL     OW13462   5.082   0.455   6.063
 4188SOL    HW113463   5.119   0.362   6.057
 4188SOL    HW213464   4.984   0.454   6.041
 4189SOL     OW13465   3.443   5.250   3.486
 4189SOL    HW113466   3.479   5.168   3.530
 4189SOL    HW213467   3.461   5.245   3.388
 4190SOL     OW13468   6.382   5.467   1.301
 4190SOL    HW113469   6.441   5.536   1.341
 4190SOL    HW213470   6.286   5.491   1.319
 4191SOL     OW13471   4.950   2.641   5.906
 4191SOL    HW113472   4.892   2.720   5.927
 4191SOL    HW213473   4.940   2.572   5.977
 4192SOL     OW13474   1.922   3.559   6.406
 4192SOL    HW113475   1.937   3.504   6.488
 4192SOL    HW213476   1.941   3.655   6.426
 4193SOL     OW13477   5.384   6.430   1.464
 4193SOL    HW113478   5.391   6.467   1.372
 4193SOL    HW213479   5.471   6.386   1.489
 4194SOL     OW13480   5.577   0.118   7.017
 4194SOL    HW113481   5.483   0.137   0.025
 4194SOL    HW213482   5.618   0.201   6.979
 4195SOL     OW13483   2.031   6.084   0.883
 4195SOL    HW113484   2.088   6.043   0.812
 4195SOL    HW213485   1.934   6.070   0.861
 4196SOL     OW13486   6.214   3.082   2.838
 4196SOL    HW113487   6.149   3.006   2.836
 4196SOL    HW213488   6.181   3.156   2.779
 4197SOL     OW13489   4.154   0.686   6.869
 4197SOL    HW113490   4.148   0.777   6.909
 4197SOL    HW213491   4.136   0.691   6.770
 4198SOL     OW13492   6.553   1.878   2.264
 4198SOL    HW113493   6.637   1.929   2.243
 4198SOL    HW213494   6.561   1.785   2.228
 4199SOL     OW13495   1.661   3.684   0.109
 4199SOL    HW113496   1.747   3.648   0.071
 4199SOL    HW213497   1.591   3.613   0.104
 4200SOL     OW13498   5.209   1.446   2.745
 4200SOL    HW113499   5.162   1.510   2.805
 4200SOL    HW213500   5.170   1.354   2.756
 4201SOL     OW13501   4.934   0.473   5.404
 4201SOL    HW113502   4.877   0.438   5.329
 4201SOL    HW213503   4.875   0.514   5.474
 4202SOL     OW13504   4.355   4.179   1.410
 4202SOL    HW113505   4.410   4.227   1.479
 4202SOL    HW213506   4.349   4.082   1.433
 4203SOL     OW13507   6.377   3.633   4.596
 4203SOL    HW113508   6.343   3.629   4.502
 4203SOL    HW213509   6.423   3.721   4.611
 4204SOL     OW13510   2.340   4.262   5.751
 4204SOL    HW113511   2.339   4.296   5.845
 4204SOL    HW213512   2.302   4.170   5.748
 4205SOL     OW13513   5.684   5.221   5.969
 4205SOL    HW113514   5.658   5.132   5.931
 4205SOL    HW213515   5.602   5.275   5.987
 4206SOL     OW13516   2.420   2.634   5.028
 4206SOL    HW113517   2.357   2.712   5.036
 4206SOL    HW213518   2.383   2.556   5.080
 4207SOL     OW13519   2.938   2.277   1.141
 4207SOL    HW113520   2.935   2.189   1.188
 4207SOL    HW213521   3.029   2.316   1.149
 4208SOL     OW13522   1.536   2.840   3.050
 4208SOL    HW113523   1.503   2.851   2.956
 4208SOL    HW213524   1.633   2.816   3.050
 4209SOL     OW13525   6.824   4.844   2.896
 4209SOL    HW113526   6.749   4.804   2.948
 4209SOL    HW213527   6.791   4.922   2.844
 4210SOL     OW13528   3.532   5.459   5.031
 4210SOL    HW113529   3.629   5.481   5.038
 4210SOL    HW213530   3.507   5.393   5.102
 4211SOL     OW13531   4.945   3.047   6.139
 4211SOL    HW113532   4.863   3.064   6.193
 4211SOL    HW213533   5.019   3.108   6.169
 4212SOL     OW13534   0.667   2.909   2.877
 4212SOL    HW113535   0.601   2.941   2.945
 4212SOL    HW213536   0.636   2.823   2.838
 4213SOL     OW13537   2.870   0.611   4.077
 4213SOL    HW113538   2.804   0.541   4.048
 4213SOL    HW213539   2.931   0.633   4.001
 4214SOL     OW13540   6.510   5.891   4.045
 4214SOL    HW113541   6.474   5.983   4.059
 4214SOL    HW213542   6.578   5.892   3.972
 4215SOL     OW13543   6.112   0.010   5.223
 4215SOL    HW113544   6.095   0.024   5.321
 4215SOL    HW213545   6.060   0.077   5.170
 4216SOL     OW13546   1.747   5.867   2.584
 4216SOL    HW113547   1.660   5.908   2.613
 4216SOL    HW213548   1.789   5.821   2.662
 4217SOL     OW13549   0.137   0.598   2.817
 4217SOL    HW113550   0.059   0.540   2.795
 4217SOL    HW213551   0.110   0.665   2.887
 4218SOL     OW13552   2.633   0.748   1.640
 4218SOL    HW113553   2.535   0.763   1.626
 4218SOL    HW213554   2.651   0.650   1.649
 4219SOL     OW13555   2.791   5.636   2.114
 4219SOL    HW113556   2.746   5.698   2.050
 4219SOL    HW213557   2.759   5.542   2.098
 4220SOL     OW13558   5.583   1.880   1.266
 4220SOL    HW113559   5.499   1.922   1.232
 4220SOL    HW213560   5.608   1.803   1.207
 4221SOL     OW13561   0.757   0.066   1.184
 4221SOL    HW113562   0.845   0.089   1.225
 4221SOL    HW213563   0.687   0.064   1.255
 4222SOL     OW13564   4.867   3.869   4.329
 4222SOL    HW113565   4.890   3.966   4.323
 4222SOL    HW213566   4.851   3.832   4.237
 4223SOL     OW13567   3.296   4.132   2.347
 4223SOL    HW113568   3.213   4.085   2.378
 4223SOL    HW213569   3.348   4.162   2.426
 4224SOL     OW13570   4.740   4.041   5.308
 4224SOL    HW113571   4.688   4.106   5.365
 4224SOL    HW213572   4.709   3.948   5.328
 4225SOL     OW13573   0.591   1.427   6.255
 4225SOL    HW113574   0.651   1.415   6.176
 4225SOL    HW213575   0.510   1.370   6.244
 4226SOL     OW13576   5.304   5.001   4.048
 4226SOL    HW113577   5.352   5.080   4.085
 4226SOL    HW213578   5.370   4.929   4.026
 4227SOL     OW13579   5.695   6.205   0.950
 4227SOL    HW113580   5.715   6.168   0.859
 4227SOL    HW213581   5.776   6.253   0.985
 4228SOL     OW13582   1.995   4.642   3.559
 4228SOL    HW113583   2.074   4.581   3.552
 4228SOL    HW213584   1.911   4.588   3.553
 4229SOL     OW13585   6.068   6.529   6.012
 4229SOL    HW113586   6.120   6.614   6.008
 4229SOL    HW213587   6.117   6.462   6.068
 4230SOL     OW13588   0.790   1.792   2.055
 4230SOL    HW113589   0.767   1.781   2.152
 4230SOL    HW213590   0.855   1.721   2.028
 4231SOL     OW13591   6.673   0.722   5.771
 4231SOL    HW113592   6.710   0.629   5.762
 4231SOL    HW213593   6.594   0.731   5.710
 4232SOL     OW13594   2.457   4.465   2.438
 4232SOL    HW113595   2.463   4.565   2.433
 4232SOL    HW213596   2.511   4.425   2.364
 4233SOL     OW13597   4.822   5.442   2.614
 4233SOL    HW113598   4.844   5.367   2.676
 4233SOL    HW213599   4.780   5.404   2.531
 4234SOL     OW13600   2.980   5.288   6.318
 4234SOL    HW113601   2.996   5.305   6.221
 4234SOL    HW213602   2.941   5.196   6.330
 4235SOL     OW13603   6.736   6.103   0.174
 4235SOL    HW113604   6.825   6.148   0.189
 4235SOL    HW213605   6.679   6.161   0.116
 4236SOL     OW13606   0.204   5.020   3.559
 4236SOL    HW113607   0.269   5.013   3.484
 4236SOL    HW213608   0.156   5.108   3.553
 4237SOL     OW13609   7.017   4.669   4.378
 4237SOL    HW113610   0.069   4.666   4.310
 4237SOL    HW213611   6.929   4.687   4.332
 4238SOL     OW13612   1.979   5.601   3.192
 4238SOL    HW113613   1.997   5.672   3.260
 4238SOL    HW213614   1.908   5.539   3.225
 4239SOL     OW13615   4.059   1.230   3.555
 4239SOL    HW113616   4.046   1.321   3.595
 4239SOL    HW213617   4.027   1.231   3.460
 4240SOL     OW13618   4.681   6.743   1.898
 4240SOL    HW113619   4.668   6.774   1.804
 4240SOL    HW213620   4.621   6.664   1.915
 4241SOL     OW13621   0.578   4.325   6.589
 4241SOL    HW113622   0.509   4.383   6.546
 4241SOL    HW213623   0.644   4.381   6.638
 4242SOL     OW13624   3.886   2.151   2.619
 4242SOL    HW113625   3.871   2.192   2.709
 4242SOL    HW213626   3.969   2.095   2.621
 4243SOL     OW13627   2.401   2.231   2.871
 4243SOL    HW113628   2.469   2.287   2.822
 4243SOL    HW213629   2.442   2.144   2.898
 4244SOL     OW13630   2.903   3.262   5.570
 4244SOL    HW113631   2.863   3.194   5.509
 4244SOL    HW213632   2.833   3.326   5.600
 4245SOL     OW13633   6.672   1.266   5.570
 4245SOL    HW113634   6.746   1.271   5.503
 4245SOL    HW213635   6.601   1.205   5.537
 4246SOL     OW13636   1.163   5.184   6.426
 4246SOL    HW113637   1.104   5.120   6.377
 4246SOL    HW213638   1.150   5.173   6.525
 4247SOL     OW13639   0.406   4.608   5.357
 4247SOL    HW113640   0.482   4.655   5.312
 4247SOL    HW213641   0.337   4.583   5.289
 4248SOL     OW13642   1.951   3.484   6.939
 4248SOL    HW113643   1.940   3.582   6.924
 4248SOL    HW213644   1.913   3.459   0.007
 4249SOL     OW13645   5.118   3.442   6.235
 4249SOL    HW113646   5.106   3.503   6.156
 4249SOL    HW213647   5.206   3.395   6.227
 4250SOL     OW13648   6.710   3.921   3.746
 4250SOL    HW113649   6.744   3.992   3.809
 4250SOL    HW213650   6.653   3.964   3.676
 4251SOL     OW13651   5.976   4.612   6.239
 4251SOL    HW113652   5.965   4.678   6.164
 4251SOL    HW213653   6.069   4.577   6.239
 4252SOL     OW13654   6.206   4.959   5.373
 4252SOL    HW113655   6.123   4.905   5.358
 4252SOL    HW213656   6.182   5.047   5.414
 4253SOL     OW13657   3.027   0.410   3.402
 4253SOL    HW113658   3.097   0.433   3.335
 4253SOL    HW213659   2.937   0.407   3.357
 4254SOL     OW13660   4.074   3.260   3.224
 4254SOL    HW113661   4.093   3.236   3.319
 4254SOL    HW213662   3.987   3.220   3.196
 4255SOL     OW13663   0.779   2.249   4.240
 4255SOL    HW113664   0.802   2.205   4.153
 4255SOL    HW213665   0.691   2.215   4.272
 4256SOL     OW13666   0.666   0.481   1.486
 4256SOL    HW113667   0.737   0.467   1.418
 4256SOL    HW213668   0.706   0.481   1.578
 4257SOL     OW13669   4.308   2.297   4.887
 4257SOL    HW113670   4.213   2.303   4.916
 4257SOL    HW213671   4.313   2.258   4.795
 4258SOL     OW13672   5.481   6.077   2.056
 4258SOL    HW113673   5.401   6.059   1.999
 4258SOL    HW213674   5.453   6.082   2.152
 4259SOL     OW13675   3.018   2.987   1.954
 4259SOL    HW113676   2.992   3.083   1.962
 4259SOL    HW213677   3.004   2.957   1.860
 4260SOL     OW13678   4.303   6.138   5.051
 4260SOL    HW113679   4.219   6.193   5.046
 4260SOL    HW213680   4.284   6.046   5.018
 4261SOL     OW13681   1.251   1.461   2.995
 4261SOL    HW113682   1.313   1.427   2.925
 4261SOL    HW213683   1.190   1.387   3.025
 4262SOL     OW13684   1.210   6.903   5.215
 4262SOL    HW113685   1.207   6.910   5.116
 4262SOL    HW213686   1.279   6.966   5.251
 4263SOL     OW13687   4.176   5.359   6.822
 4263SOL    HW113688   4.209   5.417   6.748
 4263SOL    HW213689   4.246   5.354   6.894
 4264SOL     OW13690   1.712   0.812   1.409
 4264SOL    HW113691   1.745   0.890   1.356
 4264SOL    HW213692   1.682   0.740   1.347
 4265SOL     OW13693   1.954   1.542   1.130
 4265SOL    HW113694   2.022   1.549   1.057
 4265SOL    HW213695   1.933   1.633   1.165
 4266SOL     OW13696   2.747   4.879   0.411
 4266SOL    HW113697   2.683   4.806   0.437
 4266SOL    HW213698   2.716   4.966   0.450
 4267SOL     OW13699   1.441   3.809   5.072
 4267SOL    HW113700   1.500   3.844   5.145
 4267SOL    HW213701   1.434   3.878   5.000
 4268SOL     OW13702   0.546   1.737   1.088
 4268SOL    HW113703   0.521   1.831   1.111
 4268SOL    HW213704   0.645   1.726   1.094
 4269SOL     OW13705   2.748   3.964   0.867
 4269SOL    HW113706   2.725   3.905   0.790
 4269SOL    HW213707   2.840   4.001   0.854
 4270SOL     OW13708   3.875   2.980   6.767
 4270SOL    HW113709   3.818   2.898   6.781
 4270SOL    HW213710   3.889   3.025   6.855
 4271SOL     OW13711   1.942   0.488   1.395
 4271SOL    HW113712   1.990   0.575   1.397
 4271SOL    HW213713   1.844   0.504   1.378
 4272SOL     OW13714   1.416   4.570   3.467
 4272SOL    HW113715   1.407   4.667   3.490
 4272SOL    HW213716   1.329   4.537   3.430
 4273SOL     OW13717   6.802   6.194   3.339
 4273SOL    HW113718   6.761   6.120   3.285
 4273SOL    HW213719   6.734   6.232   3.401
 4274SOL     OW13720   1.716   0.360   3.291
 4274SOL    HW113721   1.634   0.319   3.329
 4274SOL    HW213722   1.793   0.296   3.299
 4275SOL     OW13723   0.312   0.766   5.924
 4275SOL    HW113724   0.216   0.777   5.900
 4275SOL    HW213725   0.339   0.670   5.912
 4276SOL     OW13726   2.181   3.273   3.540
 4276SOL    HW113727   2.156   3.330   3.463
 4276SOL    HW213728   2.178   3.327   3.624
 4277SOL     OW13729   0.459   5.706   5.742
 4277SOL    HW113730   0.536   5.743   5.690
 4277SOL    HW213731   0.493   5.659   5.823
 4278SOL     OW13732   1.331   6.597   6.637
 4278SOL    HW113733   1.325   6.513   6.583
 4278SOL    HW213734   1.262   6.596   6.709
 4279SOL     OW13735   3.840   5.816   3.219
 4279SOL    HW113736   3.929   5.771   3.220
 4279SOL    HW213737   3.775   5.761   3.167
 4280SOL     OW13738   4.958   2.937   4.138
 4280SOL    HW113739   5.054   2.941   4.163
 4280SOL    HW213740   4.947   2.953   4.040
 4281SOL     OW13741   2.056   3.808   4.645
 4281SOL    HW113742   2.099   3.784   4.732
 4281SOL    HW213743   2.066   3.731   4.582
 4282SOL     OW13744   0.668   1.326   6.924
 4282SOL    HW113745   0.757   1.365   6.948
 4282SOL    HW213746   0.596   1.372   6.975
 4283SOL     OW13747   2.877   1.472   3.736
 4283SOL    HW113748   2.846   1.550   3.791
 4283SOL    HW213749   2.868   1.388   3.789
 4284SOL     OW13750   6.895   2.856   3.220
 4284SOL    HW113751   6.808   2.847   3.269
 4284SOL    HW213752   6.913   2.952   3.201
 4285SOL     OW13753   0.604   6.188   4.062
 4285SOL    HW113754   0.518   6.238   4.074
 4285SOL    HW213755   0.671   6.247   4.016
 4286SOL     OW13756   4.651   5.300   6.983
 4286SOL    HW113757   4.703   5.310   6.898
 4286SOL    HW213758   4.575   5.237   6.968
 4287SOL     OW13759   3.759   5.573   6.129
 4287SOL    HW113760   3.721   5.565   6.221
 4287SOL    HW213761   3.756   5.483   6.084
 4288SOL     OW13762   0.849   6.394   3.949
 4288SOL    HW113763   0.924   6.400   4.014
 4288SOL    HW213764   0.886   6.379   3.857
 4289SOL     OW13765   0.766   4.047   6.761
 4289SOL    HW113766   0.848   4.100   6.779
 4289SOL    HW213767   0.766   4.017   6.665
 4290SOL     OW13768   1.590   2.052   2.570
 4290SOL    HW113769   1.670   2.082   2.620
 4290SOL    HW213770   1.614   2.037   2.474
 4291SOL     OW13771   6.901   3.895   1.482
 4291SOL    HW113772   6.804   3.876   1.474
 4291SOL    HW213773   6.920   3.989   1.452
 4292SOL     OW13774   5.524   5.797   4.843
 4292SOL    HW113775   5.606   5.780   4.898
 4292SOL    HW213776   5.515   5.895   4.827
 4293SOL     OW13777   0.653   1.819   0.682
 4293SOL    HW113778   0.609   1.856   0.600
 4293SOL    HW213779   0.598   1.843   0.762
 4294SOL     OW13780   4.476   2.300   6.027
 4294SOL    HW113781   4.537   2.305   6.106
 4294SOL    HW213782   4.509   2.230   5.964
 4295SOL     OW13783   3.560   5.207   5.315
 4295SOL    HW113784   3.536   5.113   5.340
 4295SOL    HW213785   3.481   5.267   5.330
 4296SOL     OW13786   1.941   1.498   2.507
 4296SOL    HW113787   1.916   1.423   2.446
 4296SOL    HW213788   1.971   1.460   2.595
 4297SOL     OW13789   5.428   0.146   0.543
 4297SOL    HW113790   5.401   0.236   0.577
 4297SOL    HW213791   5.377   0.075   0.593
 4298SOL     OW13792   1.792   4.560   1.857
 4298SOL    HW113793   1.708   4.533   1.905
 4298SOL    HW213794   1.784   4.535   1.760
 4299SOL     OW13795   1.195   5.805   5.036
 4299SOL    HW113796   1.165   5.876   5.099
 4299SOL    HW213797   1.116   5.754   5.001
 4300SOL     OW13798   5.885   0.325   5.673
 4300SOL    HW113799   5.974   0.364   5.648
 4300SOL    HW213800   5.812   0.386   5.643
 4301SOL     OW13801   3.095   0.701   0.962
 4301SOL    HW113802   3.189   0.675   0.941
 4301SOL    HW213803   3.039   0.619   0.971
 4302SOL     OW13804   0.964   0.292   0.050
 4302SOL    HW113805   0.940   0.344   6.990
 4302SOL    HW213806   1.005   0.204   0.023
 4303SOL     OW13807   1.007   4.368   2.200
 4303SOL    HW113808   0.972   4.294   2.143
 4303SOL    HW213809   0.970   4.361   2.292
 4304SOL     OW13810   2.802   3.784   5.795
 4304SOL    HW113811   2.867   3.820   5.727
 4304SOL    HW213812   2.831   3.811   5.886
 4305SOL     OW13813   0.410   1.491   4.879
 4305SOL    HW113814   0.398   1.392   4.872
 4305SOL    HW213815   0.394   1.532   4.790
 4306SOL     OW13816   6.412   5.496   5.692
 4306SOL    HW113817   6.467   5.431   5.744
 4306SOL    HW213818   6.322   5.456   5.675
 4307SOL     OW13819   6.061   3.706   1.246
 4307SOL    HW113820   5.985   3.741   1.301
 4307SOL    HW213821   6.039   3.715   1.149
 4308SOL     OW13822   3.215   0.191   5.378
 4308SOL    HW113823   3.268   0.143   5.307
 4308SOL    HW213824   3.117   0.186   5.355
 4309SOL     OW13825   0.889   0.493   1.339
 4309SOL    HW113826   0.871   0.488   1.240
 4309SOL    HW213827   0.970   0.438   1.360
 4310SOL     OW13828   1.407   6.914   2.785
 4310SOL    HW113829   1.484   6.902   2.723
 4310SOL    HW213830   1.346   6.984   2.748
 4311SOL     OW13831   1.164   5.151   4.791
 4311SOL    HW113832   1.151   5.061   4.832
 4311SOL    HW213833   1.117   5.220   4.846
 4312SOL     OW13834   1.369   5.741   2.754
 4312SOL    HW113835   1.330   5.751   2.846
 4312SOL    HW213836   1.302   5.698   2.694
 4313SOL     OW13837   5.049   1.057   1.216
 4313SOL    HW113838   5.073   1.067   1.312
 4313SOL    HW213839   5.014   0.964   1.200
 4314SOL     OW13840   6.681   2.906   1.449
 4314SOL    HW113841   6.710   2.951   1.364
 4314SOL    HW213842   6.733   2.943   1.526
 4315SOL     OW13843   1.320   0.767   2.266
 4315SOL    HW113844   1.304   0.688   2.325
 4315SOL    HW213845   1.290   0.746   2.173
 4316SOL     OW13846   0.189   1.290   2.653
 4316SOL    HW113847   0.160   1.200   2.686
 4316SOL    HW213848   0.113   1.355   2.662
 4317SOL     OW13849   3.850   0.872   3.533
 4317SOL    HW113850   3.821   0.823   3.616
 4317SOL    HW213851   3.949   0.865   3.523
 4318SOL     OW13852   0.087   2.252   5.077
 4318SOL    HW113853   0.046   2.211   4.995
 4318SOL    HW213854   0.123   2.179   5.136
 4319SOL     OW13855   4.033   3.273   6.320
 4319SOL    HW113856   4.053   3.252   6.416
 4319SOL    HW213857   3.999   3.190   6.275
 4320SOL     OW13858   0.137   6.473   3.339
 4320SOL    HW113859   0.081   6.517   3.269
 4320SOL    HW213860   0.080   6.412   3.395
 4321SOL     OW13861   0.422   0.479   4.334
 4321SOL    HW113862   0.388   0.390   4.365
 4321SOL    HW213863   0.405   0.547   4.405
 4322SOL     OW13864   6.578   0.940   0.651
 4322SOL    HW113865   6.508   1.008   0.669
 4322SOL    HW213866   6.651   0.981   0.596
 4323SOL     OW13867   0.163   2.053   3.943
 4323SOL    HW113868   0.112   2.132   3.911
 4323SOL    HW213869   0.217   2.015   3.868
 4324SOL     OW13870   5.653   2.350   5.981
 4324SOL    HW113871   5.709   2.328   6.062
 4324SOL    HW213872   5.684   2.295   5.904
 4325SOL     OW13873   2.292   2.643   6.276
 4325SOL    HW113874   2.280   2.701   6.356
 4325SOL    HW213875   2.349   2.564   6.300
 4326SOL     OW13876   0.010   2.550   5.363
 4326SOL    HW113877   0.078   2.489   5.323
 4326SOL    HW213878   0.053   2.604   5.436
 4327SOL     OW13879   4.792   0.834   3.209
 4327SOL    HW113880   4.712   0.803   3.157
 4327SOL    HW213881   4.833   0.913   3.163
 4328SOL     OW13882   6.081   5.078   0.759
 4328SOL    HW113883   6.064   5.169   0.797
 4328SOL    HW213884   6.146   5.029   0.818
 4329SOL     OW13885   5.125   1.710   6.076
 4329SOL    HW113886   5.184   1.631   6.090
 4329SOL    HW213887   5.147   1.781   6.143
 4330SOL     OW13888   0.958   0.958   6.180
 4330SOL    HW113889   1.048   0.949   6.139
 4330SOL    HW213890   0.945   0.885   6.248
 4331SOL     OW13891   5.314   2.919   6.170
 4331SOL    HW113892   5.410   2.929   6.197
 4331SOL    HW213893   5.286   2.824   6.178
 4332SOL     OW13894   6.100   4.519   2.044
 4332SOL    HW113895   6.196   4.544   2.033
 4332SOL    HW213896   6.042   4.590   2.005
 4333SOL     OW13897   6.396   1.828   4.839
 4333SOL    HW113898   6.461   1.752   4.838
 4333SOL    HW213899   6.446   1.914   4.829
 4334SOL     OW13900   4.050   6.775   1.928
 4334SOL    HW113901   3.986   6.699   1.923
 4334SOL    HW213902   4.121   6.755   1.996
 4335SOL     OW13903   3.765   4.255   6.343
 4335SOL    HW113904   3.734   4.311   6.266
 4335SOL    HW213905   3.828   4.309   6.399
 4336SOL     OW13906   1.004   0.537   5.699
 4336SOL    HW113907   1.012   0.620   5.754
 4336SOL    HW213908   0.908   0.510   5.692
 4337SOL     OW13909   1.086   5.439   5.859
 4337SOL    HW113910   1.009   5.376   5.870
 4337SOL    HW213911   1.137   5.444   5.946
 4338SOL     OW13912   5.233   6.919   2.773
 4338SOL    HW113913   5.299   6.921   2.848
 4338SOL    HW213914   5.183   6.833   2.775
 4339SOL     OW13915   6.940   0.717   0.503
 4339SOL    HW113916   6.881   0.795   0.483
 4339SOL    HW213917   6.892   0.632   0.480
 4340SOL     OW13918   4.880   3.485   1.779
 4340SOL    HW113919   4.847   3.394   1.755
 4340SOL    HW213920   4.811   3.553   1.756
 4341SOL     OW13921   1.375   3.502   0.545
 4341SOL    HW113922   1.452   3.547   0.500
 4341SOL    HW213923   1.307   3.474   0.477
 4342SOL     OW13924   6.963   2.700   2.495
 4342SOL    HW113925   6.884   2.640   2.484
 4342SOL    HW213926   7.019   2.696   2.412
 4343SOL     OW13927   3.221   3.282   1.526
 4343SOL    HW113928   3.181   3.364   1.484
 4343SOL    HW213929   3.166   3.202   1.500
 4344SOL     OW13930   2.432   3.236   1.691
 4344SOL    HW113931   2.525   3.202   1.675
 4344SOL    HW213932   2.436   3.316   1.752
 4345SOL     OW13933   3.088   0.761   6.064
 4345SOL    HW113934   3.037   0.823   6.124
 4345SOL    HW213935   3.024   0.713   6.004
 4346SOL     OW13936   0.117   3.922   1.663
 4346SOL    HW113937   0.185   3.891   1.597
 4346SOL    HW213938   0.030   3.938   1.616
 4347SOL     OW13939   5.080   6.143   2.546
 4347SOL    HW113940   5.025   6.061   2.533
 4347SOL    HW213941   5.122   6.141   2.636
 4348SOL     OW13942   1.249   3.460   0.219
 4348SOL    HW113943   1.198   3.451   0.133
 4348SOL    HW213944   1.221   3.388   0.282
 4349SOL     OW13945   6.128   1.335   1.208
 4349SOL    HW113946   6.211   1.353   1.261
 4349SOL    HW213947   6.132   1.241   1.173
 4350SOL     OW13948   3.231   0.511   3.247
 4350SOL    HW113949   3.228   0.577   3.323
 4350SOL    HW213950   3.165   0.539   3.177
 4351SOL     OW13951   3.500   6.898   0.465
 4351SOL    HW113952   3.556   6.875   0.545
 4351SOL    HW213953   3.434   6.824   0.449
 4352SOL     OW13954   6.089   1.730   1.472
 4352SOL    HW113955   6.138   1.815   1.487
 4352SOL    HW213956   6.059   1.725   1.376
 4353SOL     OW13957   3.083   5.383   0.611
 4353SOL    HW113958   3.127   5.311   0.664
 4353SOL    HW213959   2.990   5.397   0.644
 4354SOL     OW13960   2.936   1.133   1.498
 4354SOL    HW113961   2.994   1.212   1.480
 4354SOL    HW213962   2.981   1.074   1.565
 4355SOL     OW13963   4.689   0.156   6.713
 4355SOL    HW113964   4.661   0.216   6.638
 4355SOL    HW213965   4.684   0.206   6.799
 4356SOL     OW13966   3.469   3.770   1.082
 4356SOL    HW113967   3.516   3.710   1.147
 4356SOL    HW213968   3.521   3.774   0.997
 4357SOL     OW13969   5.700   0.680   0.639
 4357SOL    HW113970   5.673   0.771   0.672
 4357SOL    HW213971   5.774   0.689   0.573
 4358SOL     OW13972   6.600   0.543   1.120
 4358SOL    HW113973   6.598   0.443   1.114
 4358SOL    HW213974   6.597   0.581   1.028
 4359SOL     OW13975   6.813   3.942   4.645
 4359SOL    HW113976   6.767   4.028   4.668
 4359SOL    HW213977   6.839   3.942   4.549
 4360SOL     OW13978   2.366   3.542   1.037
 4360SOL    HW113979   2.397   3.485   1.114
 4360SOL    HW213980   2.424   3.623   1.031
 4361SOL     OW13981   5.365   1.678   2.415
 4361SOL    HW113982   5.347   1.775   2.427
 4361SOL    HW213983   5.461   1.665   2.391
 4362SOL     OW13984   4.704   4.160   2.486
 4362SOL    HW113985   4.785   4.176   2.542
 4362SOL    HW213986   4.623   4.188   2.536
 4363SOL     OW13987   4.930   0.611   6.727
 4363SOL    HW113988   4.833   0.633   6.741
 4363SOL    HW213989   4.955   0.632   6.632
 4364SOL     OW13990   4.413   3.782   5.442
 4364SOL    HW113991   4.469   3.702   5.425
 4364SOL    HW213992   4.372   3.813   5.356
 4365SOL     OW13993   5.141   2.187   6.831
 4365SOL    HW113994   5.046   2.158   6.842
 4365SOL    HW213995   5.145   2.264   6.768
 4366SOL     OW13996   5.066   5.097   0.846
 4366SOL    HW113997   5.097   5.011   0.806
 4366SOL    HW213998   5.095   5.102   0.942
 4367SOL     OW13999   6.070   6.328   1.189
 4367SOL    HW114000   6.002   6.401   1.196
 4367SOL    HW214001   6.024   6.239   1.195
 4368SOL     OW14002   4.602   5.390   2.231
 4368SOL    HW114003   4.514   5.351   2.257
 4368SOL    HW214004   4.597   5.490   2.232
 4369SOL     OW14005   3.077   5.558   1.389
 4369SOL    HW114006   3.131   5.489   1.341
 4369SOL    HW214007   3.072   5.535   1.486
 4370SOL     OW14008   5.251   4.282   1.557
 4370SOL    HW114009   5.200   4.338   1.491
 4370SOL    HW214010   5.284   4.200   1.512
 4371SOL     OW14011   1.313   1.942   2.130
 4371SOL    HW114012   1.270   2.018   2.081
 4371SOL    HW214013   1.245   1.897   2.188
 4372SOL     OW14014   4.677   0.168   3.978
 4372SOL    HW114015   4.756   0.217   4.015
 4372SOL    HW214016   4.595   0.194   4.028
 4373SOL     OW14017   0.572   1.920   5.216
 4373SOL    HW114018   0.483   1.916   5.262
 4373SOL    HW214019   0.617   1.831   5.222
 4374SOL     OW14020   3.595   1.566   0.115
 4374SOL    HW114021   3.627   1.646   0.165
 4374SOL    HW214022   3.647   1.485   0.144
 4375SOL     OW14023   3.508   5.659   4.421
 4375SOL    HW114024   3.481   5.738   4.367
 4375SOL    HW214025   3.427   5.620   4.466
 4376SOL     OW14026   0.158   2.852   2.746
 4376SOL    HW114027   0.198   2.859   2.655
 4376SOL    HW214028   0.130   2.757   2.763
 4377SOL     OW14029   0.208   4.422   6.083
 4377SOL    HW114030   0.295   4.373   6.094
 4377SOL    HW214031   0.146   4.368   6.026
 4378SOL     OW14032   2.885   1.802   4.819
 4378SOL    HW114033   2.850   1.887   4.779
 4378SOL    HW214034   2.872   1.803   4.918
 4379SOL     OW14035   3.798   1.566   6.254
 4379SOL    HW114036   3.735   1.582   6.178
 4379SOL    HW214037   3.766   1.615   6.335
 4380SOL     OW14038   6.911   2.248   3.076
 4380SOL    HW114039   6.929   2.206   2.987
 4380SOL    HW214040   6.992   2.241   3.133
 4381SOL     OW14041   1.013   4.951   6.554
 4381SOL    HW114042   1.057   4.929   6.467
 4381SOL    HW214043   1.081   4.984   6.619
 4382SOL     OW14044   1.477   4.848   4.631
 4382SOL    HW114045   1.517   4.789   4.701
 4382SOL    HW214046   1.447   4.934   4.673
 4383SOL     OW14047   0.579   4.466   0.296
 4383SOL    HW114048   0.555   4.372   0.317
 4383SOL    HW214049   0.549   4.525   0.371
 4384SOL     OW14050   4.771   6.409   3.825
 4384SOL    HW114051   4.756   6.323   3.873
 4384SOL    HW214052   4.712   6.480   3.864
 4385SOL     OW14053   4.821   0.617   5.996
 4385SOL    HW114054   4.816   0.577   6.087
 4385SOL    HW214055   4.734   0.603   5.949
 4386SOL     OW14056   2.077   3.440   4.125
 4386SOL    HW114057   2.032   3.418   4.212
 4386SOL    HW214058   2.114   3.533   4.130
 4387SOL     OW14059   4.625   1.947   0.894
 4387SOL    HW114060   4.649   2.044   0.886
 4387SOL    HW214061   4.615   1.907   0.803
 4388SOL     OW14062   6.192   3.449   0.267
 4388SOL    HW114063   6.199   3.502   0.183
 4388SOL    HW214064   6.224   3.355   0.250
 4389SOL     OW14065   2.346   1.375   6.468
 4389SOL    HW114066   2.443   1.364   6.490
 4389SOL    HW214067   2.337   1.422   6.380
 4390SOL     OW14068   6.893   1.192   1.072
 4390SOL    HW114069   6.796   1.197   1.094
 4390SOL    HW214070   6.938   1.125   1.131
 4391SOL     OW14071   6.947   6.119   1.651
 4391SOL    HW114072   0.019   6.148   1.673
 4391SOL    HW214073   6.906   6.072   1.729
 4392SOL     OW14074   1.892   3.087   5.970
 4392SOL    HW114075   1.810   3.125   5.926
 4392SOL    HW214076   1.884   3.097   6.069
 4393SOL     OW14077   6.154   0.461   1.934
 4393SOL    HW114078   6.106   0.531   1.986
 4393SOL    HW214079   6.106   0.374   1.942
 4394SOL     OW14080   6.975   1.305   2.842
 4394SOL    HW114081   6.990   1.402   2.861
 4394SOL    HW214082   6.907   1.294   2.770
 4395SOL     OW14083   1.610   3.555   1.603
 4395SOL    HW114084   1.663   3.640   1.596
 4395SOL    HW214085   1.655   3.484   1.547
 4396SOL     OW14086   2.333   1.644   2.252
 4396SOL    HW114087   2.419   1.662   2.204
 4396SOL    HW214088   2.289   1.563   2.213
 4397SOL     OW14089   3.630   0.443   4.653
 4397SOL    HW114090   3.537   0.478   4.642
 4397SOL    HW214091   3.689   0.481   4.582
 4398SOL     OW14092   2.074   3.278   6.132
 4398SOL    HW114093   1.986   3.234   6.151
 4398SOL    HW214094   2.059   3.374   6.109
 4399SOL     OW14095   2.756   6.129   1.659
 4399SOL    HW114096   2.817   6.132   1.738
 4399SOL    HW214097   2.782   6.052   1.600
 4400SOL     OW14098   1.278   6.190   5.332
 4400SOL    HW114099   1.342   6.171   5.407
 4400SOL    HW214100   1.318   6.257   5.270
 4401SOL     OW14101   3.032   0.112   6.402
 4401SOL    HW114102   3.080   0.054   6.336
 4401SOL    HW214103   3.075   0.103   6.492
 4402SOL     OW14104   1.138   0.409   2.789
 4402SOL    HW114105   1.204   0.353   2.739
 4402SOL    HW214106   1.086   0.350   2.851
 4403SOL     OW14107   6.433   6.161   2.746
 4403SOL    HW114108   6.501   6.152   2.818
 4403SOL    HW214109   6.452   6.094   2.674
 4404SOL     OW14110   0.769   6.385   5.312
 4404SOL    HW114111   0.787   6.473   5.266
 4404SOL    HW214112   0.855   6.336   5.325
 4405SOL     OW14113   0.694   5.233   2.925
 4405SOL    HW114114   0.775   5.248   2.868
 4405SOL    HW214115   0.715   5.167   2.997
 4406SOL     OW14116   5.895   4.119   2.720
 4406SOL    HW114117   5.828   4.161   2.659
 4406SOL    HW214118   5.976   4.094   2.667
 4407SOL     OW14119   5.211   0.179   1.259
 4407SOL    HW114120   5.297   0.198   1.306
 4407SOL    HW214121   5.229   0.125   1.176
 4408SOL     OW14122   4.977   0.629   0.554
 4408SOL    HW114123   4.991   0.533   0.532
 4408SOL    HW214124   4.907   0.637   0.625
 4409SOL     OW14125   3.842   0.754   3.777
 4409SOL    HW114126   3.763   0.699   3.805
 4409SOL    HW214127   3.843   0.839   3.831
 4410SOL     OW14128   1.721   0.142   0.637
 4410SOL    HW114129   1.674   0.068   0.685
 4410SOL    HW214130   1.659   0.220   0.627
 4411SOL     OW14131   4.613   4.493   4.493
 4411SOL    HW114132   4.588   4.493   4.396
 4411SOL    HW214133   4.626   4.398   4.523
 4412SOL     OW14134   4.831   6.514   0.937
 4412SOL    HW114135   4.793   6.551   1.022
 4412SOL    HW214136   4.837   6.414   0.944
 4413SOL     OW14137   5.325   6.115   4.515
 4413SOL    HW114138   5.280   6.162   4.591
 4413SOL    HW214139   5.424   6.111   4.532
 4414SOL     OW14140   5.883   3.871   1.390
 4414SOL    HW114141   5.786   3.891   1.376
 4414SOL    HW214142   5.935   3.957   1.390
 4415SOL     OW14143   1.205   4.163   1.426
 4415SOL    HW114144   1.162   4.231   1.485
 4415SOL    HW214145   1.144   4.142   1.349
 4416SOL     OW14146   4.752   2.868   4.343
 4416SOL    HW114147   4.683   2.940   4.347
 4416SOL    HW214148   4.830   2.897   4.288
 4417SOL     OW14149   0.062   4.360   2.011
 4417SOL    HW114150   0.156   4.337   2.035
 4417SOL    HW214151   0.029   4.297   1.940
 4418SOL     OW14152   6.572   2.495   5.503
 4418SOL    HW114153   6.505   2.436   5.458
 4418SOL    HW214154   6.570   2.586   5.462
 4419SOL     OW14155   6.281   6.375   6.813
 4419SOL    HW114156   6.345   6.303   6.788
 4419SOL    HW214157   6.270   6.376   6.913
 4420SOL     OW14158   3.485   0.844   0.731
 4420SOL    HW114159   3.442   0.932   0.753
 4420SOL    HW214160   3.476   0.782   0.809
 4421SOL     OW14161   2.889   2.591   0.320
 4421SOL    HW114162   2.845   2.501   0.318
 4421SOL    HW214163   2.822   2.662   0.340
 4422SOL     OW14164   1.042   2.930   6.601
 4422SOL    HW114165   0.942   2.922   6.608
 4422SOL    HW214166   1.084   2.876   6.673
 4423SOL     OW14167   6.044   5.085   4.253
 4423SOL    HW114168   6.029   5.177   4.289
 4423SOL    HW214169   6.032   5.018   4.326
 4424SOL     OW14170   3.926   5.324   2.457
 4424SOL    HW114171   3.967   5.247   2.408
 4424SOL    HW214172   3.970   5.333   2.546
 4425SOL     OW14173   0.654   6.067   1.052
 4425SOL    HW114174   0.742   6.090   1.011
 4425SOL    HW214175   0.580   6.099   0.992
 4426SOL     OW14176   0.816   0.636   4.114
 4426SOL    HW114177   0.824   0.692   4.197
 4426SOL    HW214178   0.782   0.546   4.139
 4427SOL     OW14179   3.507   5.955   0.677
 4427SOL    HW114180   3.476   5.883   0.739
 4427SOL    HW214181   3.443   6.032   0.681
 4428SOL     OW14182   6.240   6.189   2.950
 4428SOL    HW114183   6.305   6.167   3.023
 4428SOL    HW214184   6.282   6.172   2.861
 4429SOL     OW14185   2.299   6.091   2.823
 4429SOL    HW114186   2.272   6.170   2.879
 4429SOL    HW214187   2.289   6.114   2.726
 4430SOL     OW14188   5.540   3.844   4.352
 4430SOL    HW114189   5.629   3.806   4.379
 4430SOL    HW214190   5.493   3.779   4.293
 4431SOL     OW14191   4.467   6.976   4.707
 4431SOL    HW114192   4.383   7.002   4.659
 4431SOL    HW214193   4.501   0.033   4.759
 4432SOL     OW14194   2.167   3.519   6.683
 4432SOL    HW114195   2.156   3.614   6.652
 4432SOL    HW214196   2.082   3.469   6.668
 4433SOL     OW14197   0.678   0.099   4.777
 4433SOL    HW114198   0.606   0.158   4.741
 4433SOL    HW214199   0.748   0.086   4.708
 4434SOL     OW14200   6.436   0.897   2.629
 4434SOL    HW114201   6.393   0.830   2.689
 4434SOL    HW214202   6.447   0.984   2.678
 4435SOL     OW14203   2.211   4.587   1.736
 4435SOL    HW114204   2.117   4.567   1.708
 4435SOL    HW214205   2.212   4.619   1.831
 4436SOL     OW14206   4.812   2.229   1.627
 4436SOL    HW114207   4.899   2.255   1.669
 4436SOL    HW214208   4.775   2.148   1.673
 4437SOL     OW14209   6.955   5.689   6.881
 4437SOL    HW114210   6.903   5.762   6.925
 4437SOL    HW214211   6.905   5.655   6.801
 4438SOL     OW14212   3.503   1.832   4.748
 4438SOL    HW114213   3.469   1.738   4.752
 4438SOL    HW214214   3.584   1.836   4.689
 4439SOL     OW14215   2.815   5.268   1.859
 4439SOL    HW114216   2.900   5.249   1.810
 4439SOL    HW214217   2.763   5.184   1.869
 4440SOL     OW14218   1.906   5.406   5.727
 4440SOL    HW114219   1.926   5.455   5.642
 4440SOL    HW214220   1.855   5.323   5.707
 4441SOL     OW14221   6.382   1.116   0.730
 4441SOL    HW114222   6.407   1.211   0.748
 4441SOL    HW214223   6.328   1.081   0.806
 4442SOL     OW14224   1.574   4.718   0.968
 4442SOL    HW114225   1.606   4.743   0.876
 4442SOL    HW214226   1.621   4.774   1.036
 4443SOL     OW14227   1.104   6.009   5.179
 4443SOL    HW114228   1.164   6.040   5.253
 4443SOL    HW214229   1.074   6.088   5.126
 4444SOL     OW14230   4.594   6.338   0.296
 4444SOL    HW114231   4.646   6.401   0.237
 4444SOL    HW214232   4.507   6.381   0.322
 4445SOL     OW14233   2.183   3.403   0.445
 4445SOL    HW114234   2.140   3.482   0.401
 4445SOL    HW214235   2.163   3.405   0.543
 4446SOL     OW14236   5.965   2.298   1.247
 4446SOL    HW114237   5.955   2.317   1.345
 4446SOL    HW214238   5.874   2.283   1.207
 4447SOL     OW14239   4.967   5.650   5.612
 4447SOL    HW114240   5.017   5.613   5.533
 4447SOL    HW214241   4.895   5.712   5.580
 4448SOL     OW14242   2.855   6.444   2.339
 4448SOL    HW114243   2.915   6.478   2.267
 4448SOL    HW214244   2.867   6.345   2.348
 4449SOL     OW14245   3.800   1.845   5.354
 4449SOL    HW114246   3.895   1.821   5.333
 4449SOL    HW214247   3.783   1.940   5.328
 4450SOL     OW14248   2.811   5.553   1.001
 4450SOL    HW114249   2.749   5.614   1.050
 4450SOL    HW214250   2.892   5.604   0.970
 4451SOL     OW14251   5.245   6.045   3.308
 4451SOL    HW114252   5.152   6.008   3.302
 4451SOL    HW214253   5.278   6.067   3.216
 4452SOL     OW14254   5.142   4.534   3.674
 4452SOL    HW114255   5.187   4.596   3.609
 4452SOL    HW214256   5.160   4.439   3.647
 4453SOL     OW14257   0.448   5.530   1.380
 4453SOL    HW114258   0.461   5.440   1.338
 4453SOL    HW214259   0.535   5.580   1.378
 4454SOL     OW14260   0.075   0.764   0.059
 4454SOL    HW114261   0.138   0.819   0.114
 4454SOL    HW214262   7.005   0.805   0.062
 4455SOL     OW14263   0.813   0.504   3.661
 4455SOL    HW114264   0.743   0.496   3.733
 4455SOL    HW214265   0.800   0.590   3.612
 4456SOL     OW14266   1.753   5.713   4.023
 4456SOL    HW114267   1.791   5.804   4.036
 4456SOL    HW214268   1.672   5.719   3.965
 4457SOL     OW14269   1.265   2.172   4.834
 4457SOL    HW114270   1.224   2.146   4.921
 4457SOL    HW214271   1.256   2.096   4.769
 4458SOL     OW14272   2.551   2.272   5.428
 4458SOL    HW114273   2.622   2.215   5.387
 4458SOL    HW214274   2.488   2.215   5.480
 4459SOL     OW14275   1.535   4.343   3.255
 4459SOL    HW114276   1.523   4.397   3.338
 4459SOL    HW214277   1.449   4.339   3.204
 4460SOL     OW14278   0.004   3.184   5.000
 4460SOL    HW114279   6.987   3.130   5.075
 4460SOL    HW214280   6.950   3.230   4.951
 4461SOL     OW14281   2.495   0.160   0.595
 4461SOL    HW114282   2.427   0.220   0.636
 4461SOL    HW214283   2.450   0.090   0.540
 4462SOL     OW14284   0.434   4.581   2.449
 4462SOL    HW114285   0.477   4.499   2.410
 4462SOL    HW214286   0.487   4.611   2.529
 4463SOL     OW14287   5.875   1.777   6.894
 4463SOL    HW114288   5.901   1.831   6.974
 4463SOL    HW214289   5.780   1.747   6.903
 4464SOL     OW14290   0.591   3.668   1.287
 4464SOL    HW114291   0.553   3.580   1.315
 4464SOL    HW214292   0.629   3.716   1.366
 4465SOL     OW14293   4.805   4.997   1.137
 4465SOL    HW114294   4.736   5.059   1.174
 4465SOL    HW214295   4.882   4.991   1.202
 4466SOL     OW14296   1.040   3.113   2.797
 4466SOL    HW114297   1.104   3.151   2.865
 4466SOL    HW214298   1.070   3.140   2.706
 4467SOL     OW14299   5.347   4.624   1.689
 4467SOL    HW114300   5.380   4.718   1.686
 4467SOL    HW214301   5.346   4.586   1.596
 4468SOL     OW14302   2.056   3.621   0.370
 4468SOL    HW114303   2.032   3.647   0.463
 4468SOL    HW214304   2.078   3.703   0.317
 4469SOL     OW14305   1.290   6.023   2.152
 4469SOL    HW114306   1.320   5.978   2.236
 4469SOL    HW214307   1.200   6.064   2.167
 4470SOL     OW14308   0.770   7.006   3.112
 4470SOL    HW114309   0.696   0.048   3.088
 4470SOL    HW214310   0.838   0.032   3.167
 4471SOL     OW14311   1.572   1.006   6.444
 4471SOL    HW114312   1.483   1.049   6.452
 4471SOL    HW214313   1.583   0.938   6.516
 4472SOL     OW14314   2.339   3.231   0.956
 4472SOL    HW114315   2.239   3.223   0.953
 4472SOL    HW214316   2.364   3.328   0.964
 4473SOL     OW14317   0.743   2.971   5.251
 4473SOL    HW114318   0.717   2.930   5.164
 4473SOL    HW214319   0.800   2.907   5.303
 4474SOL     OW14320   1.843   6.530   1.277
 4474SOL    HW114321   1.778   6.606   1.286
 4474SOL    HW214322   1.935   6.561   1.301
 4475SOL     OW14323   0.857   3.408   0.705
 4475SOL    HW114324   0.823   3.359   0.625
 4475SOL    HW214325   0.867   3.505   0.682
 4476SOL     OW14326   4.895   0.898   3.826
 4476SOL    HW114327   4.870   0.892   3.729
 4476SOL    HW214328   4.814   0.920   3.880
 4477SOL     OW14329   6.732   1.142   4.654
 4477SOL    HW114330   6.650   1.102   4.694
 4477SOL    HW214331   6.739   1.238   4.681
 4478SOL     OW14332   1.097   0.215   2.497
 4478SOL    HW114333   1.159   0.226   2.419
 4478SOL    HW214334   1.007   0.187   2.463
 4479SOL     OW14335   2.629   3.506   0.242
 4479SOL    HW114336   2.564   3.558   0.186
 4479SOL    HW214337   2.643   3.416   0.202
 4480SOL     OW14338   6.605   0.650   3.225
 4480SOL    HW114339   6.528   0.704   3.192
 4480SOL    HW214340   6.684   0.665   3.166
 4481SOL     OW14341   2.074   4.001   5.928
 4481SOL    HW114342   2.056   4.095   5.959
 4481SOL    HW214343   2.144   4.002   5.857
 4482SOL     OW14344   2.741   6.781   1.189
 4482SOL    HW114345   2.746   6.801   1.287
 4482SOL    HW214346   2.652   6.740   1.167
 4483SOL     OW14347   1.116   3.082   0.668
 4483SOL    HW114348   1.200   3.068   0.617
 4483SOL    HW214349   1.129   3.158   0.733
 4484SOL     OW14350   4.410   0.510   1.294
 4484SOL    HW114351   4.455   0.594   1.264
 4484SOL    HW214352   4.333   0.490   1.233
 4485SOL     OW14353   0.289   2.534   5.140
 4485SOL    HW114354   0.252   2.476   5.212
 4485SOL    HW214355   0.292   2.629   5.171
 4486SOL     OW14356   5.562   4.696   3.492
 4486SOL    HW114357   5.595   4.773   3.437
 4486SOL    HW214358   5.495   4.728   3.558
 4487SOL     OW14359   0.306   3.246   6.656
 4487SOL    HW114360   0.216   3.243   6.700
 4487SOL    HW214361   0.322   3.337   6.618
 4488SOL     OW14362   5.722   4.496   3.384
 4488SOL    HW114363   5.652   4.553   3.429
 4488SOL    HW214364   5.790   4.555   3.340
 4489SOL     OW14365   3.443   6.089   5.846
 4489SOL    HW114366   3.428   6.044   5.935
 4489SOL    HW214367   3.483   6.179   5.861
 4490SOL     OW14368   5.199   1.446   1.807
 4490SOL    HW114369   5.258   1.490   1.875
 4490SOL    HW214370   5.117   1.500   1.794
 4491SOL     OW14371   0.371   4.436   3.216
 4491SOL    HW114372   0.289   4.415   3.269
 4491SOL    HW214373   0.415   4.350   3.189
 4492SOL     OW14374   6.802   0.835   2.004
 4492SOL    HW114375   6.803   0.905   2.076
 4492SOL    HW214376   6.746   0.758   2.033
 4493SOL     OW14377   5.190   1.212   5.763
 4493SOL    HW114378   5.188   1.272   5.683
 4493SOL    HW214379   5.257   1.140   5.748
 4494SOL     OW14380   1.379   1.494   2.311
 4494SOL    HW114381   1.452   1.445   2.359
 4494SOL    HW214382   1.403   1.590   2.303
 4495SOL     OW14383   4.035   6.173   1.547
 4495SOL    HW114384   4.038   6.144   1.643
 4495SOL    HW214385   3.941   6.197   1.523
 4496SOL     OW14386   2.372   5.138   5.527
 4496SOL    HW114387   2.273   5.143   5.540
 4496SOL    HW214388   2.403   5.215   5.472
 4497SOL     OW14389   5.284   6.272   4.998
 4497SOL    HW114390   5.234   6.225   5.070
 4497SOL    HW214391   5.320   6.358   5.034
 4498SOL     OW14392   1.937   5.271   3.573
 4498SOL    HW114393   2.017   5.310   3.526
 4498SOL    HW214394   1.959   5.255   3.669
 4499SOL     OW14395   5.099   1.290   2.276
 4499SOL    HW114396   5.104   1.359   2.348
 4499SOL    HW214397   5.188   1.281   2.231
 4500SOL     OW14398   3.201   6.163   0.307
 4500SOL    HW114399   3.230   6.222   0.231
 4500SOL    HW214400   3.247   6.191   0.391
 4501SOL     OW14401   5.081   0.622   3.259
 4501SOL    HW114402   5.042   0.644   3.349
 4501SOL    HW214403   5.061   0.695   3.195
 4502SOL     OW14404   0.808   3.842   6.935
 4502SOL    HW114405   0.804   3.888   6.846
 4502SOL    HW214406   0.725   3.861   6.987
 4503SOL     OW14407   3.314   1.553   3.262
 4503SOL    HW114408   3.411   1.578   3.267
 4503SOL    HW214409   3.260   1.635   3.241
 4504SOL     OW14410   0.811   2.970   3.787
 4504SOL    HW114411   0.863   3.043   3.744
 4504SOL    HW214412   0.716   2.974   3.758
 4505SOL     OW14413   6.300   3.827   3.555
 4505SOL    HW114414   6.321   3.776   3.638
 4505SOL    HW214415   6.233   3.899   3.575
 4506SOL     OW14416   4.333   4.046   6.946
 4506SOL    HW114417   4.243   4.090   6.939
 4506SOL    HW214418   4.401   4.104   6.901
 4507SOL     OW14419   5.486   2.334   2.793
 4507SOL    HW114420   5.478   2.247   2.841
 4507SOL    HW214421   5.576   2.342   2.752
 4508SOL     OW14422   6.670   3.954   0.893
 4508SOL    HW114423   6.598   3.941   0.824
 4508SOL    HW214424   6.662   3.883   0.963
 4509SOL     OW14425   4.632   1.372   2.531
 4509SOL    HW114426   4.580   1.301   2.578
 4509SOL    HW214427   4.587   1.393   2.444
 4510SOL     OW14428   4.913   1.455   3.819
 4510SOL    HW114429   4.836   1.400   3.788
 4510SOL    HW214430   4.938   1.522   3.749
 4511SOL     OW14431   1.261   4.051   6.798
 4511SOL    HW114432   1.255   3.984   6.872
 4511SOL    HW214433   1.350   4.042   6.753
 4512SOL     OW14434   2.801   3.641   6.149
 4512SOL    HW114435   2.843   3.718   6.101
 4512SOL    HW214436   2.858   3.560   6.137
 4513SOL     OW14437   0.350   1.645   0.939
 4513SOL    HW114438   0.313   1.722   0.886
 4513SOL    HW214439   0.439   1.671   0.977
 4514SOL     OW14440   3.853   5.389   6.876
 4514SOL    HW114441   3.940   5.349   6.847
 4514SOL    HW214442   3.826   5.348   6.963
 4515SOL     OW14443   4.843   6.905   6.057
 4515SOL    HW114444   4.894   6.894   5.971
 4515SOL    HW214445   4.745   6.908   6.038
 4516SOL     OW14446   3.542   1.592   5.112
 4516SOL    HW114447   3.465   1.539   5.076
 4516SOL    HW214448   3.508   1.678   5.150
 4517SOL     OW14449   3.439   0.323   4.316
 4517SOL    HW114450   3.455   0.413   4.275
 4517SOL    HW214451   3.522   0.268   4.310
 4518SOL     OW14452   6.908   6.412   0.674
 4518SOL    HW114453   6.882   6.468   0.753
 4518SOL    HW214454   6.843   6.338   0.662
 4519SOL     OW14455   5.197   6.419   6.479
 4519SOL    HW114456   5.229   6.481   6.550
 4519SOL    HW214457   5.120   6.460   6.431
 4520SOL     OW14458   4.671   5.167   4.924
 4520SOL    HW114459   4.747   5.105   4.905
 4520SOL    HW214460   4.682   5.250   4.870
 4521SOL     OW14461   4.983   2.606   3.748
 4521SOL    HW114462   4.988   2.627   3.650
 4521SOL    HW214463   4.957   2.511   3.760
 4522SOL     OW14464   5.333   4.331   4.009
 4522SOL    HW114465   5.365   4.313   4.102
 4522SOL    HW214466   5.408   4.315   3.944
 4523SOL     OW14467   1.203   2.639   0.082
 4523SOL    HW114468   1.115   2.592   0.087
 4523SOL    HW214469   1.276   2.573   0.099
 4524SOL     OW14470   1.898   3.446   1.825
 4524SOL    HW114471   1.816   3.474   1.874
 4524SOL    HW214472   1.904   3.496   1.738
 4525SOL     OW14473   3.240   1.787   6.167
 4525SOL    HW114474   3.300   1.778   6.247
 4525SOL    HW214475   3.292   1.824   6.090
 4526SOL     OW14476   0.780   0.032   5.385
 4526SOL    HW114477   0.710   0.076   5.329
 4526SOL    HW214478   0.857   0.095   5.397
 4527SOL     OW14479   1.203   2.896   2.906
 4527SOL    HW114480   1.273   2.888   2.835
 4527SOL    HW214481   1.135   2.964   2.878
 4528SOL     OW14482   5.024   1.786   4.407
 4528SOL    HW114483   5.059   1.693   4.417
 4528SOL    HW214484   5.084   1.839   4.348
 4529SOL     OW14485   1.141   2.822   3.661
 4529SOL    HW114486   1.126   2.901   3.721
 4529SOL    HW214487   1.131   2.850   3.566
 4530SOL     OW14488   3.956   4.650   6.283
 4530SOL    HW114489   3.981   4.722   6.347
 4530SOL    HW214490   3.857   4.639   6.282
 4531SOL     OW14491   1.507   6.771   5.063
 4531SOL    HW114492   1.482   6.848   5.122
 4531SOL    HW214493   1.587   6.796   5.008
 4532SOL     OW14494   5.805   0.393   2.134
 4532SOL    HW114495   5.893   0.367   2.094
 4532SOL    HW214496   5.814   0.397   2.234
 4533SOL     OW14497   2.927   6.116   1.203
 4533SOL    HW114498   2.965   6.051   1.269
 4533SOL    HW214499   2.874   6.066   1.134
 4534SOL     OW14500   6.099   1.468   5.115
 4534SOL    HW114501   6.107   1.403   5.040
 4534SOL    HW214502   6.120   1.560   5.081
 4535SOL     OW14503   1.774   6.811   0.320
 4535SOL    HW114504   1.828   6.892   0.344
 4535SOL    HW214505   1.827   6.752   0.259
 4536SOL     OW14506   3.940   0.684   5.585
 4536SOL    HW114507   3.926   0.619   5.660
 4536SOL    HW214508   3.856   0.688   5.529
 4537SOL     OW14509   3.484   3.782   3.395
 4537SOL    HW114510   3.406   3.719   3.396
 4537SOL    HW214511   3.460   3.863   3.340
 4538SOL     OW14512   1.742   2.482   0.355
 4538SOL    HW114513   1.719   2.396   0.400
 4538SOL    HW214514   1.660   2.539   0.348
 4539SOL     OW14515   1.064   5.167   5.582
 4539SOL    HW114516   1.138   5.233   5.590
 4539SOL    HW214517   1.101   5.076   5.562
 4540SOL     OW14518   1.745   1.262   0.209
 4540SOL    HW114519   1.669   1.326   0.219
 4540SOL    HW214520   1.819   1.306   0.159
 4541SOL     OW14521   4.170   2.738   0.277
 4541SOL    HW114522   4.173   2.788   0.191
 4541SOL    HW214523   4.166   2.803   0.353
 4542SOL     OW14524   6.993   2.149   0.702
 4542SOL    HW114525   6.939   2.119   0.780
 4542SOL    HW214526   6.979   2.087   0.625
 4543SOL     OW14527   4.279   1.136   0.918
 4543SOL    HW114528   4.279   1.186   0.832
 4543SOL    HW214529   4.185   1.122   0.948
 4544SOL     OW14530   4.682   6.091   0.004
 4544SOL    HW114531   4.653   6.186   7.011
 4544SOL    HW214532   4.604   6.036   0.032
 4545SOL     OW14533   2.770   3.140   5.895
 4545SOL    HW114534   2.853   3.128   5.841
 4545SOL    HW214535   2.784   3.212   5.963
 4546SOL     OW14536   5.243   6.683   5.497
 4546SOL    HW114537   5.286   6.600   5.461
 4546SOL    HW214538   5.263   6.760   5.436
 4547SOL     OW14539   6.922   0.036   0.910
 4547SOL    HW114540   7.010   7.011   0.898
 4547SOL    HW214541   6.890   0.071   0.822
 4548SOL     OW14542   3.532   0.824   1.786
 4548SOL    HW114543   3.513   0.920   1.805
 4548SOL    HW214544   3.500   0.768   1.862
 4549SOL     OW14545   7.008   5.481   3.468
 4549SOL    HW114546   7.013   5.549   3.395
 4549SOL    HW214547   6.914   5.473   3.501
 4550SOL     OW14548   2.400   5.791   6.852
 4550SOL    HW114549   2.433   5.882   6.877
 4550SOL    HW214550   2.451   5.757   6.773
 4551SOL     OW14551   3.642   3.180   6.110
 4551SOL    HW114552   3.599   3.090   6.122
 4551SOL    HW214553   3.593   3.248   6.163
 4552SOL     OW14554   5.877   0.670   6.312
 4552SOL    HW114555   5.815   0.725   6.369
 4552SOL    HW214556   5.861   0.573   6.331
 4553SOL     OW14557   6.917   6.742   0.724
 4553SOL    HW114558   6.871   6.690   0.796
 4553SOL    HW214559   6.880   6.713   0.635
 4554SOL     OW14560   5.631   6.159   3.000
 4554SOL    HW114561   5.698   6.122   3.065
 4554SOL    HW214562   5.625   6.099   2.921
 4555SOL     OW14563   0.671   0.441   3.032
 4555SOL    HW114564   0.747   0.503   3.053
 4555SOL    HW214565   0.606   0.486   2.972
 4556SOL     OW14566   5.273   5.106   4.526
 4556SOL    HW114567   5.348   5.067   4.579
 4556SOL    HW214568   5.205   5.035   4.507
 4557SOL     OW14569   0.381   5.872   5.489
 4557SOL    HW114570   0.438   5.893   5.569
 4557SOL    HW214571   0.413   5.787   5.447
 4558SOL     OW14572   0.607   4.627   3.809
 4558SOL    HW114573   0.696   4.648   3.849
 4558SOL    HW214574   0.609   4.537   3.766
 4559SOL     OW14575   0.122   3.211   4.385
 4559SOL    HW114576   0.190   3.281   4.365
 4559SOL    HW214577   0.168   3.127   4.413
 4560SOL     OW14578   6.448   3.171   4.310
 4560SOL    HW114579   6.479   3.202   4.399
 4560SOL    HW214580   6.519   3.188   4.242
 4561SOL     OW14581   5.614   3.630   4.787
 4561SOL    HW114582   5.704   3.671   4.770
 4561SOL    HW214583   5.601   3.617   4.885
 4562SOL     OW14584   4.825   1.204   1.097
 4562SOL    HW114585   4.854   1.280   1.038
 4562SOL    HW214586   4.906   1.163   1.139
 4563SOL     OW14587   1.143   3.634   2.833
 4563SOL    HW114588   1.233   3.675   2.847
 4563SOL    HW214589   1.135   3.552   2.890
 4564SOL     OW14590   2.061   3.656   2.236
 4564SOL    HW114591   2.092   3.670   2.142
 4564SOL    HW214592   2.118   3.709   2.299
 4565SOL     OW14593   2.015   6.180   5.001
 4565SOL    HW114594   2.059   6.166   4.913
 4565SOL    HW214595   1.949   6.255   4.994
 4566SOL     OW14596   6.709   5.185   2.958
 4566SOL    HW114597   6.735   5.129   2.880
 4566SOL    HW214598   6.790   5.227   2.999
 4567SOL     OW14599   1.501   0.278   0.509
 4567SOL    HW114600   1.434   0.335   0.461
 4567SOL    HW214601   1.453   0.215   0.570
 4568SOL     OW14602   6.871   4.457   4.536
 4568SOL    HW114603   6.916   4.546   4.548
 4568SOL    HW214604   6.835   4.451   4.443
 4569SOL     OW14605   6.739   2.421   3.469
 4569SOL    HW114606   6.732   2.327   3.435
 4569SOL    HW214607   6.703   2.484   3.400
 4570SOL     OW14608   4.781   5.691   1.674
 4570SOL    HW114609   4.760   5.768   1.734
 4570SOL    HW214610   4.720   5.693   1.595
 4571SOL     OW14611   2.236   2.574   5.274
 4571SOL    HW114612   2.139   2.587   5.254
 4571SOL    HW214613   2.277   2.661   5.301
 4572SOL     OW14614   5.270   3.218   1.914
 4572SOL    HW114615   5.293   3.258   2.002
 4572SOL    HW214616   5.185   3.259   1.880
 4573SOL     OW14617   2.813   4.650   1.091
 4573SOL    HW114618   2.894   4.683   1.044
 4573SOL    HW214619   2.790   4.712   1.166
 4574SOL     OW14620   4.679   0.312   2.136
 4574SOL    HW114621   4.712   0.283   2.046
 4574SOL    HW214622   4.587   0.276   2.151
 4575SOL     OW14623   0.157   1.636   5.182
 4575SOL    HW114624   0.142   1.692   5.263
 4575SOL    HW214625   0.248   1.655   5.144
 4576SOL     OW14626   3.066   3.603   7.005
 4576SOL    HW114627   3.042   3.610   0.081
 4576SOL    HW214628   3.038   3.687   6.958
 4577SOL     OW14629   0.613   1.617   2.223
 4577SOL    HW114630   0.524   1.601   2.181
 4577SOL    HW214631   0.662   1.531   2.234
 4578SOL     OW14632   2.210   0.604   2.479
 4578SOL    HW114633   2.228   0.673   2.409
 4578SOL    HW214634   2.197   0.648   2.567
 4579SOL     OW14635   3.611   0.826   2.614
 4579SOL    HW114636   3.625   0.782   2.703
 4579SOL    HW214637   3.523   0.799   2.577
 4580SOL     OW14638   0.977   0.093   1.318
 4580SOL    HW114639   1.017   0.180   1.349
 4580SOL    HW214640   1.010   0.019   1.377
 4581SOL     OW14641   3.444   0.496   1.280
 4581SOL    HW114642   3.356   0.468   1.320
 4581SOL    HW214643   3.518   0.461   1.337
 4582SOL     OW14644   5.669   1.502   4.830
 4582SOL    HW114645   5.723   1.447   4.766
 4582SOL    HW214646   5.660   1.595   4.794
 4583SOL     OW14647   1.705   5.959   6.683
 4583SOL    HW114648   1.615   5.999   6.696
 4583SOL    HW214649   1.756   6.013   6.616
 4584SOL     OW14650   6.285   0.952   4.352
 4584SOL    HW114651   6.350   0.897   4.300
 4584SOL    HW214652   6.327   1.040   4.376
 4585SOL     OW14653   1.387   3.137   2.689
 4585SOL    HW114654   1.389   3.212   2.755
 4585SOL    HW214655   1.458   3.151   2.620
 4586SOL     OW14656   0.582   4.127   5.845
 4586SOL    HW114657   0.546   4.212   5.806
 4586SOL    HW214658   0.679   4.137   5.865
 4587SOL     OW14659   4.212   3.403   5.857
 4587SOL    HW114660   4.136   3.354   5.899
 4587SOL    HW214661   4.235   3.484   5.912
 4588SOL     OW14662   2.256   4.869   6.680
 4588SOL    HW114663   2.308   4.932   6.738
 4588SOL    HW214664   2.318   4.801   6.641
 4589SOL     OW14665   5.125   6.317   2.224
 4589SOL    HW114666   5.028   6.318   2.249
 4589SOL    HW214667   5.150   6.226   2.191
 4590SOL     OW14668   2.033   5.216   1.681
 4590SOL    HW114669   1.965   5.175   1.742
 4590SOL    HW214670   2.125   5.192   1.714
 4591SOL     OW14671   2.340   2.058   5.152
 4591SOL    HW114672   2.260   2.029   5.099
 4591SOL    HW214673   2.338   2.157   5.164
 4592SOL     OW14674   2.550   2.415   2.726
 4592SOL    HW114675   2.568   2.396   2.629
 4592SOL    HW214676   2.635   2.404   2.778
 4593SOL     OW14677   2.020   5.692   4.889
 4593SOL    HW114678   2.036   5.665   4.794
 4593SOL    HW214679   2.021   5.611   4.948
 4594SOL     OW14680   0.792   6.771   3.462
 4594SOL    HW114681   0.722   6.811   3.521
 4594SOL    HW214682   0.882   6.803   3.492
 4595SOL     OW14683   5.454   1.416   6.732
 4595SOL    HW114684   5.523   1.361   6.778
 4595SOL    HW214685   5.449   1.506   6.775
 4596SOL     OW14686   0.694   1.333   2.194
 4596SOL    HW114687   0.728   1.249   2.236
 4596SOL    HW214688   0.674   1.316   2.098
 4597SOL     OW14689   1.720   5.303   0.453
 4597SOL    HW114690   1.747   5.382   0.508
 4597SOL    HW214691   1.795   5.278   0.392
 4598SOL     OW14692   0.718   2.066   0.254
 4598SOL    HW114693   0.737   1.969   0.236
 4598SOL    HW214694   0.789   2.122   0.212
 4599SOL     OW14695   3.048   6.359   2.981
 4599SOL    HW114696   3.032   6.457   2.991
 4599SOL    HW214697   3.022   6.330   2.889
 4600SOL     OW14698   0.174   6.677   5.675
 4600SOL    HW114699   0.267   6.665   5.641
 4600SOL    HW214700   0.141   6.768   5.652
 4601SOL     OW14701   1.483   1.094   4.863
 4601SOL    HW114702   1.505   1.192   4.871
 4601SOL    HW214703   1.443   1.076   4.774
 4602SOL     OW14704   4.539   0.563   5.388
 4602SOL    HW114705   4.588   0.620   5.454
 4602SOL    HW214706   4.587   0.564   5.301
 4603SOL     OW14707   4.578   6.885   0.521
 4603SOL    HW114708   4.479   6.890   0.534
 4603SOL    HW214709   4.599   6.810   0.457
 4604SOL     OW14710   0.318   6.822   3.578
 4604SOL    HW114711   0.323   6.789   3.673
 4604SOL    HW214712   0.348   6.750   3.516
 4605SOL     OW14713   3.974   1.470   2.270
 4605SOL    HW114714   3.941   1.561   2.295
 4605SOL    HW214715   4.051   1.445   2.329
 4606SOL     OW14716   6.615   0.035   4.753
 4606SOL    HW114717   6.660   0.090   4.683
 4606SOL    HW214718   6.586   0.094   4.828
 4607SOL     OW14719   2.511   1.983   1.151
 4607SOL    HW114720   2.608   1.985   1.173
 4607SOL    HW214721   2.464   1.919   1.213
 4608SOL     OW14722   0.359   2.698   5.894
 4608SOL    HW114723   0.323   2.627   5.834
 4608SOL    HW214724   0.457   2.686   5.906
 4609SOL     OW14725   5.411   5.047   6.174
 4609SOL    HW114726   5.427   5.080   6.081
 4609SOL    HW214727   5.321   5.078   6.205
 4610SOL     OW14728   4.857   3.963   6.425
 4610SOL    HW114729   4.812   4.044   6.465
 4610SOL    HW214730   4.851   3.967   6.326
 4611SOL     OW14731   0.457   0.351   6.738
 4611SOL    HW114732   0.520   0.378   6.810
 4611SOL    HW214733   0.492   0.383   6.649
 4612SOL     OW14734   1.637   0.720   2.039
 4612SOL    HW114735   1.593   0.636   2.007
 4612SOL    HW214736   1.706   0.698   2.108
 4613SOL     OW14737   1.575   4.847   3.676
 4613SOL    HW114738   1.635   4.926   3.661
 4613SOL    HW214739   1.550   4.843   3.773
 4614SOL     OW14740   6.674   5.027   2.740
 4614SOL    HW114741   6.695   5.016   2.643
 4614SOL    HW214742   6.576   5.047   2.751
 4615SOL     OW14743   0.825   4.500   6.685
 4615SOL    HW114744   0.824   4.599   6.696
 4615SOL    HW214745   0.849   4.458   6.772
 4616SOL     OW14746   1.628   4.755   6.080
 4616SOL    HW114747   1.584   4.676   6.037
 4616SOL    HW214748   1.713   4.777   6.032
 4617SOL     OW14749   0.864   4.556   4.502
 4617SOL    HW114750   0.800   4.480   4.490
 4617SOL    HW214751   0.848   4.625   4.432
 4618SOL     OW14752   2.165   4.355   5.194
 4618SOL    HW114753   2.151   4.259   5.220
 4618SOL    HW214754   2.165   4.362   5.094
 4619SOL     OW14755   4.790   5.988   6.800
 4619SOL    HW114756   4.758   6.006   6.894
 4619SOL    HW214757   4.715   6.002   6.736
 4620SOL     OW14758   0.930   4.769   2.131
 4620SOL    HW114759   0.854   4.721   2.088
 4620SOL    HW214760   0.963   4.840   2.070
 4621SOL     OW14761   2.398   0.432   2.659
 4621SOL    HW114762   2.407   0.465   2.565
 4621SOL    HW214763   2.487   0.431   2.703
 4622SOL     OW14764   6.085   6.768   1.007
 4622SOL    HW114765   6.035   6.737   0.926
 4622SOL    HW214766   6.183   6.759   0.991
 4623SOL     OW14767   2.798   4.887   2.445
 4623SOL    HW114768   2.863   4.962   2.433
 4623SOL    HW214769   2.705   4.924   2.446
 4624SOL     OW14770   5.686   1.715   0.381
 4624SOL    HW114771   5.616   1.786   0.379
 4624SOL    HW214772   5.708   1.687   0.287
 4625SOL     OW14773   0.772   6.972   1.598
 4625SOL    HW114774   0.726   7.010   1.677
 4625SOL    HW214775   0.733   7.011   1.514
 4626SOL     OW14776   4.253   3.998   1.769
 4626SOL    HW114777   4.206   3.967   1.851
 4626SOL    HW214778   4.321   4.068   1.793
 4627SOL     OW14779   5.679   6.215   4.624
 4627SOL    HW114780   5.771   6.247   4.645
 4627SOL    HW214781   5.612   6.280   4.661
 4628SOL     OW14782   6.221   3.425   2.307
 4628SOL    HW114783   6.140   3.395   2.256
 4628SOL    HW214784   6.280   3.347   2.326
 4629SOL     OW14785   1.428   5.235   1.262
 4629SOL    HW114786   1.347   5.275   1.305
 4629SOL    HW214787   1.413   5.227   1.163
 4630SOL     OW14788   1.647   3.254   1.739
 4630SOL    HW114789   1.653   3.211   1.829
 4630SOL    HW214790   1.738   3.285   1.712
 4631SOL     OW14791   5.811   1.421   1.458
 4631SOL    HW114792   5.894   1.440   1.510
 4631SOL    HW214793   5.762   1.507   1.441
 4632SOL     OW14794   2.529   5.139   3.646
 4632SOL    HW114795   2.501   5.108   3.555
 4632SOL    HW214796   2.621   5.104   3.666
 4633SOL     OW14797   5.159   3.457   3.448
 4633SOL    HW114798   5.137   3.399   3.526
 4633SOL    HW214799   5.232   3.414   3.394
 4634SOL     OW14800   3.951   3.040   5.195
 4634SOL    HW114801   3.876   3.032   5.260
 4634SOL    HW214802   3.915   3.045   5.102
 4635SOL     OW14803   4.196   0.079   2.237
 4635SOL    HW114804   4.233   0.113   2.150
 4635SOL    HW214805   4.261   0.096   2.310
 4636SOL     OW14806   1.268   5.773   6.792
 4636SOL    HW114807   1.299   5.867   6.779
 4636SOL    HW214808   1.341   5.719   6.834
 4637SOL     OW14809   2.066   2.680   3.438
 4637SOL    HW114810   2.057   2.695   3.339
 4637SOL    HW214811   2.145   2.730   3.472
 4638SOL     OW14812   4.157   4.271   6.642
 4638SOL    HW114813   4.159   4.175   6.615
 4638SOL    HW214814   4.141   4.277   6.741
 4639SOL     OW14815   3.868   2.813   1.745
 4639SOL    HW114816   3.818   2.740   1.793
 4639SOL    HW214817   3.830   2.902   1.771
 4640SOL     OW14818   0.266   2.108   0.748
 4640SOL    HW114819   0.174   2.084   0.714
 4640SOL    HW214820   0.299   2.188   0.698
 4641SOL     OW14821   0.834   6.139   4.675
 4641SOL    HW114822   0.777   6.221   4.663
 4641SOL    HW214823   0.904   6.137   4.604
 4642SOL     OW14824   5.438   1.129   6.423
 4642SOL    HW114825   5.514   1.140   6.359
 4642SOL    HW214826   5.370   1.068   6.384
 4643SOL     OW14827   1.055   1.848   0.224
 4643SOL    HW114828   1.105   1.763   0.238
 4643SOL    HW214829   1.119   1.923   0.213
 4644SOL     OW14830   1.189   1.989   0.805
 4644SOL    HW114831   1.137   2.002   0.889
 4644SOL    HW214832   1.260   1.921   0.820
 4645SOL     OW14833   5.612   2.604   5.847
 4645SOL    HW114834   5.523   2.648   5.845
 4645SOL    HW214835   5.611   2.527   5.912
 4646SOL     OW14836   1.198   4.094   2.357
 4646SOL    HW114837   1.225   4.007   2.316
 4646SOL    HW214838   1.098   4.102   2.354
 4647SOL     OW14839   1.355   5.823   2.365
 4647SOL    HW114840   1.453   5.838   2.380
 4647SOL    HW214841   1.326   5.742   2.415
 4648SOL     OW14842   2.835   1.553   4.321
 4648SOL    HW114843   2.864   1.619   4.391
 4648SOL    HW214844   2.803   1.469   4.366
 4649SOL     OW14845   4.475   3.173   1.493
 4649SOL    HW114846   4.495   3.264   1.531
 4649SOL    HW214847   4.446   3.112   1.567
 4650SOL     OW14848   3.703   4.825   0.606
 4650SOL    HW114849   3.660   4.911   0.633
 4650SOL    HW214850   3.636   4.767   0.560
 4651SOL     OW14851   1.699   3.006   0.125
 4651SOL    HW114852   1.797   2.986   0.128
 4651SOL    HW214853   1.650   2.928   0.086
 4652SOL     OW14854   6.521   0.063   5.818
 4652SOL    HW114855   6.485   0.102   5.903
 4652SOL    HW214856   6.472   6.999   5.797
 4653SOL     OW14857   0.985   6.648   0.702
 4653SOL    HW114858   0.939   6.571   0.657
 4653SOL    HW214859   1.046   6.693   0.637
 4654SOL     OW14860   0.901   1.154   5.224
 4654SOL    HW114861   0.895   1.055   5.224
 4654SOL    HW214862   0.814   1.193   5.193
 4655SOL     OW14863   5.731   5.188   3.033
 4655SOL    HW114864   5.665   5.186   2.957
 4655SOL    HW214865   5.786   5.105   3.032
 4656SOL     OW14866   6.304   0.613   1.091
 4656SOL    HW114867   6.392   0.633   1.047
 4656SOL    HW214868   6.303   0.517   1.119
 4657SOL     OW14869   3.461   2.071   2.209
 4657SOL    HW114870   3.379   2.115   2.173
 4657SOL    HW214871   3.542   2.124   2.182
 4658SOL     OW14872   1.709   1.166   0.501
 4658SOL    HW114873   1.623   1.118   0.484
 4658SOL    HW214874   1.751   1.191   0.414
 4659SOL     OW14875   2.390   5.040   0.816
 4659SOL    HW114876   2.420   4.945   0.808
 4659SOL    HW214877   2.301   5.051   0.771
 4660SOL     OW14878   0.337   4.679   4.828
 4660SOL    HW114879   0.318   4.586   4.861
 4660SOL    HW214880   0.256   4.714   4.781
 4661SOL     OW14881   0.574   0.946   5.207
 4661SOL    HW114882   0.507   0.878   5.235
 4661SOL    HW214883   0.548   1.036   5.243
 4662SOL     OW14884   2.879   6.962   6.577
 4662SOL    HW114885   2.933   0.005   6.522
 4662SOL    HW214886   2.815   6.913   6.518
 4663SOL     OW14887   0.301   0.159   0.993
 4663SOL    HW114888   0.277   0.208   0.910
 4663SOL    HW214889   0.266   0.065   0.989
 4664SOL     OW14890   6.313   6.267   5.214
 4664SOL    HW114891   6.406   6.270   5.178
 4664SOL    HW214892   6.312   6.302   5.308
 4665SOL     OW14893   0.412   1.491   2.643
 4665SOL    HW114894   0.338   1.425   2.657
 4665SOL    HW214895   0.479   1.453   2.581
 4666SOL     OW14896   1.697   2.724   5.842
 4666SOL    HW114897   1.671   2.748   5.936
 4666SOL    HW214898   1.764   2.650   5.844
 4667SOL     OW14899   6.743   2.147   1.226
 4667SOL    HW114900   6.806   2.221   1.201
 4667SOL    HW214901   6.650   2.183   1.232
 4668SOL     OW14902   4.569   2.112   5.050
 4668SOL    HW114903   4.519   2.044   4.996
 4668SOL    HW214904   4.613   2.068   5.127
 4669SOL     OW14905   5.716   6.268   6.367
 4669SOL    HW114906   5.628   6.316   6.374
 4669SOL    HW214907   5.767   6.304   6.288
 4670SOL     OW14908   0.473   3.283   0.299
 4670SOL    HW114909   0.547   3.350   0.306
 4670SOL    HW214910   0.508   3.200   0.257
 4671SOL     OW14911   0.212   1.633   1.818
 4671SOL    HW114912   0.138   1.677   1.767
 4671SOL    HW214913   0.254   1.562   1.761
 4672SOL     OW14914   4.434   3.054   0.653
 4672SOL    HW114915   4.479   3.137   0.621
 4672SOL    HW214916   4.335   3.066   0.647
 4673SOL     OW14917   4.807   1.287   0.475
 4673SOL    HW114918   4.882   1.306   0.538
 4673SOL    HW214919   4.841   1.232   0.398
 4674SOL     OW14920   1.197   3.302   0.431
 4674SOL    HW114921   1.255   3.223   0.452
 4674SOL    HW214922   1.104   3.284   0.463
 4675SOL     OW14923   1.991   6.675   0.175
 4675SOL    HW114924   2.079   6.640   0.205
 4675SOL    HW214925   1.932   6.598   0.149
 4676SOL     OW14926   0.526   5.406   4.593
 4676SOL    HW114927   0.475   5.323   4.613
 4676SOL    HW214928   0.540   5.457   4.678
 4677SOL     OW14929   4.915   0.058   6.999
 4677SOL    HW114930   4.940   0.069   6.903
 4677SOL    HW214931   4.974   7.010   0.020
 4678SOL     OW14932   2.520   5.264   0.365
 4678SOL    HW114933   2.521   5.164   0.364
 4678SOL    HW214934   2.442   5.296   0.418
 4679SOL     OW14935   2.178   6.706   5.606
 4679SOL    HW114936   2.146   6.691   5.513
 4679SOL    HW214937   2.198   6.617   5.649
 4680SOL     OW14938   1.422   5.533   5.879
 4680SOL    HW114939   1.458   5.626   5.868
 4680SOL    HW214940   1.322   5.536   5.874
 4681SOL     OW14941   6.579   6.301   5.313
 4681SOL    HW114942   6.564   6.397   5.288
 4681SOL    HW214943   6.599   6.295   5.410
 4682SOL     OW14944   3.049   0.077   0.577
 4682SOL    HW114945   3.048   0.027   0.490
 4682SOL    HW214946   3.015   0.170   0.562
 4683SOL     OW14947   0.540   5.102   3.603
 4683SOL    HW114948   0.489   5.037   3.661
 4683SOL    HW214949   0.483   5.182   3.586
 4684SOL     OW14950   2.187   1.065   5.017
 4684SOL    HW114951   2.089   1.066   5.039
 4684SOL    HW214952   2.229   0.983   5.057
 4685SOL     OW14953   5.392   4.733   4.101
 4685SOL    HW114954   5.333   4.668   4.053
 4685SOL    HW214955   5.431   4.688   4.182
 4686SOL     OW14956   4.590   5.359   6.216
 4686SOL    HW114957   4.664   5.418   6.247
 4686SOL    HW214958   4.585   5.361   6.116
 4687SOL     OW14959   4.287   1.044   4.911
 4687SOL    HW114960   4.232   1.074   4.989
 4687SOL    HW214961   4.355   1.114   4.889
 4688SOL     OW14962   0.028   0.733   1.115
 4688SOL    HW114963   7.006   0.661   1.170
 4688SOL    HW214964   0.110   0.697   1.071
 4689SOL     OW14965   2.065   5.641   4.624
 4689SOL    HW114966   2.154   5.685   4.608
 4689SOL    HW214967   2.039   5.588   4.544
 4690SOL     OW14968   2.729   2.080   0.473
 4690SOL    HW114969   2.829   2.071   0.469
 4690SOL    HW214970   2.688   2.033   0.395
 4691SOL     OW14971   3.027   4.737   0.041
 4691SOL    HW114972   3.124   4.715   0.054
 4691SOL    HW214973   3.002   4.722   6.966
 4692SOL     OW14974   0.926   4.708   3.377
 4692SOL    HW114975   0.947   4.788   3.321
 4692SOL    HW214976   0.827   4.701   3.390
 4693SOL     OW14977   0.832   1.923   2.348
 4693SOL    HW114978   0.751   1.891   2.397
 4693SOL    HW214979   0.808   2.005   2.296
 4694SOL     OW14980   1.693   0.916   4.905
 4694SOL    HW114981   1.636   0.997   4.894
 4694SOL    HW214982   1.715   0.878   4.816
 4695SOL     OW14983   3.239   3.614   3.085
 4695SOL    HW114984   3.247   3.589   3.182
 4695SOL    HW214985   3.154   3.664   3.070
 4696SOL     OW14986   0.367   2.510   6.843
 4696SOL    HW114987   0.412   2.593   6.811
 4696SOL    HW214988   0.437   2.443   6.870
 4697SOL     OW14989   0.667   4.944   6.896
 4697SOL    HW114990   0.680   5.014   6.825
 4697SOL    HW214991   0.659   4.989   6.985
 4698SOL     OW14992   5.245   3.129   2.500
 4698SOL    HW114993   5.340   3.113   2.475
 4698SOL    HW214994   5.223   3.226   2.487
 4699SOL     OW14995   6.695   0.360   3.089
 4699SOL    HW114996   6.729   0.326   3.001
 4699SOL    HW214997   6.765   0.416   3.133
 4700SOL     OW14998   5.088   0.273   5.243
 4700SOL    HW114999   5.178   0.231   5.228
 4700SOL    HW215000   5.095   0.372   5.229
 4701SOL     OW15001   2.115   0.922   5.991
 4701SOL    HW115002   2.156   0.848   6.044
 4701SOL    HW215003   2.115   0.898   5.894
 4702SOL     OW15004   3.776   2.657   1.149
 4702SOL    HW115005   3.756   2.710   1.231
 4702SOL    HW215006   3.713   2.580   1.143
 4703SOL     OW15007   0.617   6.472   2.113
 4703SOL    HW115008   0.691   6.432   2.167
 4703SOL    HW215009   0.654   6.539   2.049
 4704SOL     OW15010   4.482   6.615   6.254
 4704SOL    HW115011   4.504   6.611   6.157
 4704SOL    HW215012   4.384   6.600   6.267
 4705SOL     OW15013   3.829   2.922   4.918
 4705SOL    HW115014   3.853   2.827   4.901
 4705SOL    HW215015   3.753   2.926   4.982
 4706SOL     OW15016   5.688   3.068   0.214
 4706SOL    HW115017   5.763   3.081   0.279
 4706SOL    HW215018   5.615   3.133   0.234
 4707SOL     OW15019   2.735   4.502   0.712
 4707SOL    HW115020   2.685   4.511   0.798
 4707SOL    HW215021   2.776   4.411   0.707
 4708SOL     OW15022   2.155   2.866   2.397
 4708SOL    HW115023   2.173   2.945   2.456
 4708SOL    HW215024   2.211   2.789   2.428
 4709SOL     OW15025   2.968   4.139   0.326
 4709SOL    HW115026   2.970   4.054   0.379
 4709SOL    HW215027   2.981   4.217   0.387
 4710SOL     OW15028   4.736   2.596   1.272
 4710SOL    HW115029   4.721   2.685   1.229
 4710SOL    HW215030   4.819   2.600   1.328
 4711SOL     OW15031   2.782   0.064   3.403
 4711SOL    HW115032   2.727   7.018   3.354
 4711SOL    HW215033   2.843   0.112   3.339
 4712SOL     OW15034   1.240   3.275   6.797
 4712SOL    HW115035   1.144   3.288   6.773
 4712SOL    HW215036   1.256   3.179   6.821
 4713SOL     OW15037   0.653   5.793   1.092
 4713SOL    HW115038   0.559   5.763   1.078
 4713SOL    HW215039   0.656   5.893   1.089
 4714SOL     OW15040   4.285   2.242   1.067
 4714SOL    HW115041   4.224   2.224   1.144
 4714SOL    HW215042   4.378   2.256   1.100
 4715SOL     OW15043   4.890   3.440   4.776
 4715SOL    HW115044   4.903   3.447   4.677
 4715SOL    HW215045   4.834   3.517   4.807
 4716SOL     OW15046   2.044   5.559   6.284
 4716SOL    HW115047   2.009   5.640   6.332
 4716SOL    HW215048   1.989   5.479   6.310
 4717SOL     OW15049   1.999   5.057   4.908
 4717SOL    HW115050   1.951   4.979   4.947
 4717SOL    HW215051   2.075   5.025   4.851
 4718SOL     OW15052   4.737   6.514   0.171
 4718SOL    HW115053   4.715   6.452   0.095
 4718SOL    HW215054   4.825   6.559   0.152
 4719SOL     OW15055   4.569   3.169   1.086
 4719SOL    HW115056   4.531   3.205   1.172
 4719SOL    HW215057   4.498   3.119   1.037
 4720SOL     OW15058   2.058   2.044   3.583
 4720SOL    HW115059   1.977   1.989   3.605
 4720SOL    HW215060   2.055   2.070   3.487
 4721SOL     OW15061   1.833   1.383   1.694
 4721SOL    HW115062   1.797   1.398   1.602
 4721SOL    HW215063   1.921   1.337   1.689
 4722SOL     OW15064   2.537   1.122   2.792
 4722SOL    HW115065   2.529   1.082   2.883
 4722SOL    HW215066   2.530   1.221   2.799
 4723SOL     OW15067   3.002   0.507   5.410
 4723SOL    HW115068   3.100   0.522   5.398
 4723SOL    HW215069   2.976   0.530   5.504
 4724SOL     OW15070   4.285   5.626   1.206
 4724SOL    HW115071   4.361   5.563   1.219
 4724SOL    HW215072   4.248   5.654   1.294
 4725SOL     OW15073   5.900   5.048   2.608
 4725SOL    HW115074   5.962   4.999   2.670
 4725SOL    HW215075   5.865   4.986   2.539
 4726SOL     OW15076   6.513   6.562   4.201
 4726SOL    HW115077   6.505   6.589   4.297
 4726SOL    HW215078   6.430   6.512   4.174
 4727SOL     OW15079   5.019   6.637   1.724
 4727SOL    HW115080   5.064   6.614   1.637
 4727SOL    HW215081   5.048   6.728   1.754
 4728SOL     OW15082   6.753   6.441   6.627
 4728SOL    HW115083   6.850   6.445   6.604
 4728SOL    HW215084   6.724   6.346   6.637
 4729SOL     OW15085   3.406   0.749   1.282
 4729SOL    HW115086   3.306   0.751   1.278
 4729SOL    HW215087   3.436   0.654   1.291
 4730SOL     OW15088   1.711   0.711   6.253
 4730SOL    HW115089   1.704   0.809   6.272
 4730SOL    HW215090   1.774   0.696   6.177
 4731SOL     OW15091   4.572   1.528   5.559
 4731SOL    HW115092   4.573   1.583   5.642
 4731SOL    HW215093   4.503   1.456   5.567
 4732SOL     OW15094   0.559   6.826   6.266
 4732SOL    HW115095   0.514   6.908   6.303
 4732SOL    HW215096   0.590   6.769   6.342
 4733SOL     OW15097   5.507   3.793   3.273
 4733SOL    HW115098   5.606   3.803   3.264
 4733SOL    HW215099   5.478   3.825   3.363
 4734SOL     OW15100   6.426   3.572   6.069
 4734SOL    HW115101   6.472   3.637   6.130
 4734SOL    HW215102   6.361   3.517   6.122
 4735SOL     OW15103   0.216   4.082   3.665
 4735SOL    HW115104   0.233   4.082   3.764
 4735SOL    HW215105   0.129   4.128   3.647
 4736SOL     OW15106   1.455   6.866   2.376
 4736SOL    HW115107   1.428   6.792   2.437
 4736SOL    HW215108   1.466   6.831   2.283
 4737SOL     OW15109   3.305   5.196   2.287
 4737SOL    HW115110   3.269   5.182   2.195
 4737SOL    HW215111   3.380   5.262   2.284
 4738SOL     OW15112   0.923   0.156   3.256
 4738SOL    HW115113   0.878   0.165   3.345
 4738SOL    HW215114   0.972   0.240   3.235
 4739SOL     OW15115   3.779   0.048   1.753
 4739SOL    HW115116   3.700   0.092   1.711
 4739SOL    HW215117   3.762   0.035   1.851
 4740SOL     OW15118   0.787   1.599   4.522
 4740SOL    HW115119   0.706   1.546   4.543
 4740SOL    HW215120   0.790   1.618   4.423
 4741SOL     OW15121   3.625   4.117   3.093
 4741SOL    HW115122   3.719   4.088   3.110
 4741SOL    HW215123   3.610   4.127   2.995
 4742SOL     OW15124   4.587   1.014   2.960
 4742SOL    HW115125   4.534   1.082   2.908
 4742SOL    HW215126   4.629   1.058   3.039
 4743SOL     OW15127   0.685   5.151   0.707
 4743SOL    HW115128   0.599   5.201   0.716
 4743SOL    HW215129   0.755   5.195   0.763
 4744SOL     OW15130   1.480   4.855   1.567
 4744SOL    HW115131   1.433   4.826   1.484
 4744SOL    HW215132   1.462   4.952   1.584
 4745SOL     OW15133   1.966   2.962   0.152
 4745SOL    HW115134   1.974   2.899   0.228
 4745SOL    HW215135   2.016   3.046   0.173
 4746SOL     OW15136   5.848   5.803   4.618
 4746SOL    HW115137   5.936   5.777   4.577
 4746SOL    HW215138   5.774   5.757   4.569
 4747SOL     OW15139   4.186   0.862   1.082
 4747SOL    HW115140   4.140   0.950   1.068
 4747SOL    HW215141   4.121   0.797   1.122
 4748SOL     OW15142   1.933   6.862   3.574
 4748SOL    HW115143   2.002   6.930   3.600
 4748SOL    HW215144   1.859   6.862   3.641
 4749SOL     OW15145   2.234   0.974   1.505
 4749SOL    HW115146   2.302   1.014   1.444
 4749SOL    HW215147   2.181   1.047   1.548
 4750SOL     OW15148   5.526   3.209   6.342
 4750SOL    HW115149   5.514   3.267   6.422
 4750SOL    HW215150   5.449   3.222   6.280
 4751SOL     OW15151   3.840   1.747   2.552
 4751SOL    HW115152   3.768   1.690   2.592
 4751SOL    HW215153   3.924   1.739   2.607
 4752SOL     OW15154   5.910   6.936   0.162
 4752SOL    HW115155   5.949   6.845   0.178
 4752SOL    HW215156   5.854   6.934   0.079
 4753SOL     OW15157   2.956   5.432   5.019
 4753SOL    HW115158   2.893   5.500   5.055
 4753SOL    HW215159   3.050   5.465   5.027
 4754SOL     OW15160   5.813   4.690   0.648
 4754SOL    HW115161   5.823   4.698   0.549
 4754SOL    HW215162   5.799   4.593   0.672
 4755SOL     OW15163   0.168   1.030   1.673
 4755SOL    HW115164   0.086   0.975   1.689
 4755SOL    HW215165   0.191   1.080   1.757
 4756SOL     OW15166   6.800   3.558   5.161
 4756SOL    HW115167   6.749   3.611   5.229
 4756SOL    HW215168   6.892   3.596   5.152
 4757SOL     OW15169   1.763   3.373   1.477
 4757SOL    HW115170   1.751   3.440   1.404
 4757SOL    HW215171   1.851   3.327   1.466
 4758SOL     OW15172   1.853   5.271   1.987
 4758SOL    HW115173   1.949   5.247   1.971
 4758SOL    HW215174   1.796   5.190   1.978
 4759SOL     OW15175   0.561   6.934   2.716
 4759SOL    HW115176   0.481   6.985   2.747
 4759SOL    HW215177   0.644   6.978   2.750
 4760SOL     OW15178   0.553   7.005   1.776
 4760SOL    HW115179   0.513   0.027   1.857
 4760SOL    HW215180   0.480   6.975   1.714
 4761SOL     OW15181   4.074   6.270   2.219
 4761SOL    HW115182   4.131   6.197   2.256
 4761SOL    HW215183   4.108   6.358   2.252
 4762SOL     OW15184   1.041   0.835   2.239
 4762SOL    HW115185   1.107   0.835   2.314
 4762SOL    HW215186   1.085   0.807   2.154
 4763SOL     OW15187   5.038   4.485   1.796
 4763SOL    HW115188   5.124   4.454   1.753
 4763SOL    HW215189   5.021   4.430   1.878
 4764SOL     OW15190   4.692   3.041   6.541
 4764SOL    HW115191   4.722   3.078   6.453
 4764SOL    HW215192   4.674   2.943   6.532
 4765SOL     OW15193   3.518   1.466   5.533
 4765SOL    HW115194   3.475   1.417   5.609
 4765SOL    HW215195   3.574   1.541   5.569
 4766SOL     OW15196   1.195   1.003   3.498
 4766SOL    HW115197   1.282   1.050   3.512
 4766SOL    HW215198   1.182   0.983   3.401
 4767SOL     OW15199   2.833   4.788   3.009
 4767SOL    HW115200   2.924   4.785   3.051
 4767SOL    HW215201   2.842   4.778   2.910
 4768SOL     OW15202   4.756   2.309   6.372
 4768SOL    HW115203   4.797   2.225   6.336
 4768SOL    HW215204   4.656   2.299   6.374
 4769SOL     OW15205   3.043   2.989   0.555
 4769SOL    HW115206   3.040   2.958   0.650
 4769SOL    HW215207   2.950   3.002   0.521
 4770SOL     OW15208   0.299   1.669   3.925
 4770SOL    HW115209   0.235   1.604   3.885
 4770SOL    HW215210   0.390   1.654   3.887
 4771SOL     OW15211   3.012   1.011   4.276
 4771SOL    HW115212   2.994   1.081   4.208
 4771SOL    HW215213   3.104   0.974   4.262
 4772SOL     OW15214   2.556   5.029   2.478
 4772SOL    HW115215   2.579   5.112   2.427
 4772SOL    HW215216   2.491   5.051   2.550
 4773SOL     OW15217   3.010   5.555   4.342
 4773SOL    HW115218   3.023   5.651   4.317
 4773SOL    HW215219   2.930   5.546   4.402
 4774SOL     OW15220   0.802   4.656   0.184
 4774SOL    HW115221   0.802   4.648   0.284
 4774SOL    HW215222   0.722   4.610   0.147
 4775SOL     OW15223   5.758   5.074   4.178
 4775SOL    HW115224   5.678   5.029   4.218
 4775SOL    HW215225   5.841   5.030   4.211
 4776SOL     OW15226   6.975   2.041   4.566
 4776SOL    HW115227   7.018   2.125   4.534
 4776SOL    HW215228   0.022   1.985   4.614
 4777SOL     OW15229   0.869   6.284   3.530
 4777SOL    HW115230   0.937   6.273   3.602
 4777SOL    HW215231   0.885   6.371   3.483
 4778SOL     OW15232   1.351   0.092   0.646
 4778SOL    HW115233   1.265   0.130   0.680
 4778SOL    HW215234   1.414   0.077   0.722
 4779SOL     OW15235   4.748   1.819   4.455
 4779SOL    HW115236   4.734   1.720   4.451
 4779SOL    HW215237   4.843   1.840   4.435
 4780SOL     OW15238   4.981   2.712   4.823
 4780SOL    HW115239   4.886   2.743   4.823
 4780SOL    HW215240   5.040   2.784   4.859
 4781SOL     OW15241   3.003   5.475   1.666
 4781SOL    HW115242   2.907   5.478   1.695
 4781SOL    HW215243   3.060   5.448   1.744
 4782SOL     OW15244   1.168   6.964   3.223
 4782SOL    HW115245   1.102   6.940   3.293
 4782SOL    HW215246   1.214   0.028   3.248
 4783SOL     OW15247   1.011   4.153   6.767
 4783SOL    HW115248   1.013   4.237   6.820
 4783SOL    HW215249   1.104   4.118   6.756
 4784SOL     OW15250   6.053   2.677   6.707
 4784SOL    HW115251   6.087   2.742   6.775
 4784SOL    HW215252   5.956   2.661   6.722
 4785SOL     OW15253   0.627   1.209   4.024
 4785SOL    HW115254   0.551   1.158   3.984
 4785SOL    HW215255   0.708   1.150   4.029
 4786SOL     OW15256   1.866   6.412   0.163
 4786SOL    HW115257   1.819   6.391   0.249
 4786SOL    HW215258   1.960   6.378   0.167
 4787SOL     OW15259   4.162   1.445   5.035
 4787SOL    HW115260   4.077   1.436   4.983
 4787SOL    HW215261   4.197   1.354   5.057
 4788SOL     OW15262   6.964   5.907   0.731
 4788SOL    HW115263   6.956   5.995   0.778
 4788SOL    HW215264   6.875   5.881   0.693
 4789SOL     OW15265   5.905   1.083   2.174
 4789SOL    HW115266   5.951   1.038   2.097
 4789SOL    HW215267   5.841   1.019   2.217
 4790SOL     OW15268   0.521   2.736   6.211
 4790SOL    HW115269   0.588   2.758   6.282
 4790SOL    HW215270   0.494   2.820   6.164
 4791SOL     OW15271   1.075   0.784   6.442
 4791SOL    HW115272   1.099   0.733   6.359
 4791SOL    HW215273   1.090   0.881   6.428
 4792SOL     OW15274   0.720   4.251   1.537
 4792SOL    HW115275   0.728   4.343   1.576
 4792SOL    HW215276   0.806   4.225   1.493
 4793SOL     OW15277   1.149   3.116   5.347
 4793SOL    HW115278   1.165   3.203   5.393
 4793SOL    HW215279   1.089   3.131   5.268
 4794SOL     OW15280   5.660   1.222   6.241
 4794SOL    HW115281   5.642   1.295   6.307
 4794SOL    HW215282   5.645   1.257   6.149
 4795SOL     OW15283   0.113   6.508   6.873
 4795SOL    HW115284   0.210   6.511   6.896
 4795SOL    HW215285   0.063   6.459   6.944
 4796SOL     OW15286   5.757   1.299   5.528
 4796SOL    HW115287   5.726   1.393   5.520
 4796SOL    HW215288   5.738   1.265   5.620
 4797SOL     OW15289   2.877   4.914   5.300
 4797SOL    HW115290   2.913   4.896   5.392
 4797SOL    HW215291   2.788   4.960   5.308
 4798SOL     OW15292   3.573   6.035   0.312
 4798SOL    HW115293   3.627   6.046   0.396
 4798SOL    HW215294   3.525   5.947   0.315
 4799SOL     OW15295   4.375   3.646   1.483
 4799SOL    HW115296   4.321   3.636   1.399
 4799SOL    HW215297   4.435   3.567   1.494
 4800SOL     OW15298   0.979   4.620   7.001
 4800SOL    HW115299   1.058   4.680   7.013
 4800SOL    HW215300   0.903   4.653   0.037
 4801SOL     OW15301   4.906   3.375   3.416
 4801SOL    HW115302   4.862   3.419   3.494
 4801SOL    HW215303   4.999   3.408   3.407
 4802SOL     OW15304   6.937   0.233   4.841
 4802SOL    HW115305   6.946   0.149   4.788
 4802SOL    HW215306   6.881   0.299   4.790
 4803SOL     OW15307   5.365   3.451   5.915
 4803SOL    HW115308   5.359   3.445   5.815
 4803SOL    HW215309   5.279   3.420   5.956
 4804SOL     OW15310   5.418   2.911   0.875
 4804SOL    HW115311   5.462   2.923   0.964
 4804SOL    HW215312   5.411   3.000   0.829
 4805SOL     OW15313   5.958   0.745   5.583
 4805SOL    HW115314   5.979   0.813   5.514
 4805SOL    HW215315   5.960   0.787   5.674
 4806SOL     OW15316   1.614   3.097   3.618
 4806SOL    HW115317   1.712   3.104   3.640
 4806SOL    HW215318   1.598   3.016   3.563
 4807SOL     OW15319   1.100   3.493   0.931
 4807SOL    HW115320   1.057   3.427   0.870
 4807SOL    HW215321   1.197   3.500   0.909
 4808SOL     OW15322   3.081   6.632   3.014
 4808SOL    HW115323   3.008   6.684   2.970
 4808SOL    HW215324   3.086   6.656   3.111
 4809SOL     OW15325   2.787   4.234   0.723
 4809SOL    HW115326   2.749   4.237   0.815
 4809SOL    HW215327   2.751   4.153   0.675
 4810SOL     OW15328   1.889   5.501   4.425
 4810SOL    HW115329   1.848   5.484   4.515
 4810SOL    HW215330   1.834   5.568   4.376
 4811SOL     OW15331   3.236   3.444   4.990
 4811SOL    HW115332   3.157   3.417   5.045
 4811SOL    HW215333   3.311   3.470   5.050
 4812SOL     OW15334   2.216   6.287   0.927
 4812SOL    HW115335   2.162   6.208   0.896
 4812SOL    HW215336   2.191   6.308   1.021
 4813SOL     OW15337   0.942   2.657   4.946
 4813SOL    HW115338   0.971   2.571   4.903
 4813SOL    HW215339   1.021   2.699   4.991
 4814SOL     OW15340   4.638   1.479   0.409
 4814SOL    HW115341   4.669   1.527   0.328
 4814SOL    HW215342   4.700   1.402   0.428
 4815SOL     OW15343   6.685   3.869   2.932
 4815SOL    HW115344   6.739   3.816   2.997
 4815SOL    HW215345   6.680   3.964   2.962
 4816SOL     OW15346   2.147   0.633   2.988
 4816SOL    HW115347   2.156   0.631   3.088
 4816SOL    HW215348   2.066   0.581   2.961
 4817SOL     OW15349   4.775   3.177   6.888
 4817SOL    HW115350   4.836   3.164   6.809
 4817SOL    HW215351   4.796   3.264   6.932
 4818SOL     OW15352   4.621   6.478   5.676
 4818SOL    HW115353   4.603   6.577   5.674
 4818SOL    HW215354   4.544   6.432   5.719
 4819SOL     OW15355   3.374   0.414   0.713
 4819SOL    HW115356   3.365   0.459   0.624
 4819SOL    HW215357   3.358   0.316   0.703
 4820SOL     OW15358   0.855   5.211   1.651
 4820SOL    HW115359   0.795   5.266   1.593
 4820SOL    HW215360   0.809   5.124   1.672
 4821SOL     OW15361   6.802   5.791   1.597
 4821SOL    HW115362   6.745   5.836   1.665
 4821SOL    HW215363   6.890   5.766   1.639
 4822SOL     OW15364   0.353   3.602   2.033
 4822SOL    HW115365   0.291   3.524   2.024
 4822SOL    HW215366   0.335   3.667   1.959
 4823SOL     OW15367   6.989   1.899   2.683
 4823SOL    HW115368   6.929   1.975   2.658
 4823SOL    HW215369   6.938   1.831   2.735
 4824SOL     OW15370   4.849   1.725   3.259
 4824SOL    HW115371   4.810   1.812   3.229
 4824SOL    HW215372   4.946   1.737   3.277
 4825SOL     OW15373   2.188   3.951   4.249
 4825SOL    HW115374   2.117   3.884   4.227
 4825SOL    HW215375   2.214   4.000   4.165
 4826SOL     OW15376   0.623   5.736   6.761
 4826SOL    HW115377   0.640   5.787   6.845
 4826SOL    HW215378   0.624   5.799   6.683
 4827SOL     OW15379   5.029   0.860   6.805
 4827SOL    HW115380   5.020   0.762   6.787
 4827SOL    HW215381   5.110   0.895   6.759
 4828SOL     OW15382   6.462   2.519   6.894
 4828SOL    HW115383   6.411   2.536   6.810
 4828SOL    HW215384   6.488   2.422   6.898
 4829SOL     OW15385   2.632   0.939   5.651
 4829SOL    HW115386   2.654   0.926   5.748
 4829SOL    HW215387   2.561   1.009   5.642
 4830SOL     OW15388   5.593   4.756   4.793
 4830SOL    HW115389   5.574   4.667   4.833
 4830SOL    HW215390   5.692   4.766   4.781
 4831SOL     OW15391   6.954   1.792   6.700
 4831SOL    HW115392   6.871   1.844   6.723
 4831SOL    HW215393   0.006   1.816   6.764
 4832SOL     OW15394   1.460   2.752   6.471
 4832SOL    HW115395   1.491   2.671   6.521
 4832SOL    HW215396   1.534   2.819   6.467
 4833SOL     OW15397   6.546   2.659   2.113
 4833SOL    HW115398   6.502   2.741   2.076
 4833SOL    HW215399   6.604   2.618   2.043
 4834SOL     OW15400   5.815   0.293   3.161
 4834SOL    HW115401   5.802   0.240   3.077
 4834SOL    HW215402   5.911   0.292   3.187
 4835SOL     OW15403   2.450   2.283   5.863
 4835SOL    HW115404   2.453   2.284   5.963
 4835SOL    HW215405   2.397   2.361   5.830
 4836SOL     OW15406   6.072   4.446   3.606
 4836SOL    HW115407   6.069   4.387   3.686
 4836SOL    HW215408   6.001   4.419   3.541
 4837SOL     OW15409   0.020   5.182   1.666
 4837SOL    HW115410   6.959   5.198   1.611
 4837SOL    HW215411   0.021   5.245   1.744
 4838SOL     OW15412   2.945   6.524   2.620
 4838SOL    HW115413   2.994   6.445   2.656
 4838SOL    HW215414   2.947   6.522   2.520
 4839SOL     OW15415   0.887   7.008   6.125
 4839SOL    HW115416   0.791   6.983   6.112
 4839SOL    HW215417   0.901   0.019   6.219
 4840SOL     OW15418   6.730   5.182   5.799
 4840SOL    HW115419   6.737   5.125   5.717
 4840SOL    HW215420   6.816   5.179   5.849
 4841SOL     OW15421   1.430   5.142   1.846
 4841SOL    HW115422   1.455   5.226   1.894
 4841SOL    HW215423   1.436   5.065   1.909
 4842SOL     OW15424   3.615   6.755   0.675
 4842SOL    HW115425   3.519   6.728   0.679
 4842SOL    HW215426   3.672   6.675   0.693
 4843SOL     OW15427   1.949   4.163   0.722
 4843SOL    HW115428   1.975   4.176   0.818
 4843SOL    HW215429   2.007   4.092   0.681
 4844SOL     OW15430   0.070   1.352   5.236
 4844SOL    HW115431   0.151   1.313   5.281
 4844SOL    HW215432   0.090   1.445   5.205
 4845SOL     OW15433   5.721   6.687   3.414
 4845SOL    HW115434   5.812   6.671   3.451
 4845SOL    HW215435   5.719   6.777   3.370
 4846SOL     OW15436   0.207   4.204   5.392
 4846SOL    HW115437   0.222   4.296   5.427
 4846SOL    HW215438   0.277   4.143   5.427
 4847SOL     OW15439   5.292   3.233   4.271
 4847SOL    HW115440   5.305   3.205   4.177
 4847SOL    HW215441   5.342   3.319   4.288
 4848SOL     OW15442   3.165   3.849   1.129
 4848SOL    HW115443   3.219   3.781   1.081
 4848SOL    HW215444   3.214   3.936   1.132
 4849SOL     OW15445   2.539   6.426   6.568
 4849SOL    HW115446   2.579   6.334   6.575
 4849SOL    HW215447   2.439   6.418   6.563
 4850SOL     OW15448   3.463   6.646   3.234
 4850SOL    HW115449   3.450   6.584   3.311
 4850SOL    HW215450   3.386   6.638   3.171
 4851SOL     OW15451   4.722   1.679   5.354
 4851SOL    HW115452   4.706   1.613   5.427
 4851SOL    HW215453   4.817   1.673   5.323
 4852SOL     OW15454   1.134   2.121   1.453
 4852SOL    HW115455   1.232   2.103   1.464
 4852SOL    HW215456   1.101   2.174   1.530
 4853SOL     OW15457   3.615   0.908   1.339
 4853SOL    HW115458   3.584   1.002   1.349
 4853SOL    HW215459   3.537   0.849   1.317
 4854SOL     OW15460   4.350   0.269   5.736
 4854SOL    HW115461   4.270   0.272   5.676
 4854SOL    HW215462   4.418   0.335   5.705
 4855SOL     OW15463   0.412   2.722   2.596
 4855SOL    HW115464   0.505   2.711   2.631
 4855SOL    HW215465   0.354   2.648   2.630
 4856SOL     OW15466   0.155   4.746   3.264
 4856SOL    HW115467   0.100   4.810   3.317
 4856SOL    HW215468   0.131   4.652   3.291
 4857SOL     OW15469   6.550   1.309   5.794
 4857SOL    HW115470   6.580   1.292   5.701
 4857SOL    HW215471   6.589   1.239   5.855
 4858SOL     OW15472   1.470   0.315   3.446
 4858SOL    HW115473   1.454   0.396   3.502
 4858SOL    HW215474   1.403   0.313   3.371
 4859SOL     OW15475   3.530   6.257   5.458
 4859SOL    HW115476   3.551   6.163   5.486
 4859SOL    HW215477   3.438   6.281   5.487
 4860SOL     OW15478   3.276   5.238   6.990
 4860SOL    HW115479   3.242   5.149   6.961
 4860SOL    HW215480   3.208   5.308   6.968
 4861SOL     OW15481   4.081   3.987   6.316
 4861SOL    HW115482   4.001   4.027   6.272
 4861SOL    HW215483   4.161   3.997   6.257
 4862SOL     OW15484   1.967   0.409   0.557
 4862SOL    HW115485   1.938   0.438   0.466
 4862SOL    HW215486   1.975   0.309   0.560
 4863SOL     OW15487   5.096   3.778   6.292
 4863SOL    HW115488   5.027   3.837   6.250
 4863SOL    HW215489   5.087   3.686   6.254
 4864SOL     OW15490   3.549   1.242   4.094
 4864SOL    HW115491   3.643   1.246   4.058
 4864SOL    HW215492   3.552   1.230   4.193
 4865SOL     OW15493   1.493   5.852   5.331
 4865SOL    HW115494   1.511   5.945   5.361
 4865SOL    HW215495   1.464   5.796   5.410
 4866SOL     OW15496   6.967   4.236   5.547
 4866SOL    HW115497   0.028   4.217   5.492
 4866SOL    HW215498   6.889   4.252   5.487
 4867SOL     OW15499   3.990   1.274   3.284
 4867SOL    HW115500   4.067   1.337   3.297
 4867SOL    HW215501   3.905   1.319   3.314
 4868SOL     OW15502   0.397   5.747   1.576
 4868SOL    HW115503   0.392   5.695   1.490
 4868SOL    HW215504   0.431   5.839   1.557
 4869SOL     OW15505   0.358   0.649   0.827
 4869SOL    HW115506   0.332   0.696   0.743
 4869SOL    HW215507   0.427   0.580   0.806
 4870SOL     OW15508   1.483   0.423   0.976
 4870SOL    HW115509   1.487   0.348   1.042
 4870SOL    HW215510   1.566   0.423   0.920
 4871SOL     OW15511   0.732   2.202   3.875
 4871SOL    HW115512   0.801   2.252   3.822
 4871SOL    HW215513   0.667   2.158   3.813
 4872SOL     OW15514   5.320   0.446   3.247
 4872SOL    HW115515   5.221   0.458   3.260
 4872SOL    HW215516   5.359   0.530   3.210
 4873SOL     OW15517   6.756   6.317   3.828
 4873SOL    HW115518   6.691   6.376   3.877
 4873SOL    HW215519   6.834   6.372   3.798
 4874SOL     OW15520   6.108   4.442   2.462
 4874SOL    HW115521   6.205   4.465   2.474
 4874SOL    HW215522   6.099   4.366   2.398
 4875SOL     OW15523   6.525   6.711   4.459
 4875SOL    HW115524   6.618   6.746   4.458
 4875SOL    HW215525   6.461   6.787   4.468
 4876SOL     OW15526   6.311   1.690   2.416
 4876SOL    HW115527   6.214   1.705   2.395
 4876SOL    HW215528   6.355   1.777   2.438
 4877SOL     OW15529   0.424   1.594   0.498
 4877SOL    HW115530   0.392   1.688   0.482
 4877SOL    HW215531   0.497   1.572   0.433
 4878SOL     OW15532   5.970   4.462   4.277
 4878SOL    HW115533   5.963   4.456   4.177
 4878SOL    HW215534   5.896   4.519   4.312
 4879SOL     OW15535   5.885   0.825   2.986
 4879SOL    HW115536   5.850   0.842   2.894
 4879SOL    HW215537   5.850   0.895   3.048
 4880SOL     OW15538   0.126   3.433   6.422
 4880SOL    HW115539   0.129   3.336   6.399
 4880SOL    HW215540   0.061   3.448   6.497
 4881SOL     OW15541   6.776   3.758   1.797
 4881SOL    HW115542   6.847   3.744   1.729
 4881SOL    HW215543   6.810   3.732   1.887
 4882SOL     OW15544   5.298   2.425   4.008
 4882SOL    HW115545   5.257   2.334   4.020
 4882SOL    HW215546   5.231   2.495   4.034
 4883SOL     OW15547   6.993   3.933   6.499
 4883SOL    HW115548   7.011   3.839   6.469
 4883SOL    HW215549   0.055   3.972   6.539
 4884SOL     OW15550   1.739   2.372   1.649
 4884SOL    HW115551   1.682   2.330   1.579
 4884SOL    HW215552   1.836   2.358   1.627
 4885SOL     OW15553   1.186   6.157   6.562
 4885SOL    HW115554   1.161   6.128   6.654
 4885SOL    HW215555   1.105   6.157   6.503
 4886SOL     OW15556   3.403   1.070   2.232
 4886SOL    HW115557   3.435   0.995   2.174
 4886SOL    HW215558   3.358   1.033   2.313
 4887SOL     OW15559   5.227   5.071   0.428
 4887SOL    HW115560   5.317   5.110   0.410
 4887SOL    HW215561   5.230   4.973   0.411
 4888SOL     OW15562   4.300   6.659   2.788
 4888SOL    HW115563   4.209   6.621   2.803
 4888SOL    HW215564   4.293   6.756   2.769
 4889SOL     OW15565   5.167   3.354   3.690
 4889SOL    HW115566   5.146   3.423   3.760
 4889SOL    HW215567   5.262   3.326   3.699
 4890SOL     OW15568   6.438   2.089   4.560
 4890SOL    HW115569   6.487   2.007   4.530
 4890SOL    HW215570   6.440   2.157   4.487
 4891SOL     OW15571   2.963   5.526   0.303
 4891SOL    HW115572   3.008   5.574   0.379
 4891SOL    HW215573   2.865   5.522   0.319
 4892SOL     OW15574   5.118   4.776   1.975
 4892SOL    HW115575   5.163   4.863   1.954
 4892SOL    HW215576   5.049   4.757   1.905
 4893SOL     OW15577   2.734   3.131   0.877
 4893SOL    HW115578   2.777   3.074   0.807
 4893SOL    HW215579   2.731   3.082   0.964
 4894SOL     OW15580   5.204   6.344   6.966
 4894SOL    HW115581   5.232   6.332   6.870
 4894SOL    HW215582   5.172   6.256   7.002
 4895SOL     OW15583   6.419   3.603   5.492
 4895SOL    HW115584   6.511   3.621   5.525
 4895SOL    HW215585   6.373   3.539   5.553
 4896SOL     OW15586   2.798   5.235   5.092
 4896SOL    HW115587   2.724   5.232   5.025
 4896SOL    HW215588   2.870   5.296   5.058
 4897SOL     OW15589   3.017   1.778   5.843
 4897SOL    HW115590   3.095   1.790   5.782
 4897SOL    HW215591   3.038   1.707   5.910
 4898SOL     OW15592   4.808   2.562   3.341
 4898SOL    HW115593   4.839   2.657   3.337
 4898SOL    HW215594   4.857   2.507   3.273
 4899SOL     OW15595   6.482   5.889   1.427
 4899SOL    HW115596   6.566   5.891   1.374
 4899SOL    HW215597   6.408   5.850   1.371
 4900SOL     OW15598   3.139   5.412   6.046
 4900SOL    HW115599   3.220   5.376   6.091
 4900SOL    HW215600   3.161   5.435   5.951
 4901SOL     OW15601   2.624   0.561   0.002
 4901SOL    HW115602   2.654   0.655   0.021
 4901SOL    HW215603   2.533   0.563   6.982
 4902SOL     OW15604   2.372   0.112   5.537
 4902SOL    HW115605   2.400   0.133   5.630
 4902SOL    HW215606   2.274   0.092   5.536
 4903SOL     OW15607   4.916   3.603   2.510
 4903SOL    HW115608   4.883   3.613   2.416
 4903SOL    HW215609   4.904   3.508   2.540
 4904SOL     OW15610   2.397   0.769   2.064
 4904SOL    HW115611   2.423   0.680   2.027
 4904SOL    HW215612   2.352   0.823   1.992
 4905SOL     OW15613   2.478   1.554   1.566
 4905SOL    HW115614   2.547   1.485   1.544
 4905SOL    HW215615   2.421   1.571   1.486
 4906SOL     OW15616   5.469   3.278   4.923
 4906SOL    HW115617   5.520   3.269   4.837
 4906SOL    HW215618   5.457   3.188   4.964
 4907SOL     OW15619   4.445   2.144   0.402
 4907SOL    HW115620   4.392   2.075   0.352
 4907SOL    HW215621   4.387   2.185   0.472
 4908SOL     OW15622   2.503   6.494   6.883
 4908SOL    HW115623   2.437   6.420   6.895
 4908SOL    HW215624   2.498   6.528   6.789
 4909SOL     OW15625   4.990   6.161   5.021
 4909SOL    HW115626   5.002   6.086   5.086
 4909SOL    HW215627   4.986   6.125   4.928
 4910SOL     OW15628   4.823   1.918   6.552
 4910SOL    HW115629   4.779   1.908   6.462
 4910SOL    HW215630   4.813   2.013   6.583
 4911SOL     OW15631   6.561   4.498   3.959
 4911SOL    HW115632   6.497   4.516   4.034
 4911SOL    HW215633   6.591   4.403   3.963
 4912SOL     OW15634   5.895   3.022   4.599
 4912SOL    HW115635   5.800   3.004   4.572
 4912SOL    HW215636   5.909   3.121   4.610
 4913SOL     OW15637   1.289   3.883   6.052
 4913SOL    HW115638   1.270   3.843   6.142
 4913SOL    HW215639   1.237   3.834   5.982
 4914SOL     OW15640   2.718   6.675   3.947
 4914SOL    HW115641   2.646   6.745   3.949
 4914SOL    HW215642   2.727   6.635   4.038
 4915SOL     OW15643   4.699   0.010   5.205
 4915SOL    HW115644   4.753   0.034   5.124
 4915SOL    HW215645   4.757   0.015   5.286
 4916SOL     OW15646   5.978   2.976   3.785
 4916SOL    HW115647   5.926   2.989   3.869
 4916SOL    HW215648   5.917   2.945   3.712
 4917SOL     OW15649   4.890   6.226   6.716
 4917SOL    HW115650   4.946   6.199   6.637
 4917SOL    HW215651   4.844   6.146   6.754
 4918SOL     OW15652   4.669   6.036   4.466
 4918SOL    HW115653   4.647   5.939   4.461
 4918SOL    HW215654   4.605   6.088   4.408
 4919SOL     OW15655   4.640   3.971   1.649
 4919SOL    HW115656   4.724   3.982   1.701
 4919SOL    HW215657   4.605   4.061   1.623
 4920SOL     OW15658   6.217   0.946   5.309
 4920SOL    HW115659   6.193   1.043   5.301
 4920SOL    HW215660   6.134   0.891   5.298
 4921SOL     OW15661   6.328   0.475   2.387
 4921SOL    HW115662   6.401   0.423   2.432
 4921SOL    HW215663   6.335   0.571   2.413
 4922SOL     OW15664   3.913   0.209   6.272
 4922SOL    HW115665   3.982   0.245   6.334
 4922SOL    HW215666   3.908   0.109   6.282
 4923SOL     OW15667   3.627   1.213   2.155
 4923SOL    HW115668   3.551   1.175   2.207
 4923SOL    HW215669   3.614   1.311   2.142
 4924SOL     OW15670   3.224   1.525   5.274
 4924SOL    HW115671   3.177   1.444   5.239
 4924SOL    HW215672   3.267   1.574   5.198
 4925SOL     OW15673   5.430   0.142   3.632
 4925SOL    HW115674   5.414   0.237   3.659
 4925SOL    HW215675   5.343   0.093   3.627
 4926SOL     OW15676   4.455   2.435   2.250
 4926SOL    HW115677   4.368   2.388   2.260
 4926SOL    HW215678   4.468   2.462   2.155
 4927SOL     OW15679   2.332   1.824   0.423
 4927SOL    HW115680   2.232   1.834   0.422
 4927SOL    HW215681   2.360   1.787   0.512
 4928SOL     OW15682   1.045   1.988   1.247
 4928SOL    HW115683   1.083   2.046   1.318
 4928SOL    HW215684   0.975   1.928   1.287
 4929SOL     OW15685   6.909   0.440   5.155
 4929SOL    HW115686   6.853   0.468   5.076
 4929SOL    HW215687   6.925   0.342   5.151
 4930SOL     OW15688   4.969   5.867   2.619
 4930SOL    HW115689   4.942   5.790   2.561
 4930SOL    HW215690   5.067   5.861   2.638
 4931SOL     OW15691   4.488   0.580   1.558
 4931SOL    HW115692   4.457   0.529   1.479
 4931SOL    HW215693   4.471   0.527   1.641
 4932SOL     OW15694   3.099   3.969   3.367
 4932SOL    HW115695   3.094   4.025   3.450
 4932SOL    HW215696   3.145   4.021   3.295
 4933SOL     OW15697   1.720   0.704   5.098
 4933SOL    HW115698   1.676   0.751   5.021
 4933SOL    HW215699   1.663   0.711   5.179
 4934SOL     OW15700   2.163   0.277   3.030
 4934SOL    HW115701   2.130   0.371   3.023
 4934SOL    HW215702   2.237   0.263   2.964
 4935SOL     OW15703   6.333   6.926   4.735
 4935SOL    HW115704   6.386   6.949   4.653
 4935SOL    HW215705   6.288   7.008   4.769
 4936SOL     OW15706   5.029   2.767   0.647
 4936SOL    HW115707   5.117   2.808   0.670
 4936SOL    HW215708   5.039   2.708   0.567
 4937SOL     OW15709   3.748   2.679   5.277
 4937SOL    HW115710   3.836   2.711   5.313
 4937SOL    HW215711   3.720   2.597   5.328
 4938SOL     OW15712   2.676   4.652   6.830
 4938SOL    HW115713   2.727   4.574   6.867
 4938SOL    HW215714   2.588   4.620   6.795
 4939SOL     OW15715   5.126   3.140   6.468
 4939SOL    HW115716   5.175   3.116   6.551
 4939SOL    HW215717   5.188   3.184   6.403
 4940SOL     OW15718   1.253   5.906   3.317
 4940SOL    HW115719   1.191   5.900   3.395
 4940SOL    HW215720   1.342   5.867   3.342
 4941SOL     OW15721   6.281   0.193   0.521
 4941SOL    HW115722   6.295   0.233   0.612
 4941SOL    HW215723   6.369   0.180   0.476
 4942SOL     OW15724   5.358   2.731   5.825
 4942SOL    HW115725   5.312   2.760   5.909
 4942SOL    HW215726   5.302   2.662   5.779
 4943SOL     OW15727   6.412   3.142   1.464
 4943SOL    HW115728   6.416   3.237   1.433
 4943SOL    HW215729   6.341   3.093   1.414
 4944SOL     OW15730   1.639   3.187   1.991
 4944SOL    HW115731   1.705   3.174   2.065
 4944SOL    HW215732   1.546   3.174   2.027
 4945SOL     OW15733   6.709   5.620   3.890
 4945SOL    HW115734   6.788   5.564   3.866
 4945SOL    HW215735   6.680   5.599   3.983
 4946SOL     OW15736   6.586   4.497   2.791
 4946SOL    HW115737   6.566   4.577   2.735
 4946SOL    HW215738   6.508   4.434   2.788
 4947SOL     OW15739   5.805   0.402   0.512
 4947SOL    HW115740   5.834   0.497   0.502
 4947SOL    HW215741   5.832   0.350   0.431
 4948SOL     OW15742   2.731   1.277   2.075
 4948SOL    HW115743   2.723   1.343   2.150
 4948SOL    HW215744   2.825   1.276   2.041
 4949SOL     OW15745   5.375   2.427   5.972
 4949SOL    HW115746   5.457   2.378   5.942
 4949SOL    HW215747   5.296   2.397   5.917
 4950SOL     OW15748   3.538   5.245   4.074
 4950SOL    HW115749   3.534   5.302   3.992
 4950SOL    HW215750   3.614   5.274   4.131
 4951SOL     OW15751   4.703   2.628   3.785
 4951SOL    HW115752   4.636   2.647   3.857
 4951SOL    HW215753   4.795   2.623   3.825
 4952SOL     OW15754   6.637   5.310   4.309
 4952SOL    HW115755   6.541   5.286   4.302
 4952SOL    HW215756   6.660   5.327   4.405
 4953SOL     OW15757   1.051   4.953   1.888
 4953SOL    HW115758   1.023   5.045   1.916
 4953SOL    HW215759   1.123   4.960   1.819
 4954SOL     OW15760   0.360   6.726   5.915
 4954SOL    HW115761   0.427   6.795   5.942
 4954SOL    HW215762   0.286   6.769   5.864
 4955SOL     OW15763   1.569   0.173   1.865
 4955SOL    HW115764   1.529   0.255   1.907
 4955SOL    HW215765   1.589   0.192   1.769
 4956SOL     OW15766   5.850   5.899   3.295
 4956SOL    HW115767   5.919   5.936   3.233
 4956SOL    HW215768   5.887   5.818   3.341
 4957SOL     OW15769   1.599   5.306   4.643
 4957SOL    HW115770   1.539   5.231   4.670
 4957SOL    HW215771   1.556   5.393   4.668
 4958SOL     OW15772   6.998   6.444   0.077
 4958SOL    HW115773   0.013   6.417   0.166
 4958SOL    HW215774   6.967   6.539   0.080
 4959SOL     OW15775   1.309   1.634   6.999
 4959SOL    HW115776   1.280   1.726   6.973
 4959SOL    HW215777   1.405   1.621   6.976
 4960SOL     OW15778   4.148   6.502   5.352
 4960SOL    HW115779   4.112   6.530   5.263
 4960SOL    HW215780   4.169   6.404   5.350
 4961SOL     OW15781   5.348   0.127   5.251
 4961SOL    HW115782   5.394   0.216   5.248
 4961SOL    HW215783   5.370   0.075   5.169
 4962SOL     OW15784   6.147   2.169   2.362
 4962SOL    HW115785   6.075   2.177   2.432
 4962SOL    HW215786   6.195   2.082   2.374
 4963SOL     OW15787   0.694   4.537   1.397
 4963SOL    HW115788   0.637   4.612   1.429
 4963SOL    HW215789   0.677   4.523   1.299
 4964SOL     OW15790   3.762   1.358   3.390
 4964SOL    HW115791   3.799   1.445   3.424
 4964SOL    HW215792   3.692   1.325   3.453
 4965SOL     OW15793   0.396   5.512   4.822
 4965SOL    HW115794   0.425   5.539   4.914
 4965SOL    HW215795   0.329   5.437   4.829
 4966SOL     OW15796   5.161   6.033   5.447
 4966SOL    HW115797   5.188   5.966   5.516
 4966SOL    HW215798   5.061   6.036   5.442
 4967SOL     OW15799   5.461   0.886   0.260
 4967SOL    HW115800   5.456   0.984   0.281
 4967SOL    HW215801   5.369   0.852   0.239
 4968SOL     OW15802   5.463   3.302   6.623
 4968SOL    HW115803   5.365   3.314   6.640
 4968SOL    HW215804   5.508   3.274   6.708
 4969SOL     OW15805   0.794   0.886   1.290
 4969SOL    HW115806   0.811   0.965   1.348
 4969SOL    HW215807   0.742   0.817   1.341
 4970SOL     OW15808   2.226   1.904   6.173
 4970SOL    HW115809   2.292   1.916   6.099
 4970SOL    HW215810   2.172   1.988   6.183
 4971SOL     OW15811   5.979   5.458   3.932
 4971SOL    HW115812   5.895   5.458   3.877
 4971SOL    HW215813   6.058   5.470   3.872
 4972SOL     OW15814   1.776   2.211   4.493
 4972SOL    HW115815   1.800   2.261   4.410
 4972SOL    HW215816   1.746   2.275   4.563
 4973SOL     OW15817   4.651   5.767   3.352
 4973SOL    HW115818   4.659   5.839   3.283
 4973SOL    HW215819   4.555   5.742   3.362
 4974SOL     OW15820   3.447   6.746   6.250
 4974SOL    HW115821   3.419   6.819   6.312
 4974SOL    HW215822   3.365   6.703   6.210
 4975SOL     OW15823   4.084   6.110   6.916
 4975SOL    HW115824   4.069   6.112   7.015
 4975SOL    HW215825   4.009   6.060   6.872
 4976SOL     OW15826   2.444   1.202   4.762
 4976SOL    HW115827   2.364   1.263   4.760
 4976SOL    HW215828   2.413   1.108   4.779
 4977SOL     OW15829   3.424   3.378   2.353
 4977SOL    HW115830   3.423   3.280   2.334
 4977SOL    HW215831   3.514   3.405   2.388
 4978SOL     OW15832   5.966   3.614   6.377
 4978SOL    HW115833   6.030   3.683   6.344
 4978SOL    HW215834   5.912   3.579   6.300
 4979SOL     OW15835   1.254   1.976   3.461
 4979SOL    HW115836   1.181   1.908   3.471
 4979SOL    HW215837   1.239   2.029   3.378
 4980SOL     OW15838   2.169   4.876   2.213
 4980SOL    HW115839   2.132   4.839   2.299
 4980SOL    HW215840   2.124   4.963   2.193
 4981SOL     OW15841   5.291   5.847   5.622
 4981SOL    HW115842   5.218   5.837   5.690
 4981SOL    HW215843   5.379   5.826   5.665
 4982SOL     OW15844   2.865   1.500   6.337
 4982SOL    HW115845   2.956   1.477   6.371
 4982SOL    HW215846   2.835   1.431   6.271
 4983SOL     OW15847   6.776   1.477   3.924
 4983SOL    HW115848   6.813   1.569   3.916
 4983SOL    HW215849   6.680   1.482   3.952
 4984SOL     OW15850   4.798   5.666   3.920
 4984SOL    HW115851   4.796   5.631   4.013
 4984SOL    HW215852   4.815   5.592   3.856
 4985SOL     OW15853   5.622   3.760   1.201
 4985SOL    HW115854   5.650   3.683   1.144
 4985SOL    HW215855   5.603   3.728   1.294
 4986SOL     OW15856   3.435   5.514   3.542
 4986SOL    HW115857   3.440   5.418   3.515
 4986SOL    HW215858   3.340   5.540   3.556
 4987SOL     OW15859   1.384   2.406   0.085
 4987SOL    HW115860   1.327   2.325   0.072
 4987SOL    HW215861   1.387   2.430   0.183
 4988SOL     OW15862   2.282   1.867   4.874
 4988SOL    HW115863   2.333   1.787   4.903
 4988SOL    HW215864   2.307   1.890   4.780
 4989SOL     OW15865   6.988   1.009   1.236
 4989SOL    HW115866   0.007   0.927   1.195
 4989SOL    HW215867   6.970   0.992   1.333
 4990SOL     OW15868   1.642   2.085   6.771
 4990SOL    HW115869   1.587   2.111   6.692
 4990SOL    HW215870   1.732   2.129   6.764
 4991SOL     OW15871   2.650   1.761   5.770
 4991SOL    HW115872   2.747   1.775   5.790
 4991SOL    HW215873   2.628   1.799   5.680
 4992SOL     OW15874   3.997   0.037   4.684
 4992SOL    HW115875   3.931   0.086   4.628
 4992SOL    HW215876   4.003   0.080   4.774
 4993SOL     OW15877   1.067   6.373   4.237
 4993SOL    HW115878   1.003   6.413   4.303
 4993SOL    HW215879   1.101   6.286   4.271
 4994SOL     OW15880   6.873   6.283   2.875
 4994SOL    HW115881   6.949   6.336   2.912
 4994SOL    HW215882   6.871   6.292   2.775
 4995SOL     OW15883   5.410   2.599   5.200
 4995SOL    HW115884   5.452   2.543   5.271
 4995SOL    HW215885   5.416   2.696   5.227
 4996SOL     OW15886   0.579   2.363   4.065
 4996SOL    HW115887   0.610   2.329   4.153
 4996SOL    HW215888   0.625   2.315   3.991
 4997SOL     OW15889   6.994   2.517   3.479
 4997SOL    HW115890   0.019   2.453   3.540
 4997SOL    HW215891   6.905   2.480   3.452
 4998SOL     OW15892   1.263   5.908   5.668
 4998SOL    HW115893   1.318   5.842   5.617
 4998SOL    HW215894   1.178   5.926   5.619
 4999SOL     OW15895   6.358   5.124   1.185
 4999SOL    HW115896   6.441   5.149   1.235
 4999SOL    HW215897   6.280   5.120   1.248
 5000SOL     OW15898   5.821   5.421   3.553
 5000SOL    HW115899   5.726   5.448   3.540
 5000SOL    HW215900   5.850   5.363   3.477
 5001SOL     OW15901   4.876   3.485   5.544
 5001SOL    HW115902   4.946   3.442   5.486
 5001SOL    HW215903   4.787   3.444   5.525
 5002SOL     OW15904   1.349   2.506   1.638
 5002SOL    HW115905   1.427   2.542   1.690
 5002SOL    HW215906   1.380   2.428   1.582
 5003SOL     OW15907   5.630   5.620   4.598
 5003SOL    HW115908   5.691   5.665   4.663
 5003SOL    HW215909   5.537   5.652   4.612
 5004SOL     OW15910   2.348   4.892   6.133
 5004SOL    HW115911   2.311   4.981   6.107
 5004SOL    HW215912   2.374   4.893   6.230
 5005SOL     OW15913   5.267   1.806   0.049
 5005SOL    HW115914   5.323   1.888   0.059
 5005SOL    HW215915   5.285   1.744   0.125
 5006SOL     OW15916   4.549   5.249   1.746
 5006SOL    HW115917   4.549   5.346   1.721
 5006SOL    HW215918   4.595   5.197   1.674
 5007SOL     OW15919   3.525   0.726   4.530
 5007SOL    HW115920   3.622   0.720   4.552
 5007SOL    HW215921   3.513   0.721   4.431
 5008SOL     OW15922   6.123   2.075   4.285
 5008SOL    HW115923   6.152   2.148   4.347
 5008SOL    HW215924   6.144   2.101   4.190
 5009SOL     OW15925   2.996   7.011   2.391
 5009SOL    HW115926   3.048   0.063   2.434
 5009SOL    HW215927   2.983   0.011   2.294
 5010SOL     OW15928   3.410   3.936   5.797
 5010SOL    HW115929   3.333   3.987   5.759
 5010SOL    HW215930   3.390   3.838   5.795
 5011SOL     OW15931   0.849   1.806   4.698
 5011SOL    HW115932   0.807   1.884   4.652
 5011SOL    HW215933   0.843   1.725   4.640
 5012SOL     OW15934   6.552   2.338   0.189
 5012SOL    HW115935   6.535   2.268   0.119
 5012SOL    HW215936   6.523   2.427   0.155
 5013SOL     OW15937   4.597   1.594   5.131
 5013SOL    HW115938   4.640   1.610   5.219
 5013SOL    HW215939   4.501   1.623   5.135
 5014SOL     OW15940   1.209   4.792   6.270
 5014SOL    HW115941   1.264   4.802   6.353
 5014SOL    HW215942   1.123   4.746   6.292
 5015SOL     OW15943   4.895   2.334   3.844
 5015SOL    HW115944   4.819   2.273   3.824
 5015SOL    HW215945   4.882   2.375   3.935
 5016SOL     OW15946   2.130   5.886   1.455
 5016SOL    HW115947   2.044   5.865   1.501
 5016SOL    HW215948   2.201   5.902   1.523
 5017SOL     OW15949   0.490   2.128   1.527
 5017SOL    HW115950   0.507   2.168   1.617
 5017SOL    HW215951   0.422   2.055   1.535
 5018SOL     OW15952   6.371   5.321   4.299
 5018SOL    HW115953   6.379   5.414   4.265
 5018SOL    HW215954   6.338   5.261   4.226
 5019SOL     OW15955   2.790   5.719   4.762
 5019SOL    HW115956   2.873   5.714   4.818
 5019SOL    HW215957   2.720   5.660   4.801
 5020SOL     OW15958   4.552   5.063   6.881
 5020SOL    HW115959   4.453   5.058   6.879
 5020SOL    HW215960   4.587   5.077   6.788
 5021SOL     OW15961   2.387   4.731   5.373
 5021SOL    HW115962   2.408   4.633   5.381
 5021SOL    HW215963   2.319   4.745   5.301
 5022SOL     OW15964   1.955   2.838   6.274
 5022SOL    HW115965   1.937   2.831   6.176
 5022SOL    HW215966   2.045   2.880   6.288
 5023SOL     OW15967   6.282   3.148   3.967
 5023SOL    HW115968   6.260   3.144   3.869
 5023SOL    HW215969   6.376   3.117   3.981
 5024SOL     OW15970   5.085   3.806   5.345
 5024SOL    HW115971   5.042   3.754   5.271
 5024SOL    HW215972   5.032   3.795   5.429
 5025SOL     OW15973   5.636   6.978   5.242
 5025SOL    HW115974   5.602   6.960   5.149
 5025SOL    HW215975   5.616   0.052   5.266
 5026SOL     OW15976   1.225   5.610   2.512
 5026SOL    HW115977   1.136   5.652   2.490
 5026SOL    HW215978   1.237   5.528   2.457
 5027SOL     OW15979   0.899   5.471   3.174
 5027SOL    HW115980   0.817   5.508   3.131
 5027SOL    HW215981   0.965   5.544   3.190
 5028SOL     OW15982   0.882   6.878   2.558
 5028SOL    HW115983   0.798   6.840   2.520
 5028SOL    HW215984   0.860   6.955   2.618
 5029SOL     OW15985   5.866   0.399   4.432
 5029SOL    HW115986   5.772   0.426   4.411
 5029SOL    HW215987   5.890   0.430   4.524
 5030SOL     OW15988   1.472   5.725   0.600
 5030SOL    HW115989   1.555   5.764   0.641
 5030SOL    HW215990   1.464   5.629   0.627
 5031SOL     OW15991   5.285   0.720   0.048
 5031SOL    HW115992   5.335   0.642   0.010
 5031SOL    HW215993   5.217   0.751   7.003
 5032SOL     OW15994   1.826   5.745   2.824
 5032SOL    HW115995   1.919   5.732   2.857
 5032SOL    HW215996   1.783   5.821   2.873
 5033SOL     OW15997   1.058   4.413   4.897
 5033SOL    HW115998   0.997   4.350   4.848
 5033SOL    HW215999   1.099   4.365   4.975
 5034SOL     OW16000   1.058   2.703   6.068
 5034SOL    HW116001   1.154   2.731   6.077
 5034SOL    HW216002   1.004   2.745   6.141
 5035SOL     OW16003   6.865   4.901   0.759
 5035SOL    HW116004   6.863   4.977   0.824
 5035SOL    HW216005   6.771   4.873   0.738
 5036SOL     OW16006   1.262   1.438   2.615
 5036SOL    HW116007   1.253   1.514   2.550
 5036SOL    HW216008   1.176   1.425   2.663
 5037SOL     OW16009   5.351   3.780   1.085
 5037SOL    HW116010   5.428   3.775   1.148
 5037SOL    HW216011   5.270   3.813   1.134
 5038SOL     OW16012   3.032   5.561   5.631
 5038SOL    HW116013   3.111   5.521   5.678
 5038SOL    HW216014   3.060   5.591   5.539
 5039SOL     OW16015   0.664   2.618   3.791
 5039SOL    HW116016   0.698   2.708   3.817
 5039SOL    HW216017   0.622   2.574   3.870
 5040SOL     OW16018   2.475   3.154   6.748
 5040SOL    HW116019   2.486   3.127   6.844
 5040SOL    HW216020   2.437   3.247   6.744
 5041SOL     OW16021   0.802   5.559   0.080
 5041SOL    HW116022   0.862   5.501   0.135
 5041SOL    HW216023   0.732   5.599   0.139
 5042SOL     OW16024   5.424   0.988   6.119
 5042SOL    HW116025   5.508   0.937   6.135
 5042SOL    HW216026   5.365   0.982   6.200
 5043SOL     OW16027   5.266   6.276   4.325
 5043SOL    HW116028   5.302   6.224   4.403
 5043SOL    HW216029   5.286   6.228   4.240
 5044SOL     OW16030   6.938   4.326   2.247
 5044SOL    HW116031   6.975   4.348   2.157
 5044SOL    HW216032   6.955   4.230   2.268
 5045SOL     OW16033   5.001   2.832   5.438
 5045SOL    HW116034   5.055   2.758   5.478
 5045SOL    HW216035   4.989   2.815   5.340
 5046SOL     OW16036   3.876   2.996   5.725
 5046SOL    HW116037   3.958   2.956   5.684
 5046SOL    HW216038   3.874   2.973   5.823
 5047SOL     OW16039   0.518   1.696   1.880
 5047SOL    HW116040   0.475   1.675   1.793
 5047SOL    HW216041   0.463   1.658   1.955
 5048SOL     OW16042   5.556   4.260   0.182
 5048SOL    HW116043   5.523   4.184   0.126
 5048SOL    HW216044   5.556   4.344   0.127
 5049SOL     OW16045   1.404   0.827   0.200
 5049SOL    HW116046   1.355   0.886   0.136
 5049SOL    HW216047   1.378   0.732   0.185
 5050SOL     OW16048   1.606   4.060   0.967
 5050SOL    HW116049   1.566   3.969   0.958
 5050SOL    HW216050   1.706   4.053   0.969
 5051SOL     OW16051   2.360   4.028   6.121
 5051SOL    HW116052   2.435   4.017   6.186
 5051SOL    HW216053   2.355   3.949   6.061
 5052SOL     OW16054   6.768   2.878   1.098
 5052SOL    HW116055   6.672   2.868   1.071
 5052SOL    HW216056   6.781   2.967   1.140
 5053SOL     OW16057   0.943   3.888   1.604
 5053SOL    HW116058   0.951   3.974   1.655
 5053SOL    HW216059   1.024   3.875   1.546
 5054SOL     OW16060   4.231   5.818   5.257
 5054SOL    HW116061   4.246   5.864   5.170
 5054SOL    HW216062   4.155   5.863   5.305
 5055SOL     OW16063   0.721   0.176   4.002
 5055SOL    HW116064   0.765   0.265   4.014
 5055SOL    HW216065   0.658   0.181   3.925
 5056SOL     OW16066   3.034   1.119   6.522
 5056SOL    HW116067   3.127   1.126   6.487
 5056SOL    HW216068   2.978   1.193   6.483
 5057SOL     OW16069   0.336   3.497   2.681
 5057SOL    HW116070   0.329   3.418   2.621
 5057SOL    HW216071   0.428   3.501   2.721
 5058SOL     OW16072   3.719   2.124   0.056
 5058SOL    HW116073   3.703   2.185   6.999
 5058SOL    HW216074   3.808   2.146   0.097
 5059SOL     OW16075   5.457   2.710   2.513
 5059SOL    HW116076   5.395   2.700   2.591
 5059SOL    HW216077   5.534   2.768   2.539
 5060SOL     OW16078   7.016   2.996   5.924
 5060SOL    HW116079   7.002   3.078   5.978
 5060SOL    HW216080   6.953   2.924   5.954
 5061SOL     OW16081   4.406   2.748   6.252
 5061SOL    HW116082   4.477   2.815   6.273
 5061SOL    HW216083   4.382   2.755   6.155
 5062SOL     OW16084   5.804   0.962   3.210
 5062SOL    HW116085   5.853   0.956   3.297
 5062SOL    HW216086   5.706   0.962   3.227
 5063SOL     OW16087   0.351   0.653   0.370
 5063SOL    HW116088   0.304   0.683   0.453
 5063SOL    HW216089   0.420   0.585   0.394
 5064SOL     OW16090   6.621   5.249   0.277
 5064SOL    HW116091   6.659   5.174   0.332
 5064SOL    HW216092   6.523   5.235   0.266
 5065SOL     OW16093   0.978   1.862   2.570
 5065SOL    HW116094   0.938   1.891   2.483
 5065SOL    HW216095   0.936   1.914   2.644
 5066SOL     OW16096   0.987   5.212   3.743
 5066SOL    HW116097   0.952   5.183   3.832
 5066SOL    HW216098   1.087   5.209   3.744
 5067SOL     OW16099   4.544   2.822   0.592
 5067SOL    HW116100   4.466   2.760   0.596
 5067SOL    HW216101   4.513   2.916   0.607
 5068SOL     OW16102   1.228   6.708   1.109
 5068SOL    HW116103   1.185   6.798   1.110
 5068SOL    HW216104   1.278   6.693   1.194
 5069SOL     OW16105   4.033   4.610   6.031
 5069SOL    HW116106   3.952   4.585   5.979
 5069SOL    HW216107   4.011   4.610   6.129
 5070SOL     OW16108   0.850   3.510   6.536
 5070SOL    HW116109   0.864   3.584   6.602
 5070SOL    HW216110   0.821   3.549   6.448
 5071SOL     OW16111   1.854   6.523   2.293
 5071SOL    HW116112   1.893   6.607   2.330
 5071SOL    HW216113   1.815   6.541   2.202
 5072SOL     OW16114   0.660   2.229   2.593
 5072SOL    HW116115   0.565   2.238   2.624
 5072SOL    HW216116   0.683   2.304   2.532
 5073SOL     OW16117   1.689   1.481   4.388
 5073SOL    HW116118   1.627   1.555   4.361
 5073SOL    HW216119   1.781   1.517   4.396
 5074SOL     OW16120   4.077   2.261   1.489
 5074SOL    HW116121   4.034   2.225   1.571
 5074SOL    HW216122   4.167   2.299   1.512
 5075SOL     OW16123   6.313   1.972   6.731
 5075SOL    HW116124   6.379   1.961   6.806
 5075SOL    HW216125   6.223   1.941   6.761
 5076SOL     OW16126   6.967   1.480   5.858
 5076SOL    HW116127   6.890   1.532   5.821
 5076SOL    HW216128   6.952   1.461   5.955
 5077SOL     OW16129   1.023   5.039   4.221
 5077SOL    HW116130   1.104   5.097   4.218
 5077SOL    HW216131   0.994   5.026   4.316
 5078SOL     OW16132   5.850   1.401   2.977
 5078SOL    HW116133   5.875   1.332   3.045
 5078SOL    HW216134   5.828   1.356   2.891
 5079SOL     OW16135   1.428   3.544   5.659
 5079SOL    HW116136   1.462   3.537   5.753
 5079SOL    HW216137   1.484   3.486   5.599
 5080SOL     OW16138   6.664   6.077   6.839
 5080SOL    HW116139   6.722   6.024   6.777
 5080SOL    HW216140   6.721   6.138   6.894
 5081SOL     OW16141   3.503   4.255   5.625
 5081SOL    HW116142   3.523   4.157   5.623
 5081SOL    HW216143   3.422   4.275   5.570
 5082SOL     OW16144   5.439   6.917   2.976
 5082SOL    HW116145   5.431   6.872   3.065
 5082SOL    HW216146   5.508   6.989   2.981
 5083SOL     OW16147   0.224   0.462   3.223
 5083SOL    HW116148   0.215   0.441   3.320
 5083SOL    HW216149   0.309   0.512   3.207
 5084SOL     OW16150   3.541   5.162   5.801
 5084SOL    HW116151   3.613   5.093   5.801
 5084SOL    HW216152   3.502   5.170   5.893
 5085SOL     OW16153   0.967   3.273   6.483
 5085SOL    HW116154   0.924   3.357   6.514
 5085SOL    HW216155   0.931   3.248   6.393
 5086SOL     OW16156   1.144   4.575   2.048
 5086SOL    HW116157   1.191   4.658   2.076
 5086SOL    HW216158   1.093   4.537   2.126
 5087SOL     OW16159   6.206   5.339   1.639
 5087SOL    HW116160   6.177   5.411   1.576
 5087SOL    HW216161   6.186   5.250   1.599
 5088SOL     OW16162   4.039   4.783   2.307
 5088SOL    HW116163   4.119   4.811   2.361
 5088SOL    HW216164   3.991   4.709   2.355
 5089SOL     OW16165   4.457   5.563   5.877
 5089SOL    HW116166   4.461   5.567   5.777
 5089SOL    HW216167   4.511   5.486   5.910
 5090SOL     OW16168   2.364   6.619   4.594
 5090SOL    HW116169   2.354   6.667   4.681
 5090SOL    HW216170   2.276   6.581   4.566
 5091SOL     OW16171   6.400   5.880   4.949
 5091SOL    HW116172   6.466   5.807   4.934
 5091SOL    HW216173   6.350   5.863   5.034
 5092SOL     OW16174   3.831   3.036   4.634
 5092SOL    HW116175   3.820   2.966   4.705
 5092SOL    HW216176   3.916   3.086   4.650
 5093SOL     OW16177   3.126   2.114   3.775
 5093SOL    HW116178   3.134   2.021   3.740
 5093SOL    HW216179   3.167   2.178   3.710
 5094SOL     OW16180   2.350   4.938   4.836
 5094SOL    HW116181   2.388   4.983   4.916
 5094SOL    HW216182   2.335   4.841   4.856
 5095SOL     OW16183   6.037   2.051   3.296
 5095SOL    HW116184   6.100   2.090   3.362
 5095SOL    HW216185   6.079   2.050   3.205
 5096SOL     OW16186   5.901   3.035   5.221
 5096SOL    HW116187   5.945   3.000   5.138
 5096SOL    HW216188   5.810   2.995   5.230
 5097SOL     OW16189   0.641   0.189   6.017
 5097SOL    HW116190   0.722   0.201   6.075
 5097SOL    HW216191   0.642   0.257   5.944
 5098SOL     OW16192   3.081   1.913   0.751
 5098SOL    HW116193   3.143   1.908   0.829
 5098SOL    HW216194   2.987   1.924   0.784
 5099SOL     OW16195   1.703   5.913   1.832
 5099SOL    HW116196   1.760   5.937   1.910
 5099SOL    HW216197   1.703   5.988   1.766
 5100SOL     OW16198   7.008   3.493   1.364
 5100SOL    HW116199   0.034   3.464   1.281
 5100SOL    HW216200   6.922   3.538   1.340
 5101SOL     OW16201   4.426   1.984   6.101
 5101SOL    HW116202   4.386   1.961   6.190
 5101SOL    HW216203   4.506   1.926   6.084
 5102SOL     OW16204   5.605   4.607   5.236
 5102SOL    HW116205   5.629   4.537   5.168
 5102SOL    HW216206   5.668   4.684   5.228
 5103SOL     OW16207   0.294   6.923   5.479
 5103SOL    HW116208   0.218   6.985   5.461
 5103SOL    HW216209   0.296   6.852   5.408
 5104SOL     OW16210   3.548   3.280   3.851
 5104SOL    HW116211   3.545   3.222   3.933
 5104SOL    HW216212   3.465   3.265   3.797
 5105SOL     OW16213   4.624   2.404   6.703
 5105SOL    HW116214   4.595   2.413   6.799
 5105SOL    HW216215   4.654   2.493   6.668
 5106SOL     OW16216   4.200   0.660   1.499
 5106SOL    HW116217   4.290   0.637   1.461
 5106SOL    HW216218   4.196   0.758   1.518
 5107SOL     OW16219   6.381   4.318   6.758
 5107SOL    HW116220   6.414   4.370   6.837
 5107SOL    HW216221   6.443   4.242   6.739
 5108SOL     OW16222   4.464   3.852   1.055
 5108SOL    HW116223   4.518   3.768   1.063
 5108SOL    HW216224   4.525   3.931   1.054
 5109SOL     OW16225   1.718   2.473   1.910
 5109SOL    HW116226   1.818   2.471   1.912
 5109SOL    HW216227   1.684   2.397   1.856
 5110SOL     OW16228   3.229   6.504   4.989
 5110SOL    HW116229   3.229   6.473   5.085
 5110SOL    HW216230   3.272   6.435   4.932
 5111SOL     OW16231   2.412   6.157   6.412
 5111SOL    HW116232   2.373   6.080   6.362
 5111SOL    HW216233   2.440   6.228   6.347
 5112SOL     OW16234   0.696   4.254   2.683
 5112SOL    HW116235   0.715   4.169   2.732
 5112SOL    HW216236   0.632   4.310   2.737
 5113SOL     OW16237   2.961   4.757   1.419
 5113SOL    HW116238   3.055   4.742   1.388
 5113SOL    HW216239   2.932   4.679   1.475
 5114SOL     OW16240   4.506   4.266   1.132
 5114SOL    HW116241   4.413   4.291   1.158
 5114SOL    HW216242   4.570   4.336   1.166
 5115SOL     OW16243   1.546   3.749   0.562
 5115SOL    HW116244   1.562   3.795   0.474
 5115SOL    HW216245   1.461   3.782   0.601
 5116SOL     OW16246   0.889   6.295   5.624
 5116SOL    HW116247   0.880   6.389   5.590
 5116SOL    HW216248   0.896   6.232   5.547
 5117SOL     OW16249   6.973   3.580   4.273
 5117SOL    HW116250   0.049   3.586   4.251
 5117SOL    HW216251   6.959   3.599   4.370
 5118SOL     OW16252   5.138   5.446   0.438
 5118SOL    HW116253   5.108   5.384   0.511
 5118SOL    HW216254   5.058   5.489   0.396
 5119SOL     OW16255   5.338   1.199   0.260
 5119SOL    HW116256   5.300   1.123   0.206
 5119SOL    HW216257   5.380   1.266   0.199
 5120SOL     OW16258   5.602   6.622   6.821
 5120SOL    HW116259   5.536   6.612   6.895
 5120SOL    HW216260   5.579   6.703   6.767
 5121SOL     OW16261   2.093   3.801   0.128
 5121SOL    HW116262   2.004   3.783   0.086
 5121SOL    HW216263   2.133   3.883   0.087
 5122SOL     OW16264   4.978   5.342   3.763
 5122SOL    HW116265   5.024   5.429   3.746
 5122SOL    HW216266   5.042   5.277   3.802
 5123SOL     OW16267   4.640   2.144   1.334
 5123SOL    HW116268   4.730   2.110   1.362
 5123SOL    HW216269   4.594   2.184   1.413
 5124SOL     OW16270   0.547   5.538   4.354
 5124SOL    HW116271   0.511   5.505   4.441
 5124SOL    HW216272   0.471   5.568   4.296
 5125SOL     OW16273   5.198   2.736   3.865
 5125SOL    HW116274   5.209   2.723   3.964
 5125SOL    HW216275   5.109   2.702   3.837
 5126SOL     OW16276   2.656   0.912   2.669
 5126SOL    HW116277   2.619   0.977   2.736
 5126SOL    HW216278   2.686   0.962   2.588
 5127SOL     OW16279   2.589   6.197   1.109
 5127SOL    HW116280   2.609   6.219   1.205
 5127SOL    HW216281   2.586   6.282   1.056
 5128SOL     OW16282   4.203   0.268   2.576
 5128SOL    HW116283   4.294   0.241   2.607
 5128SOL    HW216284   4.149   0.186   2.558
 5129SOL     OW16285   6.423   5.325   6.867
 5129SOL    HW116286   6.454   5.414   6.901
 5129SOL    HW216287   6.335   5.302   6.908
 5130SOL     OW16288   5.942   4.617   2.351
 5130SOL    HW116289   5.947   4.589   2.255
 5130SOL    HW216290   6.018   4.576   2.402
 5131SOL     OW16291   2.328   2.066   1.779
 5131SOL    HW116292   2.281   2.150   1.808
 5131SOL    HW216293   2.300   1.991   1.839
 5132SOL     OW16294   2.355   6.081   6.037
 5132SOL    HW116295   2.279   6.017   6.030
 5132SOL    HW216296   2.327   6.162   6.088
 5133SOL     OW16297   4.209   5.890   4.980
 5133SOL    HW116298   4.294   5.868   4.933
 5133SOL    HW216299   4.133   5.843   4.935
 5134SOL     OW16300   1.235   2.472   6.833
 5134SOL    HW116301   1.319   2.486   6.885
 5134SOL    HW216302   1.236   2.528   6.750
 5135SOL     OW16303   6.328   1.354   3.146
 5135SOL    HW116304   6.320   1.411   3.228
 5135SOL    HW216305   6.237   1.334   3.110
 5136SOL     OW16306   3.842   1.924   6.901
 5136SOL    HW116307   3.812   1.989   6.971
 5136SOL    HW216308   3.941   1.916   6.902
 5137SOL     OW16309   4.532   3.389   7.004
 5137SOL    HW116310   4.548   3.446   6.924
 5137SOL    HW216311   4.442   3.409   0.021
 5138SOL     OW16312   2.406   3.136   5.680
 5138SOL    HW116313   2.489   3.191   5.693
 5138SOL    HW216314   2.327   3.196   5.674
 5139SOL     OW16315   0.864   6.482   4.376
 5139SOL    HW116316   0.856   6.543   4.455
 5139SOL    HW216317   0.773   6.448   4.351
 5140SOL     OW16318   3.302   2.955   2.657
 5140SOL    HW116319   3.321   3.053   2.658
 5140SOL    HW216320   3.228   2.937   2.592
 5141SOL     OW16321   1.380   3.093   5.139
 5141SOL    HW116322   1.377   3.067   5.235
 5141SOL    HW216323   1.311   3.164   5.122
 5142SOL     OW16324   5.425   3.462   1.773
 5142SOL    HW116325   5.519   3.462   1.740
 5142SOL    HW216326   5.412   3.390   1.841
 5143SOL     OW16327   0.038   4.982   6.234
 5143SOL    HW116328   0.099   5.027   6.299
 5143SOL    HW216329   0.091   4.944   6.159
 5144SOL     OW16330   2.356   0.919   4.740
 5144SOL    HW116331   2.419   0.845   4.715
 5144SOL    HW216332   2.274   0.880   4.780
 5145SOL     OW16333   3.269   5.090   6.706
 5145SOL    HW116334   3.368   5.083   6.712
 5145SOL    HW216335   3.228   5.034   6.779
 5146SOL     OW16336   3.810   5.267   1.376
 5146SOL    HW116337   3.769   5.354   1.351
 5146SOL    HW216338   3.886   5.247   1.315
 5147SOL     OW16339   0.822   5.530   6.099
 5147SOL    HW116340   0.836   5.431   6.109
 5147SOL    HW216341   0.855   5.576   6.181
 5148SOL     OW16342   6.935   0.351   1.665
 5148SOL    HW116343   6.840   0.369   1.639
 5148SOL    HW216344   6.938   0.293   1.746
 5149SOL     OW16345   6.913   0.166   5.115
 5149SOL    HW116346   6.851   0.093   5.141
 5149SOL    HW216347   6.893   0.198   5.023
 5150SOL     OW16348   2.764   5.200   5.756
 5150SOL    HW116349   2.673   5.238   5.768
 5150SOL    HW216350   2.758   5.102   5.743
 5151SOL     OW16351   4.850   0.170   6.468
 5151SOL    HW116352   4.852   0.104   6.543
 5151SOL    HW216353   4.789   0.137   6.396
 5152SOL     OW16354   0.255   4.594   6.291
 5152SOL    HW116355   0.232   4.555   6.202
 5152SOL    HW216356   0.175   4.588   6.351
 5153SOL     OW16357   3.057   3.565   0.922
 5153SOL    HW116358   3.014   3.479   0.948
 5153SOL    HW216359   3.153   3.548   0.899
 5154SOL     OW16360   0.723   4.048   5.533
 5154SOL    HW116361   0.773   4.135   5.534
 5154SOL    HW216362   0.731   4.005   5.623
 5155SOL     OW16363   4.309   0.960   2.612
 5155SOL    HW116364   4.236   0.998   2.668
 5155SOL    HW216365   4.269   0.905   2.538
 5156SOL     OW16366   5.248   3.534   5.615
 5156SOL    HW116367   5.335   3.562   5.574
 5156SOL    HW216368   5.210   3.609   5.669
 5157SOL     OW16369   6.716   2.313   3.987
 5157SOL    HW116370   6.738   2.391   4.046
 5157SOL    HW216371   6.620   2.286   4.002
 5158SOL     OW16372   4.202   1.218   2.144
 5158SOL    HW116373   4.295   1.184   2.125
 5158SOL    HW216374   4.171   1.182   2.232
 5159SOL     OW16375   1.561   4.071   5.188
 5159SOL    HW116376   1.629   4.078   5.261
 5159SOL    HW216377   1.599   4.105   5.103
 5160SOL     OW16378   2.540   2.392   3.551
 5160SOL    HW116379   2.564   2.405   3.455
 5160SOL    HW216380   2.550   2.296   3.575
 5161SOL     OW16381   1.834   2.526   6.628
 5161SOL    HW116382   1.863   2.471   6.706
 5161SOL    HW216383   1.847   2.623   6.648
 5162SOL     OW16384   6.494   6.131   4.991
 5162SOL    HW116385   6.448   6.048   4.958
 5162SOL    HW216386   6.564   6.106   5.058
 5163SOL     OW16387   6.191   3.482   1.185
 5163SOL    HW116388   6.183   3.471   1.086
 5163SOL    HW216389   6.157   3.572   1.212
 5164SOL     OW16390   6.675   6.803   4.863
 5164SOL    HW116391   6.577   6.793   4.883
 5164SOL    HW216392   6.689   6.886   4.808
 5165SOL     OW16393   5.242   4.496   5.459
 5165SOL    HW116394   5.309   4.569   5.445
 5165SOL    HW216395   5.151   4.527   5.430
 5166SOL     OW16396   0.051   0.178   2.770
 5166SOL    HW116397   0.143   0.211   2.793
 5166SOL    HW216398   0.058   0.089   2.724
 5167SOL     OW16399   2.058   0.074   4.738
 5167SOL    HW116400   2.071   0.172   4.754
 5167SOL    HW216401   1.966   0.058   4.700
 5168SOL     OW16402   3.142   2.005   2.168
 5168SOL    HW116403   3.087   2.072   2.218
 5168SOL    HW216404   3.098   1.915   2.173
 5169SOL     OW16405   3.449   5.368   6.603
 5169SOL    HW116406   3.471   5.347   6.698
 5169SOL    HW216407   3.352   5.353   6.587
 5170SOL     OW16408   4.236   5.056   4.298
 5170SOL    HW116409   4.223   5.039   4.201
 5170SOL    HW216410   4.298   4.986   4.336
 5171SOL     OW16411   2.482   4.442   5.427
 5171SOL    HW116412   2.576   4.465   5.401
 5171SOL    HW216413   2.450   4.366   5.371
 5172SOL     OW16414   1.412   3.674   6.333
 5172SOL    HW116415   1.418   3.707   6.427
 5172SOL    HW216416   1.318   3.643   6.315
 5173SOL     OW16417   0.441   2.240   4.656
 5173SOL    HW116418   0.438   2.337   4.634
 5173SOL    HW216419   0.477   2.227   4.748
 5174SOL     OW16420   2.928   4.875   6.809
 5174SOL    HW116421   3.027   4.880   6.792
 5174SOL    HW216422   2.899   4.779   6.805
 5175SOL     OW16423   1.154   5.578   0.135
 5175SOL    HW116424   1.104   5.526   0.204
 5175SOL    HW216425   1.139   5.538   0.045
 5176SOL     OW16426   5.874   3.193   6.737
 5176SOL    HW116427   5.783   3.178   6.773
 5176SOL    HW216428   5.869   3.205   6.637
 5177SOL     OW16429   4.874   5.465   0.008
 5177SOL    HW116430   4.923   5.480   0.093
 5177SOL    HW216431   4.796   5.404   0.024
 5178SOL     OW16432   3.848   4.685   0.205
 5178SOL    HW116433   3.865   4.747   0.282
 5178SOL    HW216434   3.751   4.686   0.181
 5179SOL     OW16435   2.996   6.189   5.607
 5179SOL    HW116436   2.912   6.190   5.662
 5179SOL    HW216437   3.061   6.124   5.647
 5180SOL     OW16438   4.949   1.706   6.343
 5180SOL    HW116439   4.973   1.803   6.342
 5180SOL    HW216440   5.024   1.653   6.382
 5181SOL     OW16441   3.038   6.267   2.707
 5181SOL    HW116442   3.101   6.200   2.667
 5181SOL    HW216443   2.944   6.244   2.681
 5182SOL     OW16444   4.962   4.234   0.861
 5182SOL    HW116445   4.893   4.230   0.789
 5182SOL    HW216446   4.938   4.306   0.926
 5183SOL     OW16447   2.989   1.087   3.575
 5183SOL    HW116448   2.962   1.155   3.508
 5183SOL    HW216449   3.045   1.130   3.646
 5184SOL     OW16450   1.127   1.901   3.106
 5184SOL    HW116451   1.177   1.889   3.021
 5184SOL    HW216452   1.172   1.972   3.161
 5185SOL     OW16453   4.399   0.451   2.083
 5185SOL    HW116454   4.301   0.471   2.083
 5185SOL    HW216455   4.429   0.433   2.177
 5186SOL     OW16456   5.611   3.439   0.108
 5186SOL    HW116457   5.622   3.351   0.062
 5186SOL    HW216458   5.695   3.492   0.099
 5187SOL     OW16459   4.970   4.139   4.334
 5187SOL    HW116460   4.950   4.237   4.331
 5187SOL    HW216461   5.069   4.125   4.325
 5188SOL     OW16462   0.906   0.903   3.354
 5188SOL    HW116463   0.949   0.984   3.393
 5188SOL    HW216464   0.956   0.875   3.272
 5189SOL     OW16465   4.860   5.182   5.900
 5189SOL    HW116466   4.938   5.147   5.848
 5189SOL    HW216467   4.890   5.260   5.956
 5190SOL     OW16468   1.805   2.157   2.694
 5190SOL    HW116469   1.859   2.085   2.650
 5190SOL    HW216470   1.866   2.230   2.724
 5191SOL     OW16471   4.678   1.120   2.271
 5191SOL    HW116472   4.612   1.121   2.346
 5191SOL    HW216473   4.705   1.214   2.249
 5192SOL     OW16474   6.731   4.017   1.789
 5192SOL    HW116475   6.812   4.076   1.794
 5192SOL    HW216476   6.760   3.922   1.790
 5193SOL     OW16477   3.599   4.936   3.301
 5193SOL    HW116478   3.657   4.982   3.368
 5193SOL    HW216479   3.506   4.929   3.337
 5194SOL     OW16480   5.353   0.838   0.613
 5194SOL    HW116481   5.300   0.845   0.529
 5194SOL    HW216482   5.291   0.828   0.691
 5195SOL     OW16483   0.755   5.110   5.460
 5195SOL    HW116484   0.843   5.141   5.423
 5195SOL    HW216485   0.741   5.014   5.438
 5196SOL     OW16486   1.403   3.388   3.230
 5196SOL    HW116487   1.313   3.432   3.234
 5196SOL    HW216488   1.430   3.360   3.322
 5197SOL     OW16489   3.706   6.074   5.180
 5197SOL    HW116490   3.786   6.121   5.142
 5197SOL    HW216491   3.734   6.019   5.259
 5198SOL     OW16492   4.368   1.092   6.266
 5198SOL    HW116493   4.321   1.067   6.351
 5198SOL    HW216494   4.322   1.050   6.188
 5199SOL     OW16495   0.525   6.358   2.596
 5199SOL    HW116496   0.432   6.324   2.580
 5199SOL    HW216497   0.543   6.364   2.694
 5200SOL     OW16498   5.744   6.326   5.906
 5200SOL    HW116499   5.818   6.317   5.839
 5200SOL    HW216500   5.697   6.413   5.892
 5201SOL     OW16501   6.767   3.707   5.382
 5201SOL    HW116502   6.746   3.682   5.476
 5201SOL    HW216503   6.816   3.794   5.380
 5202SOL     OW16504   3.936   2.463   5.989
 5202SOL    HW116505   3.903   2.524   5.918
 5202SOL    HW216506   3.887   2.481   6.075
 5203SOL     OW16507   0.243   0.522   5.565
 5203SOL    HW116508   0.261   0.426   5.588
 5203SOL    HW216509   0.151   0.546   5.595
 5204SOL     OW16510   2.161   0.263   2.201
 5204SOL    HW116511   2.219   0.207   2.142
 5204SOL    HW216512   2.097   0.204   2.251
 5205SOL     OW16513   5.944   7.008   2.063
 5205SOL    HW116514   5.871   6.996   1.995
 5205SOL    HW216515   5.994   6.922   2.073
 5206SOL     OW16516   0.830   4.625   5.053
 5206SOL    HW116517   0.820   4.529   5.080
 5206SOL    HW216518   0.820   4.633   4.954
 5207SOL     OW16519   4.892   1.868   4.722
 5207SOL    HW116520   4.833   1.885   4.643
 5207SOL    HW216521   4.843   1.809   4.787
 5208SOL     OW16522   6.997   1.773   0.702
 5208SOL    HW116523   6.999   1.841   0.629
 5208SOL    HW216524   0.059   1.717   0.698
 5209SOL     OW16525   4.774   5.866   2.846
 5209SOL    HW116526   4.719   5.783   2.836
 5209SOL    HW216527   4.849   5.863   2.780
 5210SOL     OW16528   6.507   4.050   1.612
 5210SOL    HW116529   6.598   4.056   1.653
 5210SOL    HW216530   6.437   4.057   1.683
 5211SOL     OW16531   4.846   3.161   4.748
 5211SOL    HW116532   4.786   3.238   4.728
 5211SOL    HW216533   4.829   3.088   4.682
 5212SOL     OW16534   6.713   3.782   0.025
 5212SOL    HW116535   6.706   3.735   0.113
 5212SOL    HW216536   6.677   3.875   0.035
 5213SOL     OW16537   3.449   3.153   4.651
 5213SOL    HW116538   3.422   3.221   4.583
 5213SOL    HW216539   3.377   3.145   4.720
 5214SOL     OW16540   6.015   2.696   5.311
 5214SOL    HW116541   6.048   2.791   5.306
 5214SOL    HW216542   5.915   2.696   5.308
 5215SOL     OW16543   0.605   4.721   5.219
 5215SOL    HW116544   0.577   4.815   5.200
 5215SOL    HW216545   0.681   4.696   5.160
 5216SOL     OW16546   0.043   4.038   0.239
 5216SOL    HW116547   0.034   3.939   0.237
 5216SOL    HW216548   0.066   4.067   0.332
 5217SOL     OW16549   3.272   0.847   1.975
 5217SOL    HW116550   3.309   0.913   1.910
 5217SOL    HW216551   3.181   0.876   2.005
 5218SOL     OW16552   6.270   6.762   0.692
 5218SOL    HW116553   6.298   6.793   0.602
 5218SOL    HW216554   6.256   6.840   0.752
 5219SOL     OW16555   4.209   1.961   4.603
 5219SOL    HW116556   4.294   1.995   4.562
 5219SOL    HW216557   4.212   1.973   4.702
 5220SOL     OW16558   2.021   4.282   4.564
 5220SOL    HW116559   1.929   4.251   4.588
 5220SOL    HW216560   2.032   4.280   4.465
 5221SOL     OW16561   4.055   6.740   0.290
 5221SOL    HW116562   4.071   6.814   0.225
 5221SOL    HW216563   3.970   6.757   0.339
 5222SOL     OW16564   5.432   2.671   2.095
 5222SOL    HW116565   5.423   2.765   2.129
 5222SOL    HW216566   5.468   2.613   2.168
 5223SOL     OW16567   6.704   1.932   0.875
 5223SOL    HW116568   6.723   1.876   0.794
 5223SOL    HW216569   6.791   1.954   0.921
 5224SOL     OW16570   1.496   1.650   4.679
 5224SOL    HW116571   1.490   1.653   4.778
 5224SOL    HW216572   1.577   1.701   4.649
 5225SOL     OW16573   6.716   3.066   6.203
 5225SOL    HW116574   6.646   3.041   6.270
 5225SOL    HW216575   6.802   3.022   6.227
 5226SOL     OW16576   0.035   0.094   4.079
 5226SOL    HW116577   7.009   0.039   4.010
 5226SOL    HW216578   0.041   0.189   4.048
 5227SOL     OW16579   2.634   2.011   6.304
 5227SOL    HW116580   2.622   1.957   6.221
 5227SOL    HW216581   2.725   2.051   6.305
 5228SOL     OW16582   0.312   2.487   5.704
 5228SOL    HW116583   0.399   2.502   5.656
 5228SOL    HW216584   0.251   2.434   5.646
 5229SOL     OW16585   4.114   1.686   1.281
 5229SOL    HW116586   4.176   1.682   1.202
 5229SOL    HW216587   4.122   1.775   1.325
 5230SOL     OW16588   6.097   0.828   2.366
 5230SOL    HW116589   6.008   0.817   2.322
 5230SOL    HW216590   6.132   0.920   2.347
 5231SOL     OW16591   6.964   4.041   2.079
 5231SOL    HW116592   6.923   3.950   2.080
 5231SOL    HW216593   0.036   4.036   2.116
 5232SOL     OW16594   1.702   1.772   6.224
 5232SOL    HW116595   1.771   1.711   6.262
 5232SOL    HW216596   1.612   1.730   6.235
 5233SOL     OW16597   2.289   6.469   3.576
 5233SOL    HW116598   2.369   6.530   3.580
 5233SOL    HW216599   2.207   6.520   3.602
 5234SOL     OW16600   3.755   2.440   6.210
 5234SOL    HW116601   3.747   2.346   6.178
 5234SOL    HW216602   3.834   2.446   6.272
 5235SOL     OW16603   2.753   3.210   1.623
 5235SOL    HW116604   2.696   3.171   1.550
 5235SOL    HW216605   2.846   3.226   1.588
 5236SOL     OW16606   2.999   5.077   1.711
 5236SOL    HW116607   3.082   5.035   1.675
 5236SOL    HW216608   2.922   5.054   1.653
 5237SOL     OW16609   1.176   1.457   1.406
 5237SOL    HW116610   1.156   1.553   1.423
 5237SOL    HW216611   1.133   1.429   1.320
 5238SOL     OW16612   6.161   1.153   3.350
 5238SOL    HW116613   6.155   1.241   3.398
 5238SOL    HW216614   6.240   1.102   3.384
 5239SOL     OW16615   2.547   3.955   0.164
 5239SOL    HW116616   2.639   3.988   0.144
 5239SOL    HW216617   2.518   3.989   0.254
 5240SOL     OW16618   1.368   3.815   4.659
 5240SOL    HW116619   1.368   3.900   4.711
 5240SOL    HW216620   1.390   3.834   4.563
 5241SOL     OW16621   2.351   5.066   2.672
 5241SOL    HW116622   2.415   5.009   2.724
 5241SOL    HW216623   2.307   5.131   2.733
 5242SOL     OW16624   4.302   5.995   5.737
 5242SOL    HW116625   4.335   6.081   5.698
 5242SOL    HW216626   4.368   5.960   5.803
 5243SOL     OW16627   2.255   5.560   4.023
 5243SOL    HW116628   2.216   5.636   3.971
 5243SOL    HW216629   2.207   5.551   4.111
 5244SOL     OW16630   5.776   6.947   6.933
 5244SOL    HW116631   5.788   6.965   6.835
 5244SOL    HW216632   5.702   7.005   6.968
 5245SOL     OW16633   3.666   3.571   1.640
 5245SOL    HW116634   3.640   3.589   1.734
 5245SOL    HW216635   3.765   3.560   1.634
 5246SOL     OW16636   6.617   2.463   5.769
 5246SOL    HW116637   6.601   2.368   5.795
 5246SOL    HW216638   6.584   2.477   5.676
 5247SOL     OW16639   4.795   1.088   4.824
 5247SOL    HW116640   4.838   1.105   4.736
 5247SOL    HW216641   4.860   1.110   4.897
 5248SOL     OW16642   4.154   1.135   2.400
 5248SOL    HW116643   4.167   1.193   2.480
 5248SOL    HW216644   4.058   1.106   2.394
 5249SOL     OW16645   0.406   5.807   2.093
 5249SOL    HW116646   0.469   5.730   2.089
 5249SOL    HW216647   0.379   5.833   2.000
 5250SOL     OW16648   1.658   5.412   6.844
 5250SOL    HW116649   1.598   5.353   6.898
 5250SOL    HW216650   1.753   5.396   6.872
 5251SOL     OW16651   2.016   4.239   6.052
 5251SOL    HW116652   2.069   4.305   6.105
 5251SOL    HW216653   2.000   4.274   5.960
 5252SOL     OW16654   3.819   6.028   3.908
 5252SOL    HW116655   3.733   6.079   3.903
 5252SOL    HW216656   3.836   5.983   3.820
 5253SOL     OW16657   0.328   6.199   4.825
 5253SOL    HW116658   0.275   6.179   4.908
 5253SOL    HW216659   0.266   6.225   4.751
 5254SOL     OW16660   4.671   6.354   1.748
 5254SOL    HW116661   4.573   6.371   1.748
 5254SOL    HW216662   4.688   6.256   1.759
 5255SOL     OW16663   0.225   1.486   6.306
 5255SOL    HW116664   0.288   1.539   6.363
 5255SOL    HW216665   0.221   1.526   6.215
 5256SOL     OW16666   4.425   1.727   2.719
 5256SOL    HW116667   4.465   1.740   2.628
 5256SOL    HW216668   4.468   1.649   2.764
 5257SOL     OW16669   6.000   0.876   0.213
 5257SOL    HW116670   6.004   0.836   0.305
 5257SOL    HW216671   6.053   0.961   0.212
 5258SOL     OW16672   6.056   2.076   5.150
 5258SOL    HW116673   6.033   2.173   5.159
 5258SOL    HW216674   6.097   2.044   5.236
 5259SOL     OW16675   4.213   6.449   4.556
 5259SOL    HW116676   4.212   6.527   4.494
 5259SOL    HW216677   4.120   6.411   4.564
 5260SOL     OW16678   1.766   6.602   2.031
 5260SOL    HW116679   1.675   6.633   2.058
 5260SOL    HW216680   1.797   6.654   1.952
 5261SOL     OW16681   6.925   4.886   6.893
 5261SOL    HW116682   6.865   4.938   6.954
 5261SOL    HW216683   6.900   4.906   6.798
 5262SOL     OW16684   2.185   2.325   1.876
 5262SOL    HW116685   2.195   2.330   1.777
 5262SOL    HW216686   2.108   2.382   1.905
 5263SOL     OW16687   0.226   6.097   2.283
 5263SOL    HW116688   0.257   6.120   2.191
 5263SOL    HW216689   0.229   5.998   2.296
 5264SOL     OW16690   5.879   2.461   2.319
 5264SOL    HW116691   5.949   2.438   2.252
 5264SOL    HW216692   5.806   2.393   2.317
 5265SOL     OW16693   1.391   6.087   6.155
 5265SOL    HW116694   1.451   6.010   6.179
 5265SOL    HW216695   1.443   6.157   6.108
 5266SOL     OW16696   0.600   0.453   6.496
 5266SOL    HW116697   0.624   0.496   6.408
 5266SOL    HW216698   0.626   0.357   6.494
 5267SOL     OW16699   6.460   1.468   4.841
 5267SOL    HW116700   6.544   1.517   4.814
 5267SOL    HW216701   6.428   1.412   4.765
 5268SOL     OW16702   5.203   0.555   5.650
 5268SOL    HW116703   5.119   0.575   5.699
 5268SOL    HW216704   5.204   0.459   5.623
 5269SOL     OW16705   1.025   0.333   3.736
 5269SOL    HW116706   1.025   0.239   3.703
 5269SOL    HW216707   0.940   0.378   3.710
 5270SOL     OW16708   1.667   1.717   6.595
 5270SOL    HW116709   1.653   1.666   6.680
 5270SOL    HW216710   1.765   1.727   6.579
 5271SOL     OW16711   1.463   6.809   6.440
 5271SOL    HW116712   1.541   6.780   6.496
 5271SOL    HW216713   1.442   6.905   6.457
 5272SOL     OW16714   4.489   0.254   6.255
 5272SOL    HW116715   4.457   0.171   6.211
 5272SOL    HW216716   4.424   0.329   6.238
 5273SOL     OW16717   2.125   1.777   3.561
 5273SOL    HW116718   2.149   1.728   3.645
 5273SOL    HW216719   2.123   1.876   3.580
 5274SOL     OW16720   6.217   4.960   0.968
 5274SOL    HW116721   6.132   4.938   1.015
 5274SOL    HW216722   6.261   5.038   1.013
 5275SOL     OW16723   5.715   0.339   6.721
 5275SOL    HW116724   5.708   0.433   6.755
 5275SOL    HW216725   5.788   0.291   6.769
 5276SOL     OW16726   2.897   6.379   1.398
 5276SOL    HW116727   2.939   6.343   1.315
 5276SOL    HW216728   2.818   6.435   1.373
 5277SOL     OW16729   1.583   3.136   1.519
 5277SOL    HW116730   1.599   3.192   1.600
 5277SOL    HW216731   1.596   3.191   1.437
 5278SOL     OW16732   4.102   3.703   4.513
 5278SOL    HW116733   4.143   3.725   4.424
 5278SOL    HW216734   4.005   3.727   4.512
 5279SOL     OW16735   1.332   0.173   3.192
 5279SOL    HW116736   1.326   0.157   3.093
 5279SOL    HW216737   1.425   0.155   3.224
 5280SOL     OW16738   3.629   0.663   3.943
 5280SOL    HW116739   3.568   0.741   3.950
 5280SOL    HW216740   3.690   0.661   4.023
 5281SOL     OW16741   6.814   3.121   3.473
 5281SOL    HW116742   6.758   3.082   3.400
 5281SOL    HW216743   6.772   3.207   3.505
 5282SOL     OW16744   5.202   2.327   1.259
 5282SOL    HW116745   5.164   2.409   1.216
 5282SOL    HW216746   5.127   2.270   1.294
 5283SOL     OW16747   5.405   4.930   5.215
 5283SOL    HW116748   5.477   4.999   5.222
 5283SOL    HW216749   5.420   4.874   5.133
 5284SOL     OW16750   5.730   2.708   4.005
 5284SOL    HW116751   5.786   2.711   4.088
 5284SOL    HW216752   5.785   2.739   3.927
 5285SOL     OW16753   4.040   5.178   2.274
 5285SOL    HW116754   4.086   5.116   2.211
 5285SOL    HW216755   3.980   5.240   2.223
 5286SOL     OW16756   1.747   5.001   2.019
 5286SOL    HW116757   1.765   5.014   1.921
 5286SOL    HW216758   1.780   4.911   2.046
 5287SOL     OW16759   0.225   0.799   3.204
 5287SOL    HW116760   0.320   0.800   3.174
 5287SOL    HW216761   0.208   0.877   3.265
 5288SOL     OW16762   3.957   0.509   0.786
 5288SOL    HW116763   3.880   0.457   0.748
 5288SOL    HW216764   3.922   0.578   0.849
 5289SOL     OW16765   1.926   0.003   1.565
 5289SOL    HW116766   1.957   6.943   1.615
 5289SOL    HW216767   1.954   7.017   1.469
 5290SOL     OW16768   5.311   6.954   6.813
 5290SOL    HW116769   5.271   6.972   6.903
 5290SOL    HW216770   5.411   6.953   6.820
 5291SOL     OW16771   1.178   5.215   0.395
 5291SOL    HW116772   1.235   5.294   0.417
 5291SOL    HW216773   1.145   5.173   0.480
 5292SOL     OW16774   5.428   1.035   1.963
 5292SOL    HW116775   5.447   0.984   2.048
 5292SOL    HW216776   5.506   1.027   1.901
 5293SOL     OW16777   1.974   1.500   3.989
 5293SOL    HW116778   1.912   1.442   4.043
 5293SOL    HW216779   2.013   1.446   3.915
 5294SOL     OW16780   3.438   2.015   6.843
 5294SOL    HW116781   3.498   1.941   6.873
 5294SOL    HW216782   3.478   2.103   6.870
 5295SOL     OW16783   6.963   2.054   3.436
 5295SOL    HW116784   0.023   2.079   3.384
 5295SOL    HW216785   6.884   2.106   3.403
 5296SOL     OW16786   0.404   3.876   6.485
 5296SOL    HW116787   0.401   3.779   6.458
 5296SOL    HW216788   0.396   3.934   6.404
 5297SOL     OW16789   1.138   2.551   2.117
 5297SOL    HW116790   1.122   2.501   2.032
 5297SOL    HW216791   1.212   2.507   2.168
 5298SOL     OW16792   0.982   3.552   2.456
 5298SOL    HW116793   1.059   3.552   2.392
 5298SOL    HW216794   1.000   3.619   2.529
 5299SOL     OW16795   4.059   0.575   0.178
 5299SOL    HW116796   4.140   0.571   0.119
 5299SOL    HW216797   4.059   0.495   0.238
 5300SOL     OW16798   6.751   4.710   4.313
 5300SOL    HW116799   6.731   4.786   4.375
 5300SOL    HW216800   6.682   4.707   4.241
 5301SOL     OW16801   5.764   0.043   6.405
 5301SOL    HW116802   5.687   7.012   6.367
 5301SOL    HW216803   5.796   0.109   6.337
 5302SOL     OW16804   0.083   3.473   2.789
 5302SOL    HW116805   0.086   3.378   2.818
 5302SOL    HW216806   0.173   3.501   2.754
 5303SOL     OW16807   2.385   5.198   1.980
 5303SOL    HW116808   2.400   5.123   2.045
 5303SOL    HW216809   2.389   5.285   2.028
 5304SOL     OW16810   5.314   1.852   6.260
 5304SOL    HW116811   5.276   1.895   6.341
 5304SOL    HW216812   5.367   1.771   6.286
 5305SOL     OW16813   3.940   1.460   4.874
 5305SOL    HW116814   3.893   1.452   4.787
 5305SOL    HW216815   3.886   1.517   4.937
 5306SOL     OW16816   2.238   6.580   3.946
 5306SOL    HW116817   2.302   6.587   4.023
 5306SOL    HW216818   2.248   6.659   3.887
 5307SOL     OW16819   4.951   6.511   6.397
 5307SOL    HW116820   4.899   6.526   6.314
 5307SOL    HW216821   4.890   6.516   6.476
 5308SOL     OW16822   6.432   1.624   1.256
 5308SOL    HW116823   6.440   1.723   1.259
 5308SOL    HW216824   6.337   1.598   1.242
 5309SOL     OW16825   3.163   4.555   6.317
 5309SOL    HW116826   3.122   4.622   6.379
 5309SOL    HW216827   3.255   4.585   6.292
 5310SOL     OW16828   5.177   2.505   0.514
 5310SOL    HW116829   5.205   2.439   0.584
 5310SOL    HW216830   5.258   2.547   0.473
 5311SOL     OW16831   6.856   5.370   7.015
 5311SOL    HW116832   6.860   5.450   6.955
 5311SOL    HW216833   6.856   5.400   0.089
 5312SOL     OW16834   0.935   4.058   2.292
 5312SOL    HW116835   0.877   3.979   2.313
 5312SOL    HW216836   0.932   4.076   2.194
 5313SOL     OW16837   0.706   6.059   6.049
 5313SOL    HW116838   0.674   5.966   6.068
 5313SOL    HW216839   0.654   6.097   5.973
 5314SOL     OW16840   4.614   4.515   0.915
 5314SOL    HW116841   4.674   4.513   0.835
 5314SOL    HW216842   4.607   4.423   0.954
 5315SOL     OW16843   5.397   0.224   2.684
 5315SOL    HW116844   5.345   0.217   2.769
 5315SOL    HW216845   5.354   0.167   2.614
 5316SOL     OW16846   5.064   5.238   5.034
 5316SOL    HW116847   5.098   5.304   4.967
 5316SOL    HW216848   4.993   5.182   4.991
 5317SOL     OW16849   0.389   5.075   1.326
 5317SOL    HW116850   0.403   5.072   1.425
 5317SOL    HW216851   0.291   5.071   1.306
 5318SOL     OW16852   6.706   2.811   3.777
 5318SOL    HW116853   6.724   2.723   3.820
 5318SOL    HW216854   6.648   2.798   3.697
 5319SOL     OW16855   2.757   6.215   2.686
 5319SOL    HW116856   2.773   6.141   2.752
 5319SOL    HW216857   2.666   6.253   2.700
 5320SOL     OW16858   6.792   2.315   0.304
 5320SOL    HW116859   6.816   2.223   0.274
 5320SOL    HW216860   6.699   2.337   0.273
 5321SOL     OW16861   2.942   5.251   0.137
 5321SOL    HW116862   3.029   5.282   0.173
 5321SOL    HW216863   2.943   5.151   0.129
 5322SOL     OW16864   3.005   6.252   0.128
 5322SOL    HW116865   3.076   6.221   0.191
 5322SOL    HW216866   2.946   6.174   0.104
 5323SOL     OW16867   6.878   3.447   0.368
 5323SOL    HW116868   6.969   3.450   0.409
 5323SOL    HW216869   6.811   3.419   0.438
 5324SOL     OW16870   3.969   3.464   2.246
 5324SOL    HW116871   3.958   3.541   2.308
 5324SOL    HW216872   3.976   3.498   2.152
 5325SOL     OW16873   2.773   7.018   5.332
 5325SOL    HW116874   2.736   0.071   5.388
 5325SOL    HW216875   2.740   0.006   5.238
 5326SOL     OW16876   5.897   1.031   4.395
 5326SOL    HW116877   5.952   0.951   4.415
 5326SOL    HW216878   5.801   1.004   4.387
 5327SOL     OW16879   6.391   6.837   4.132
 5327SOL    HW116880   6.480   6.791   4.137
 5327SOL    HW216881   6.343   6.824   4.218
 5328SOL     OW16882   2.523   4.919   5.505
 5328SOL    HW116883   2.468   5.002   5.493
 5328SOL    HW216884   2.485   4.846   5.448
 5329SOL     OW16885   0.633   6.916   6.032
 5329SOL    HW116886   0.605   6.883   6.122
 5329SOL    HW216887   0.616   7.014   6.026
 5330SOL     OW16888   4.978   3.740   0.032
 5330SOL    HW116889   4.922   3.804   0.085
 5330SOL    HW216890   4.923   3.699   6.980
 5331SOL     OW16891   6.236   0.733   0.116
 5331SOL    HW116892   6.290   0.792   0.055
 5331SOL    HW216893   6.139   0.755   0.105
 5332SOL     OW16894   0.507   3.054   6.919
 5332SOL    HW116895   0.536   3.010   6.834
 5332SOL    HW216896   0.434   3.000   6.961
 5333SOL     OW16897   0.427   6.814   4.194
 5333SOL    HW116898   0.523   6.799   4.217
 5333SOL    HW216899   0.405   6.911   4.203
 5334SOL     OW16900   3.365   6.314   1.035
 5334SOL    HW116901   3.364   6.254   1.115
 5334SOL    HW216902   3.445   6.374   1.039
 5335SOL     OW16903   6.361   5.238   1.879
 5335SOL    HW116904   6.356   5.310   1.809
 5335SOL    HW216905   6.312   5.157   1.846
 5336SOL     OW16906   1.476   2.816   5.723
 5336SOL    HW116907   1.554   2.776   5.772
 5336SOL    HW216908   1.489   2.801   5.625
 5337SOL     OW16909   6.634   2.540   0.923
 5337SOL    HW116910   6.570   2.463   0.920
 5337SOL    HW216911   6.678   2.544   1.012
 5338SOL     OW16912   6.515   2.335   1.795
 5338SOL    HW116913   6.519   2.424   1.842
 5338SOL    HW216914   6.482   2.349   1.701
 5339SOL     OW16915   4.828   3.990   2.308
 5339SOL    HW116916   4.776   4.052   2.366
 5339SOL    HW216917   4.842   4.031   2.218
 5340SOL     OW16918   5.512   3.322   0.880
 5340SOL    HW116919   5.585   3.379   0.841
 5340SOL    HW216920   5.449   3.380   0.931
 5341SOL     OW16921   4.675   5.120   3.283
 5341SOL    HW116922   4.577   5.118   3.302
 5341SOL    HW216923   4.713   5.207   3.313
 5342SOL     OW16924   5.735   5.105   4.768
 5342SOL    HW116925   5.724   5.156   4.853
 5342SOL    HW216926   5.821   5.133   4.724
 5343SOL     OW16927   3.673   3.792   0.239
 5343SOL    HW116928   3.610   3.728   0.283
 5343SOL    HW216929   3.737   3.741   0.182
 5344SOL     OW16930   6.677   1.868   0.158
 5344SOL    HW116931   6.586   1.903   0.177
 5344SOL    HW216932   6.674   1.768   0.153
 5345SOL     OW16933   3.569   0.657   6.842
 5345SOL    HW116934   3.537   0.741   6.798
 5345SOL    HW216935   3.547   0.660   6.939
 5346SOL     OW16936   2.710   6.025   3.239
 5346SOL    HW116937   2.675   5.973   3.160
 5346SOL    HW216938   2.766   6.101   3.207
 5347SOL     OW16939   5.816   2.468   5.670
 5347SOL    HW116940   5.867   2.548   5.639
 5347SOL    HW216941   5.741   2.497   5.729
 5348SOL     OW16942   5.275   2.903   5.165
 5348SOL    HW116943   5.284   2.845   5.246
 5348SOL    HW216944   5.365   2.940   5.142
 5349SOL     OW16945   0.963   4.158   0.549
 5349SOL    HW116946   1.022   4.229   0.588
 5349SOL    HW216947   0.884   4.202   0.505
 5350SOL     OW16948   1.446   0.639   6.381
 5350SOL    HW116949   1.537   0.654   6.341
 5350SOL    HW216950   1.434   0.701   6.458
 5351SOL     OW16951   0.811   6.231   2.847
 5351SOL    HW116952   0.715   6.243   2.822
 5351SOL    HW216953   0.818   6.205   2.943
 5352SOL     OW16954   0.230   2.772   6.134
 5352SOL    HW116955   0.266   2.739   6.047
 5352SOL    HW216956   0.152   2.715   6.161
 5353SOL     OW16957   1.966   6.638   3.008
 5353SOL    HW116958   2.061   6.607   3.012
 5353SOL    HW216959   1.913   6.593   3.080
 5354SOL     OW16960   2.597   6.643   1.638
 5354SOL    HW116961   2.685   6.670   1.676
 5354SOL    HW216962   2.594   6.543   1.629
 5355SOL     OW16963   4.654   4.152   5.671
 5355SOL    HW116964   4.602   4.129   5.589
 5355SOL    HW216965   4.593   4.194   5.738
 5356SOL     OW16966   6.722   6.880   1.311
 5356SOL    HW116967   6.744   6.898   1.407
 5356SOL    HW216968   6.634   6.832   1.305
 5357SOL     OW16969   6.440   3.268   2.343
 5357SOL    HW116970   6.530   3.241   2.375
 5357SOL    HW216971   6.388   3.187   2.315
 5358SOL     OW16972   5.474   6.879   5.747
 5358SOL    HW116973   5.381   6.856   5.718
 5358SOL    HW216974   5.539   6.841   5.682
 5359SOL     OW16975   3.513   1.779   6.640
 5359SOL    HW116976   3.466   1.813   6.722
 5359SOL    HW216977   3.551   1.689   6.659
 5360SOL     OW16978   5.262   5.858   2.685
 5360SOL    HW116979   5.315   5.854   2.601
 5360SOL    HW216980   5.312   5.813   2.759
 5361SOL     OW16981   1.186   3.938   2.675
 5361SOL    HW116982   1.264   3.917   2.617
 5361SOL    HW216983   1.137   3.853   2.698
 5362SOL     OW16984   5.696   1.656   3.869
 5362SOL    HW116985   5.626   1.723   3.894
 5362SOL    HW216986   5.691   1.578   3.932
 5363SOL     OW16987   5.982   4.195   6.210
 5363SOL    HW116988   5.887   4.176   6.187
 5363SOL    HW216989   6.039   4.115   6.188
 5364SOL     OW16990   5.016   2.340   1.784
 5364SOL    HW116991   4.993   2.424   1.834
 5364SOL    HW216992   5.021   2.264   1.848
 5365SOL     OW16993   3.237   3.027   6.223
 5365SOL    HW116994   3.145   2.993   6.203
 5365SOL    HW216995   3.233   3.090   6.301
 5366SOL     OW16996   6.864   4.144   3.882
 5366SOL    HW116997   6.946   4.088   3.895
 5366SOL    HW216998   6.889   4.241   3.888
 5367SOL     OW16999   6.462   5.309   0.866
 5367SOL    HW117000   6.547   5.339   0.909
 5367SOL    HW217001   6.384   5.342   0.920
 5368SOL     OW17002   0.118   5.893   4.711
 5368SOL    HW117003   0.088   5.830   4.640
 5368SOL    HW217004   0.073   5.981   4.699
 5369SOL     OW17005   3.688   0.927   2.336
 5369SOL    HW117006   3.619   0.990   2.373
 5369SOL    HW217007   3.701   0.851   2.400
 5370SOL     OW17008   2.543   2.274   0.158
 5370SOL    HW117009   2.553   2.218   0.076
 5370SOL    HW217010   2.469   2.238   0.214
 5371SOL     OW17011   6.429   5.237   2.985
 5371SOL    HW117012   6.519   5.198   3.003
 5371SOL    HW217013   6.363   5.200   3.051
 5372SOL     OW17014   0.870   1.011   3.979
 5372SOL    HW117015   0.816   1.003   3.895
 5372SOL    HW217016   0.967   1.018   3.956
 5373SOL     OW17017   4.245   6.958   0.988
 5373SOL    HW117018   4.297   6.930   1.069
 5373SOL    HW217019   4.276   6.906   0.909
 5374SOL     OW17020   1.750   3.519   1.224
 5374SOL    HW117021   1.796   3.504   1.137
 5374SOL    HW217022   1.687   3.597   1.215
 5375SOL     OW17023   2.975   4.890   5.042
 5375SOL    HW117024   2.978   4.914   5.139
 5375SOL    HW217025   2.914   4.812   5.028
 5376SOL     OW17026   6.534   6.559   2.334
 5376SOL    HW117027   6.509   6.495   2.261
 5376SOL    HW217028   6.458   6.623   2.350
 5377SOL     OW17029   0.749   3.016   1.211
 5377SOL    HW117030   0.758   2.924   1.173
 5377SOL    HW217031   0.691   3.071   1.150
 5378SOL     OW17032   4.650   0.487   4.653
 5378SOL    HW117033   4.618   0.524   4.566
 5378SOL    HW217034   4.620   0.392   4.661
 5379SOL     OW17035   3.408   2.064   4.425
 5379SOL    HW117036   3.488   2.019   4.384
 5379SOL    HW217037   3.433   2.100   4.515
 5380SOL     OW17038   4.570   6.888   1.692
 5380SOL    HW117039   4.641   6.958   1.679
 5380SOL    HW217040   4.482   6.933   1.704
 5381SOL     OW17041   2.730   2.111   2.529
 5381SOL    HW117042   2.694   2.202   2.506
 5381SOL    HW217043   2.748   2.060   2.444
 5382SOL     OW17044   3.992   0.004   2.714
 5382SOL    HW117045   3.910   0.032   2.664
 5382SOL    HW217046   3.992   6.925   2.725
 5383SOL     OW17047   2.099   4.490   5.635
 5383SOL    HW117048   2.188   4.534   5.645
 5383SOL    HW217049   2.052   4.528   5.555
 5384SOL     OW17050   4.894   6.317   5.835
 5384SOL    HW117051   4.855   6.284   5.748
 5384SOL    HW217052   4.922   6.412   5.825
 5385SOL     OW17053   3.746   3.964   0.733
 5385SOL    HW117054   3.769   3.934   0.641
 5385SOL    HW217055   3.814   3.930   0.798
 5386SOL     OW17056   3.816   5.546   2.771
 5386SOL    HW117057   3.816   5.446   2.764
 5386SOL    HW217058   3.740   5.583   2.718
 5387SOL     OW17059   0.845   2.375   5.395
 5387SOL    HW117060   0.864   2.277   5.390
 5387SOL    HW217061   0.827   2.410   5.303
 5388SOL     OW17062   6.763   6.377   3.140
 5388SOL    HW117063   6.831   6.368   3.067
 5388SOL    HW217064   6.773   6.300   3.203
 5389SOL     OW17065   6.864   1.808   4.512
 5389SOL    HW117066   6.906   1.895   4.539
 5389SOL    HW217067   6.901   1.779   4.424
 5390SOL     OW17068   5.855   2.251   3.280
 5390SOL    HW117069   5.847   2.270   3.182
 5390SOL    HW217070   5.924   2.181   3.295
 5391SOL     OW17071   4.864   3.364   0.631
 5391SOL    HW117072   4.819   3.378   0.718
 5391SOL    HW217073   4.850   3.270   0.601
 5392SOL     OW17074   5.148   1.292   3.781
 5392SOL    HW117075   5.062   1.318   3.825
 5392SOL    HW217076   5.193   1.222   3.836
 5393SOL     OW17077   4.756   2.850   2.734
 5393SOL    HW117078   4.732   2.940   2.698
 5393SOL    HW217079   4.741   2.848   2.833
 5394SOL     OW17080   0.595   3.550   3.485
 5394SOL    HW117081   0.569   3.518   3.576
 5394SOL    HW217082   0.607   3.472   3.424
 5395SOL     OW17083   0.517   0.257   1.472
 5395SOL    HW117084   0.429   0.294   1.502
 5395SOL    HW217085   0.583   0.332   1.462
 5396SOL     OW17086   3.436   2.536   0.125
 5396SOL    HW117087   3.455   2.504   0.218
 5396SOL    HW217088   3.401   2.461   0.070
 5397SOL     OW17089   0.413   6.812   3.077
 5397SOL    HW117090   0.460   6.775   2.997
 5397SOL    HW217091   0.474   6.806   3.157
 5398SOL     OW17092   6.052   2.462   3.474
 5398SOL    HW117093   6.015   2.481   3.384
 5398SOL    HW217094   6.121   2.531   3.497
 5399SOL     OW17095   2.891   2.553   0.038
 5399SOL    HW117096   2.949   2.475   0.018
 5399SOL    HW217097   2.876   2.559   0.137
 5400SOL     OW17098   4.406   2.985   0.973
 5400SOL    HW117099   4.478   2.920   0.995
 5400SOL    HW217100   4.325   2.936   0.942
 5401SOL     OW17101   4.958   3.955   1.530
 5401SOL    HW117102   4.964   4.008   1.446
 5401SOL    HW217103   4.893   3.880   1.518
 5402SOL     OW17104   2.317   5.438   1.325
 5402SOL    HW117105   2.408   5.409   1.296
 5402SOL    HW217106   2.252   5.363   1.308
 5403SOL     OW17107   6.312   2.749   5.531
 5403SOL    HW117108   6.407   2.773   5.515
 5403SOL    HW217109   6.307   2.668   5.590
 5404SOL     OW17110   4.525   6.516   6.889
 5404SOL    HW117111   4.509   6.593   6.828
 5404SOL    HW217112   4.453   6.512   6.959
 5405SOL     OW17113   6.058   5.383   6.212
 5405SOL    HW117114   6.047   5.419   6.119
 5405SOL    HW217115   6.155   5.368   6.231
 5406SOL     OW17116   2.086   1.425   5.175
 5406SOL    HW117117   2.043   1.334   5.181
 5406SOL    HW217118   2.136   1.444   5.260
 5407SOL     OW17119   1.927   1.939   2.616
 5407SOL    HW117120   1.987   1.896   2.548
 5407SOL    HW217121   1.848   1.881   2.632
 5408SOL     OW17122   2.574   2.236   4.122
 5408SOL    HW117123   2.642   2.194   4.181
 5408SOL    HW217124   2.490   2.252   4.174
 5409SOL     OW17125   0.248   4.455   3.553
 5409SOL    HW117126   0.148   4.446   3.551
 5409SOL    HW217127   0.273   4.551   3.544
 5410SOL     OW17128   6.163   1.322   0.114
 5410SOL    HW117129   6.201   1.414   0.099
 5410SOL    HW217130   6.185   1.293   0.207
 5411SOL     OW17131   2.989   6.533   2.123
 5411SOL    HW117132   3.009   6.529   2.026
 5411SOL    HW217133   2.932   6.613   2.143
 5412SOL     OW17134   2.587   2.478   5.618
 5412SOL    HW117135   2.582   2.389   5.572
 5412SOL    HW217136   2.517   2.483   5.689
 5413SOL     OW17137   6.877   5.201   5.426
 5413SOL    HW117138   6.898   5.153   5.341
 5413SOL    HW217139   6.822   5.143   5.485
 5414SOL     OW17140   6.219   5.916   5.821
 5414SOL    HW117141   6.292   5.876   5.766
 5414SOL    HW217142   6.131   5.881   5.789
 5415SOL     OW17143   2.461   0.129   6.780
 5415SOL    HW117144   2.406   0.213   6.783
 5415SOL    HW217145   2.535   0.136   6.846
 5416SOL     OW17146   4.308   5.029   5.972
 5416SOL    HW117147   4.225   4.975   5.971
 5416SOL    HW217148   4.300   5.102   6.041
 5417SOL     OW17149   5.042   0.321   2.487
 5417SOL    HW117150   5.113   0.305   2.418
 5417SOL    HW217151   4.991   0.404   2.463
 5418SOL     OW17152   0.124   3.017   6.232
 5418SOL    HW117153   0.174   2.955   6.172
 5418SOL    HW217154   0.030   2.985   6.243
 5419SOL     OW17155   4.274   2.491   6.000
 5419SOL    HW117156   4.340   2.418   6.014
 5419SOL    HW217157   4.203   2.459   5.936
 5420SOL     OW17158   1.478   1.945   1.145
 5420SOL    HW117159   1.518   1.865   1.190
 5420SOL    HW217160   1.391   1.919   1.103
 5421SOL     OW17161   3.565   5.528   1.086
 5421SOL    HW117162   3.563   5.605   1.022
 5421SOL    HW217163   3.599   5.560   1.175
 5422SOL     OW17164   2.206   6.827   3.141
 5422SOL    HW117165   2.260   6.862   3.217
 5422SOL    HW217166   2.115   6.803   3.172
 5423SOL     OW17167   4.118   6.204   2.916
 5423SOL    HW117168   4.132   6.290   2.868
 5423SOL    HW217169   4.205   6.171   2.953
 5424SOL     OW17170   4.457   3.102   5.682
 5424SOL    HW117171   4.450   3.147   5.771
 5424SOL    HW217172   4.377   3.123   5.627
 5425SOL     OW17173   1.941   5.916   4.317
 5425SOL    HW117174   1.943   6.007   4.358
 5425SOL    HW217175   2.035   5.884   4.303
 5426SOL     OW17176   1.660   3.903   6.936
 5426SOL    HW117177   1.655   3.892   0.015
 5426SOL    HW217178   1.650   3.814   6.893
 5427SOL     OW17179   4.811   1.609   0.157
 5427SOL    HW117180   4.886   1.650   0.106
 5427SOL    HW217181   4.753   1.556   0.094
 5428SOL     OW17182   5.086   5.657   2.416
 5428SOL    HW117183   5.120   5.571   2.455
 5428SOL    HW217184   5.162   5.710   2.380
 5429SOL     OW17185   2.673   6.448   3.078
 5429SOL    HW117186   2.694   6.351   3.066
 5429SOL    HW217187   2.596   6.473   3.019
 5430SOL     OW17188   1.095   3.610   5.586
 5430SOL    HW117189   1.000   3.635   5.604
 5430SOL    HW217190   1.124   3.650   5.498
 5431SOL     OW17191   5.167   4.209   1.135
 5431SOL    HW117192   5.113   4.287   1.167
 5431SOL    HW217193   5.219   4.235   1.054
 5432SOL     OW17194   1.740   5.198   5.631
 5432SOL    HW117195   1.720   5.150   5.546
 5432SOL    HW217196   1.655   5.230   5.672
 5433SOL     OW17197   3.472   0.175   2.149
 5433SOL    HW117198   3.417   0.203   2.070
 5433SOL    HW217199   3.568   0.172   2.123
 5434SOL     OW17200   5.028   6.258   4.004
 5434SOL    HW117201   5.046   6.288   3.910
 5434SOL    HW217202   5.066   6.324   4.068
 5435SOL     OW17203   1.075   3.074   0.036
 5435SOL    HW117204   1.165   3.044   0.005
 5435SOL    HW217205   1.007   3.003   0.016
 5436SOL     OW17206   1.284   4.365   1.027
 5436SOL    HW117207   1.253   4.362   0.932
 5436SOL    HW217208   1.376   4.404   1.032
 5437SOL     OW17209   2.949   6.827   5.456
 5437SOL    HW117210   2.897   6.774   5.522
 5437SOL    HW217211   2.905   6.916   5.443
 5438SOL     OW17212   4.473   6.830   3.712
 5438SOL    HW117213   4.431   6.740   3.704
 5438SOL    HW217214   4.403   6.898   3.734
 5439SOL     OW17215   1.230   3.876   2.200
 5439SOL    HW117216   1.159   3.814   2.233
 5439SOL    HW217217   1.304   3.823   2.159
 5440SOL     OW17218   4.994   6.419   3.076
 5440SOL    HW117219   5.082   6.408   3.031
 5440SOL    HW217220   4.970   6.517   3.078
 5441SOL     OW17221   5.972   0.194   5.095
 5441SOL    HW117222   5.917   0.229   5.171
 5441SOL    HW217223   5.967   0.258   5.018
 5442SOL     OW17224   2.553   5.882   0.197
 5442SOL    HW117225   2.598   5.970   0.210
 5442SOL    HW217226   2.603   5.829   0.128
 5443SOL     OW17227   5.964   1.170   3.131
 5443SOL    HW117228   6.037   1.186   3.198
 5443SOL    HW217229   5.905   1.096   3.165
 5444SOL     OW17230   2.139   1.623   6.077
 5444SOL    HW117231   2.142   1.711   6.124
 5444SOL    HW217232   2.047   1.584   6.086
 5445SOL     OW17233   6.861   5.980   5.390
 5445SOL    HW117234   6.923   6.002   5.465
 5445SOL    HW217235   6.888   5.893   5.349
 5446SOL     OW17236   2.193   4.013   0.001
 5446SOL    HW117237   2.222   3.975   6.934
 5446SOL    HW217238   2.124   4.084   7.007
 5447SOL     OW17239   5.376   2.658   1.618
 5447SOL    HW117240   5.396   2.755   1.634
 5447SOL    HW217241   5.404   2.604   1.697
 5448SOL     OW17242   6.165   6.115   1.036
 5448SOL    HW117243   6.230   6.110   0.960
 5448SOL    HW217244   6.073   6.133   1.000
 5449SOL     OW17245   2.103   6.983   2.518
 5449SOL    HW117246   2.098   6.892   2.557
 5449SOL    HW217247   2.179   6.987   2.453
 5450SOL     OW17248   4.274   4.646   1.860
 5450SOL    HW117249   4.303   4.702   1.783
 5450SOL    HW217250   4.243   4.557   1.827
 5451SOL     OW17251   0.279   5.672   3.415
 5451SOL    HW117252   0.222   5.597   3.379
 5451SOL    HW217253   0.223   5.754   3.425
 5452SOL     OW17254   2.298   4.121   3.449
 5452SOL    HW117255   2.259   4.029   3.441
 5452SOL    HW217256   2.262   4.179   3.376
 5453SOL     OW17257   6.000   5.149   4.700
 5453SOL    HW117258   5.992   5.203   4.616
 5453SOL    HW217259   6.064   5.074   4.685
 5454SOL     OW17260   6.296   3.929   2.047
 5454SOL    HW117261   6.330   3.838   2.025
 5454SOL    HW217262   6.253   3.927   2.138
 5455SOL     OW17263   1.842   2.051   2.976
 5455SOL    HW117264   1.822   2.060   2.878
 5455SOL    HW217265   1.767   2.003   3.021
 5456SOL     OW17266   5.966   2.986   0.034
 5456SOL    HW117267   5.966   3.084   0.013
 5456SOL    HW217268   6.041   2.941   7.006
 5457SOL     OW17269   6.184   0.669   0.666
 5457SOL    HW117270   6.170   0.610   0.745
 5457SOL    HW217271   6.133   0.633   0.587
 5458SOL     OW17272   5.989   4.358   6.435
 5458SOL    HW117273   5.969   4.292   6.362
 5458SOL    HW217274   5.967   4.450   6.403
 5459SOL     OW17275   1.926   3.669   5.377
 5459SOL    HW117276   1.848   3.647   5.319
 5459SOL    HW217277   1.998   3.601   5.362
 5460SOL     OW17278   6.734   1.583   1.101
 5460SOL    HW117279   6.658   1.633   1.060
 5460SOL    HW217280   6.744   1.609   1.197
 5461SOL     OW17281   5.587   0.409   5.690
 5461SOL    HW117282   5.563   0.491   5.743
 5461SOL    HW217283   5.616   0.337   5.753
 5462SOL     OW17284   5.720   5.163   0.561
 5462SOL    HW117285   5.640   5.127   0.514
 5462SOL    HW217286   5.769   5.087   0.605
 5463SOL     OW17287   3.290   4.803   0.116
 5463SOL    HW117288   3.298   4.721   0.172
 5463SOL    HW217289   3.252   4.877   0.171
 5464SOL     OW17290   2.506   5.604   4.145
 5464SOL    HW117291   2.419   5.589   4.099
 5464SOL    HW217292   2.570   5.531   4.122
 5465SOL     OW17293   0.565   1.455   4.582
 5465SOL    HW117294   0.481   1.489   4.624
 5465SOL    HW217295   0.556   1.357   4.566
 5466SOL     OW17296   5.356   2.262   4.794
 5466SOL    HW117297   5.281   2.204   4.826
 5466SOL    HW217298   5.330   2.358   4.799
 5467SOL     OW17299   4.696   4.786   3.290
 5467SOL    HW117300   4.637   4.848   3.238
 5467SOL    HW217301   4.749   4.730   3.227
 5468SOL     OW17302   0.085   2.736   1.655
 5468SOL    HW117303   0.173   2.772   1.686
 5468SOL    HW217304   0.101   2.659   1.594
 5469SOL     OW17305   4.629   0.646   3.049
 5469SOL    HW117306   4.605   0.593   3.130
 5469SOL    HW217307   4.547   0.693   3.015
 5470SOL     OW17308   2.451   4.573   3.256
 5470SOL    HW117309   2.415   4.481   3.239
 5470SOL    HW217310   2.376   4.633   3.285
 5471SOL     OW17311   5.524   0.725   3.997
 5471SOL    HW117312   5.521   0.627   3.978
 5471SOL    HW217313   5.561   0.773   3.918
 5472SOL     OW17314   2.554   4.826   0.731
 5472SOL    HW117315   2.557   4.789   0.638
 5472SOL    HW217316   2.575   4.753   0.796
 5473SOL     OW17317   3.029   4.798   2.017
 5473SOL    HW117318   2.963   4.724   2.018
 5473SOL    HW217319   3.101   4.779   1.950
 5474SOL     OW17320   1.288   5.448   1.856
 5474SOL    HW117321   1.262   5.483   1.946
 5474SOL    HW217322   1.388   5.445   1.850
 5475SOL     OW17323   0.223   1.243   5.444
 5475SOL    HW117324   0.251   1.150   5.469
 5475SOL    HW217325   0.300   1.306   5.457
 5476SOL     OW17326   3.218   1.452   4.332
 5476SOL    HW117327   3.215   1.552   4.344
 5476SOL    HW217328   3.176   1.409   4.412
 5477SOL     OW17329   2.039   4.244   2.881
 5477SOL    HW117330   1.958   4.205   2.924
 5477SOL    HW217331   2.105   4.172   2.860
 5478SOL     OW17332   6.676   3.134   5.607
 5478SOL    HW117333   6.729   3.051   5.623
 5478SOL    HW217334   6.593   3.131   5.663
 5479SOL     OW17335   5.161   3.982   5.030
 5479SOL    HW117336   5.183   3.997   5.126
 5479SOL    HW217337   5.066   4.008   5.013
 5480SOL     OW17338   2.484   2.295   6.116
 5480SOL    HW117339   2.497   2.375   6.175
 5480SOL    HW217340   2.448   2.219   6.170
 5481SOL     OW17341   3.665   0.558   0.958
 5481SOL    HW117342   3.712   0.480   0.998
 5481SOL    HW217343   3.719   0.641   0.972
 5482SOL     OW17344   5.240   4.577   2.340
 5482SOL    HW117345   5.290   4.514   2.280
 5482SOL    HW217346   5.228   4.664   2.293
 5483SOL     OW17347   5.994   1.723   0.623
 5483SOL    HW117348   5.940   1.807   0.612
 5483SOL    HW217349   6.081   1.745   0.667
 5484SOL     OW17350   6.159   0.213   5.812
 5484SOL    HW117351   6.070   0.211   5.765
 5484SOL    HW217352   6.231   0.189   5.748
 5485SOL     OW17353   2.569   1.349   3.842
 5485SOL    HW117354   2.509   1.417   3.884
 5485SOL    HW217355   2.647   1.331   3.902
 5486SOL     OW17356   6.659   1.087   3.545
 5486SOL    HW117357   6.621   1.150   3.613
 5486SOL    HW217358   6.684   1.001   3.590
 5487SOL     OW17359   4.213   5.769   1.446
 5487SOL    HW117360   4.124   5.814   1.442
 5487SOL    HW217361   4.286   5.837   1.437
 5488SOL     OW17362   4.658   6.809   6.382
 5488SOL    HW117363   4.596   6.739   6.346
 5488SOL    HW217364   4.637   6.826   6.478
 5489SOL     OW17365   6.362   3.442   2.685
 5489SOL    HW117366   6.265   3.417   2.691
 5489SOL    HW217367   6.415   3.361   2.660
 5490SOL     OW17368   2.994   1.171   6.807
 5490SOL    HW117369   3.032   1.151   6.717
 5490SOL    HW217370   3.033   1.109   6.875
 5491SOL     OW17371   5.935   6.573   1.829
 5491SOL    HW117372   5.876   6.556   1.749
 5491SOL    HW217373   6.012   6.630   1.801
 5492SOL     OW17374   1.656   0.993   5.202
 5492SOL    HW117375   1.639   1.092   5.198
 5492SOL    HW217376   1.654   0.956   5.109
 5493SOL     OW17377   3.988   1.216   0.058
 5493SOL    HW117378   4.083   1.192   0.035
 5493SOL    HW217379   3.931   1.134   0.054
 5494SOL     OW17380   5.513   3.127   2.444
 5494SOL    HW117381   5.558   3.085   2.523
 5494SOL    HW217382   5.580   3.178   2.389
 5495SOL     OW17383   3.534   3.324   4.987
 5495SOL    HW117384   3.531   3.403   4.925
 5495SOL    HW217385   3.491   3.246   4.942
 5496SOL     OW17386   4.392   4.810   2.116
 5496SOL    HW117387   4.453   4.739   2.081
 5496SOL    HW217388   4.327   4.836   2.045
 5497SOL     OW17389   5.690   6.632   0.222
 5497SOL    HW117390   5.612   6.693   0.229
 5497SOL    HW217391   5.750   6.645   0.302
 5498SOL     OW17392   3.859   1.027   3.892
 5498SOL    HW117393   3.957   1.016   3.875
 5498SOL    HW217394   3.817   1.081   3.819
 5499SOL     OW17395   0.744   0.466   4.940
 5499SOL    HW117396   0.697   0.460   5.028
 5499SOL    HW217397   0.761   0.373   4.905
 5500SOL     OW17398   1.550   6.185   0.641
 5500SOL    HW117399   1.543   6.106   0.580
 5500SOL    HW217400   1.618   6.166   0.712
 5501SOL     OW17401   2.137   1.413   2.225
 5501SOL    HW117402   2.194   1.339   2.188
 5501SOL    HW217403   2.055   1.423   2.169
 5502SOL     OW17404   5.536   4.699   0.761
 5502SOL    HW117405   5.480   4.778   0.736
 5502SOL    HW217406   5.621   4.699   0.707
 5503SOL     OW17407   6.779   0.893   4.113
 5503SOL    HW117408   6.785   0.986   4.150
 5503SOL    HW217409   6.685   0.872   4.089
 5504SOL     OW17410   2.225   2.166   4.762
 5504SOL    HW117411   2.226   2.070   4.734
 5504SOL    HW217412   2.291   2.179   4.836
 5505SOL     OW17413   3.751   5.459   0.509
 5505SOL    HW117414   3.748   5.556   0.533
 5505SOL    HW217415   3.830   5.416   0.553
 5506SOL     OW17416   1.077   6.588   5.009
 5506SOL    HW117417   1.089   6.542   4.921
 5506SOL    HW217418   1.161   6.581   5.062
 5507SOL     OW17419   2.333   5.370   5.128
 5507SOL    HW117420   2.307   5.426   5.049
 5507SOL    HW217421   2.362   5.280   5.096
 5508SOL     OW17422   2.709   1.363   5.676
 5508SOL    HW117423   2.784   1.424   5.650
 5508SOL    HW217424   2.674   1.316   5.595
 5509SOL     OW17425   6.770   0.137   6.079
 5509SOL    HW117426   6.728   0.148   5.989
 5509SOL    HW217427   6.723   0.063   6.128
 5510SOL     OW17428   0.850   0.579   5.390
 5510SOL    HW117429   0.782   0.579   5.463
 5510SOL    HW217430   0.844   0.664   5.337
 5511SOL     OW17431   0.542   2.512   0.819
 5511SOL    HW117432   0.512   2.465   0.736
 5511SOL    HW217433   0.473   2.501   0.891
 5512SOL     OW17434   6.734   6.434   0.254
 5512SOL    HW117435   6.665   6.505   0.239
 5512SOL    HW217436   6.801   6.436   0.180
 5513SOL     OW17437   2.536   6.409   4.691
 5513SOL    HW117438   2.454   6.356   4.715
 5513SOL    HW217439   2.510   6.501   4.663
 5514SOL     OW17440   5.411   5.720   3.650
 5514SOL    HW117441   5.352   5.734   3.570
 5514SOL    HW217442   5.382   5.781   3.724
 5515SOL     OW17443   1.081   4.227   3.719
 5515SOL    HW117444   1.018   4.149   3.711
 5515SOL    HW217445   1.144   4.227   3.641
 5516SOL     OW17446   2.241   2.826   0.028
 5516SOL    HW117447   2.268   2.920   0.008
 5516SOL    HW217448   2.210   2.820   0.123
 5517SOL     OW17449   3.024   0.660   2.403
 5517SOL    HW117450   2.932   0.623   2.393
 5517SOL    HW217451   3.021   0.760   2.392
 5518SOL     OW17452   5.525   3.808   6.231
 5518SOL    HW117453   5.555   3.860   6.311
 5518SOL    HW217454   5.482   3.870   6.165
 5519SOL     OW17455   5.128   3.965   2.238
 5519SOL    HW117456   5.173   3.905   2.305
 5519SOL    HW217457   5.029   3.956   2.246
 5520SOL     OW17458   1.587   2.854   1.042
 5520SOL    HW117459   1.522   2.781   1.026
 5520SOL    HW217460   1.539   2.942   1.040
 5521SOL     OW17461   5.348   4.383   6.487
 5521SOL    HW117462   5.250   4.394   6.475
 5521SOL    HW217463   5.388   4.468   6.522
 5522SOL     OW17464   1.790   2.996   1.450
 5522SOL    HW117465   1.768   2.901   1.428
 5522SOL    HW217466   1.710   3.040   1.491
 5523SOL     OW17467   2.330   6.834   1.536
 5523SOL    HW117468   2.373   6.747   1.562
 5523SOL    HW217469   2.361   6.860   1.445
 5524SOL     OW17470   6.092   6.395   5.788
 5524SOL    HW117471   6.079   6.441   5.876
 5524SOL    HW217472   6.186   6.409   5.756
 5525SOL     OW17473   6.501   6.419   3.112
 5525SOL    HW117474   6.597   6.394   3.124
 5525SOL    HW217475   6.482   6.433   3.014
 5526SOL     OW17476   5.506   3.878   4.648
 5526SOL    HW117477   5.407   3.869   4.632
 5526SOL    HW217478   5.537   3.802   4.706
 5527SOL     OW17479   3.426   2.993   0.155
 5527SOL    HW117480   3.502   3.041   0.112
 5527SOL    HW217481   3.385   3.051   0.225
 5528SOL     OW17482   6.098   2.978   2.574
 5528SOL    HW117483   6.105   2.983   2.474
 5528SOL    HW217484   6.003   2.992   2.602
 5529SOL     OW17485   1.223   0.981   4.418
 5529SOL    HW117486   1.175   0.897   4.393
 5529SOL    HW217487   1.176   1.060   4.379
 5530SOL     OW17488   0.057   3.030   6.955
 5530SOL    HW117489   6.997   3.024   7.013
 5530SOL    HW217490   0.060   3.119   6.910
 5531SOL     OW17491   3.022   2.889   0.808
 5531SOL    HW117492   2.927   2.861   0.820
 5531SOL    HW217493   3.052   2.940   0.889
 5532SOL     OW17494   2.183   2.879   1.804
 5532SOL    HW117495   2.143   2.793   1.773
 5532SOL    HW217496   2.167   2.950   1.736
 5533SOL     OW17497   2.953   0.456   1.015
 5533SOL    HW117498   3.037   0.417   0.979
 5533SOL    HW217499   2.959   0.465   1.114
 5534SOL     OW17500   0.866   3.444   5.395
 5534SOL    HW117501   0.812   3.523   5.423
 5534SOL    HW217502   0.962   3.472   5.382
 5535SOL     OW17503   4.955   4.980   3.536
 5535SOL    HW117504   4.868   4.930   3.544
 5535SOL    HW217505   4.970   5.005   3.440
 5536SOL     OW17506   2.369   1.593   4.583
 5536SOL    HW117507   2.362   1.647   4.499
 5536SOL    HW217508   2.278   1.564   4.612
 5537SOL     OW17509   3.891   1.745   3.617
 5537SOL    HW117510   3.951   1.690   3.674
 5537SOL    HW217511   3.869   1.830   3.664
 5538SOL     OW17512   4.732   2.233   2.559
 5538SOL    HW117513   4.785   2.277   2.486
 5538SOL    HW217514   4.637   2.265   2.553
 5539SOL     OW17515   1.187   0.661   6.233
 5539SOL    HW117516   1.188   0.722   6.153
 5539SOL    HW217517   1.281   0.636   6.256
 5540SOL     OW17518   4.890   0.072   5.397
 5540SOL    HW117519   4.946   0.019   5.462
 5540SOL    HW217520   4.929   0.163   5.386
 5541SOL     OW17521   4.730   2.871   5.433
 5541SOL    HW117522   4.828   2.858   5.446
 5541SOL    HW217523   4.682   2.848   5.518
 5542SOL     OW17524   5.027   4.390   0.131
 5542SOL    HW117525   5.045   4.486   0.148
 5542SOL    HW217526   5.107   4.335   0.157
 5543SOL     OW17527   0.346   0.494   5.919
 5543SOL    HW117528   0.356   0.467   6.015
 5543SOL    HW217529   0.293   0.424   5.870
 5544SOL     OW17530   3.944   5.001   6.919
 5544SOL    HW117531   4.006   5.061   6.970
 5544SOL    HW217532   3.965   4.906   6.940
 5545SOL     OW17533   5.373   1.980   3.154
 5545SOL    HW117534   5.417   2.002   3.241
 5545SOL    HW217535   5.379   1.882   3.137
 5546SOL     OW17536   0.761   6.197   4.339
 5546SOL    HW117537   0.857   6.215   4.318
 5546SOL    HW217538   0.703   6.240   4.270
 5547SOL     OW17539   4.942   1.437   4.622
 5547SOL    HW117540   5.031   1.400   4.595
 5547SOL    HW217541   4.941   1.452   4.721
 5548SOL     OW17542   0.988   3.793   4.796
 5548SOL    HW117543   0.992   3.724   4.868
 5548SOL    HW217544   1.016   3.752   4.709
 5549SOL     OW17545   4.327   3.336   0.267
 5549SOL    HW117546   4.282   3.253   0.234
 5549SOL    HW217547   4.307   3.412   0.205
 5550SOL     OW17548   3.167   3.880   1.429
 5550SOL    HW117549   3.261   3.846   1.419
 5550SOL    HW217550   3.129   3.899   1.339
 5551SOL     OW17551   1.266   4.393   2.421
 5551SOL    HW117552   1.253   4.304   2.464
 5551SOL    HW217553   1.187   4.452   2.442
 5552SOL     OW17554   0.643   0.609   0.724
 5552SOL    HW117555   0.679   0.624   0.632
 5552SOL    HW217556   0.685   0.674   0.788
 5553SOL     OW17557   6.095   5.840   1.074
 5553SOL    HW117558   6.120   5.792   0.990
 5553SOL    HW217559   6.137   5.931   1.074
 5554SOL     OW17560   0.021   2.392   1.914
 5554SOL    HW117561   0.062   2.480   1.936
 5554SOL    HW217562   0.075   2.319   1.956
 5555SOL     OW17563   1.045   4.662   1.795
 5555SOL    HW117564   1.058   4.614   1.881
 5555SOL    HW217565   1.005   4.752   1.813
 5556SOL     OW17566   6.670   1.786   4.994
 5556SOL    HW117567   6.592   1.828   5.041
 5556SOL    HW217568   6.681   1.827   4.904
 5557SOL     OW17569   3.389   6.946   2.845
 5557SOL    HW117570   3.364   6.954   2.748
 5557SOL    HW217571   3.486   6.967   2.855
 5558SOL     OW17572   3.779   3.486   6.154
 5558SOL    HW117573   3.814   3.567   6.201
 5558SOL    HW217574   3.780   3.501   6.056
 5559SOL     OW17575   3.361   0.816   2.962
 5559SOL    HW117576   3.430   0.763   2.912
 5559SOL    HW217577   3.405   0.861   3.040
 5560SOL     OW17578   0.163   5.176   3.256
 5560SOL    HW117579   0.127   5.158   3.164
 5560SOL    HW217580   0.170   5.275   3.270
 5561SOL     OW17581   3.010   0.824   3.611
 5561SOL    HW117582   2.945   0.806   3.537
 5561SOL    HW217583   3.017   0.922   3.627
 5562SOL     OW17584   5.007   3.082   0.857
 5562SOL    HW117585   5.062   3.005   0.826
 5562SOL    HW217586   4.910   3.062   0.840
 5563SOL     OW17587   1.778   4.182   2.225
 5563SOL    HW117588   1.789   4.254   2.156
 5563SOL    HW217589   1.860   4.125   2.227
 5564SOL     OW17590   4.325   6.966   0.009
 5564SOL    HW117591   4.304   7.019   6.948
 5564SOL    HW217592   4.241   6.952   0.062
 5565SOL     OW17593   3.020   1.726   6.448
 5565SOL    HW117594   3.015   1.776   6.362
 5565SOL    HW217595   2.956   1.650   6.447
 5566SOL     OW17596   1.392   5.423   5.316
 5566SOL    HW117597   1.382   5.515   5.278
 5566SOL    HW217598   1.487   5.410   5.345
 5567SOL     OW17599   1.351   5.409   6.681
 5567SOL    HW117600   1.382   5.469   6.606
 5567SOL    HW217601   1.406   5.426   6.762
 5568SOL     OW17602   5.033   5.504   1.993
 5568SOL    HW117603   4.957   5.448   2.026
 5568SOL    HW217604   5.108   5.501   2.060
 5569SOL     OW17605   1.586   2.333   2.755
 5569SOL    HW117606   1.652   2.258   2.747
 5569SOL    HW217607   1.626   2.406   2.811
 5570SOL     OW17608   0.360   3.238   0.996
 5570SOL    HW117609   0.341   3.334   1.013
 5570SOL    HW217610   0.278   3.192   0.962
 5571SOL     OW17611   6.641   4.535   6.647
 5571SOL    HW117612   6.631   4.628   6.613
 5571SOL    HW217613   6.603   4.471   6.580
 5572SOL     OW17614   1.282   4.624   5.578
 5572SOL    HW117615   1.252   4.565   5.503
 5572SOL    HW217616   1.213   4.624   5.650
 5573SOL     OW17617   3.050   4.830   3.153
 5573SOL    HW117618   3.055   4.888   3.234
 5573SOL    HW217619   3.135   4.839   3.101
 5574SOL     OW17620   1.270   1.148   6.025
 5574SOL    HW117621   1.240   1.203   5.947
 5574SOL    HW217622   1.248   1.195   6.110
 5575SOL     OW17623   0.096   0.533   1.600
 5575SOL    HW117624   0.033   0.471   1.647
 5575SOL    HW217625   0.088   0.625   1.639
 5576SOL     OW17626   2.022   5.051   3.225
 5576SOL    HW117627   2.036   5.015   3.317
 5576SOL    HW217628   1.954   4.995   3.178
 5577SOL     OW17629   3.379   2.213   6.369
 5577SOL    HW117630   3.428   2.299   6.379
 5577SOL    HW217631   3.360   2.174   6.460
 5578SOL     OW17632   3.724   3.937   3.733
 5578SOL    HW117633   3.664   4.015   3.751
 5578SOL    HW217634   3.781   3.918   3.813
 5579SOL     OW17635   6.003   2.880   1.593
 5579SOL    HW117636   6.093   2.907   1.625
 5579SOL    HW217637   5.974   2.798   1.642
 5580SOL     OW17638   5.704   1.844   6.346
 5580SOL    HW117639   5.689   1.770   6.280
 5580SOL    HW217640   5.733   1.806   6.434
 5581SOL     OW17641   1.626   0.913   5.499
 5581SOL    HW117642   1.654   0.923   5.403
 5581SOL    HW217643   1.591   1.001   5.532
 5582SOL     OW17644   2.613   2.909   5.963
 5582SOL    HW117645   2.575   2.860   5.884
 5582SOL    HW217646   2.667   2.986   5.930
 5583SOL     OW17647   5.861   6.981   1.346
 5583SOL    HW117648   5.937   6.960   1.284
 5583SOL    HW217649   5.778   6.996   1.293
 5584SOL     OW17650   0.513   3.542   4.987
 5584SOL    HW117651   0.613   3.539   4.990
 5584SOL    HW217652   0.484   3.595   4.907
 5585SOL     OW17653   6.117   5.065   1.327
 5585SOL    HW117654   6.024   5.083   1.359
 5585SOL    HW217655   6.180   5.069   1.405
 5586SOL     OW17656   1.319   6.201   1.938
 5586SOL    HW117657   1.408   6.234   1.969
 5586SOL    HW217658   1.291   6.124   1.995
 5587SOL     OW17659   5.706   0.994   5.020
 5587SOL    HW117660   5.631   0.954   4.967
 5587SOL    HW217661   5.732   1.082   4.980
 5588SOL     OW17662   3.348   6.730   1.034
 5588SOL    HW117663   3.258   6.750   1.073
 5588SOL    HW217664   3.408   6.809   1.047
 5589SOL     OW17665   0.677   4.757   5.766
 5589SOL    HW117666   0.657   4.740   5.863
 5589SOL    HW217667   0.620   4.832   5.733
 5590SOL     OW17668   5.755   5.365   3.267
 5590SOL    HW117669   5.764   5.293   3.198
 5590SOL    HW217670   5.663   5.365   3.304
 5591SOL     OW17671   4.849   1.120   2.870
 5591SOL    HW117672   4.883   1.141   2.962
 5591SOL    HW217673   4.768   1.062   2.877
 5592SOL     OW17674   0.038   5.410   4.706
 5592SOL    HW117675   6.999   5.348   4.655
 5592SOL    HW217676   0.006   5.418   4.800
 5593SOL     OW17677   2.034   4.234   0.976
 5593SOL    HW117678   1.988   4.262   1.059
 5593SOL    HW217679   2.132   4.221   0.995
 5594SOL     OW17680   5.999   6.934   5.648
 5594SOL    HW117681   6.073   6.992   5.615
 5594SOL    HW217682   5.999   6.848   5.597
 5595SOL     OW17683   6.995   1.913   0.934
 5595SOL    HW117684   0.073   1.904   0.952
 5595SOL    HW217685   6.974   1.869   0.847
 5596SOL     OW17686   4.128   6.496   3.203
 5596SOL    HW117687   4.078   6.410   3.206
 5596SOL    HW217688   4.065   6.572   3.220
 5597SOL     OW17689   4.859   3.214   2.262
 5597SOL    HW117690   4.774   3.178   2.224
 5597SOL    HW217691   4.905   3.272   2.195
 5598SOL     OW17692   3.080   0.640   4.243
 5598SOL    HW117693   3.139   0.585   4.184
 5598SOL    HW217694   2.991   0.652   4.199
 5599SOL     OW17695   1.081   1.709   3.445
 5599SOL    HW117696   1.179   1.698   3.431
 5599SOL    HW217697   1.056   1.671   3.534
 5600SOL     OW17698   2.653   2.820   5.341
 5600SOL    HW117699   2.575   2.881   5.348
 5600SOL    HW217700   2.625   2.734   5.299
 5601SOL     OW17701   1.822   0.489   6.359
 5601SOL    HW117702   1.753   0.561   6.350
 5601SOL    HW217703   1.791   0.408   6.309
 5602SOL     OW17704   2.101   1.156   0.278
 5602SOL    HW117705   2.101   1.057   0.297
 5602SOL    HW217706   2.027   1.177   0.214
 5603SOL     OW17707   6.742   3.290   5.198
 5603SOL    HW117708   6.686   3.255   5.124
 5603SOL    HW217709   6.765   3.386   5.180
 5604SOL     OW17710   5.239   0.766   6.513
 5604SOL    HW117711   5.337   0.754   6.531
 5604SOL    HW217712   5.199   0.678   6.488
 5605SOL     OW17713   1.482   1.488   6.697
 5605SOL    HW117714   1.449   1.395   6.718
 5605SOL    HW217715   1.404   1.547   6.676
 5606SOL     OW17716   5.909   6.788   2.885
 5606SOL    HW117717   5.847   6.835   2.822
 5606SOL    HW217718   6.002   6.789   2.848
 5607SOL     OW17719   4.836   6.903   1.166
 5607SOL    HW117720   4.885   6.986   1.195
 5607SOL    HW217721   4.844   6.892   1.067
 5608SOL     OW17722   3.794   6.371   5.371
 5608SOL    HW117723   3.823   6.390   5.277
 5608SOL    HW217724   3.707   6.322   5.370
 5609SOL     OW17725   1.473   6.064   4.704
 5609SOL    HW117726   1.473   6.035   4.609
 5609SOL    HW217727   1.460   5.985   4.764
 5610SOL     OW17728   5.483   0.175   6.702
 5610SOL    HW117729   5.552   0.247   6.695
 5610SOL    HW217730   5.439   0.179   6.792
 5611SOL     OW17731   1.973   4.363   4.261
 5611SOL    HW117732   1.913   4.442   4.276
 5611SOL    HW217733   2.041   4.387   4.192
 5612SOL     OW17734   3.623   6.616   4.483
 5612SOL    HW117735   3.615   6.563   4.568
 5612SOL    HW217736   3.540   6.604   4.429
 5613SOL     OW17737   2.620   5.301   2.515
 5613SOL    HW117738   2.649   5.393   2.490
 5613SOL    HW217739   2.669   5.271   2.597
 5614SOL     OW17740   5.126   2.202   3.977
 5614SOL    HW117741   5.098   2.128   4.038
 5614SOL    HW217742   5.046   2.238   3.929
 5615SOL     OW17743   1.014   1.653   2.009
 5615SOL    HW117744   0.985   1.567   1.965
 5615SOL    HW217745   1.098   1.636   2.061
 5616SOL     OW17746   2.713   6.641   4.918
 5616SOL    HW117747   2.810   6.620   4.909
 5616SOL    HW217748   2.659   6.564   4.885
 5617SOL     OW17749   0.345   1.152   5.832
 5617SOL    HW117750   0.360   1.129   5.736
 5617SOL    HW217751   0.251   1.184   5.844
 5618SOL     OW17752   6.659   5.091   3.658
 5618SOL    HW117753   6.661   5.050   3.749
 5618SOL    HW217754   6.570   5.134   3.644
 5619SOL     OW17755   2.160   3.278   4.480
 5619SOL    HW117756   2.255   3.293   4.509
 5619SOL    HW217757   2.159   3.250   4.384
 5620SOL     OW17758   5.327   1.784   6.584
 5620SOL    HW117759   5.285   1.874   6.572
 5620SOL    HW217760   5.271   1.715   6.538
 5621SOL     OW17761   2.869   1.567   5.569
 5621SOL    HW117762   2.826   1.657   5.572
 5621SOL    HW217763   2.968   1.577   5.568
 5622SOL     OW17764   5.447   1.636   5.093
 5622SOL    HW117765   5.449   1.586   5.006
 5622SOL    HW217766   5.454   1.572   5.169
 5623SOL     OW17767   0.267   6.439   6.377
 5623SOL    HW117768   0.332   6.470   6.446
 5623SOL    HW217769   0.257   6.339   6.383
 5624SOL     OW17770   1.161   4.185   2.826
 5624SOL    HW117771   1.244   4.160   2.877
 5624SOL    HW217772   1.154   4.128   2.744
 5625SOL     OW17773   6.436   1.841   5.930
 5625SOL    HW117774   6.457   1.750   5.894
 5625SOL    HW217775   6.410   1.901   5.855
 5626SOL     OW17776   5.977   6.683   5.507
 5626SOL    HW117777   5.909   6.657   5.576
 5626SOL    HW217778   5.930   6.725   5.429
 5627SOL     OW17779   1.216   0.526   1.817
 5627SOL    HW117780   1.241   0.582   1.738
 5627SOL    HW217781   1.116   0.515   1.819
 5628SOL     OW17782   1.576   1.785   4.046
 5628SOL    HW117783   1.575   1.872   3.998
 5628SOL    HW217784   1.626   1.717   3.991
 5629SOL     OW17785   3.862   3.478   3.585
 5629SOL    HW117786   3.786   3.503   3.524
 5629SOL    HW217787   3.880   3.380   3.577
 5630SOL     OW17788   6.659   3.754   1.054
 5630SOL    HW117789   6.611   3.804   1.125
 5630SOL    HW217790   6.618   3.663   1.044
 5631SOL     OW17791   5.825   1.273   5.930
 5631SOL    HW117792   5.764   1.202   5.896
 5631SOL    HW217793   5.897   1.231   5.986
 5632SOL     OW17794   3.462   2.592   0.940
 5632SOL    HW117795   3.548   2.602   0.889
 5632SOL    HW217796   3.468   2.514   1.001
 5633SOL     OW17797   0.252   2.928   5.823
 5633SOL    HW117798   0.302   2.848   5.857
 5633SOL    HW217799   0.165   2.935   5.871
 5634SOL     OW17800   4.871   6.028   5.418
 5634SOL    HW117801   4.815   5.963   5.468
 5634SOL    HW217802   4.846   6.028   5.322
 5635SOL     OW17803   2.871   1.556   6.673
 5635SOL    HW117804   2.856   1.483   6.740
 5635SOL    HW217805   2.799   1.624   6.682
 5636SOL     OW17806   4.437   0.840   3.973
 5636SOL    HW117807   4.359   0.843   3.910
 5636SOL    HW217808   4.422   0.769   4.041
 5637SOL     OW17809   5.824   6.722   2.522
 5637SOL    HW117810   5.821   6.633   2.568
 5637SOL    HW217811   5.802   6.794   2.587
 5638SOL     OW17812   0.330   3.551   6.975
 5638SOL    HW117813   0.332   3.461   7.019
 5638SOL    HW217814   0.420   3.574   6.940
 5639SOL     OW17815   4.349   6.946   6.581
 5639SOL    HW117816   4.351   0.007   6.525
 5639SOL    HW217817   4.344   6.972   6.678
 5640SOL     OW17818   1.598   0.134   3.632
 5640SOL    HW117819   1.527   0.149   3.563
 5640SOL    HW217820   1.588   0.203   3.704
 5641SOL     OW17821   6.800   6.029   4.752
 5641SOL    HW117822   6.859   6.011   4.831
 5641SOL    HW217823   6.826   5.969   4.677
 5642SOL     OW17824   1.646   0.595   0.161
 5642SOL    HW117825   1.614   0.590   0.255
 5642SOL    HW217826   1.735   0.642   0.159
 5643SOL     OW17827   4.881   2.242   6.937
 5643SOL    HW117828   4.906   2.307   7.009
 5643SOL    HW217829   4.795   2.198   6.962
 5644SOL     OW17830   2.683   0.525   5.641
 5644SOL    HW117831   2.680   0.439   5.692
 5644SOL    HW217832   2.773   0.567   5.652
 5645SOL     OW17833   4.824   3.725   4.041
 5645SOL    HW117834   4.820   3.746   3.944
 5645SOL    HW217835   4.883   3.646   4.055
 5646SOL     OW17836   1.086   4.387   2.646
 5646SOL    HW117837   1.035   4.464   2.684
 5646SOL    HW217838   1.106   4.322   2.719
 5647SOL     OW17839   4.090   5.572   2.491
 5647SOL    HW117840   4.104   5.482   2.532
 5647SOL    HW217841   4.007   5.571   2.435
 5648SOL     OW17842   5.336   6.609   3.275
 5648SOL    HW117843   5.420   6.576   3.231
 5648SOL    HW217844   5.311   6.546   3.349
 5649SOL     OW17845   0.458   0.739   4.852
 5649SOL    HW117846   0.470   0.714   4.948
 5649SOL    HW217847   0.543   0.723   4.802
 5650SOL     OW17848   0.569   3.783   6.167
 5650SOL    HW117849   0.487   3.841   6.174
 5650SOL    HW217850   0.557   3.718   6.092
 5651SOL     OW17851   2.906   1.086   1.876
 5651SOL    HW117852   2.813   1.057   1.899
 5651SOL    HW217853   2.929   1.055   1.784
 5652SOL     OW17854   0.346   6.121   2.021
 5652SOL    HW117855   0.394   6.188   1.964
 5652SOL    HW217856   0.338   6.035   1.971
 5653SOL     OW17857   6.921   0.468   2.740
 5653SOL    HW117858   6.885   0.384   2.783
 5653SOL    HW217859   6.873   0.484   2.654
 5654SOL     OW17860   3.168   6.030   5.761
 5654SOL    HW117861   3.266   6.037   5.777
 5654SOL    HW217862   3.119   6.030   5.848
 5655SOL     OW17863   6.267   3.366   4.202
 5655SOL    HW117864   6.200   3.305   4.160
 5655SOL    HW217865   6.341   3.312   4.243
 5656SOL     OW17866   0.403   4.869   1.809
 5656SOL    HW117867   0.367   4.786   1.852
 5656SOL    HW217868   0.445   4.927   1.879
 5657SOL     OW17869   5.944   6.188   5.706
 5657SOL    HW117870   5.984   6.279   5.719
 5657SOL    HW217871   6.000   6.120   5.753
 5658SOL     OW17872   2.998   2.569   5.354
 5658SOL    HW117873   3.081   2.527   5.318
 5658SOL    HW217874   2.918   2.525   5.314
 5659SOL     OW17875   2.615   4.248   5.788
 5659SOL    HW117876   2.626   4.319   5.857
 5659SOL    HW217877   2.519   4.240   5.763
 5660SOL     OW17878   4.203   0.790   4.225
 5660SOL    HW117879   4.199   0.865   4.291
 5660SOL    HW217880   4.118   0.787   4.173
 5661SOL     OW17881   0.273   5.904   5.808
 5661SOL    HW117882   0.340   5.839   5.773
 5661SOL    HW217883   0.307   5.946   5.892
 5662SOL     OW17884   2.743   5.977   1.039
 5662SOL    HW117885   2.706   6.063   1.073
 5662SOL    HW217886   2.725   5.968   0.941
 5663SOL     OW17887   3.390   1.804   6.406
 5663SOL    HW117888   3.431   1.880   6.355
 5663SOL    HW217889   3.429   1.801   6.498
 5664SOL     OW17890   5.025   5.763   5.005
 5664SOL    HW117891   5.093   5.819   4.959
 5664SOL    HW217892   4.949   5.743   4.943
 5665SOL     OW17893   2.198   0.749   0.604
 5665SOL    HW117894   2.284   0.761   0.654
 5665SOL    HW217895   2.123   0.742   0.669
 5666SOL     OW17896   5.947   3.330   4.904
 5666SOL    HW117897   6.015   3.260   4.926
 5666SOL    HW217898   5.933   3.389   4.984
 5667SOL     OW17899   2.682   4.687   4.191
 5667SOL    HW117900   2.598   4.690   4.137
 5667SOL    HW217901   2.759   4.717   4.135
 5668SOL     OW17902   4.450   4.550   4.015
 5668SOL    HW117903   4.404   4.632   4.048
 5668SOL    HW217904   4.465   4.557   3.917
 5669SOL     OW17905   5.637   3.830   5.840
 5669SOL    HW117906   5.693   3.750   5.819
 5669SOL    HW217907   5.681   3.912   5.803
 5670SOL     OW17908   0.878   3.237   4.021
 5670SOL    HW117909   0.941   3.183   4.077
 5670SOL    HW217910   0.786   3.198   4.027
 5671SOL     OW17911   6.113   5.932   2.763
 5671SOL    HW117912   6.086   5.850   2.814
 5671SOL    HW217913   6.211   5.928   2.744
 5672SOL     OW17914   5.702   2.955   4.854
 5672SOL    HW117915   5.609   2.959   4.818
 5672SOL    HW217916   5.766   2.989   4.785
 5673SOL     OW17917   1.026   2.120   0.388
 5673SOL    HW117918   1.083   2.167   0.456
 5673SOL    HW217919   1.007   2.027   0.420
 5674SOL     OW17920   3.205   5.513   5.053
 5674SOL    HW117921   3.260   5.596   5.037
 5674SOL    HW217922   3.253   5.453   5.117
 5675SOL     OW17923   3.559   1.937   0.773
 5675SOL    HW117924   3.536   1.994   0.852
 5675SOL    HW217925   3.575   1.996   0.693
 5676SOL     OW17926   3.590   1.510   1.836
 5676SOL    HW117927   3.497   1.541   1.816
 5676SOL    HW217928   3.617   1.541   1.927
 5677SOL     OW17929   1.544   1.072   6.049
 5677SOL    HW117930   1.445   1.070   6.063
 5677SOL    HW217931   1.566   1.145   5.984
 5678SOL     OW17932   3.960   1.792   1.949
 5678SOL    HW117933   3.872   1.765   1.988
 5678SOL    HW217934   3.955   1.886   1.917
 5679SOL     OW17935   1.074   3.999   5.765
 5679SOL    HW117936   1.103   4.082   5.718
 5679SOL    HW217937   1.130   3.922   5.734
 5680SOL     OW17938   0.671   5.893   4.230
 5680SOL    HW117939   0.614   5.909   4.150
 5680SOL    HW217940   0.687   5.980   4.277
 5681SOL     OW17941   1.546   3.528   3.054
 5681SOL    HW117942   1.487   3.468   3.109
 5681SOL    HW217943   1.638   3.490   3.051
 5682SOL     OW17944   1.799   4.729   0.377
 5682SOL    HW117945   1.831   4.783   0.299
 5682SOL    HW217946   1.862   4.653   0.394
 5683SOL     OW17947   0.027   6.359   5.881
 5683SOL    HW117948   0.081   6.286   5.840
 5683SOL    HW217949   0.084   6.415   5.940
 5684SOL     OW17950   1.921   3.403   4.337
 5684SOL    HW117951   1.829   3.425   4.369
 5684SOL    HW217952   1.944   3.309   4.364
 5685SOL     OW17953   1.984   2.271   1.586
 5685SOL    HW117954   2.006   2.177   1.559
 5685SOL    HW217955   2.068   2.326   1.587
 5686SOL     OW17956   5.905   5.571   5.669
 5686SOL    HW117957   5.816   5.596   5.629
 5686SOL    HW217958   5.893   5.496   5.733
 5687SOL     OW17959   1.240   0.676   6.670
 5687SOL    HW117960   1.244   0.576   6.658
 5687SOL    HW217961   1.175   0.715   6.604
 5688SOL     OW17962   1.266   2.889   2.521
 5688SOL    HW117963   1.324   2.895   2.602
 5688SOL    HW217964   1.315   2.838   2.449
 5689SOL     OW17965   0.168   1.561   1.128
 5689SOL    HW117966   0.256   1.585   1.088
 5689SOL    HW217967   0.119   1.498   1.067
 5690SOL     OW17968   3.194   5.275   0.226
 5690SOL    HW117969   3.232   5.247   0.138
 5690SOL    HW217970   3.261   5.260   0.298
 5691SOL     OW17971   4.965   3.110   3.348
 5691SOL    HW117972   5.035   3.080   3.413
 5691SOL    HW217973   4.923   3.194   3.380
 5692SOL     OW17974   6.362   4.600   1.969
 5692SOL    HW117975   6.444   4.608   2.026
 5692SOL    HW217976   6.387   4.560   1.881
 5693SOL     OW17977   3.002   0.936   2.340
 5693SOL    HW117978   3.059   0.982   2.408
 5693SOL    HW217979   2.910   0.923   2.376
 5694SOL     OW17980   0.253   6.446   1.122
 5694SOL    HW117981   0.311   6.484   1.194
 5694SOL    HW217982   0.179   6.510   1.102
 5695SOL     OW17983   1.705   0.780   2.358
 5695SOL    HW117984   1.723   0.824   2.446
 5695SOL    HW217985   1.616   0.735   2.361
 5696SOL     OW17986   6.741   0.847   3.711
 5696SOL    HW117987   6.657   0.801   3.739
 5696SOL    HW217988   6.763   0.819   3.617
 5697SOL     OW17989   6.031   1.916   0.377
 5697SOL    HW117990   6.091   1.996   0.372
 5697SOL    HW217991   5.949   1.939   0.429
 5698SOL     OW17992   2.865   2.285   3.132
 5698SOL    HW117993   2.832   2.191   3.144
 5698SOL    HW217994   2.947   2.284   3.075
 5699SOL     OW17995   2.303   2.768   2.603
 5699SOL    HW117996   2.370   2.718   2.658
 5699SOL    HW217997   2.315   2.866   2.617
 5700SOL     OW17998   5.550   0.531   2.216
 5700SOL    HW117999   5.566   0.624   2.248
 5700SOL    HW218000   5.630   0.499   2.165
 5701SOL     OW18001   1.997   0.822   0.856
 5701SOL    HW118002   1.984   0.910   0.808
 5701SOL    HW218003   1.939   0.753   0.813
 5702SOL     OW18004   1.230   6.218   4.691
 5702SOL    HW118005   1.292   6.141   4.707
 5702SOL    HW218006   1.279   6.289   4.641
 5703SOL     OW18007   0.818   3.221   6.169
 5703SOL    HW118008   0.886   3.158   6.132
 5703SOL    HW218009   0.828   3.310   6.125
 5704SOL     OW18010   4.387   5.717   4.674
 5704SOL    HW118011   4.383   5.651   4.749
 5704SOL    HW218012   4.307   5.706   4.616
 5705SOL     OW18013   5.834   1.574   5.049
 5705SOL    HW118014   5.768   1.545   4.979
 5705SOL    HW218015   5.903   1.503   5.059
 5706SOL     OW18016   5.485   0.787   1.371
 5706SOL    HW118017   5.463   0.877   1.333
 5706SOL    HW218018   5.449   0.781   1.464
 5707SOL     OW18019   6.013   5.798   1.485
 5707SOL    HW118020   5.949   5.779   1.560
 5707SOL    HW218021   6.096   5.841   1.523
 5708SOL     OW18022   4.913   6.650   2.044
 5708SOL    HW118023   4.855   6.681   1.969
 5708SOL    HW218024   5.008   6.644   2.012
 5709SOL     OW18025   6.387   2.293   2.333
 5709SOL    HW118026   6.404   2.390   2.348
 5709SOL    HW218027   6.294   2.270   2.362
 5710SOL     OW18028   5.587   1.455   0.728
 5710SOL    HW118029   5.535   1.373   0.704
 5710SOL    HW218030   5.658   1.471   0.659
 5711SOL     OW18031   4.065   1.250   2.645
 5711SOL    HW118032   3.975   1.295   2.636
 5711SOL    HW218033   4.115   1.292   2.720
 5712SOL     OW18034   6.810   5.934   6.634
 5712SOL    HW118035   6.899   5.891   6.618
 5712SOL    HW218036   6.756   5.930   6.550
 5713SOL     OW18037   1.337   1.278   0.508
 5713SOL    HW118038   1.393   1.197   0.523
 5713SOL    HW218039   1.342   1.337   0.589
 5714SOL     OW18040   5.483   0.158   1.251
 5714SOL    HW118041   5.452   0.063   1.248
 5714SOL    HW218042   5.498   0.191   1.158
 5715SOL     OW18043   0.442   6.102   0.886
 5715SOL    HW118044   0.431   6.200   0.865
 5715SOL    HW218045   0.361   6.069   0.934
 5716SOL     OW18046   7.012   4.862   5.839
 5716SOL    HW118047   0.045   4.896   5.915
 5716SOL    HW218048   6.915   4.872   5.859
 5717SOL     OW18049   0.138   6.055   2.857
 5717SOL    HW118050   0.118   6.119   2.781
 5717SOL    HW218051   0.187   5.976   2.822
 5718SOL     OW18052   1.729   4.682   6.433
 5718SOL    HW118053   1.744   4.610   6.365
 5718SOL    HW218054   1.687   4.761   6.390
 5719SOL     OW18055   3.595   3.615   1.297
 5719SOL    HW118056   3.553   3.700   1.331
 5719SOL    HW218057   3.551   3.537   1.340
 5720SOL     OW18058   2.572   4.085   6.903
 5720SOL    HW118059   2.530   4.031   6.831
 5720SOL    HW218060   2.550   4.045   6.992
 5721SOL     OW18061   0.846   3.170   0.177
 5721SOL    HW118062   0.928   3.153   0.123
 5721SOL    HW218063   0.775   3.103   0.151
 5722SOL     OW18064   1.896   0.626   6.053
 5722SOL    HW118065   1.981   0.574   6.050
 5722SOL    HW218066   1.909   0.715   6.010
 5723SOL     OW18067   4.541   3.928   0.399
 5723SOL    HW118068   4.600   3.983   0.339
 5723SOL    HW218069   4.548   3.832   0.373
 5724SOL     OW18070   6.622   1.725   6.340
 5724SOL    HW118071   6.531   1.729   6.382
 5724SOL    HW218072   6.621   1.774   6.254
 5725SOL     OW18073   6.694   4.182   4.715
 5725SOL    HW118074   6.790   4.208   4.728
 5725SOL    HW218075   6.649   4.250   4.658
 5726SOL     OW18076   4.079   4.784   2.020
 5726SOL    HW118077   4.065   4.787   2.119
 5726SOL    HW218078   4.158   4.727   1.999
 5727SOL     OW18079   1.077   3.052   6.337
 5727SOL    HW118080   1.139   3.129   6.323
 5727SOL    HW218081   1.077   3.027   6.434
 5728SOL     OW18082   2.074   6.117   3.949
 5728SOL    HW118083   2.108   6.104   4.042
 5728SOL    HW218084   2.067   6.215   3.929
 5729SOL     OW18085   2.783   1.877   5.068
 5729SOL    HW118086   2.789   1.882   5.168
 5729SOL    HW218087   2.711   1.938   5.035
 5730SOL     OW18088   6.299   4.897   4.223
 5730SOL    HW118089   6.249   4.979   4.195
 5730SOL    HW218090   6.397   4.913   4.213
 5731SOL     OW18091   0.050   6.707   2.382
 5731SOL    HW118092   7.012   6.628   2.369
 5731SOL    HW218093   0.018   6.782   2.323
 5732SOL     OW18094   5.236   0.447   3.650
 5732SOL    HW118095   5.253   0.546   3.648
 5732SOL    HW218096   5.137   0.430   3.651
 5733SOL     OW18097   2.625   0.910   5.212
 5733SOL    HW118098   2.579   0.863   5.136
 5733SOL    HW218099   2.605   0.863   5.298
 5734SOL     OW18100   1.755   6.459   4.186
 5734SOL    HW118101   1.854   6.464   4.194
 5734SOL    HW218102   1.713   6.517   4.255
 5735SOL     OW18103   2.353   0.762   1.618
 5735SOL    HW118104   2.298   0.839   1.586
 5735SOL    HW218105   2.292   0.690   1.652
 5736SOL     OW18106   1.751   4.669   1.351
 5736SOL    HW118107   1.698   4.585   1.354
 5736SOL    HW218108   1.730   4.725   1.432
 5737SOL     OW18109   6.058   3.824   6.973
 5737SOL    HW118110   6.102   3.829   0.041
 5737SOL    HW218111   6.064   3.913   6.928
 5738SOL     OW18112   1.050   5.640   4.312
 5738SOL    HW118113   1.060   5.580   4.391
 5738SOL    HW218114   0.954   5.648   4.287
 5739SOL     OW18115   1.003   2.385   0.911
 5739SOL    HW118116   1.037   2.326   0.984
 5739SOL    HW218117   0.912   2.418   0.935
 5740SOL     OW18118   4.339   4.807   0.577
 5740SOL    HW118119   4.303   4.848   0.493
 5740SOL    HW218120   4.409   4.739   0.553
 5741SOL     OW18121   0.153   2.570   2.255
 5741SOL    HW118122   0.247   2.542   2.277
 5741SOL    HW218123   0.144   2.580   2.156
 5742SOL     OW18124   0.144   5.292   3.560
 5742SOL    HW118125   0.094   5.360   3.506
 5742SOL    HW218126   0.137   5.315   3.657
 5743SOL     OW18127   0.873   0.685   5.031
 5743SOL    HW118128   0.819   0.755   4.985
 5743SOL    HW218129   0.843   0.595   5.000
 5744SOL     OW18130   6.249   0.241   2.249
 5744SOL    HW118131   6.251   0.323   2.306
 5744SOL    HW218132   6.341   0.201   2.246
 5745SOL     OW18133   6.612   3.476   2.074
 5745SOL    HW118134   6.601   3.439   2.166
 5745SOL    HW218135   6.555   3.557   2.064
 5746SOL     OW18136   0.514   3.566   6.003
 5746SOL    HW118137   0.520   3.467   5.990
 5746SOL    HW218138   0.419   3.596   5.992
 5747SOL     OW18139   6.797   6.091   3.985
 5747SOL    HW118140   6.737   6.018   3.953
 5747SOL    HW218141   6.770   6.177   3.941
 5748SOL     OW18142   1.342   1.331   4.176
 5748SOL    HW118143   1.357   1.401   4.107
 5748SOL    HW218144   1.336   1.375   4.266
 5749SOL     OW18145   0.328   1.568   2.988
 5749SOL    HW118146   0.379   1.638   3.037
 5749SOL    HW218147   0.374   1.547   2.902
 5750SOL     OW18148   4.271   5.944   2.747
 5750SOL    HW118149   4.337   5.903   2.810
 5750SOL    HW218150   4.295   6.040   2.730
 5751SOL     OW18151   1.239   1.882   6.850
 5751SOL    HW118152   1.324   1.926   6.880
 5751SOL    HW218153   1.243   1.864   6.752
 5752SOL     OW18154   2.015   0.906   6.774
 5752SOL    HW118155   2.015   0.960   6.689
 5752SOL    HW218156   1.992   0.965   6.851
 5753SOL     OW18157   4.107   1.656   6.472
 5753SOL    HW118158   4.108   1.556   6.469
 5753SOL    HW218159   4.023   1.689   6.428
 5754SOL     OW18160   6.168   5.944   0.449
 5754SOL    HW118161   6.202   5.990   0.367
 5754SOL    HW218162   6.100   5.876   0.423
 5755SOL     OW18163   3.175   3.925   2.112
 5755SOL    HW118164   3.246   3.996   2.120
 5755SOL    HW218165   3.203   3.857   2.044
 5756SOL     OW18166   6.100   6.977   3.905
 5756SOL    HW118167   6.189   6.933   3.895
 5756SOL    HW218168   6.070   7.013   3.817
 5757SOL     OW18169   6.681   6.818   2.018
 5757SOL    HW118170   6.715   6.726   2.001
 5757SOL    HW218171   6.726   6.882   1.955
 5758SOL     OW18172   2.835   0.651   5.888
 5758SOL    HW118173   2.777   0.732   5.873
 5758SOL    HW218174   2.781   0.580   5.933
 5759SOL     OW18175   0.631   1.062   5.653
 5759SOL    HW118176   0.689   0.989   5.618
 5759SOL    HW218177   0.680   1.149   5.650
 5760SOL     OW18178   6.605   5.613   2.030
 5760SOL    HW118179   6.550   5.578   2.106
 5760SOL    HW218180   6.561   5.693   1.990
 5761SOL     OW18181   3.639   0.508   4.221
 5761SOL    HW118182   3.702   0.477   4.292
 5761SOL    HW218183   3.646   0.448   4.141
 5762SOL     OW18184   4.949   0.235   1.357
 5762SOL    HW118185   4.919   0.316   1.407
 5762SOL    HW218186   5.032   0.257   1.306
 5763SOL     OW18187   3.858   0.748   0.911
 5763SOL    HW118188   3.894   0.766   1.003
 5763SOL    HW218189   3.838   0.835   0.866
 5764SOL     OW18190   3.429   2.886   6.687
 5764SOL    HW118191   3.490   2.965   6.690
 5764SOL    HW218192   3.338   2.915   6.658
 5765SOL     OW18193   6.684   4.671   6.179
 5765SOL    HW118194   6.644   4.745   6.126
 5765SOL    HW218195   6.771   4.701   6.220
 5766SOL     OW18196   2.321   1.729   3.369
 5766SOL    HW118197   2.227   1.746   3.401
 5766SOL    HW218198   2.328   1.634   3.337
 5767SOL     OW18199   5.072   6.309   0.279
 5767SOL    HW118200   5.116   6.397   0.299
 5767SOL    HW218201   5.073   6.294   0.180
 5768SOL     OW18202   5.533   6.890   2.411
 5768SOL    HW118203   5.498   6.944   2.334
 5768SOL    HW218204   5.628   6.865   2.394
 5769SOL     OW18205   6.833   4.924   3.290
 5769SOL    HW118206   6.897   4.996   3.319
 5769SOL    HW218207   6.755   4.922   3.351
 5770SOL     OW18208   4.985   2.549   1.050
 5770SOL    HW118209   5.032   2.636   1.065
 5770SOL    HW218210   4.912   2.539   1.117
 5771SOL     OW18211   0.679   0.477   1.101
 5771SOL    HW118212   0.631   0.397   1.066
 5771SOL    HW218213   0.613   0.543   1.138
 5772SOL     OW18214   6.107   5.263   5.530
 5772SOL    HW118215   6.121   5.360   5.510
 5772SOL    HW218216   6.035   5.253   5.599
 5773SOL     OW18217   5.253   6.209   5.266
 5773SOL    HW118218   5.285   6.296   5.302
 5773SOL    HW218219   5.218   6.152   5.340
 5774SOL     OW18220   1.936   4.478   1.615
 5774SOL    HW118221   1.852   4.425   1.608
 5774SOL    HW218222   1.966   4.506   1.523
 5775SOL     OW18223   1.242   1.048   0.747
 5775SOL    HW118224   1.293   1.042   0.832
 5775SOL    HW218225   1.301   1.024   0.670
 5776SOL     OW18226   4.974   0.683   5.757
 5776SOL    HW118227   4.904   0.736   5.709
 5776SOL    HW218228   4.938   0.656   5.847
 5777SOL     OW18229   5.060   6.529   4.971
 5777SOL    HW118230   5.086   6.485   5.058
 5777SOL    HW218231   5.013   6.462   4.913
 5778SOL     OW18232   2.651   6.628   3.516
 5778SOL    HW118233   2.556   6.645   3.489
 5778SOL    HW218234   2.653   6.585   3.607
 5779SOL     OW18235   3.573   6.631   2.109
 5779SOL    HW118236   3.605   6.725   2.110
 5779SOL    HW218237   3.475   6.629   2.093
 5780SOL     OW18238   7.012   4.636   6.991
 5780SOL    HW118239   0.042   4.561   6.949
 5780SOL    HW218240   6.956   4.681   6.922
 5781SOL     OW18241   4.715   4.445   5.436
 5781SOL    HW118242   4.635   4.444   5.377
 5781SOL    HW218243   4.759   4.535   5.432
 5782SOL     OW18244   4.812   1.488   2.703
 5782SOL    HW118245   4.898   1.486   2.653
 5782SOL    HW218246   4.740   1.443   2.649
 5783SOL     OW18247   3.188   6.166   3.344
 5783SOL    HW118248   3.100   6.213   3.335
 5783SOL    HW218249   3.213   6.161   3.441
 5784SOL     OW18250   0.018   6.752   2.034
 5784SOL    HW118251   0.073   6.668   2.039
 5784SOL    HW218252   0.049   6.817   2.102
 5785SOL     OW18253   2.684   0.904   5.904
 5785SOL    HW118254   2.765   0.936   5.952
 5785SOL    HW218255   2.610   0.970   5.915
 5786SOL     OW18256   2.306   1.419   6.181
 5786SOL    HW118257   2.256   1.502   6.159
 5786SOL    HW218258   2.246   1.340   6.169
 5787SOL     OW18259   0.321   2.184   6.226
 5787SOL    HW118260   0.332   2.277   6.191
 5787SOL    HW218261   0.302   2.187   6.324
 5788SOL     OW18262   0.503   2.402   1.949
 5788SOL    HW118263   0.598   2.417   1.920
 5788SOL    HW218264   0.454   2.489   1.947
 5789SOL     OW18265   3.387   1.299   0.053
 5789SOL    HW118266   3.434   1.359   0.117
 5789SOL    HW218267   3.312   1.349   0.009
 5790SOL     OW18268   6.005   5.921   2.239
 5790SOL    HW118269   6.042   5.989   2.303
 5790SOL    HW218270   5.906   5.912   2.256
 5791SOL     OW18271   3.931   0.932   1.734
 5791SOL    HW118272   3.872   0.911   1.655
 5791SOL    HW218273   3.882   0.994   1.796
 5792SOL     OW18274   4.731   1.912   2.335
 5792SOL    HW118275   4.821   1.869   2.344
 5792SOL    HW218276   4.735   1.985   2.267
 5793SOL     OW18277   4.278   1.870   0.687
 5793SOL    HW118278   4.266   1.947   0.749
 5793SOL    HW218279   4.361   1.820   0.710
 5794SOL     OW18280   3.397   6.166   6.918
 5794SOL    HW118281   3.458   6.233   6.874
 5794SOL    HW218282   3.341   6.121   6.849
 5795SOL     OW18283   0.556   0.001   1.416
 5795SOL    HW118284   0.513   6.981   1.496
 5795SOL    HW218285   0.539   0.099   1.415
 5796SOL     OW18286   4.511   1.156   6.002
 5796SOL    HW118287   4.600   1.161   5.956
 5796SOL    HW218288   4.524   1.138   6.099
 5797SOL     OW18289   5.921   1.481   6.456
 5797SOL    HW118290   5.976   1.401   6.478
 5797SOL    HW218291   5.824   1.458   6.462
 5798SOL     OW18292   2.149   2.881   4.759
 5798SOL    HW118293   2.176   2.973   4.789
 5798SOL    HW218294   2.083   2.888   4.685
 5799SOL     OW18295   2.943   0.991   3.938
 5799SOL    HW118296   2.914   0.994   3.842
 5799SOL    HW218297   2.868   0.957   3.994
 5800SOL     OW18298   1.760   6.131   1.614
 5800SOL    HW118299   1.727   6.212   1.663
 5800SOL    HW218300   1.704   6.117   1.533
 5801SOL     OW18301   1.460   2.237   3.055
 5801SOL    HW118302   1.458   2.309   2.985
 5801SOL    HW218303   1.524   2.262   3.128
 5802SOL     OW18304   0.187   6.787   2.618
 5802SOL    HW118305   0.129   6.747   2.688
 5802SOL    HW218306   0.137   6.791   2.531
 5803SOL     OW18307   0.050   6.884   4.378
 5803SOL    HW118308   0.024   6.821   4.452
 5803SOL    HW218309   7.004   6.876   4.304
 5804SOL     OW18310   6.305   2.598   3.174
 5804SOL    HW118311   6.314   2.680   3.118
 5804SOL    HW218312   6.209   2.578   3.190
 5805SOL     OW18313   0.770   1.725   1.634
 5805SOL    HW118314   0.684   1.698   1.590
 5805SOL    HW218315   0.757   1.811   1.682
 5806SOL     OW18316   6.637   3.880   1.433
 5806SOL    HW118317   6.602   3.939   1.505
 5806SOL    HW218318   6.593   3.904   1.346
 5807SOL     OW18319   0.964   0.818   3.061
 5807SOL    HW118320   1.037   0.866   3.110
 5807SOL    HW218321   0.986   0.815   2.963
 5808SOL     OW18322   6.205   5.597   5.853
 5808SOL    HW118323   6.293   5.621   5.893
 5808SOL    HW218324   6.133   5.607   5.922
 5809SOL     OW18325   6.531   3.348   5.349
 5809SOL    HW118326   6.563   3.408   5.422
 5809SOL    HW218327   6.604   3.286   5.321
 5810SOL     OW18328   0.547   6.072   4.936
 5810SOL    HW118329   0.467   6.097   4.882
 5810SOL    HW218330   0.587   6.154   4.976
 5811SOL     OW18331   3.160   4.980   0.315
 5811SOL    HW118332   3.212   4.994   0.400
 5811SOL    HW218333   3.084   5.045   0.312
 5812SOL     OW18334   6.329   2.127   6.011
 5812SOL    HW118335   6.234   2.095   6.014
 5812SOL    HW218336   6.367   2.129   6.103
 5813SOL     OW18337   6.573   5.816   0.860
 5813SOL    HW118338   6.523   5.774   0.936
 5813SOL    HW218339   6.638   5.750   0.822
 5814SOL     OW18340   4.965   1.806   2.389
 5814SOL    HW118341   5.026   1.837   2.462
 5814SOL    HW218342   4.915   1.726   2.420
 5815SOL     OW18343   0.254   4.432   4.896
 5815SOL    HW118344   0.290   4.344   4.928
 5815SOL    HW218345   0.199   4.417   4.814
 5816SOL     OW18346   6.953   3.807   1.119
 5816SOL    HW118347   6.931   3.787   1.215
 5816SOL    HW218348   6.870   3.828   1.069
 5817SOL     OW18349   6.736   2.493   3.765
 5817SOL    HW118350   6.709   2.471   3.672
 5817SOL    HW218351   6.702   2.423   3.828
 5818SOL     OW18352   2.836   1.295   3.962
 5818SOL    HW118353   2.858   1.206   3.920
 5818SOL    HW218354   2.896   1.310   4.040
 5819SOL     OW18355   4.412   4.481   1.351
 5819SOL    HW118356   4.415   4.399   1.408
 5819SOL    HW218357   4.501   4.492   1.306
 5820SOL     OW18358   0.946   6.366   2.357
 5820SOL    HW118359   0.913   6.443   2.303
 5820SOL    HW218360   0.868   6.317   2.397
 5821SOL     OW18361   4.770   6.099   1.747
 5821SOL    HW118362   4.829   6.081   1.826
 5821SOL    HW218363   4.679   6.062   1.765
 5822SOL     OW18364   1.315   3.992   3.241
 5822SOL    HW118365   1.275   3.911   3.199
 5822SOL    HW218366   1.414   3.981   3.249
 5823SOL     OW18367   2.068   6.595   4.980
 5823SOL    HW118368   1.994   6.556   4.926
 5823SOL    HW218369   2.065   6.695   4.973
 5824SOL     OW18370   1.658   5.662   2.400
 5824SOL    HW118371   1.634   5.611   2.482
 5824SOL    HW218372   1.703   5.748   2.426
 5825SOL     OW18373   3.585   2.091   4.660
 5825SOL    HW118374   3.557   2.017   4.721
 5825SOL    HW218375   3.574   2.179   4.706
 5826SOL     OW18376   1.290   6.383   5.946
 5826SOL    HW118377   1.217   6.328   5.907
 5826SOL    HW218378   1.251   6.466   5.986
 5827SOL     OW18379   1.433   4.819   3.918
 5827SOL    HW118380   1.365   4.892   3.912
 5827SOL    HW218381   1.388   4.734   3.946
 5828SOL     OW18382   4.668   0.558   5.119
 5828SOL    HW118383   4.740   0.620   5.085
 5828SOL    HW218384   4.685   0.466   5.085
 5829SOL     OW18385   1.852   1.210   2.697
 5829SOL    HW118386   1.815   1.284   2.752
 5829SOL    HW218387   1.952   1.210   2.703
 5830SOL     OW18388   4.865   5.149   4.173
 5830SOL    HW118389   4.933   5.219   4.193
 5830SOL    HW218390   4.911   5.065   4.144
 5831SOL     OW18391   2.459   1.659   3.872
 5831SOL    HW118392   2.398   1.599   3.924
 5831SOL    HW218393   2.419   1.750   3.865
 5832SOL     OW18394   3.021   5.409   3.424
 5832SOL    HW118395   3.054   5.417   3.518
 5832SOL    HW218396   2.976   5.320   3.412
 5833SOL     OW18397   2.423   4.535   1.556
 5833SOL    HW118398   2.468   4.618   1.522
 5833SOL    HW218399   2.357   4.560   1.627
 5834SOL     OW18400   6.311   1.211   6.690
 5834SOL    HW118401   6.296   1.173   6.781
 5834SOL    HW218402   6.350   1.142   6.630
 5835SOL     OW18403   3.597   0.936   3.510
 5835SOL    HW118404   3.558   0.864   3.453
 5835SOL    HW218405   3.697   0.927   3.511
 5836SOL     OW18406   5.927   4.721   1.338
 5836SOL    HW118407   5.835   4.694   1.308
 5836SOL    HW218408   5.977   4.760   1.261
 5837SOL     OW18409   1.992   4.036   6.781
 5837SOL    HW118410   1.936   4.082   6.850
 5837SOL    HW218411   1.934   3.982   6.721
 5838SOL     OW18412   3.182   3.122   0.377
 5838SOL    HW118413   3.228   3.186   0.438
 5838SOL    HW218414   3.106   3.079   0.425
 5839SOL     OW18415   2.814   1.930   0.837
 5839SOL    HW118416   2.730   1.878   0.848
 5839SOL    HW218417   2.794   2.028   0.845
 5840SOL     OW18418   5.944   3.703   2.495
 5840SOL    HW118419   5.849   3.692   2.526
 5840SOL    HW218420   5.945   3.714   2.395
 5841SOL     OW18421   4.972   1.424   6.958
 5841SOL    HW118422   4.912   1.388   0.009
 5841SOL    HW218423   4.947   1.383   6.870
 5842SOL     OW18424   3.634   1.843   2.304
 5842SOL    HW118425   3.687   1.896   2.370
 5842SOL    HW218426   3.550   1.892   2.280
 5843SOL     OW18427   3.309   2.518   1.398
 5843SOL    HW118428   3.407   2.498   1.402
 5843SOL    HW218429   3.267   2.496   1.487
 5844SOL     OW18430   6.400   5.410   4.863
 5844SOL    HW118431   6.435   5.449   4.948
 5844SOL    HW218432   6.446   5.453   4.785
 5845SOL     OW18433   2.001   6.285   2.945
 5845SOL    HW118434   1.949   6.200   2.951
 5845SOL    HW218435   2.029   6.313   3.037
 5846SOL     OW18436   0.428   4.036   5.436
 5846SOL    HW118437   0.457   4.008   5.527
 5846SOL    HW218438   0.495   4.006   5.368
 5847SOL     OW18439   1.897   3.540   5.703
 5847SOL    HW118440   1.860   3.564   5.613
 5847SOL    HW218441   1.997   3.535   5.697
 5848SOL     OW18442   3.329   6.679   1.937
 5848SOL    HW118443   3.404   6.721   1.887
 5848SOL    HW218444   3.278   6.749   1.987
 5849SOL     OW18445   2.934   6.328   6.587
 5849SOL    HW118446   2.928   6.422   6.619
 5849SOL    HW218447   3.030   6.301   6.582
 5850SOL     OW18448   5.505   2.630   0.926
 5850SOL    HW118449   5.494   2.729   0.915
 5850SOL    HW218450   5.465   2.583   0.848
 5851SOL     OW18451   1.324   2.752   6.207
 5851SOL    HW118452   1.384   2.703   6.143
 5851SOL    HW218453   1.371   2.763   6.295
 5852SOL     OW18454   4.031   5.022   3.424
 5852SOL    HW118455   4.081   4.944   3.387
 5852SOL    HW218456   4.094   5.084   3.469
 5853SOL     OW18457   4.473   4.813   6.688
 5853SOL    HW118458   4.493   4.800   6.785
 5853SOL    HW218459   4.455   4.910   6.671
 5854SOL     OW18460   2.446   4.262   5.239
 5854SOL    HW118461   2.447   4.163   5.246
 5854SOL    HW218462   2.353   4.294   5.222
 5855SOL     OW18463   1.207   2.339   4.356
 5855SOL    HW118464   1.304   2.315   4.367
 5855SOL    HW218465   1.185   2.417   4.415
 5856SOL     OW18466   0.156   0.890   2.149
 5856SOL    HW118467   0.247   0.898   2.190
 5856SOL    HW218468   0.164   0.848   2.058
 5857SOL     OW18469   6.460   6.069   0.029
 5857SOL    HW118470   6.506   6.069   6.962
 5857SOL    HW218471   6.415   6.158   0.043
 5858SOL     OW18472   2.939   1.853   1.104
 5858SOL    HW118473   3.000   1.906   1.162
 5858SOL    HW218474   2.893   1.914   1.039
 5859SOL     OW18475   6.286   4.785   1.236
 5859SOL    HW118476   6.352   4.828   1.297
 5859SOL    HW218477   6.249   4.854   1.173
 5860SOL     OW18478   1.555   2.850   1.761
 5860SOL    HW118479   1.635   2.796   1.735
 5860SOL    HW218480   1.490   2.851   1.685
 5861SOL     OW18481   4.904   6.390   4.753
 5861SOL    HW118482   4.870   6.309   4.705
 5861SOL    HW218483   4.954   6.448   4.688
 5862SOL     OW18484   0.407   5.035   1.601
 5862SOL    HW118485   0.411   4.966   1.673
 5862SOL    HW218486   0.373   5.121   1.639
 5863SOL     OW18487   4.046   0.031   5.735
 5863SOL    HW118488   4.026   0.062   5.828
 5863SOL    HW218489   3.984   6.977   5.711
 5864SOL     OW18490   3.771   3.908   3.454
 5864SOL    HW118491   3.763   3.890   3.552
 5864SOL    HW218492   3.682   3.895   3.410
 5865SOL     OW18493   6.965   6.091   1.364
 5865SOL    HW118494   6.958   6.076   1.462
 5865SOL    HW218495   6.896   6.035   1.317
 5866SOL     OW18496   2.896   3.573   3.592
 5866SOL    HW118497   2.909   3.499   3.659
 5866SOL    HW218498   2.825   3.547   3.527
 5867SOL     OW18499   4.838   1.152   0.207
 5867SOL    HW118500   4.849   1.101   0.121
 5867SOL    HW218501   4.910   1.222   0.213
 5868SOL     OW18502   1.515   0.684   0.409
 5868SOL    HW118503   1.467   0.598   0.427
 5868SOL    HW218504   1.458   0.743   0.351
 5869SOL     OW18505   2.282   5.420   3.772
 5869SOL    HW118506   2.333   5.385   3.850
 5869SOL    HW218507   2.185   5.422   3.793
 5870SOL     OW18508   3.760   5.999   3.624
 5870SOL    HW118509   3.683   6.008   3.688
 5870SOL    HW218510   3.726   6.013   3.531
 5871SOL     OW18511   4.010   3.809   3.329
 5871SOL    HW118512   4.043   3.730   3.381
 5871SOL    HW218513   3.954   3.866   3.388
 5872SOL     OW18514   4.078   5.078   1.577
 5872SOL    HW118515   4.137   5.025   1.515
 5872SOL    HW218516   3.986   5.083   1.538
 5873SOL     OW18517   3.995   6.975   2.370
 5873SOL    HW118518   3.943   0.019   2.425
 5873SOL    HW218519   4.060   0.004   2.312
 5874SOL     OW18520   0.348   3.372   4.241
 5874SOL    HW118521   0.417   3.443   4.252
 5874SOL    HW218522   0.340   3.346   4.145
 5875SOL     OW18523   3.834   2.448   1.459
 5875SOL    HW118524   3.898   2.491   1.396
 5875SOL    HW218525   3.873   2.364   1.495
 5876SOL     OW18526   3.976   3.814   2.729
 5876SOL    HW118527   3.948   3.755   2.805
 5876SOL    HW218528   3.916   3.894   2.725
 5877SOL     OW18529   4.527   4.879   1.793
 5877SOL    HW118530   4.453   4.884   1.726
 5877SOL    HW218531   4.508   4.943   1.868
 5878SOL     OW18532   0.615   3.955   2.310
 5878SOL    HW118533   0.567   4.043   2.301
 5878SOL    HW218534   0.583   3.907   2.391
 5879SOL     OW18535   1.908   4.190   5.037
 5879SOL    HW118536   1.897   4.275   5.087
 5879SOL    HW218537   1.955   4.123   5.094
 5880SOL     OW18538   2.696   5.365   0.179
 5880SOL    HW118539   2.786   5.321   0.174
 5880SOL    HW218540   2.638   5.317   0.244
 5881SOL     OW18541   1.591   6.300   4.488
 5881SOL    HW118542   1.609   6.266   4.580
 5881SOL    HW218543   1.632   6.237   4.421
 5882SOL     OW18544   4.940   0.202   3.499
 5882SOL    HW118545   4.872   0.129   3.495
 5882SOL    HW218546   4.990   0.206   3.413
 5883SOL     OW18547   0.860   3.208   5.535
 5883SOL    HW118548   0.895   3.276   5.470
 5883SOL    HW218549   0.936   3.150   5.566
 5884SOL     OW18550   0.065   1.023   3.514
 5884SOL    HW118551   0.026   1.085   3.582
 5884SOL    HW218552   0.080   1.072   3.428
 5885SOL     OW18553   6.353   5.433   0.199
 5885SOL    HW118554   6.339   5.334   0.200
 5885SOL    HW218555   6.389   5.460   0.109
 5886SOL     OW18556   5.979   1.685   5.654
 5886SOL    HW118557   6.023   1.743   5.722
 5886SOL    HW218558   6.024   1.596   5.651
 5887SOL     OW18559   3.736   0.031   2.571
 5887SOL    HW118560   3.718   6.956   2.547
 5887SOL    HW218561   3.679   0.090   2.514
 5888SOL     OW18562   6.877   5.989   1.903
 5888SOL    HW118563   6.877   5.996   2.003
 5888SOL    HW218564   6.795   5.940   1.873
 5889SOL     OW18565   3.074   0.100   1.045
 5889SOL    HW118566   3.092   0.192   1.010
 5889SOL    HW218567   3.004   0.056   0.989
 5890SOL     OW18568   4.252   5.330   6.038
 5890SOL    HW118569   4.180   5.314   5.970
 5890SOL    HW218570   4.216   5.309   6.129
 5891SOL     OW18571   2.205   2.939   6.409
 5891SOL    HW118572   2.231   3.034   6.394
 5891SOL    HW218573   2.204   2.920   6.508
 5892SOL     OW18574   3.266   5.358   1.322
 5892SOL    HW118575   3.277   5.357   1.223
 5892SOL    HW218576   3.216   5.276   1.351
 5893SOL     OW18577   0.378   3.067   2.283
 5893SOL    HW118578   0.442   3.135   2.319
 5893SOL    HW218579   0.429   2.988   2.249
 5894SOL     OW18580   1.863   4.101   3.610
 5894SOL    HW118581   1.957   4.099   3.646
 5894SOL    HW218582   1.823   4.191   3.625
 5895SOL     OW18583   4.832   5.289   2.960
 5895SOL    HW118584   4.887   5.367   2.930
 5895SOL    HW218585   4.867   5.254   3.046
 5896SOL     OW18586   5.676   2.129   5.795
 5896SOL    HW118587   5.609   2.058   5.817
 5896SOL    HW218588   5.705   2.120   5.700
 5897SOL     OW18589   4.594   4.194   0.317
 5897SOL    HW118590   4.569   4.250   0.396
 5897SOL    HW218591   4.526   4.206   0.245
 5898SOL     OW18592   1.447   5.339   2.573
 5898SOL    HW118593   1.371   5.303   2.628
 5898SOL    HW218594   1.487   5.417   2.620
 5899SOL     OW18595   5.149   0.876   3.798
 5899SOL    HW118596   5.060   0.919   3.813
 5899SOL    HW218597   5.214   0.945   3.765
 5900SOL     OW18598   3.585   5.187   2.131
 5900SOL    HW118599   3.669   5.216   2.177
 5900SOL    HW218600   3.551   5.262   2.075
 5901SOL     OW18601   2.742   6.420   3.357
 5901SOL    HW118602   2.676   6.418   3.282
 5901SOL    HW218603   2.721   6.497   3.418
 5902SOL     OW18604   7.011   1.961   0.463
 5902SOL    HW118605   0.069   1.974   0.403
 5902SOL    HW218606   6.928   1.988   0.416
 5903SOL     OW18607   0.867   1.752   6.439
 5903SOL    HW118608   0.915   1.839   6.446
 5903SOL    HW218609   0.881   1.699   6.523
 5904SOL     OW18610   0.012   3.110   2.018
 5904SOL    HW118611   0.031   3.207   2.003
 5904SOL    HW218612   6.964   3.100   2.090
 5905SOL     OW18613   6.938   3.696   2.017
 5905SOL    HW118614   7.014   3.695   2.083
 5905SOL    HW218615   6.953   3.626   1.948
 5906SOL     OW18616   6.439   1.490   3.367
 5906SOL    HW118617   6.392   1.436   3.436
 5906SOL    HW218618   6.534   1.504   3.394
 5907SOL     OW18619   1.539   0.896   1.870
 5907SOL    HW118620   1.552   0.986   1.912
 5907SOL    HW218621   1.578   0.826   1.930
 5908SOL     OW18622   0.263   2.817   5.257
 5908SOL    HW118623   0.334   2.811   5.327
 5908SOL    HW218624   0.240   2.913   5.242
 5909SOL     OW18625   6.986   4.304   6.279
 5909SOL    HW118626   0.038   4.261   6.333
 5909SOL    HW218627   7.017   4.317   6.185
 5910SOL     OW18628   1.784   1.925   3.516
 5910SOL    HW118629   1.697   1.888   3.483
 5910SOL    HW218630   1.838   1.956   3.438
 5911SOL     OW18631   5.848   4.839   6.605
 5911SOL    HW118632   5.927   4.867   6.551
 5911SOL    HW218633   5.850   4.739   6.617
 5912SOL     OW18634   1.108   1.818   2.284
 5912SOL    HW118635   1.020   1.841   2.242
 5912SOL    HW218636   1.099   1.732   2.335
 5913SOL     OW18637   6.999   3.567   0.948
 5913SOL    HW118638   6.993   3.661   0.982
 5913SOL    HW218639   0.062   3.525   0.982
 5914SOL     OW18640   1.634   6.559   0.786
 5914SOL    HW118641   1.622   6.588   0.881
 5914SOL    HW218642   1.554   6.509   0.756
 5915SOL     OW18643   4.830   0.745   4.986
 5915SOL    HW118644   4.815   0.810   5.061
 5915SOL    HW218645   4.901   0.780   4.926
 5916SOL     OW18646   0.742   0.882   2.929
 5916SOL    HW118647   0.824   0.881   2.986
 5916SOL    HW218648   0.769   0.874   2.833
 5917SOL     OW18649   3.832   3.556   0.535
 5917SOL    HW118650   3.897   3.534   0.461
 5917SOL    HW218651   3.878   3.546   0.623
 5918SOL     OW18652   3.470   6.280   5.182
 5918SOL    HW118653   3.542   6.261   5.249
 5918SOL    HW218654   3.512   6.317   5.099
 5919SOL     OW18655   2.899   3.546   4.543
 5919SOL    HW118656   2.817   3.555   4.598
 5919SOL    HW218657   2.941   3.457   4.559
 5920SOL     OW18658   1.677   0.322   5.392
 5920SOL    HW118659   1.651   0.235   5.433
 5920SOL    HW218660   1.606   0.390   5.409
 5921SOL     OW18661   3.226   4.613   1.351
 5921SOL    HW118662   3.209   4.595   1.254
 5921SOL    HW218663   3.270   4.534   1.393
 5922SOL     OW18664   5.221   2.508   2.199
 5922SOL    HW118665   5.168   2.586   2.233
 5922SOL    HW218666   5.291   2.540   2.135
 5923SOL     OW18667   5.848   0.752   2.299
 5923SOL    HW118668   5.763   0.803   2.313
 5923SOL    HW218669   5.845   0.667   2.352
 5924SOL     OW18670   0.264   5.862   3.039
 5924SOL    HW118671   0.287   5.881   2.944
 5924SOL    HW218672   0.301   5.934   3.098
 5925SOL     OW18673   4.363   0.835   0.850
 5925SOL    HW118674   4.288   0.831   0.784
 5925SOL    HW218675   4.336   0.891   0.928
 5926SOL     OW18676   4.855   3.460   3.151
 5926SOL    HW118677   4.852   3.447   3.250
 5926SOL    HW218678   4.847   3.372   3.106
 5927SOL     OW18679   1.170   0.196   1.675
 5927SOL    HW118680   1.186   0.265   1.745
 5927SOL    HW218681   1.152   0.108   1.719
 5928SOL     OW18682   3.205   0.092   6.636
 5928SOL    HW118683   3.213   0.186   6.670
 5928SOL    HW218684   3.220   0.028   6.711
 5929SOL     OW18685   1.421   0.838   1.243
 5929SOL    HW118686   1.464   0.880   1.323
 5929SOL    HW218687   1.332   0.881   1.227
 5930SOL     OW18688   0.031   4.976   1.883
 5930SOL    HW118689   0.059   5.040   1.811
 5930SOL    HW218690   0.062   4.884   1.858
 5931SOL     OW18691   4.626   0.711   4.808
 5931SOL    HW118692   4.695   0.748   4.870
 5931SOL    HW218693   4.651   0.618   4.781
 5932SOL     OW18694   2.879   5.268   0.941
 5932SOL    HW118695   2.846   5.253   0.848
 5932SOL    HW218696   2.836   5.350   0.979
 5933SOL     OW18697   6.878   5.543   4.349
 5933SOL    HW118698   6.855   5.601   4.271
 5933SOL    HW218699   6.968   5.501   4.334
 5934SOL     OW18700   2.792   4.591   0.201
 5934SOL    HW118701   2.862   4.652   0.165
 5934SOL    HW218702   2.808   4.575   0.298
 5935SOL     OW18703   1.429   0.439   5.407
 5935SOL    HW118704   1.357   0.411   5.471
 5935SOL    HW218705   1.400   0.421   5.314
 5936SOL     OW18706   3.824   2.971   2.431
 5936SOL    HW118707   3.818   2.885   2.380
 5936SOL    HW218708   3.732   3.004   2.452
 5937SOL     OW18709   1.058   2.826   0.662
 5937SOL    HW118710   1.084   2.922   0.659
 5937SOL    HW218711   0.958   2.819   0.670
 5938SOL     OW18712   0.302   3.396   3.981
 5938SOL    HW118713   0.208   3.379   3.952
 5938SOL    HW218714   0.355   3.431   3.903
 5939SOL     OW18715   4.985   1.836   5.817
 5939SOL    HW118716   4.960   1.747   5.855
 5939SOL    HW218717   5.043   1.823   5.737
 5940SOL     OW18718   4.451   5.192   0.971
 5940SOL    HW118719   4.469   5.150   1.060
 5940SOL    HW218720   4.441   5.121   0.902
 5941SOL     OW18721   1.581   2.146   3.497
 5941SOL    HW118722   1.497   2.150   3.551
 5941SOL    HW218723   1.631   2.062   3.520
 5942SOL     OW18724   4.845   2.169   6.643
 5942SOL    HW118725   4.836   2.224   6.725
 5942SOL    HW218726   4.799   2.215   6.567
 5943SOL     OW18727   1.944   4.547   2.237
 5943SOL    HW118728   1.908   4.522   2.327
 5943SOL    HW218729   2.042   4.526   2.233
 5944SOL     OW18730   6.891   3.266   5.900
 5944SOL    HW118731   6.965   3.256   5.834
 5944SOL    HW218732   6.850   3.357   5.891
 5945SOL     OW18733   0.572   6.326   4.711
 5945SOL    HW118734   0.509   6.305   4.786
 5945SOL    HW218735   0.572   6.251   4.645
 5946SOL     OW18736   3.272   2.507   6.748
 5946SOL    HW118737   3.260   2.582   6.812
 5946SOL    HW218738   3.208   2.517   6.672
 5947SOL     OW18739   3.380   3.680   5.765
 5947SOL    HW118740   3.428   3.602   5.724
 5947SOL    HW218741   3.305   3.647   5.821
 5948SOL     OW18742   4.821   3.247   1.111
 5948SOL    HW118743   4.726   3.217   1.097
 5948SOL    HW218744   4.865   3.185   1.176
 5949SOL     OW18745   1.412   5.137   4.329
 5949SOL    HW118746   1.501   5.177   4.355
 5949SOL    HW218747   1.424   5.039   4.311
 5950SOL     OW18748   1.803   6.463   4.957
 5950SOL    HW118749   1.713   6.464   4.913
 5950SOL    HW218750   1.793   6.479   5.055
 5951SOL     OW18751   6.840   3.256   6.428
 5951SOL    HW118752   6.880   3.346   6.411
 5951SOL    HW218753   6.810   3.217   6.341
 5952SOL     OW18754   3.964   4.159   1.719
 5952SOL    HW118755   3.989   4.072   1.679
 5952SOL    HW218756   3.881   4.148   1.775
 5953SOL     OW18757   0.148   2.815   6.732
 5953SOL    HW118758   0.069   2.867   6.763
 5953SOL    HW218759   0.152   2.815   6.633
 5954SOL     OW18760   2.626   5.380   3.611
 5954SOL    HW118761   2.556   5.413   3.547
 5954SOL    HW218762   2.597   5.292   3.649
 5955SOL     OW18763   4.744   2.843   0.068
 5955SOL    HW118764   4.795   2.921   0.031
 5955SOL    HW218765   4.733   2.855   0.167
 5956SOL     OW18766   4.169   2.053   6.626
 5956SOL    HW118767   4.236   2.127   6.623
 5956SOL    HW218768   4.167   2.012   6.717
 5957SOL     OW18769   0.148   2.737   3.636
 5957SOL    HW118770   0.092   2.819   3.639
 5957SOL    HW218771   0.179   2.720   3.542
 5958SOL     OW18772   2.424   6.558   1.828
 5958SOL    HW118773   2.488   6.618   1.780
 5958SOL    HW218774   2.412   6.473   1.776
 5959SOL     OW18775   4.946   4.509   3.411
 5959SOL    HW118776   4.866   4.461   3.376
 5959SOL    HW218777   4.942   4.511   3.511
 5960SOL     OW18778   6.687   6.604   6.388
 5960SOL    HW118779   6.714   6.544   6.463
 5960SOL    HW218780   6.742   6.688   6.392
 5961SOL     OW18781   1.645   2.299   3.274
 5961SOL    HW118782   1.744   2.307   3.267
 5961SOL    HW218783   1.621   2.240   3.351
 5962SOL     OW18784   5.600   5.513   0.675
 5962SOL    HW118785   5.515   5.527   0.624
 5962SOL    HW218786   5.668   5.580   0.647
 5963SOL     OW18787   2.392   3.802   1.498
 5963SOL    HW118788   2.380   3.796   1.399
 5963SOL    HW218789   2.478   3.759   1.524
 5964SOL     OW18790   1.387   6.307   4.139
 5964SOL    HW118791   1.340   6.392   4.162
 5964SOL    HW218792   1.338   6.230   4.180
 5965SOL     OW18793   2.216   0.177   1.447
 5965SOL    HW118794   2.137   0.189   1.388
 5965SOL    HW218795   2.257   0.087   1.432
 5966SOL     OW18796   2.833   1.844   5.358
 5966SOL    HW118797   2.847   1.745   5.354
 5966SOL    HW218798   2.856   1.877   5.450
 5967SOL     OW18799   4.869   2.246   5.629
 5967SOL    HW118800   4.859   2.234   5.530
 5967SOL    HW218801   4.792   2.203   5.675
 5968SOL     OW18802   6.282   1.630   3.093
 5968SOL    HW118803   6.194   1.651   3.050
 5968SOL    HW218804   6.313   1.540   3.063
 5969SOL     OW18805   5.596   6.301   1.609
 5969SOL    HW118806   5.589   6.204   1.584
 5969SOL    HW218807   5.594   6.310   1.709
 5970SOL     OW18808   6.492   1.350   0.271
 5970SOL    HW118809   6.431   1.401   0.210
 5970SOL    HW218810   6.462   1.364   0.366
 5971SOL     OW18811   6.910   5.418   3.862
 5971SOL    HW118812   6.999   5.460   3.842
 5971SOL    HW218813   6.892   5.345   3.796
 5972SOL     OW18814   6.820   5.428   0.252
 5972SOL    HW118815   6.744   5.363   0.257
 5972SOL    HW218816   6.899   5.390   0.300
 5973SOL     OW18817   3.533   0.669   2.040
 5973SOL    HW118818   3.449   0.654   2.092
 5973SOL    HW218819   3.558   0.766   2.044
 5974SOL     OW18820   5.629   0.981   4.449
 5974SOL    HW118821   5.636   0.922   4.530
 5974SOL    HW218822   5.576   1.062   4.471
 5975SOL     OW18823   4.007   4.408   0.377
 5975SOL    HW118824   3.929   4.346   0.390
 5975SOL    HW218825   3.976   4.491   0.331
 5976SOL     OW18826   0.574   2.054   6.265
 5976SOL    HW118827   0.493   2.098   6.227
 5976SOL    HW218828   0.550   2.005   6.348
 5977SOL     OW18829   0.717   5.468   1.807
 5977SOL    HW118830   0.756   5.408   1.737
 5977SOL    HW218831   0.789   5.525   1.847
 5978SOL     OW18832   2.974   3.417   6.079
 5978SOL    HW118833   2.985   3.395   5.982
 5978SOL    HW218834   3.060   3.399   6.127
 5979SOL     OW18835   5.911   1.377   1.817
 5979SOL    HW118836   5.859   1.304   1.773
 5979SOL    HW218837   5.898   1.373   1.916
 5980SOL     OW18838   3.875   2.874   0.354
 5980SOL    HW118839   3.869   2.890   0.255
 5980SOL    HW218840   3.843   2.782   0.375
 5981SOL     OW18841   4.230   2.134   0.828
 5981SOL    HW118842   4.256   2.178   0.914
 5981SOL    HW218843   4.134   2.154   0.808
 5982SOL     OW18844   6.155   2.807   1.104
 5982SOL    HW118845   6.113   2.853   1.025
 5982SOL    HW218846   6.092   2.736   1.138
 5983SOL     OW18847   0.312   1.781   3.596
 5983SOL    HW118848   0.240   1.729   3.643
 5983SOL    HW218849   0.378   1.718   3.556
 5984SOL     OW18850   6.383   5.698   1.773
 5984SOL    HW118851   6.324   5.639   1.827
 5984SOL    HW218852   6.328   5.770   1.730
 5985SOL     OW18853   0.187   4.500   2.440
 5985SOL    HW118854   0.274   4.530   2.401
 5985SOL    HW218855   0.113   4.559   2.405
 5986SOL     OW18856   4.071   3.621   3.518
 5986SOL    HW118857   4.140   3.554   3.546
 5986SOL    HW218858   3.981   3.590   3.548
 5987SOL     OW18859   6.978   5.924   3.867
 5987SOL    HW118860   0.028   5.870   3.912
 5987SOL    HW218861   6.934   5.983   3.933
 5988SOL     OW18862   2.068   1.875   0.747
 5988SOL    HW118863   2.030   1.966   0.731
 5988SOL    HW218864   2.153   1.883   0.799
 5989SOL     OW18865   2.668   6.236   6.015
 5989SOL    HW118866   2.716   6.149   6.031
 5989SOL    HW218867   2.612   6.258   6.095
 5990SOL     OW18868   2.444   4.017   1.801
 5990SOL    HW118869   2.503   3.982   1.729
 5990SOL    HW218870   2.477   3.984   1.890
 5991SOL     OW18871   5.351   1.170   0.695
 5991SOL    HW118872   5.337   1.126   0.784
 5991SOL    HW218873   5.267   1.164   0.641
 5992SOL     OW18874   2.475   4.736   2.392
 5992SOL    HW118875   2.522   4.714   2.307
 5992SOL    HW218876   2.486   4.834   2.411
 5993SOL     OW18877   5.701   1.012   0.135
 5993SOL    HW118878   5.800   1.000   0.144
 5993SOL    HW218879   5.654   0.957   0.204
 5994SOL     OW18880   0.873   5.122   1.018
 5994SOL    HW118881   0.794   5.093   1.071
 5994SOL    HW218882   0.910   5.044   0.968
 5995SOL     OW18883   5.304   4.514   1.188
 5995SOL    HW118884   5.359   4.535   1.270
 5995SOL    HW218885   5.357   4.455   1.127
 5996SOL     OW18886   2.361   1.037   1.807
 5996SOL    HW118887   2.444   0.991   1.773
 5996SOL    HW218888   2.387   1.111   1.869
 5997SOL     OW18889   6.835   0.846   4.930
 5997SOL    HW118890   6.881   0.906   4.866
 5997SOL    HW218891   6.780   0.900   4.994
 5998SOL     OW18892   5.769   6.295   0.478
 5998SOL    HW118893   5.715   6.303   0.562
 5998SOL    HW218894   5.707   6.283   0.400
 5999SOL     OW18895   5.759   3.187   0.921
 5999SOL    HW118896   5.674   3.240   0.920
 5999SOL    HW218897   5.836   3.246   0.900
 6000SOL     OW18898   0.286   5.181   2.022
 6000SOL    HW118899   0.306   5.136   1.935
 6000SOL    HW218900   0.190   5.165   2.047
 6001SOL     OW18901   0.216   6.498   6.007
 6001SOL    HW118902   0.218   6.536   6.100
 6001SOL    HW218903   0.287   6.542   5.951
 6002SOL     OW18904   5.531   4.983   4.616
 6002SOL    HW118905   5.609   5.038   4.647
 6002SOL    HW218906   5.546   4.887   4.639
 6003SOL     OW18907   2.202   0.668   4.581
 6003SOL    HW118908   2.200   0.568   4.575
 6003SOL    HW218909   2.148   0.697   4.660
 6004SOL     OW18910   5.101   2.923   4.947
 6004SOL    HW118911   5.015   2.954   4.989
 6004SOL    HW218912   5.169   2.907   5.019
 6005SOL     OW18913   3.853   3.934   0.352
 6005SOL    HW118914   3.768   3.884   0.335
 6005SOL    HW218915   3.928   3.868   0.366
 6006SOL     OW18916   2.828   6.188   5.812
 6006SOL    HW118917   2.752   6.212   5.873
 6006SOL    HW218918   2.913   6.228   5.846
 6007SOL     OW18919   3.040   6.598   4.159
 6007SOL    HW118920   2.946   6.593   4.192
 6007SOL    HW218921   3.041   6.641   4.068
 6008SOL     OW18922   2.405   3.751   6.850
 6008SOL    HW118923   2.320   3.747   6.796
 6008SOL    HW218924   2.389   3.712   6.940
 6009SOL     OW18925   2.301   5.883   2.117
 6009SOL    HW118926   2.216   5.856   2.072
 6009SOL    HW218927   2.285   5.969   2.166
 6010SOL     OW18928   0.222   5.348   5.910
 6010SOL    HW118929   0.197   5.370   6.004
 6010SOL    HW218930   0.208   5.429   5.853
 6011SOL     OW18931   5.727   1.567   3.359
 6011SOL    HW118932   5.727   1.566   3.459
 6011SOL    HW218933   5.812   1.607   3.326
 6012SOL     OW18934   6.465   1.131   5.433
 6012SOL    HW118935   6.529   1.060   5.402
 6012SOL    HW218936   6.413   1.165   5.354
 6013SOL     OW18937   5.817   1.931   3.043
 6013SOL    HW118938   5.840   1.839   3.076
 6013SOL    HW218939   5.784   1.924   2.948
 6014SOL     OW18940   4.066   3.828   4.250
 6014SOL    HW118941   4.066   3.739   4.205
 6014SOL    HW218942   4.073   3.900   4.182
 6015SOL     OW18943   6.935   0.144   3.229
 6015SOL    HW118944   0.005   0.126   3.268
 6015SOL    HW218945   6.917   0.078   3.156
 6016SOL     OW18946   4.341   1.894   4.128
 6016SOL    HW118947   4.425   1.894   4.183
 6016SOL    HW218948   4.335   1.980   4.078
 6017SOL     OW18949   1.157   2.771   5.109
 6017SOL    HW118950   1.248   2.744   5.077
 6017SOL    HW218951   1.160   2.789   5.207
 6018SOL     OW18952   2.239   0.923   3.894
 6018SOL    HW118953   2.195   0.982   3.826
 6018SOL    HW218954   2.274   0.841   3.849
 6019SOL     OW18955   6.505   3.054   6.423
 6019SOL    HW118956   6.428   2.990   6.426
 6019SOL    HW218957   6.549   3.057   6.513
 6020SOL     OW18958   0.486   5.145   4.737
 6020SOL    HW118959   0.485   5.045   4.735
 6020SOL    HW218960   0.560   5.176   4.798
 6021SOL     OW18961   5.182   0.209   3.908
 6021SOL    HW118962   5.257   0.232   3.970
 6021SOL    HW218963   5.194   0.257   3.821
 6022SOL     OW18964   6.456   3.653   1.477
 6022SOL    HW118965   6.492   3.662   1.570
 6022SOL    HW218966   6.480   3.734   1.424
 6023SOL     OW18967   3.841   0.732   3.109
 6023SOL    HW118968   3.925   0.685   3.084
 6023SOL    HW218969   3.852   0.774   3.200
 6024SOL     OW18970   0.409   6.505   6.884
 6024SOL    HW118971   0.505   6.509   6.913
 6024SOL    HW218972   0.380   6.596   6.854
 6025SOL     OW18973   3.578   0.476   5.399
 6025SOL    HW118974   3.563   0.452   5.303
 6025SOL    HW218975   3.521   0.418   5.457
 6026SOL     OW18976   5.003   6.196   3.590
 6026SOL    HW118977   4.919   6.186   3.536
 6026SOL    HW218978   4.994   6.274   3.652
 6027SOL     OW18979   6.090   4.176   5.840
 6027SOL    HW118980   6.050   4.267   5.823
 6027SOL    HW218981   6.143   4.179   5.925
 6028SOL     OW18982   6.251   5.510   6.499
 6028SOL    HW118983   6.262   5.437   6.566
 6028SOL    HW218984   6.307   5.588   6.526
 6029SOL     OW18985   2.451   1.735   2.012
 6029SOL    HW118986   2.475   1.735   1.915
 6029SOL    HW218987   2.362   1.779   2.025
 6030SOL     OW18988   5.824   2.801   5.037
 6030SOL    HW118989   5.771   2.858   4.974
 6030SOL    HW218990   5.921   2.820   5.025
 6031SOL     OW18991   0.203   0.325   3.488
 6031SOL    HW118992   0.140   0.367   3.554
 6031SOL    HW218993   0.198   0.226   3.495
 6032SOL     OW18994   2.977   0.275   3.050
 6032SOL    HW118995   3.032   0.345   3.003
 6032SOL    HW218996   3.011   0.185   3.026
 6033SOL     OW18997   0.651   1.729   2.740
 6033SOL    HW118998   0.650   1.686   2.830
 6033SOL    HW218999   0.714   1.807   2.741
 6034SOL     OW19000   0.790   0.812   0.851
 6034SOL    HW119001   0.838   0.842   0.933
 6034SOL    HW219002   0.713   0.874   0.833
 6035SOL     OW19003   2.077   1.503   2.765
 6035SOL    HW119004   2.013   1.579   2.778
 6035SOL    HW219005   2.046   1.425   2.819
 6036SOL     OW19006   0.234   3.463   0.279
 6036SOL    HW119007   0.313   3.406   0.299
 6036SOL    HW219008   0.227   3.477   0.180
 6037SOL     OW19009   4.301   0.142   6.833
 6037SOL    HW119010   4.217   0.168   6.786
 6037SOL    HW219011   4.377   0.145   6.768
 6038SOL     OW19012   2.595   1.630   0.174
 6038SOL    HW119013   2.641   1.620   0.086
 6038SOL    HW219014   2.660   1.607   0.247
 6039SOL     OW19015   3.463   2.930   4.205
 6039SOL    HW119016   3.556   2.911   4.236
 6039SOL    HW219017   3.399   2.919   4.282
 6040SOL     OW19018   6.886   0.836   0.880
 6040SOL    HW119019   6.947   0.825   0.801
 6040SOL    HW219020   6.928   0.793   0.960
 6041SOL     OW19021   0.568   3.205   4.306
 6041SOL    HW119022   0.482   3.252   4.322
 6041SOL    HW219023   0.573   3.176   4.211
 6042SOL     OW19024   2.939   5.757   2.888
 6042SOL    HW119025   2.967   5.725   2.979
 6042SOL    HW219026   3.021   5.773   2.833
 6043SOL     OW19027   1.864   4.688   1.087
 6043SOL    HW119028   1.947   4.742   1.072
 6043SOL    HW219029   1.842   4.686   1.184
 6044SOL     OW19030   6.642   4.036   0.046
 6044SOL    HW119031   6.548   4.026   0.079
 6044SOL    HW219032   6.642   4.043   6.967
 6045SOL     OW19033   4.520   1.210   4.034
 6045SOL    HW119034   4.467   1.277   3.982
 6045SOL    HW219035   4.457   1.152   4.087
 6046SOL     OW19036   3.443   3.771   2.419
 6046SOL    HW119037   3.430   3.858   2.467
 6046SOL    HW219038   3.467   3.789   2.324
 6047SOL     OW19039   0.149   1.386   0.755
 6047SOL    HW119040   0.069   1.445   0.767
 6047SOL    HW219041   0.168   1.339   0.841
 6048SOL     OW19042   6.226   5.754   3.742
 6048SOL    HW119043   6.321   5.774   3.717
 6048SOL    HW219044   6.165   5.812   3.689
 6049SOL     OW19045   5.639   4.930   0.206
 6049SOL    HW119046   5.734   4.898   0.201
 6049SOL    HW219047   5.610   4.963   0.116
 6050SOL     OW19048   2.234   5.598   3.285
 6050SOL    HW119049   2.165   5.581   3.214
 6050SOL    HW219050   2.278   5.686   3.268
 6051SOL     OW19051   0.256   1.894   2.913
 6051SOL    HW119052   0.194   1.967   2.885
 6051SOL    HW219053   0.290   1.846   2.832
 6052SOL     OW19054   5.124   6.004   6.750
 6052SOL    HW119055   5.170   6.090   6.727
 6052SOL    HW219056   5.045   6.023   6.809
 6053SOL     OW19057   3.769   1.830   5.805
 6053SOL    HW119058   3.839   1.793   5.745
 6053SOL    HW219059   3.722   1.906   5.759
 6054SOL     OW19060   4.131   3.729   6.474
 6054SOL    HW119061   4.226   3.754   6.458
 6054SOL    HW219062   4.072   3.808   6.456
 6055SOL     OW19063   3.146   4.541   1.717
 6055SOL    HW119064   3.066   4.511   1.771
 6055SOL    HW219065   3.119   4.551   1.622
 6056SOL     OW19066   5.186   6.673   3.054
 6056SOL    HW119067   5.208   6.653   3.149
 6056SOL    HW219068   5.264   6.650   2.996
 6057SOL     OW19069   5.597   1.245   4.171
 6057SOL    HW119070   5.623   1.264   4.266
 6057SOL    HW219071   5.518   1.300   4.146
 6058SOL     OW19072   6.479   3.313   6.290
 6058SOL    HW119073   6.480   3.224   6.335
 6058SOL    HW219074   6.386   3.335   6.261
 6059SOL     OW19075   4.500   2.274   6.331
 6059SOL    HW119076   4.438   2.195   6.332
 6059SOL    HW219077   4.446   2.358   6.326
 6060SOL     OW19078   2.430   1.961   1.433
 6060SOL    HW119079   2.384   2.023   1.498
 6060SOL    HW219080   2.528   1.962   1.450
 6061SOL     OW19081   2.438   4.590   6.721
 6061SOL    HW119082   2.476   4.503   6.690
 6061SOL    HW219083   2.339   4.587   6.714
 6062SOL     OW19084   2.018   2.274   5.222
 6062SOL    HW119085   2.022   2.374   5.227
 6062SOL    HW219086   1.931   2.247   5.181
 6063SOL     OW19087   4.505   3.690   5.885
 6063SOL    HW119088   4.487   3.670   5.788
 6063SOL    HW219089   4.599   3.661   5.907
 6064SOL     OW19090   5.763   5.757   6.908
 6064SOL    HW119091   5.673   5.757   6.864
 6064SOL    HW219092   5.760   5.703   6.991
 6065SOL     OW19093   1.549   5.474   1.455
 6065SOL    HW119094   1.630   5.502   1.405
 6065SOL    HW219095   1.474   5.458   1.391
 6066SOL     OW19096   5.036   5.732   3.038
 6066SOL    HW119097   4.978   5.806   3.002
 6066SOL    HW219098   5.046   5.661   2.968
 6067SOL     OW19099   6.599   4.720   5.372
 6067SOL    HW119100   6.563   4.813   5.384
 6067SOL    HW219101   6.595   4.671   5.459
 6068SOL     OW19102   4.725   1.974   3.561
 6068SOL    HW119103   4.738   2.054   3.502
 6068SOL    HW219104   4.805   1.962   3.618
 6069SOL     OW19105   1.296   5.304   5.530
 6069SOL    HW119106   1.316   5.374   5.599
 6069SOL    HW219107   1.310   5.343   5.439
 6070SOL     OW19108   2.546   0.809   1.225
 6070SOL    HW119109   2.468   0.871   1.221
 6070SOL    HW219110   2.523   0.731   1.283
 6071SOL     OW19111   6.457   6.854   6.627
 6071SOL    HW119112   6.529   6.828   6.562
 6071SOL    HW219113   6.436   6.776   6.686
 6072SOL     OW19114   0.442   2.771   6.794
 6072SOL    HW119115   0.342   2.778   6.798
 6072SOL    HW219116   0.478   2.843   6.735
 6073SOL     OW19117   4.466   4.301   6.883
 6073SOL    HW119118   4.430   4.394   6.894
 6073SOL    HW219119   4.546   4.303   6.823
 6074SOL     OW19120   1.671   6.192   2.078
 6074SOL    HW119121   1.701   6.096   2.071
 6074SOL    HW219122   1.646   6.212   2.173
 6075SOL     OW19123   6.909   6.737   6.961
 6075SOL    HW119124   6.961   6.787   6.892
 6075SOL    HW219125   6.946   6.757   0.031
 6076SOL     OW19126   0.019   6.415   3.022
 6076SOL    HW119127   0.038   6.509   3.050
 6076SOL    HW219128   0.091   6.354   3.055
 6077SOL     OW19129   4.950   6.123   2.989
 6077SOL    HW119130   4.975   6.214   3.023
 6077SOL    HW219131   4.851   6.119   2.977
 6078SOL     OW19132   5.508   4.158   0.644
 6078SOL    HW119133   5.415   4.120   0.642
 6078SOL    HW219134   5.523   4.212   0.561
 6079SOL     OW19135   3.314   1.797   0.118
 6079SOL    HW119136   3.217   1.815   0.098
 6079SOL    HW219137   3.337   1.835   0.207
 6080SOL     OW19138   6.040   3.359   5.620
 6080SOL    HW119139   6.012   3.264   5.636
 6080SOL    HW219140   6.077   3.367   5.527
 6081SOL     OW19141   2.122   4.447   4.062
 6081SOL    HW119142   2.137   4.544   4.040
 6081SOL    HW219143   2.196   4.393   4.022
 6082SOL     OW19144   4.103   1.368   1.113
 6082SOL    HW119145   4.076   1.414   1.197
 6082SOL    HW219146   4.089   1.429   1.035
 6083SOL     OW19147   4.708   0.987   5.424
 6083SOL    HW119148   4.715   1.077   5.382
 6083SOL    HW219149   4.631   0.986   5.488
 6084SOL     OW19150   6.222   4.781   3.357
 6084SOL    HW119151   6.313   4.796   3.320
 6084SOL    HW219152   6.228   4.722   3.437
 6085SOL     OW19153   0.807   6.177   1.398
 6085SOL    HW119154   0.880   6.168   1.465
 6085SOL    HW219155   0.840   6.227   1.318
 6086SOL     OW19156   5.036   3.077   0.533
 6086SOL    HW119157   4.937   3.063   0.533
 6086SOL    HW219158   5.081   2.993   0.505
 6087SOL     OW19159   3.946   1.015   6.744
 6087SOL    HW119160   4.037   1.056   6.739
 6087SOL    HW219161   3.917   1.009   6.839
 6088SOL     OW19162   4.025   6.357   2.538
 6088SOL    HW119163   4.102   6.346   2.475
 6088SOL    HW219164   3.972   6.272   2.542
 6089SOL     OW19165   6.287   5.427   2.831
 6089SOL    HW119166   6.321   5.377   2.911
 6089SOL    HW219167   6.245   5.513   2.861
 6090SOL     OW19168   3.899   5.791   4.496
 6090SOL    HW119169   3.909   5.890   4.505
 6090SOL    HW219170   3.806   5.764   4.520
 6091SOL     OW19171   0.327   2.774   2.117
 6091SOL    HW119172   0.377   2.764   2.203
 6091SOL    HW219173   0.237   2.813   2.135
 6092SOL     OW19174   1.895   6.707   0.857
 6092SOL    HW119175   1.910   6.789   0.802
 6092SOL    HW219176   1.852   6.637   0.801
 6093SOL     OW19177   3.687   3.429   2.430
 6093SOL    HW119178   3.734   3.509   2.467
 6093SOL    HW219179   3.751   3.376   2.375
 6094SOL     OW19180   0.447   7.014   5.662
 6094SOL    HW119181   0.528   6.960   5.683
 6094SOL    HW219182   0.406   6.982   5.577
 6095SOL     OW19183   5.430   4.925   2.254
 6095SOL    HW119184   5.437   4.875   2.341
 6095SOL    HW219185   5.348   4.982   2.255
 6096SOL     OW19186   4.587   6.199   3.111
 6096SOL    HW119187   4.563   6.266   3.181
 6096SOL    HW219188   4.651   6.241   3.046
 6097SOL     OW19189   1.797   5.241   0.777
 6097SOL    HW119190   1.821   5.152   0.817
 6097SOL    HW219191   1.775   5.229   0.681
 6098SOL     OW19192   5.940   1.731   5.264
 6098SOL    HW119193   5.882   1.738   5.345
 6098SOL    HW219194   5.887   1.690   5.189
 6099SOL     OW19195   3.353   6.970   5.685
 6099SOL    HW119196   3.400   0.008   5.619
 6099SOL    HW219197   3.306   6.896   5.636
 6100SOL     OW19198   6.750   5.467   5.851
 6100SOL    HW119199   6.716   5.376   5.829
 6100SOL    HW219200   6.677   5.520   5.895
 6101SOL     OW19201   1.168   2.663   0.426
 6101SOL    HW119202   1.082   2.667   0.374
 6101SOL    HW219203   1.147   2.649   0.523
 6102SOL     OW19204   2.626   0.451   2.780
 6102SOL    HW119205   2.697   0.520   2.769
 6102SOL    HW219206   2.669   0.362   2.797
 6103SOL     OW19207   5.836   0.263   2.782
 6103SOL    HW119208   5.862   0.249   2.686
 6103SOL    HW219209   5.873   0.351   2.814
 6104SOL     OW19210   0.096   0.654   5.322
 6104SOL    HW119211   0.087   0.576   5.383
 6104SOL    HW219212   0.059   0.630   5.232
 6105SOL     OW19213   3.764   4.963   6.552
 6105SOL    HW119214   3.806   4.874   6.571
 6105SOL    HW219215   3.833   5.035   6.561
 6106SOL     OW19216   6.327   3.783   5.332
 6106SOL    HW119217   6.348   3.704   5.389
 6106SOL    HW219218   6.346   3.761   5.236
 6107SOL     OW19219   6.563   4.551   4.966
 6107SOL    HW119220   6.511   4.505   4.893
 6107SOL    HW219221   6.504   4.617   5.012
 6108SOL     OW19222   3.134   0.266   6.007
 6108SOL    HW119223   3.166   0.189   6.062
 6108SOL    HW219224   3.111   0.342   6.066
 6109SOL     OW19225   6.393   6.428   3.529
 6109SOL    HW119226   6.364   6.496   3.462
 6109SOL    HW219227   6.486   6.448   3.560
 6110SOL     OW19228   0.837   1.981   3.972
 6110SOL    HW119229   0.814   2.031   4.056
 6110SOL    HW219230   0.803   2.032   3.893
 6111SOL     OW19231   2.829   3.001   1.103
 6111SOL    HW119232   2.811   3.074   1.169
 6111SOL    HW219233   2.920   3.012   1.065
 6112SOL     OW19234   4.687   5.951   4.157
 6112SOL    HW119235   4.740   5.887   4.212
 6112SOL    HW219236   4.615   5.991   4.213
 6113SOL     OW19237   3.595   5.163   1.236
 6113SOL    HW119238   3.616   5.084   1.178
 6113SOL    HW219239   3.672   5.181   1.297
 6114SOL     OW19240   4.756   3.614   1.428
 6114SOL    HW119241   4.704   3.544   1.380
 6114SOL    HW219242   4.836   3.639   1.373
 6115SOL     OW19243   6.133   1.155   4.512
 6115SOL    HW119244   6.198   1.186   4.444
 6115SOL    HW219245   6.053   1.115   4.467
 6116SOL     OW19246   6.012   2.363   0.471
 6116SOL    HW119247   6.084   2.410   0.420
 6116SOL    HW219248   5.923   2.381   0.428
 6117SOL     OW19249   3.314   2.237   1.210
 6117SOL    HW119250   3.329   2.225   1.309
 6117SOL    HW219251   3.292   2.333   1.192
 6118SOL     OW19252   6.331   0.295   1.677
 6118SOL    HW119253   6.260   0.226   1.671
 6118SOL    HW219254   6.294   0.384   1.651
 6119SOL     OW19255   0.571   1.105   5.993
 6119SOL    HW119256   0.530   1.165   6.061
 6119SOL    HW219257   0.524   1.116   5.906
 6120SOL     OW19258   3.362   1.341   3.421
 6120SOL    HW119259   3.380   1.410   3.351
 6120SOL    HW219260   3.300   1.378   3.489
 6121SOL     OW19261   4.118   0.888   5.506
 6121SOL    HW119262   4.174   0.855   5.430
 6121SOL    HW219263   4.031   0.838   5.508
 6122SOL     OW19264   4.557   4.387   4.828
 6122SOL    HW119265   4.511   4.345   4.750
 6122SOL    HW219266   4.493   4.444   4.879
 6123SOL     OW19267   6.431   1.675   5.346
 6123SOL    HW119268   6.338   1.710   5.335
 6123SOL    HW219269   6.453   1.615   5.269
 6124SOL     OW19270   2.163   6.050   3.665
 6124SOL    HW119271   2.140   6.095   3.751
 6124SOL    HW219272   2.198   6.117   3.599
 6125SOL     OW19273   2.928   1.012   5.972
 6125SOL    HW119274   2.917   1.105   5.935
 6125SOL    HW219275   2.941   1.017   6.071
 6126SOL     OW19276   6.378   3.047   6.690
 6126SOL    HW119277   6.398   2.953   6.718
 6126SOL    HW219278   6.294   3.048   6.635
 6127SOL     OW19279   4.988   2.070   2.830
 6127SOL    HW119280   4.932   2.012   2.889
 6127SOL    HW219281   4.945   2.160   2.821
 6128SOL     OW19282   6.112   5.496   4.880
 6128SOL    HW119283   6.189   5.433   4.877
 6128SOL    HW219284   6.062   5.484   4.966
 6129SOL     OW19285   2.367   5.833   3.128
 6129SOL    HW119286   2.321   5.901   3.070
 6129SOL    HW219287   2.459   5.818   3.094
 6130SOL     OW19288   6.776   2.274   6.925
 6130SOL    HW119289   6.705   2.270   6.855
 6130SOL    HW219290   6.769   2.360   6.975
 6131SOL     OW19291   5.852   3.102   2.310
 6131SOL    HW119292   5.944   3.071   2.288
 6131SOL    HW219293   5.801   3.118   2.225
 6132SOL     OW19294   4.569   5.984   6.654
 6132SOL    HW119295   4.488   6.036   6.679
 6132SOL    HW219296   4.559   5.948   6.561
 6133SOL     OW19297   0.163   2.520   3.789
 6133SOL    HW119298   0.146   2.449   3.721
 6133SOL    HW219299   0.142   2.610   3.749
 6134SOL     OW19300   0.892   0.009   4.952
 6134SOL    HW119301   0.813   7.015   4.893
 6134SOL    HW219302   0.959   0.066   4.904
 6135SOL     OW19303   6.258   6.345   0.339
 6135SOL    HW119304   6.269   6.422   0.401
 6135SOL    HW219305   6.177   6.292   0.364
 6136SOL     OW19306   0.800   2.306   2.889
 6136SOL    HW119307   0.716   2.357   2.870
 6136SOL    HW219308   0.872   2.338   2.827
 6137SOL     OW19309   0.070   4.780   0.889
 6137SOL    HW119310   0.016   4.790   0.972
 6137SOL    HW219311   0.019   4.817   0.811
 6138SOL     OW19312   4.874   0.786   2.868
 6138SOL    HW119313   4.792   0.743   2.904
 6138SOL    HW219314   4.945   0.788   2.939
 6139SOL     OW19315   1.732   2.004   5.508
 6139SOL    HW119316   1.739   2.051   5.596
 6139SOL    HW219317   1.700   1.911   5.523
 6140SOL     OW19318   2.193   0.341   3.723
 6140SOL    HW119319   2.144   0.259   3.695
 6140SOL    HW219320   2.291   0.329   3.706
 6141SOL     OW19321   1.082   0.396   0.599
 6141SOL    HW119322   1.049   0.453   0.674
 6141SOL    HW219323   1.131   0.317   0.636
 6142SOL     OW19324   0.218   0.114   1.553
 6142SOL    HW119325   0.257   0.180   1.617
 6142SOL    HW219326   0.228   0.148   1.460
 6143SOL     OW19327   1.539   3.069   5.376
 6143SOL    HW119328   1.619   3.079   5.316
 6143SOL    HW219329   1.508   3.159   5.405
 6144SOL     OW19330   3.171   6.013   2.616
 6144SOL    HW119331   3.196   5.953   2.692
 6144SOL    HW219332   3.237   6.001   2.542
 6145SOL     OW19333   5.590   3.274   4.159
 6145SOL    HW119334   5.546   3.332   4.228
 6145SOL    HW219335   5.652   3.209   4.204
 6146SOL     OW19336   6.051   1.414   5.650
 6146SOL    HW119337   5.973   1.352   5.648
 6146SOL    HW219338   6.114   1.385   5.722
 6147SOL     OW19339   1.287   1.491   5.403
 6147SOL    HW119340   1.257   1.486   5.499
 6147SOL    HW219341   1.254   1.410   5.354
 6148SOL     OW19342   3.919   5.170   6.691
 6148SOL    HW119343   3.872   5.239   6.746
 6148SOL    HW219344   3.945   5.093   6.750
 6149SOL     OW19345   4.077   1.741   1.696
 6149SOL    HW119346   4.023   1.712   1.775
 6149SOL    HW219347   4.093   1.661   1.637
 6150SOL     OW19348   0.787   4.928   3.815
 6150SOL    HW119349   0.694   4.923   3.779
 6150SOL    HW219350   0.806   5.023   3.842
 6151SOL     OW19351   3.820   5.332   2.159
 6151SOL    HW119352   3.825   5.370   2.066
 6151SOL    HW219353   3.832   5.406   2.225
 6152SOL     OW19354   0.313   3.845   3.137
 6152SOL    HW119355   0.296   3.775   3.206
 6152SOL    HW219356   0.238   3.847   3.071
 6153SOL     OW19357   5.778   6.506   1.556
 6153SOL    HW119358   5.723   6.430   1.590
 6153SOL    HW219359   5.869   6.474   1.533
 6154SOL     OW19360   3.851   5.252   2.747
 6154SOL    HW119361   3.938   5.205   2.730
 6154SOL    HW219362   3.775   5.190   2.727
 6155SOL     OW19363   1.524   1.657   4.294
 6155SOL    HW119364   1.508   1.732   4.359
 6155SOL    HW219365   1.542   1.695   4.204
 6156SOL     OW19366   4.505   4.445   2.852
 6156SOL    HW119367   4.547   4.410   2.936
 6156SOL    HW219368   4.417   4.488   2.875
 6157SOL     OW19369   0.612   2.371   1.529
 6157SOL    HW119370   0.568   2.283   1.509
 6157SOL    HW219371   0.706   2.368   1.497
 6158SOL     OW19372   3.308   0.619   6.449
 6158SOL    HW119373   3.341   0.531   6.481
 6158SOL    HW219374   3.237   0.605   6.380
 6159SOL     OW19375   6.522   1.616   0.845
 6159SOL    HW119376   6.578   1.534   0.836
 6159SOL    HW219377   6.531   1.672   0.762
 6160SOL     OW19378   1.097   6.941   0.871
 6160SOL    HW119379   1.036   7.015   0.898
 6160SOL    HW219380   1.043   6.857   0.859
 6161SOL     OW19381   6.375   3.952   0.058
 6161SOL    HW119382   6.300   4.015   0.035
 6161SOL    HW219383   6.356   3.910   0.146
 6162SOL     OW19384   6.318   6.221   1.316
 6162SOL    HW119385   6.266   6.184   1.394
 6162SOL    HW219386   6.254   6.251   1.246
 6163SOL     OW19387   5.432   5.752   2.890
 6163SOL    HW119388   5.489   5.674   2.866
 6163SOL    HW219389   5.388   5.735   2.979
 6164SOL     OW19390   3.539   4.123   4.275
 6164SOL    HW119391   3.608   4.124   4.203
 6164SOL    HW219392   3.582   4.141   4.364
 6165SOL     OW19393   3.449   0.373   0.145
 6165SOL    HW119394   3.502   0.384   0.229
 6165SOL    HW219395   3.471   0.284   0.104
 6166SOL     OW19396   3.333   1.421   5.781
 6166SOL    HW119397   3.389   1.451   5.859
 6166SOL    HW219398   3.328   1.321   5.780
 6167SOL     OW19399   1.140   3.220   2.555
 6167SOL    HW119400   1.226   3.176   2.582
 6167SOL    HW219401   1.091   3.160   2.492
 6168SOL     OW19402   0.522   4.103   4.007
 6168SOL    HW119403   0.596   4.169   4.020
 6168SOL    HW219404   0.558   4.010   4.005
 6169SOL     OW19405   2.518   1.217   0.857
 6169SOL    HW119406   2.494   1.230   0.760
 6169SOL    HW219407   2.608   1.256   0.874
 6170SOL     OW19408   2.582   4.629   0.919
 6170SOL    HW119409   2.494   4.601   0.959
 6170SOL    HW219410   2.651   4.633   0.990
 6171SOL     OW19411   2.264   4.136   2.118
 6171SOL    HW119412   2.259   4.196   2.038
 6171SOL    HW219413   2.250   4.042   2.089
 6172SOL     OW19414   2.376   4.870   1.681
 6172SOL    HW119415   2.368   4.968   1.702
 6172SOL    HW219416   2.295   4.822   1.715
 6173SOL     OW19417   0.837   5.541   2.811
 6173SOL    HW119418   0.771   5.533   2.886
 6173SOL    HW219419   0.905   5.611   2.834
 6174SOL     OW19420   6.169   4.737   1.697
 6174SOL    HW119421   6.217   4.662   1.743
 6174SOL    HW219422   6.165   4.719   1.599
 6175SOL     OW19423   5.252   0.002   4.280
 6175SOL    HW119424   5.188   0.014   4.204
 6175SOL    HW219425   5.342   6.998   4.244
 6176SOL     OW19426   6.937   2.980   0.447
 6176SOL    HW119427   6.853   3.018   0.410
 6176SOL    HW219428   7.010   2.990   0.379
 6177SOL     OW19429   6.123   2.383   2.187
 6177SOL    HW119430   6.106   2.290   2.220
 6177SOL    HW219431   6.146   2.380   2.090
 6178SOL     OW19432   6.892   3.572   0.681
 6178SOL    HW119433   6.900   3.562   0.780
 6178SOL    HW219434   6.936   3.494   0.636
 6179SOL     OW19435   0.621   1.497   5.687
 6179SOL    HW119436   0.654   1.433   5.757
 6179SOL    HW219437   0.695   1.520   5.625
 6180SOL     OW19438   3.394   0.824   6.626
 6180SOL    HW119439   3.370   0.733   6.593
 6180SOL    HW219440   3.481   0.852   6.585
 6181SOL     OW19441   4.197   6.572   6.252
 6181SOL    HW119442   4.168   6.476   6.256
 6181SOL    HW219443   4.162   6.621   6.332
 6182SOL     OW19444   4.668   0.155   5.515
 6182SOL    HW119445   4.589   0.094   5.512
 6182SOL    HW219446   4.745   0.112   5.470
 6183SOL     OW19447   2.520   0.003   2.505
 6183SOL    HW119448   2.607   6.980   2.480
 6183SOL    HW219449   2.451   7.004   2.436
 6184SOL     OW19450   6.750   0.551   5.364
 6184SOL    HW119451   6.813   0.505   5.302
 6184SOL    HW219452   6.801   0.615   5.421
 6185SOL     OW19453   2.523   2.598   0.041
 6185SOL    HW119454   2.560   2.690   0.029
 6185SOL    HW219455   2.597   2.534   0.060
 6186SOL     OW19456   4.039   1.298   4.018
 6186SOL    HW119457   4.025   1.224   4.083
 6186SOL    HW219458   3.951   1.326   3.979
 6187SOL     OW19459   3.329   4.981   4.601
 6187SOL    HW119460   3.357   4.951   4.692
 6187SOL    HW219461   3.405   5.028   4.557
 6188SOL     OW19462   2.685   0.195   2.613
 6188SOL    HW119463   2.611   0.132   2.590
 6188SOL    HW219464   2.731   0.223   2.529
 6189SOL     OW19465   5.496   4.769   2.895
 6189SOL    HW119466   5.481   4.761   2.994
 6189SOL    HW219467   5.450   4.852   2.862
 6190SOL     OW19468   5.346   3.001   5.562
 6190SOL    HW119469   5.255   3.034   5.588
 6190SOL    HW219470   5.388   3.067   5.500
 6191SOL     OW19471   0.199   1.477   6.609
 6191SOL    HW119472   0.218   1.453   6.514
 6191SOL    HW219473   0.100   1.487   6.622
 6192SOL     OW19474   3.374   1.853   0.366
 6192SOL    HW119475   3.309   1.926   0.388
 6192SOL    HW219476   3.432   1.834   0.446
 6193SOL     OW19477   0.011   0.068   1.741
 6193SOL    HW119478   0.017   7.002   1.789
 6193SOL    HW219479   0.073   0.067   1.662
 6194SOL     OW19480   2.990   0.506   1.285
 6194SOL    HW119481   2.985   0.605   1.289
 6194SOL    HW219482   3.070   0.475   1.337
 6195SOL     OW19483   2.250   0.739   5.543
 6195SOL    HW119484   2.296   0.828   5.539
 6195SOL    HW219485   2.315   0.667   5.517
 6196SOL     OW19486   1.306   1.801   5.739
 6196SOL    HW119487   1.314   1.892   5.700
 6196SOL    HW219488   1.209   1.780   5.756
 6197SOL     OW19489   2.741   2.807   1.581
 6197SOL    HW119490   2.664   2.870   1.592
 6197SOL    HW219491   2.725   2.725   1.635
 6198SOL     OW19492   3.040   5.688   2.103
 6198SOL    HW119493   3.045   5.783   2.073
 6198SOL    HW219494   2.944   5.659   2.103
 6199SOL     OW19495   0.227   0.480   6.810
 6199SOL    HW119496   0.179   0.521   6.733
 6199SOL    HW219497   0.305   0.427   6.777
 6200SOL     OW19498   3.892   0.528   5.831
 6200SOL    HW119499   3.806   0.495   5.870
 6200SOL    HW219500   3.969   0.484   5.877
 6201SOL     OW19501   2.451   5.416   4.647
 6201SOL    HW119502   2.504   5.344   4.691
 6201SOL    HW219503   2.474   5.419   4.550
 6202SOL     OW19504   2.144   2.489   1.259
 6202SOL    HW119505   2.088   2.408   1.273
 6202SOL    HW219506   2.183   2.487   1.167
 6203SOL     OW19507   5.746   2.447   4.372
 6203SOL    HW119508   5.651   2.435   4.345
 6203SOL    HW219509   5.769   2.381   4.444
 6204SOL     OW19510   1.358   6.969   5.479
 6204SOL    HW119511   1.334   6.878   5.512
 6204SOL    HW219512   1.306   0.017   5.530
 6205SOL     OW19513   4.177   6.669   6.799
 6205SOL    HW119514   4.215   6.587   6.840
 6205SOL    HW219515   4.243   6.707   6.734
 6206SOL     OW19516   4.744   7.018   3.776
 6206SOL    HW119517   4.667   6.954   3.771
 6206SOL    HW219518   4.734   0.056   3.856
 6207SOL     OW19519   2.341   4.365   4.458
 6207SOL    HW119520   2.309   4.286   4.510
 6207SOL    HW219521   2.336   4.344   4.360
 6208SOL     OW19522   5.012   4.854   5.743
 6208SOL    HW119523   4.966   4.773   5.781
 6208SOL    HW219524   4.975   4.874   5.653
 6209SOL     OW19525   1.728   5.806   0.745
 6209SOL    HW119526   1.674   5.784   0.825
 6209SOL    HW219527   1.825   5.805   0.769
 6210SOL     OW19528   6.984   4.231   2.893
 6210SOL    HW119529   7.000   4.287   2.811
 6210SOL    HW219530   0.043   4.173   2.910
 6211SOL     OW19531   2.567   0.351   4.829
 6211SOL    HW119532   2.588   0.312   4.740
 6211SOL    HW219533   2.474   0.325   4.855
 6212SOL     OW19534   6.609   0.882   4.372
 6212SOL    HW119535   6.651   0.850   4.287
 6212SOL    HW219536   6.599   0.982   4.369
 6213SOL     OW19537   6.945   6.714   0.206
 6213SOL    HW119538   6.857   6.762   0.206
 6213SOL    HW219539   6.974   6.698   0.301
 6214SOL     OW19540   4.784   4.363   1.642
 6214SOL    HW119541   4.860   4.299   1.651
 6214SOL    HW219542   4.795   4.437   1.709
 6215SOL     OW19543   3.528   4.754   1.319
 6215SOL    HW119544   3.455   4.707   1.369
 6215SOL    HW219545   3.615   4.709   1.338
 6216SOL     OW19546   6.209   1.858   2.663
 6216SOL    HW119547   6.254   1.775   2.628
 6216SOL    HW219548   6.138   1.887   2.599
 6217SOL     OW19549   4.369   1.881   1.779
 6217SOL    HW119550   4.295   1.820   1.749
 6217SOL    HW219551   4.389   1.862   1.875
 6218SOL     OW19552   4.639   6.174   4.700
 6218SOL    HW119553   4.607   6.114   4.626
 6218SOL    HW219554   4.561   6.210   4.751
 6219SOL     OW19555   0.306   0.988   4.811
 6219SOL    HW119556   0.358   0.904   4.824
 6219SOL    HW219557   0.289   1.003   4.714
 6220SOL     OW19558   0.832   3.335   4.736
 6220SOL    HW119559   0.932   3.346   4.739
 6220SOL    HW219560   0.805   3.304   4.645
 6221SOL     OW19561   4.599   4.490   4.220
 6221SOL    HW119562   4.526   4.499   4.152
 6221SOL    HW219563   4.687   4.509   4.177
 6222SOL     OW19564   6.783   1.886   1.293
 6222SOL    HW119565   6.768   1.980   1.263
 6222SOL    HW219566   6.864   1.848   1.249
 6223SOL     OW19567   5.226   4.277   3.697
 6223SOL    HW119568   5.165   4.251   3.771
 6223SOL    HW219569   5.209   4.219   3.617
 6224SOL     OW19570   2.588   0.050   4.158
 6224SOL    HW119571   2.633   0.100   4.232
 6224SOL    HW219572   2.530   0.113   4.106
 6225SOL     OW19573   3.783   1.720   6.691
 6225SOL    HW119574   3.758   1.797   6.750
 6225SOL    HW219575   3.852   1.665   6.737
 6226SOL     OW19576   0.047   6.051   4.408
 6226SOL    HW119577   0.061   6.106   4.490
 6226SOL    HW219578   6.982   6.001   4.415
 6227SOL     OW19579   2.835   4.046   6.777
 6227SOL    HW119580   2.820   3.957   6.733
 6227SOL    HW219581   2.748   4.083   6.807
 6228SOL     OW19582   0.080   2.590   2.687
 6228SOL    HW119583   0.013   2.582   2.760
 6228SOL    HW219584   0.037   2.630   2.606
 6229SOL     OW19585   1.410   2.730   2.325
 6229SOL    HW119586   1.502   2.756   2.297
 6229SOL    HW219587   1.389   2.639   2.292
 6230SOL     OW19588   2.146   2.622   4.034
 6230SOL    HW119589   2.060   2.657   4.070
 6230SOL    HW219590   2.144   2.625   3.934
 6231SOL     OW19591   6.588   4.521   2.351
 6231SOL    HW119592   6.590   4.586   2.275
 6231SOL    HW219593   6.606   4.429   2.316
 6232SOL     OW19594   1.126   0.659   0.391
 6232SOL    HW119595   1.096   0.747   0.354
 6232SOL    HW219596   1.068   0.586   0.355
 6233SOL     OW19597   4.223   0.991   6.471
 6233SOL    HW119598   4.224   1.043   6.557
 6233SOL    HW219599   4.136   1.005   6.425
 6234SOL     OW19600   2.749   2.399   3.344
 6234SOL    HW119601   2.787   2.382   3.435
 6234SOL    HW219602   2.802   2.348   3.276
 6235SOL     OW19603   1.960   5.640   1.559
 6235SOL    HW119604   2.056   5.630   1.586
 6235SOL    HW219605   1.915   5.551   1.563
 6236SOL     OW19606   0.312   3.806   0.066
 6236SOL    HW119607   0.219   3.819   0.099
 6236SOL    HW219608   0.324   3.711   0.037
 6237SOL     OW19609   3.393   6.020   6.114
 6237SOL    HW119610   3.366   6.086   6.184
 6237SOL    HW219611   3.438   5.942   6.158
 6238SOL     OW19612   5.079   3.380   1.146
 6238SOL    HW119613   5.014   3.306   1.162
 6238SOL    HW219614   5.164   3.361   1.194
 6239SOL     OW19615   3.531   6.159   3.783
 6239SOL    HW119616   3.521   6.164   3.683
 6239SOL    HW219617   3.474   6.086   3.819
 6240SOL     OW19618   2.285   4.385   0.400
 6240SOL    HW119619   2.364   4.389   0.338
 6240SOL    HW219620   2.318   4.370   0.494
 6241SOL     OW19621   4.515   6.805   2.881
 6241SOL    HW119622   4.448   6.732   2.886
 6241SOL    HW219623   4.500   6.870   2.955
 6242SOL     OW19624   3.396   1.992   2.456
 6242SOL    HW119625   3.416   2.031   2.366
 6242SOL    HW219626   3.478   1.994   2.513
 6243SOL     OW19627   6.296   5.759   2.884
 6243SOL    HW119628   6.369   5.724   2.826
 6243SOL    HW219629   6.334   5.793   2.970
 6244SOL     OW19630   1.430   2.052   1.728
 6244SOL    HW119631   1.378   2.134   1.751
 6244SOL    HW219632   1.369   1.972   1.729
 6245SOL     OW19633   2.403   3.712   0.134
 6245SOL    HW119634   2.466   3.778   0.092
 6245SOL    HW219635   2.321   3.759   0.166
 6246SOL     OW19636   4.331   6.545   0.056
 6246SOL    HW119637   4.398   6.619   0.064
 6246SOL    HW219638   4.267   6.550   0.134
 6247SOL     OW19639   6.493   6.872   2.851
 6247SOL    HW119640   6.409   6.851   2.900
 6247SOL    HW219641   6.498   6.817   2.767
 6248SOL     OW19642   1.064   5.392   0.713
 6248SOL    HW119643   1.098   5.444   0.792
 6248SOL    HW219644   1.036   5.456   0.641
 6249SOL     OW19645   6.238   2.841   6.042
 6249SOL    HW119646   6.234   2.784   6.124
 6249SOL    HW219647   6.220   2.936   6.067
 6250SOL     OW19648   6.809   4.135   6.394
 6250SOL    HW119649   6.864   4.079   6.456
 6250SOL    HW219650   6.870   4.192   6.338
 6251SOL     OW19651   4.544   1.256   0.609
 6251SOL    HW119652   4.510   1.294   0.695
 6251SOL    HW219653   4.641   1.277   0.599
 6252SOL     OW19654   1.778   6.579   5.297
 6252SOL    HW119655   1.835   6.558   5.376
 6252SOL    HW219656   1.689   6.614   5.328
 6253SOL     OW19657   2.306   3.391   1.449
 6253SOL    HW119658   2.344   3.318   1.506
 6253SOL    HW219659   2.240   3.443   1.503
 6254SOL     OW19660   5.597   0.456   0.338
 6254SOL    HW119661   5.632   0.393   0.268
 6254SOL    HW219662   5.650   0.445   0.422
 6255SOL     OW19663   0.506   3.707   2.902
 6255SOL    HW119664   0.519   3.722   2.804
 6255SOL    HW219665   0.517   3.794   2.951
 6256SOL     OW19666   4.270   5.284   4.421
 6256SOL    HW119667   4.267   5.199   4.368
 6256SOL    HW219668   4.365   5.314   4.431
 6257SOL     OW19669   4.139   2.912   6.608
 6257SOL    HW119670   4.063   2.975   6.627
 6257SOL    HW219671   4.152   2.903   6.510
 6258SOL     OW19672   4.507   1.734   3.063
 6258SOL    HW119673   4.537   1.802   3.130
 6258SOL    HW219674   4.583   1.712   3.001
 6259SOL     OW19675   3.557   2.307   1.639
 6259SOL    HW119676   3.476   2.261   1.675
 6259SOL    HW219677   3.619   2.329   1.715
 6260SOL     OW19678   3.741   4.394   1.334
 6260SOL    HW119679   3.733   4.304   1.376
 6260SOL    HW219680   3.710   4.464   1.399
 6261SOL     OW19681   4.843   6.595   6.140
 6261SOL    HW119682   4.870   6.601   6.044
 6261SOL    HW219683   4.837   6.687   6.178
 6262SOL     OW19684   0.118   5.782   5.133
 6262SOL    HW119685   0.206   5.786   5.086
 6262SOL    HW219686   0.133   5.776   5.232
 6263SOL     OW19687   6.683   0.357   1.493
 6263SOL    HW119688   6.710   0.418   1.418
 6263SOL    HW219689   6.644   0.273   1.455
 6264SOL     OW19690   2.745   1.365   0.505
 6264SOL    HW119691   2.664   1.369   0.446
 6264SOL    HW219692   2.814   1.307   0.462
 6265SOL     OW19693   6.384   3.489   0.486
 6265SOL    HW119694   6.394   3.588   0.486
 6265SOL    HW219695   6.329   3.461   0.407
 6266SOL     OW19696   2.452   6.741   2.650
 6266SOL    HW119697   2.435   6.823   2.705
 6266SOL    HW219698   2.550   6.727   2.640
 6267SOL     OW19699   2.985   6.181   6.852
 6267SOL    HW119700   2.889   6.205   6.847
 6267SOL    HW219701   3.023   6.214   6.939
 6268SOL     OW19702   2.258   6.331   1.698
 6268SOL    HW119703   2.282   6.295   1.788
 6268SOL    HW219704   2.182   6.278   1.660
 6269SOL     OW19705   6.703   4.382   6.180
 6269SOL    HW119706   6.698   4.481   6.169
 6269SOL    HW219707   6.792   4.357   6.215
 6270SOL     OW19708   0.821   1.423   4.080
 6270SOL    HW119709   0.908   1.404   4.034
 6270SOL    HW219710   0.760   1.344   4.071
 6271SOL     OW19711   5.655   1.651   1.149
 6271SOL    HW119712   5.671   1.644   1.051
 6271SOL    HW219713   5.583   1.588   1.177
 6272SOL     OW19714   2.784   2.322   3.855
 6272SOL    HW119715   2.716   2.391   3.881
 6272SOL    HW219716   2.805   2.331   3.758
 6273SOL     OW19717   3.626   1.626   2.734
 6273SOL    HW119718   3.588   1.612   2.643
 6273SOL    HW219719   3.676   1.543   2.762
 6274SOL     OW19720   2.877   5.451   6.913
 6274SOL    HW119721   2.866   5.408   7.003
 6274SOL    HW219722   2.973   5.447   6.886
 6275SOL     OW19723   3.236   0.816   4.606
 6275SOL    HW119724   3.146   0.805   4.564
 6275SOL    HW219725   3.306   0.774   4.547
 6276SOL     OW19726   0.721   5.402   3.405
 6276SOL    HW119727   0.792   5.411   3.336
 6276SOL    HW219728   0.755   5.349   3.483
 6277SOL     OW19729   6.380   3.486   3.970
 6277SOL    HW119730   6.469   3.490   4.015
 6277SOL    HW219731   6.309   3.476   4.040
 6278SOL     OW19732   5.060   1.211   3.503
 6278SOL    HW119733   5.065   1.260   3.590
 6278SOL    HW219734   4.971   1.227   3.461
 6279SOL     OW19735   3.656   1.586   5.793
 6279SOL    HW119736   3.666   1.685   5.781
 6279SOL    HW219737   3.582   1.567   5.857
 6280SOL     OW19738   1.334   5.034   5.550
 6280SOL    HW119739   1.317   5.130   5.574
 6280SOL    HW219740   1.432   5.020   5.538
 6281SOL     OW19741   3.480   6.064   4.807
 6281SOL    HW119742   3.578   6.077   4.791
 6281SOL    HW219743   3.465   6.023   4.897
 6282SOL     OW19744   0.804   6.430   4.860
 6282SOL    HW119745   0.746   6.466   4.788
 6282SOL    HW219746   0.748   6.384   4.929
 6283SOL     OW19747   1.181   2.932   4.638
 6283SOL    HW119748   1.128   2.955   4.720
 6283SOL    HW219749   1.199   3.014   4.585
 6284SOL     OW19750   2.293   4.913   0.215
 6284SOL    HW119751   2.359   4.906   0.140
 6284SOL    HW219752   2.207   4.870   0.188
 6285SOL     OW19753   2.186   3.851   2.432
 6285SOL    HW119754   2.165   3.842   2.529
 6285SOL    HW219755   2.225   3.942   2.414
 6286SOL     OW19756   0.002   6.436   4.258
 6286SOL    HW119757   6.996   6.511   4.198
 6286SOL    HW219758   6.976   6.352   4.229
 6287SOL     OW19759   3.307   4.900   3.068
 6287SOL    HW119760   3.379   4.896   2.999
 6287SOL    HW219761   3.339   4.858   3.153
 6288SOL     OW19762   0.159   3.848   0.996
 6288SOL    HW119763   0.080   3.838   1.056
 6288SOL    HW219764   0.241   3.810   1.040
 6289SOL     OW19765   0.279   0.013   2.673
 6289SOL    HW119766   0.275   0.057   2.583
 6289SOL    HW219767   0.249   6.939   2.665
 6290SOL     OW19768   5.463   3.463   3.990
 6290SOL    HW119769   5.494   3.558   3.994
 6290SOL    HW219770   5.525   3.406   4.044
 6291SOL     OW19771   3.390   4.088   3.249
 6291SOL    HW119772   3.419   4.131   3.335
 6291SOL    HW219773   3.463   4.096   3.182
 6292SOL     OW19774   6.748   1.098   1.391
 6292SOL    HW119775   6.714   1.177   1.339
 6292SOL    HW219776   6.757   1.019   1.330
 6293SOL     OW19777   5.723   4.347   5.689
 6293SOL    HW119778   5.644   4.291   5.714
 6293SOL    HW219779   5.723   4.431   5.744
 6294SOL     OW19780   2.904   6.423   0.978
 6294SOL    HW119781   2.904   6.324   0.968
 6294SOL    HW219782   2.987   6.453   1.024
 6295SOL     OW19783   6.319   5.650   6.099
 6295SOL    HW119784   6.298   5.571   6.157
 6295SOL    HW219785   6.405   5.633   6.050
 6296SOL     OW19786   6.274   1.762   3.400
 6296SOL    HW119787   6.335   1.707   3.458
 6296SOL    HW219788   6.322   1.787   3.317
 6297SOL     OW19789   5.415   1.825   5.698
 6297SOL    HW119790   5.483   1.845   5.768
 6297SOL    HW219791   5.402   1.906   5.640
 6298SOL     OW19792   6.155   2.560   4.359
 6298SOL    HW119793   6.197   2.633   4.305
 6298SOL    HW219794   6.136   2.594   4.451
 6299SOL     OW19795   0.454   2.210   0.237
 6299SOL    HW119796   0.398   2.128   0.245
 6299SOL    HW219797   0.548   2.184   0.213
 6300SOL     OW19798   5.426   1.397   3.705
 6300SOL    HW119799   5.365   1.401   3.625
 6300SOL    HW219800   5.372   1.405   3.789
 6301SOL     OW19801   3.180   0.094   1.294
 6301SOL    HW119802   3.129   0.077   1.210
 6301SOL    HW219803   3.271   0.128   1.272
 6302SOL     OW19804   6.597   0.164   3.266
 6302SOL    HW119805   6.648   0.119   3.340
 6302SOL    HW219806   6.659   0.217   3.210
 6303SOL     OW19807   2.673   5.288   4.830
 6303SOL    HW119808   2.652   5.192   4.815
 6303SOL    HW219809   2.757   5.313   4.782
 6304SOL     OW19810   4.254   0.781   4.857
 6304SOL    HW119811   4.263   0.880   4.861
 6304SOL    HW219812   4.323   0.739   4.917
 6305SOL     OW19813   5.092   0.008   3.114
 6305SOL    HW119814   5.116   7.010   3.209
 6305SOL    HW219815   5.064   6.944   3.069
 6306SOL     OW19816   6.373   2.960   4.490
 6306SOL    HW119817   6.399   3.049   4.452
 6306SOL    HW219818   6.449   2.923   4.543
 6307SOL     OW19819   2.034   4.808   0.207
 6307SOL    HW119820   2.063   4.724   0.161
 6307SOL    HW219821   1.954   4.847   0.161
 6308SOL     OW19822   3.844   2.535   6.456
 6308SOL    HW119823   3.868   2.439   6.472
 6308SOL    HW219824   3.751   2.552   6.489
 6309SOL     OW19825   6.360   2.392   5.300
 6309SOL    HW119826   6.338   2.301   5.265
 6309SOL    HW219827   6.283   2.454   5.281
 6310SOL     OW19828   6.912   5.604   5.256
 6310SOL    HW119829   6.836   5.656   5.217
 6310SOL    HW219830   6.877   5.537   5.321
 6311SOL     OW19831   6.408   6.808   4.983
 6311SOL    HW119832   6.336   6.748   5.018
 6311SOL    HW219833   6.379   6.848   4.896
 6312SOL     OW19834   5.840   4.038   5.765
 6312SOL    HW119835   5.822   4.094   5.683
 6312SOL    HW219836   5.910   4.083   5.820
 6313SOL     OW19837   2.555   5.812   3.926
 6313SOL    HW119838   2.539   5.718   3.894
 6313SOL    HW219839   2.556   5.812   4.026
 6314SOL     OW19840   1.404   0.536   3.069
 6314SOL    HW119841   1.495   0.496   3.069
 6314SOL    HW219842   1.340   0.473   3.024
 6315SOL     OW19843   1.768   3.523   0.552
 6315SOL    HW119844   1.688   3.576   0.524
 6315SOL    HW219845   1.844   3.586   0.569
 6316SOL     OW19846   4.270   1.424   4.628
 6316SOL    HW119847   4.172   1.438   4.643
 6316SOL    HW219848   4.283   1.361   4.551
 6317SOL     OW19849   6.904   5.785   4.141
 6317SOL    HW119850   6.999   5.813   4.133
 6317SOL    HW219851   6.872   5.751   4.052
 6318SOL     OW19852   1.552   2.773   3.872
 6318SOL    HW119853   1.462   2.733   3.856
 6318SOL    HW219854   1.544   2.845   3.941
 6319SOL     OW19855   1.237   2.123   3.243
 6319SOL    HW119856   1.161   2.188   3.244
 6319SOL    HW219857   1.307   2.153   3.179
 6320SOL     OW19858   0.296   2.441   2.636
 6320SOL    HW119859   0.208   2.479   2.662
 6320SOL    HW219860   0.321   2.367   2.699
 6321SOL     OW19861   2.232   4.010   5.723
 6321SOL    HW119862   2.195   3.994   5.632
 6321SOL    HW219863   2.306   3.945   5.741
 6322SOL     OW19864   2.319   6.796   0.006
 6322SOL    HW119865   2.347   6.862   0.076
 6322SOL    HW219866   2.314   6.841   6.938
 6323SOL     OW19867   4.610   1.632   1.863
 6323SOL    HW119868   4.639   1.675   1.949
 6323SOL    HW219869   4.511   1.620   1.863
 6324SOL     OW19870   3.113   1.967   1.374
 6324SOL    HW119871   3.133   1.929   1.464
 6324SOL    HW219872   3.170   1.924   1.305
 6325SOL     OW19873   1.864   3.323   3.270
 6325SOL    HW119874   1.836   3.228   3.283
 6325SOL    HW219875   1.827   3.357   3.183
 6326SOL     OW19876   4.561   6.644   1.470
 6326SOL    HW119877   4.648   6.620   1.514
 6326SOL    HW219878   4.492   6.663   1.539
 6327SOL     OW19879   3.987   5.641   5.271
 6327SOL    HW119880   4.083   5.662   5.251
 6327SOL    HW219881   3.931   5.721   5.248
 6328SOL     OW19882   3.595   4.278   0.237
 6328SOL    HW119883   3.682   4.243   0.272
 6328SOL    HW219884   3.551   4.333   0.308
 6329SOL     OW19885   0.728   2.516   3.230
 6329SOL    HW119886   0.652   2.580   3.217
 6329SOL    HW219887   0.794   2.528   3.156
 6330SOL     OW19888   3.482   0.121   7.009
 6330SOL    HW119889   3.579   0.108   6.990
 6330SOL    HW219890   3.437   0.032   7.017
 6331SOL     OW19891   5.371   2.643   1.350
 6331SOL    HW119892   5.407   2.556   1.318
 6331SOL    HW219893   5.389   2.653   1.448
 6332SOL     OW19894   4.074   6.339   1.930
 6332SOL    HW119895   4.031   6.274   1.868
 6332SOL    HW219896   4.041   6.323   2.023
 6333SOL     OW19897   2.122   5.852   2.508
 6333SOL    HW119898   2.047   5.903   2.467
 6333SOL    HW219899   2.094   5.757   2.524
 6334SOL     OW19900   2.282   0.382   1.796
 6334SOL    HW119901   2.328   0.362   1.709
 6334SOL    HW219902   2.243   0.297   1.832
 6335SOL     OW19903   6.267   1.121   6.957
 6335SOL    HW119904   6.309   1.074   0.013
 6335SOL    HW219905   6.224   1.206   6.990
 6336SOL     OW19906   1.733   2.522   5.372
 6336SOL    HW119907   1.710   2.599   5.313
 6336SOL    HW219908   1.651   2.492   5.422
 6337SOL     OW19909   0.627   4.417   5.186
 6337SOL    HW119910   0.588   4.383   5.271
 6337SOL    HW219911   0.625   4.517   5.185
 6338SOL     OW19912   3.294   1.024   4.199
 6338SOL    HW119913   3.300   1.124   4.208
 6338SOL    HW219914   3.267   1.001   4.105
 6339SOL     OW19915   6.549   2.605   4.489
 6339SOL    HW119916   6.581   2.512   4.505
 6339SOL    HW219917   6.597   2.644   4.411
 6340SOL     OW19918   3.063   5.428   3.715
 6340SOL    HW119919   3.075   5.384   3.804
 6340SOL    HW219920   2.980   5.485   3.717
 6341SOL     OW19921   5.991   4.911   2.085
 6341SOL    HW119922   6.076   4.887   2.130
 6341SOL    HW219923   5.941   4.977   2.141
 6342SOL     OW19924   0.913   3.511   0.366
 6342SOL    HW119925   0.935   3.457   0.285
 6342SOL    HW219926   0.997   3.549   0.404
 6343SOL     OW19927   3.745   1.745   0.228
 6343SOL    HW119928   3.766   1.708   0.318
 6343SOL    HW219929   3.703   1.835   0.238
 6344SOL     OW19930   6.095   5.048   3.997
 6344SOL    HW119931   6.060   5.063   4.089
 6344SOL    HW219932   6.024   5.006   3.941
 6345SOL     OW19933   2.210   1.856   1.216
 6345SOL    HW119934   2.279   1.864   1.288
 6345SOL    HW219935   2.132   1.915   1.238
 6346SOL     OW19936   0.500   4.936   4.175
 6346SOL    HW119937   0.534   4.842   4.172
 6346SOL    HW219938   0.546   4.985   4.249
 6347SOL     OW19939   2.970   0.610   0.536
 6347SOL    HW119940   2.981   0.539   0.605
 6347SOL    HW219941   3.038   0.682   0.550
 6348SOL     OW19942   0.218   1.998   4.386
 6348SOL    HW119943   0.180   2.055   4.459
 6348SOL    HW219944   0.264   2.057   4.318
 6349SOL     OW19945   0.589   0.835   0.168
 6349SOL    HW119946   0.553   0.920   0.206
 6349SOL    HW219947   0.602   0.846   0.069
 6350SOL     OW19948   6.843   5.392   3.149
 6350SOL    HW119949   6.746   5.413   3.158
 6350SOL    HW219950   6.881   5.371   3.239
 6351SOL     OW19951   0.336   2.253   2.889
 6351SOL    HW119952   0.414   2.193   2.905
 6351SOL    HW219953   0.251   2.201   2.896
 6352SOL     OW19954   5.960   4.217   2.964
 6352SOL    HW119955   5.945   4.168   2.878
 6352SOL    HW219956   6.057   4.210   2.990
 6353SOL     OW19957   6.527   0.483   2.178
 6353SOL    HW119958   6.459   0.481   2.251
 6353SOL    HW219959   6.489   0.438   2.096
 6354SOL     OW19960   6.485   0.175   4.966
 6354SOL    HW119961   6.555   0.130   5.021
 6354SOL    HW219962   6.443   0.248   5.019
 6355SOL     OW19963   1.085   1.386   1.147
 6355SOL    HW119964   1.112   1.321   1.076
 6355SOL    HW219965   1.009   1.443   1.114
 6356SOL     OW19966   3.462   3.877   1.410
 6356SOL    HW119967   3.542   3.903   1.464
 6356SOL    HW219968   3.470   3.915   1.318
 6357SOL     OW19969   5.099   1.626   1.158
 6357SOL    HW119970   5.141   1.536   1.152
 6357SOL    HW219971   5.154   1.692   1.107
 6358SOL     OW19972   1.239   2.858   5.369
 6358SOL    HW119973   1.222   2.956   5.377
 6358SOL    HW219974   1.338   2.841   5.371
 6359SOL     OW19975   0.155   0.471   6.199
 6359SOL    HW119976   0.111   0.432   6.280
 6359SOL    HW219977   0.242   0.424   6.182
 6360SOL     OW19978   2.129   5.061   4.006
 6360SOL    HW119979   2.042   5.022   3.974
 6360SOL    HW219980   2.120   5.088   4.101
 6361SOL     OW19981   3.001   6.127   5.349
 6361SOL    HW119982   3.006   6.156   5.445
 6361SOL    HW219983   2.906   6.122   5.320
 6362SOL     OW19984   6.691   4.518   5.620
 6362SOL    HW119985   6.654   4.512   5.713
 6362SOL    HW219986   6.776   4.571   5.621
 6363SOL     OW19987   0.766   5.818   3.452
 6363SOL    HW119988   0.675   5.777   3.459
 6363SOL    HW219989   0.834   5.745   3.441
 6364SOL     OW19990   2.751   1.634   6.975
 6364SOL    HW119991   2.814   1.564   6.943
 6364SOL    HW219992   2.695   1.666   6.899
 6365SOL     OW19993   3.917   5.602   2.245
 6365SOL    HW119994   3.952   5.695   2.263
 6365SOL    HW219995   3.987   5.550   2.196
 6366SOL     OW19996   0.630   3.951   5.286
 6366SOL    HW119997   0.668   3.986   5.372
 6366SOL    HW219998   0.703   3.944   5.218
 6367SOL     OW19999   5.249   5.441   2.184
 6367SOL    HW120000   5.260   5.427   2.282
 6367SOL    HW220001   5.322   5.499   2.149
 6368SOL     OW20002   2.832   1.495   2.261
 6368SOL    HW120003   2.839   1.516   2.163
 6368SOL    HW220004   2.868   1.403   2.278
 6369SOL     OW20005   2.169   6.060   4.776
 6369SOL    HW120006   2.196   5.975   4.821
 6369SOL    HW220007   2.247   6.122   4.772
 6370SOL     OW20008   5.073   2.259   2.116
 6370SOL    HW120009   5.140   2.321   2.157
 6370SOL    HW220010   4.981   2.292   2.136
 6371SOL     OW20011   4.551   1.451   3.203
 6371SOL    HW120012   4.647   1.459   3.230
 6371SOL    HW220013   4.517   1.541   3.175
 6372SOL     OW20014   2.876   0.322   2.746
 6372SOL    HW120015   2.876   0.304   2.845
 6372SOL    HW220016   2.796   0.278   2.704
 6373SOL     OW20017   3.451   4.536   6.951
 6373SOL    HW120018   3.356   4.504   6.947
 6373SOL    HW220019   3.513   4.459   6.932
 6374SOL     OW20020   2.941   3.268   4.910
 6374SOL    HW120021   2.867   3.259   4.976
 6374SOL    HW220022   3.017   3.208   4.937
 6375SOL     OW20023   2.057   5.792   1.972
 6375SOL    HW120024   1.969   5.836   1.990
 6375SOL    HW220025   2.059   5.703   2.017
 6376SOL     OW20026   0.984   1.252   5.470
 6376SOL    HW120027   0.908   1.214   5.417
 6376SOL    HW220028   1.050   1.296   5.408
 6377SOL     OW20029   0.316   2.538   3.373
 6377SOL    HW120030   0.257   2.582   3.306
 6377SOL    HW220031   0.339   2.445   3.342
 6378SOL     OW20032   3.530   5.400   3.811
 6378SOL    HW120033   3.498   5.423   3.720
 6378SOL    HW220034   3.594   5.324   3.806
 6379SOL     OW20035   2.166   4.015   1.756
 6379SOL    HW120036   2.142   4.110   1.733
 6379SOL    HW220037   2.265   4.005   1.759
 6380SOL     OW20038   0.837   0.368   6.157
 6380SOL    HW120039   0.795   0.425   6.086
 6380SOL    HW220040   0.934   0.388   6.163
 6381SOL     OW20041   3.885   3.526   3.169
 6381SOL    HW120042   3.967   3.469   3.165
 6381SOL    HW220043   3.808   3.471   3.199
 6382SOL     OW20044   1.129   4.475   5.368
 6382SOL    HW120045   1.169   4.521   5.288
 6382SOL    HW220046   1.123   4.377   5.351
 6383SOL     OW20047   3.862   1.914   4.017
 6383SOL    HW120048   3.927   1.964   4.074
 6383SOL    HW220049   3.772   1.955   4.025
 6384SOL     OW20050   6.594   4.657   2.112
 6384SOL    HW120051   6.625   4.569   2.076
 6384SOL    HW220052   6.667   4.725   2.101
 6385SOL     OW20053   0.912   5.810   5.214
 6385SOL    HW120054   0.969   5.890   5.192
 6385SOL    HW220055   0.837   5.804   5.148
 6386SOL     OW20056   2.062   5.611   2.938
 6386SOL    HW120057   2.019   5.544   2.877
 6386SOL    HW220058   2.031   5.596   3.032
 6387SOL     OW20059   6.030   0.989   5.024
 6387SOL    HW120060   6.014   1.039   5.110
 6387SOL    HW220061   5.968   1.023   4.954
 6388SOL     OW20062   2.110   5.143   1.957
 6388SOL    HW120063   2.209   5.150   1.961
 6388SOL    HW220064   2.072   5.150   2.049
 6389SOL     OW20065   1.533   3.803   0.922
 6389SOL    HW120066   1.517   3.749   1.005
 6389SOL    HW220067   1.452   3.800   0.864
 6390SOL     OW20068   0.847   3.031   4.712
 6390SOL    HW120069   0.824   3.089   4.791
 6390SOL    HW220070   0.823   3.078   4.628
 6391SOL     OW20071   4.165   0.440   0.581
 6391SOL    HW120072   4.095   0.440   0.653
 6391SOL    HW220073   4.246   0.392   0.614
 6392SOL     OW20074   1.435   5.980   4.451
 6392SOL    HW120075   1.469   5.966   4.358
 6392SOL    HW220076   1.418   5.892   4.494
 6393SOL     OW20077   4.718   1.077   6.637
 6393SOL    HW120078   4.656   1.154   6.650
 6393SOL    HW220079   4.738   1.067   6.539
 6394SOL     OW20080   3.626   5.635   2.137
 6394SOL    HW120081   3.724   5.628   2.155
 6394SOL    HW220082   3.593   5.549   2.098
 6395SOL     OW20083   5.730   1.587   0.151
 6395SOL    HW120084   5.820   1.575   0.192
 6395SOL    HW220085   5.676   1.504   0.163
 6396SOL     OW20086   6.884   2.098   6.656
 6396SOL    HW120087   6.852   2.146   6.738
 6396SOL    HW220088   6.820   2.114   6.581
 6397SOL     OW20089   0.164   0.322   0.380
 6397SOL    HW120090   0.260   0.293   0.390
 6397SOL    HW220091   0.160   0.404   0.324
 6398SOL     OW20092   4.716   1.374   1.804
 6398SOL    HW120093   4.670   1.463   1.803
 6398SOL    HW220094   4.741   1.350   1.898
 6399SOL     OW20095   1.170   6.795   6.508
 6399SOL    HW120096   1.248   6.746   6.547
 6399SOL    HW220097   1.170   6.889   6.541
 6400SOL     OW20098   3.204   4.870   4.920
 6400SOL    HW120099   3.214   4.796   4.853
 6400SOL    HW220100   3.108   4.882   4.944
 6401SOL     OW20101   6.942   4.919   5.567
 6401SOL    HW120102   7.012   4.923   5.496
 6401SOL    HW220103   6.985   4.908   5.657
 6402SOL     OW20104   2.121   3.795   2.991
 6402SOL    HW120105   2.125   3.827   2.896
 6402SOL    HW220106   2.031   3.754   3.008
 6403SOL     OW20107   0.178   6.189   1.726
 6403SOL    HW120108   0.169   6.263   1.659
 6403SOL    HW220109   0.263   6.201   1.778
 6404SOL     OW20110   4.732   0.412   2.381
 6404SOL    HW120111   4.801   0.485   2.388
 6404SOL    HW220112   4.730   0.377   2.288
 6405SOL     OW20113   3.669   6.475   1.886
 6405SOL    HW120114   3.742   6.530   1.844
 6405SOL    HW220115   3.637   6.521   1.969
 6406SOL     OW20116   2.208   2.276   3.426
 6406SOL    HW120117   2.273   2.317   3.490
 6406SOL    HW220118   2.230   2.179   3.414
 6407SOL     OW20119   5.422   6.758   0.169
 6407SOL    HW120120   5.405   6.853   0.143
 6407SOL    HW220121   5.428   6.701   0.088
 6408SOL     OW20122   6.419   2.354   0.915
 6408SOL    HW120123   6.401   2.278   0.978
 6408SOL    HW220124   6.353   2.428   0.932
 6409SOL     OW20125   1.227   5.090   1.665
 6409SOL    HW120126   1.288   5.090   1.744
 6409SOL    HW220127   1.281   5.082   1.581
 6410SOL     OW20128   6.751   0.045   1.108
 6410SOL    HW120129   6.752   6.992   1.175
 6410SOL    HW220130   6.833   0.042   1.052
 6411SOL     OW20131   1.906   2.064   3.305
 6411SOL    HW120132   1.816   2.080   3.266
 6411SOL    HW220133   1.976   2.078   3.235
 6412SOL     OW20134   5.924   2.320   5.252
 6412SOL    HW120135   5.924   2.340   5.350
 6412SOL    HW220136   5.854   2.253   5.231
 6413SOL     OW20137   0.235   5.419   1.000
 6413SOL    HW120138   0.291   5.338   0.982
 6413SOL    HW220139   0.208   5.419   1.096
 6414SOL     OW20140   6.396   0.168   3.746
 6414SOL    HW120141   6.396   0.090   3.683
 6414SOL    HW220142   6.458   0.150   3.822
 6415SOL     OW20143   1.492   1.747   2.235
 6415SOL    HW120144   1.438   1.827   2.208
 6415SOL    HW220145   1.510   1.752   2.334
 6416SOL     OW20146   3.203   6.103   6.722
 6416SOL    HW120147   3.123   6.135   6.773
 6416SOL    HW220148   3.199   6.004   6.711
 6417SOL     OW20149   6.837   6.195   4.231
 6417SOL    HW120150   6.804   6.121   4.289
 6417SOL    HW220151   6.856   6.161   4.139
 6418SOL     OW20152   6.627   5.071   2.210
 6418SOL    HW120153   6.541   5.030   2.241
 6418SOL    HW220154   6.622   5.090   2.112
 6419SOL     OW20155   2.936   2.425   0.806
 6419SOL    HW120156   2.985   2.429   0.719
 6419SOL    HW220157   2.966   2.344   0.857
 6420SOL     OW20158   0.802   1.861   0.060
 6420SOL    HW120159   0.806   1.900   6.988
 6420SOL    HW220160   0.895   1.843   0.093
 6421SOL     OW20161   5.811   1.518   0.561
 6421SOL    HW120162   5.801   1.531   0.462
 6421SOL    HW220163   5.886   1.575   0.594
 6422SOL     OW20164   5.250   2.406   3.133
 6422SOL    HW120165   5.270   2.308   3.124
 6422SOL    HW220166   5.326   2.458   3.093
 6423SOL     OW20167   5.405   3.636   0.743
 6423SOL    HW120168   5.319   3.631   0.693
 6423SOL    HW220169   5.411   3.723   0.792
 6424SOL     OW20170   6.236   3.500   5.121
 6424SOL    HW120171   6.158   3.532   5.067
 6424SOL    HW220172   6.309   3.569   5.119
 6425SOL     OW20173   0.847   5.324   0.855
 6425SOL    HW120174   0.872   5.251   0.918
 6425SOL    HW220175   0.929   5.361   0.812
 6426SOL     OW20176   6.496   3.778   3.351
 6426SOL    HW120177   6.430   3.802   3.422
 6426SOL    HW220178   6.502   3.853   3.285
 6427SOL     OW20179   1.211   3.573   5.952
 6427SOL    HW120180   1.242   3.633   5.878
 6427SOL    HW220181   1.288   3.519   5.985
 6428SOL     OW20182   6.420   3.940   5.540
 6428SOL    HW120183   6.403   3.880   5.462
 6428SOL    HW220184   6.335   3.951   5.592
 6429SOL     OW20185   1.265   0.314   4.686
 6429SOL    HW120186   1.365   0.308   4.688
 6429SOL    HW220187   1.237   0.405   4.656
 6430SOL     OW20188   6.568   3.333   6.875
 6430SOL    HW120189   6.648   3.279   6.901
 6430SOL    HW220190   6.485   3.287   6.907
 6431SOL     OW20191   5.364   1.284   2.173
 6431SOL    HW120192   5.390   1.188   2.159
 6431SOL    HW220193   5.433   1.328   2.231
 6432SOL     OW20194   6.316   3.792   0.690
 6432SOL    HW120195   6.331   3.721   0.759
 6432SOL    HW220196   6.398   3.850   0.685
 6433SOL     OW20197   2.156   3.183   1.657
 6433SOL    HW120198   2.111   3.210   1.572
 6433SOL    HW220199   2.251   3.214   1.656
 6434SOL     OW20200   1.746   6.092   0.796
 6434SOL    HW120201   1.753   6.110   0.894
 6434SOL    HW220202   1.756   5.994   0.779
 6435SOL     OW20203   6.044   3.531   0.761
 6435SOL    HW120204   6.079   3.548   0.669
 6435SOL    HW220205   6.118   3.496   0.819
 6436SOL     OW20206   3.199   2.329   0.917
 6436SOL    HW120207   3.224   2.415   0.962
 6436SOL    HW220208   3.216   2.337   0.819
 6437SOL     OW20209   0.023   1.088   2.060
 6437SOL    HW120210   7.020   1.156   2.128
 6437SOL    HW220211   0.070   1.011   2.105
 6438SOL     OW20212   0.579   3.715   4.435
 6438SOL    HW120213   0.517   3.780   4.391
 6438SOL    HW220214   0.663   3.762   4.463
 6439SOL     OW20215   0.275   6.403   2.495
 6439SOL    HW120216   0.318   6.356   2.418
 6439SOL    HW220217   0.267   6.501   2.474
 6440SOL     OW20218   0.691   0.646   2.129
 6440SOL    HW120219   0.668   0.644   2.032
 6440SOL    HW220220   0.633   0.582   2.179
 6441SOL     OW20221   5.167   2.144   3.093
 6441SOL    HW120222   5.246   2.083   3.086
 6441SOL    HW220223   5.103   2.124   3.018
 6442SOL     OW20224   1.371   2.099   3.664
 6442SOL    HW120225   1.307   2.169   3.695
 6442SOL    HW220226   1.327   2.040   3.597
 6443SOL     OW20227   2.432   0.717   0.766
 6443SOL    HW120228   2.388   0.726   0.856
 6443SOL    HW220229   2.531   0.721   0.777
 6444SOL     OW20230   0.763   1.483   2.596
 6444SOL    HW120231   0.705   1.407   2.566
 6444SOL    HW220232   0.712   1.541   2.659
 6445SOL     OW20233   3.523   4.313   6.183
 6445SOL    HW120234   3.493   4.273   6.097
 6445SOL    HW220235   3.458   4.384   6.212
 6446SOL     OW20236   0.404   1.026   1.254
 6446SOL    HW120237   0.342   1.088   1.303
 6446SOL    HW220238   0.485   1.077   1.223
 6447SOL     OW20239   1.783   1.114   3.319
 6447SOL    HW120240   1.723   1.044   3.278
 6447SOL    HW220241   1.728   1.194   3.344
 6448SOL     OW20242   6.266   1.913   1.982
 6448SOL    HW120243   6.245   1.964   2.065
 6448SOL    HW220244   6.195   1.844   1.967
 6449SOL     OW20245   4.730   2.540   0.246
 6449SOL    HW120246   4.663   2.590   0.191
 6449SOL    HW220247   4.816   2.591   0.249
 6450SOL     OW20248   6.591   2.402   0.523
 6450SOL    HW120249   6.604   2.335   0.450
 6450SOL    HW220250   6.676   2.412   0.575
 6451SOL     OW20251   2.971   6.522   4.896
 6451SOL    HW120252   3.061   6.556   4.926
 6451SOL    HW220253   2.949   6.438   4.944
 6452SOL     OW20254   3.782   6.160   4.684
 6452SOL    HW120255   3.796   6.083   4.746
 6452SOL    HW220256   3.811   6.134   4.592
 6453SOL     OW20257   2.682   4.978   6.747
 6453SOL    HW120258   2.764   4.970   6.805
 6453SOL    HW220259   2.693   4.921   6.666
 6454SOL     OW20260   3.792   0.745   5.018
 6454SOL    HW120261   3.873   0.782   5.064
 6454SOL    HW220262   3.711   0.792   5.051
 6455SOL     OW20263   5.935   3.269   0.253
 6455SOL    HW120264   5.944   3.273   0.154
 6455SOL    HW220265   6.018   3.229   0.292
 6456SOL     OW20266   6.308   1.844   4.238
 6456SOL    HW120267   6.360   1.834   4.323
 6456SOL    HW220268   6.246   1.922   4.247
 6457SOL     OW20269   5.996   3.156   1.613
 6457SOL    HW120270   5.997   3.056   1.606
 6457SOL    HW220271   5.916   3.185   1.665
 6458SOL     OW20272   1.277   5.639   3.656
 6458SOL    HW120273   1.375   5.643   3.675
 6458SOL    HW220274   1.229   5.599   3.734
 6459SOL     OW20275   5.714   3.889   6.838
 6459SOL    HW120276   5.762   3.803   6.853
 6459SOL    HW220277   5.777   3.965   6.855
 6460SOL     OW20278   3.859   5.069   1.844
 6460SOL    HW120279   3.901   5.073   1.934
 6460SOL    HW220280   3.893   4.989   1.794
 6461SOL     OW20281   3.124   5.809   4.325
 6461SOL    HW120282   3.120   5.908   4.335
 6461SOL    HW220283   3.200   5.784   4.264
 6462SOL     OW20284   2.101   4.479   2.669
 6462SOL    HW120285   2.048   4.400   2.700
 6462SOL    HW220286   2.091   4.489   2.570
 6463SOL     OW20287   2.183   3.290   5.711
 6463SOL    HW120288   2.178   3.376   5.660
 6463SOL    HW220289   2.110   3.229   5.682
 6464SOL     OW20290   0.997   5.283   1.896
 6464SOL    HW120291   0.967   5.247   1.807
 6464SOL    HW220292   1.086   5.326   1.886
 6465SOL     OW20293   6.288   0.153   3.242
 6465SOL    HW120294   6.377   0.191   3.268
 6465SOL    HW220295   6.226   0.159   3.321
 6466SOL     OW20296   6.387   2.757   4.894
 6466SOL    HW120297   6.435   2.783   4.810
 6466SOL    HW220298   6.315   2.691   4.873
 6467SOL     OW20299   3.632   0.444   5.905
 6467SOL    HW120300   3.550   0.386   5.903
 6467SOL    HW220301   3.688   0.419   5.984
 6468SOL     OW20302   6.587   4.723   2.642
 6468SOL    HW120303   6.661   4.770   2.594
 6468SOL    HW220304   6.500   4.745   2.598
 6469SOL     OW20305   6.034   2.462   5.982
 6469SOL    HW120306   6.020   2.553   5.944
 6469SOL    HW220307   5.947   2.423   6.010
 6470SOL     OW20308   6.546   6.511   4.756
 6470SOL    HW120309   6.566   6.417   4.729
 6470SOL    HW220310   6.467   6.545   4.704
 6471SOL     OW20311   6.579   6.994   5.132
 6471SOL    HW120312   6.619   6.935   5.203
 6471SOL    HW220313   6.527   6.937   5.067
 6472SOL     OW20314   1.682   6.969   1.952
 6472SOL    HW120315   1.652   0.037   1.918
 6472SOL    HW220316   1.650   6.897   1.890
 6473SOL     OW20317   2.382   1.592   5.572
 6473SOL    HW120318   2.465   1.635   5.536
 6473SOL    HW220319   2.334   1.546   5.497
 6474SOL     OW20320   2.163   2.881   6.684
 6474SOL    HW120321   2.098   2.892   6.759
 6474SOL    HW220322   2.246   2.836   6.717
 6475SOL     OW20323   3.899   5.340   3.690
 6475SOL    HW120324   3.906   5.439   3.706
 6475SOL    HW220325   3.847   5.298   3.764
 6476SOL     OW20326   4.668   5.950   3.113
 6476SOL    HW120327   4.665   5.899   3.027
 6476SOL    HW220328   4.640   6.044   3.097
 6477SOL     OW20329   6.578   5.996   0.386
 6477SOL    HW120330   6.529   5.915   0.352
 6477SOL    HW220331   6.628   6.038   0.310
 6478SOL     OW20332   4.291   6.337   0.922
 6478SOL    HW120333   4.384   6.314   0.894
 6478SOL    HW220334   4.282   6.328   1.021
 6479SOL     OW20335   2.837   5.897   2.305
 6479SOL    HW120336   2.874   5.858   2.390
 6479SOL    HW220337   2.851   5.834   2.230
 6480SOL     OW20338   2.090   1.172   0.739
 6480SOL    HW120339   2.185   1.142   0.741
 6480SOL    HW220340   2.057   1.185   0.832
 6481SOL     OW20341   4.787   0.933   0.928
 6481SOL    HW120342   4.744   0.986   1.001
 6481SOL    HW220343   4.736   0.848   0.914
 6482SOL     OW20344   6.988   0.451   5.604
 6482SOL    HW120345   6.918   0.498   5.658
 6482SOL    HW220346   6.970   0.353   5.604
 6483SOL     OW20347   1.266   5.431   1.346
 6483SOL    HW120348   1.168   5.421   1.332
 6483SOL    HW220349   1.288   5.419   1.443
 6484SOL     OW20350   4.123   0.496   2.840
 6484SOL    HW120351   4.220   0.510   2.820
 6484SOL    HW220352   4.090   0.415   2.792
 6485SOL     OW20353   6.586   2.334   2.116
 6485SOL    HW120354   6.602   2.305   2.211
 6485SOL    HW220355   6.666   2.311   2.061
 6486SOL     OW20356   1.505   3.172   3.087
 6486SOL    HW120357   1.433   3.105   3.070
 6486SOL    HW220358   1.468   3.248   3.141
 6487SOL     OW20359   5.930   5.684   3.439
 6487SOL    HW120360   5.869   5.653   3.512
 6487SOL    HW220361   5.977   5.605   3.399
 6488SOL     OW20362   3.385   5.165   4.281
 6488SOL    HW120363   3.419   5.194   4.191
 6488SOL    HW220364   3.462   5.152   4.343
 6489SOL     OW20365   3.122   0.914   6.702
 6489SOL    HW120366   3.071   0.937   6.620
 6489SOL    HW220367   3.210   0.875   6.676
 6490SOL     OW20368   4.189   0.911   0.008
 6490SOL    HW120369   4.146   0.895   0.097
 6490SOL    HW220370   4.226   1.004   0.006
 6491SOL     OW20371   4.801   0.912   5.726
 6491SOL    HW120372   4.703   0.927   5.715
 6491SOL    HW220373   4.841   0.990   5.774
 6492SOL     OW20374   5.785   5.293   6.223
 6492SOL    HW120375   5.766   5.252   6.134
 6492SOL    HW220376   5.873   5.339   6.220
 6493SOL     OW20377   6.947   6.611   5.200
 6493SOL    HW120378   6.849   6.606   5.182
 6493SOL    HW220379   6.971   6.702   5.233
 6494SOL     OW20380   0.157   2.953   3.056
 6494SOL    HW120381   0.245   2.946   3.105
 6494SOL    HW220382   0.156   2.889   2.980
 6495SOL     OW20383   5.535   4.727   2.075
 6495SOL    HW120384   5.508   4.780   2.155
 6495SOL    HW220385   5.467   4.655   2.058
 6496SOL     OW20386   6.915   6.673   3.562
 6496SOL    HW120387   6.906   6.658   3.464
 6496SOL    HW220388   6.994   6.732   3.579
 6497SOL     OW20389   1.081   0.307   1.429
 6497SOL    HW120390   1.092   0.245   1.507
 6497SOL    HW220391   1.170   0.343   1.402
 6498SOL     OW20392   1.121   3.818   4.338
 6498SOL    HW120393   1.078   3.907   4.353
 6498SOL    HW220394   1.086   3.752   4.405
 6499SOL     OW20395   6.149   1.276   2.921
 6499SOL    HW120396   6.075   1.243   2.979
 6499SOL    HW220397   6.161   1.214   2.843
 6500SOL     OW20398   5.724   4.877   1.982
 6500SOL    HW120399   5.810   4.840   2.015
 6500SOL    HW220400   5.648   4.834   2.030
 6501SOL     OW20401   6.629   4.324   0.678
 6501SOL    HW120402   6.641   4.256   0.606
 6501SOL    HW220403   6.609   4.413   0.637
 6502SOL     OW20404   0.333   5.250   1.751
 6502SOL    HW120405   0.283   5.303   1.682
 6502SOL    HW220406   0.384   5.313   1.810
 6503SOL     OW20407   3.671   0.320   4.025
 6503SOL    HW120408   3.631   0.241   4.073
 6503SOL    HW220409   3.608   0.352   3.955
 6504SOL     OW20410   2.497   2.489   0.419
 6504SOL    HW120411   2.416   2.535   0.455
 6504SOL    HW220412   2.469   2.411   0.363
 6505SOL     OW20413   5.507   5.217   0.755
 6505SOL    HW120414   5.577   5.187   0.821
 6505SOL    HW220415   5.552   5.262   0.678
 6506SOL     OW20416   2.334   1.514   1.810
 6506SOL    HW120417   2.372   1.500   1.718
 6506SOL    HW220418   2.407   1.542   1.872
 6507SOL     OW20419   2.881   0.710   1.499
 6507SOL    HW120420   2.800   0.709   1.558
 6507SOL    HW220421   2.863   0.768   1.419
 6508SOL     OW20422   1.026   3.170   1.793
 6508SOL    HW120423   1.094   3.127   1.734
 6508SOL    HW220424   1.072   3.233   1.856
 6509SOL     OW20425   1.521   3.000   4.037
 6509SOL    HW120426   1.598   3.051   4.075
 6509SOL    HW220427   1.440   3.012   4.095
 6510SOL     OW20428   6.294   4.032   6.630
 6510SOL    HW120429   6.252   4.014   6.719
 6510SOL    HW220430   6.278   4.128   6.605
 6511SOL     OW20431   6.668   6.730   6.026
 6511SOL    HW120432   6.767   6.743   6.038
 6511SOL    HW220433   6.646   6.733   5.929
 6512SOL     OW20434   5.421   6.529   4.598
 6512SOL    HW120435   5.323   6.505   4.602
 6512SOL    HW220436   5.472   6.470   4.661
 6513SOL     OW20437   1.277   6.822   3.635
 6513SOL    HW120438   1.353   6.781   3.584
 6513SOL    HW220439   1.280   6.790   3.730
 6514SOL     OW20440   2.740   0.885   4.097
 6514SOL    HW120441   2.696   0.821   4.034
 6514SOL    HW220442   2.789   0.834   4.168
 6515SOL     OW20443   1.455   1.104   3.512
 6515SOL    HW120444   1.483   1.011   3.489
 6515SOL    HW220445   1.491   1.129   3.602
 6516SOL     OW20446   2.154   1.311   5.833
 6516SOL    HW120447   2.236   1.343   5.785
 6516SOL    HW220448   2.074   1.354   5.792
 6517SOL     OW20449   3.191   2.047   1.028
 6517SOL    HW120450   3.215   2.121   1.090
 6517SOL    HW220451   3.218   2.071   0.934
 6518SOL     OW20452   5.263   6.040   1.483
 6518SOL    HW120453   5.250   6.101   1.405
 6518SOL    HW220454   5.249   6.091   1.568
 6519SOL     OW20455   0.283   2.068   3.660
 6519SOL    HW120456   0.380   2.091   3.668
 6519SOL    HW220457   0.273   1.970   3.643
 6520SOL     OW20458   6.067   5.584   1.141
 6520SOL    HW120459   6.066   5.680   1.114
 6520SOL    HW220460   5.974   5.550   1.145
 6521SOL     OW20461   1.173   2.194   5.922
 6521SOL    HW120462   1.261   2.165   5.959
 6521SOL    HW220463   1.186   2.233   5.831
 6522SOL     OW20464   2.528   4.652   4.429
 6522SOL    HW120465   2.574   4.658   4.518
 6522SOL    HW220466   2.595   4.665   4.356
 6523SOL     OW20467   2.507   2.438   1.074
 6523SOL    HW120468   2.490   2.434   0.975
 6523SOL    HW220469   2.598   2.477   1.091
 6524SOL     OW20470   3.835   2.388   5.310
 6524SOL    HW120471   3.798   2.307   5.265
 6524SOL    HW220472   3.772   2.416   5.383
 6525SOL     OW20473   0.239   2.513   4.645
 6525SOL    HW120474   0.142   2.490   4.660
 6525SOL    HW220475   0.280   2.540   4.732
 6526SOL     OW20476   1.572   6.064   3.128
 6526SOL    HW120477   1.556   5.992   3.195
 6526SOL    HW220478   1.518   6.145   3.151
 6527SOL     OW20479   1.930   1.250   4.804
 6527SOL    HW120480   1.875   1.192   4.744
 6527SOL    HW220481   1.938   1.208   4.894
 6528SOL     OW20482   6.675   0.653   2.739
 6528SOL    HW120483   6.585   0.622   2.768
 6528SOL    HW220484   6.746   0.595   2.779
 6529SOL     OW20485   5.855   3.334   2.556
 6529SOL    HW120486   5.854   3.430   2.582
 6529SOL    HW220487   5.855   3.326   2.456
 6530SOL     OW20488   0.262   0.893   0.218
 6530SOL    HW120489   0.307   0.812   0.254
 6530SOL    HW220490   0.330   0.966   0.206
 6531SOL     OW20491   5.098   2.283   5.760
 6531SOL    HW120492   5.011   2.278   5.711
 6531SOL    HW220493   5.118   2.195   5.802
 6532SOL     OW20494   1.679   1.423   6.490
 6532SOL    HW120495   1.613   1.444   6.563
 6532SOL    HW220496   1.709   1.328   6.500
 6533SOL     OW20497   5.301   0.552   0.275
 6533SOL    HW120498   5.297   0.635   0.219
 6533SOL    HW220499   5.396   0.526   0.291
 6534SOL     OW20500   4.032   2.593   6.968
 6534SOL    HW120501   4.017   2.661   6.896
 6534SOL    HW220502   4.114   2.540   6.947
 6535SOL     OW20503   2.095   2.664   4.957
 6535SOL    HW120504   2.140   2.575   4.945
 6535SOL    HW220505   2.091   2.711   4.869
 6536SOL     OW20506   0.466   1.388   0.799
 6536SOL    HW120507   0.499   1.319   0.735
 6536SOL    HW220508   0.421   1.461   0.748
 6537SOL     OW20509   0.017   0.933   6.199
 6537SOL    HW120510   6.950   0.978   6.216
 6537SOL    HW220511   0.087   0.975   6.256
 6538SOL     OW20512   3.164   2.631   5.635
 6538SOL    HW120513   3.096   2.593   5.697
 6538SOL    HW220514   3.134   2.617   5.540
 6539SOL     OW20515   3.382   1.243   6.759
 6539SOL    HW120516   3.299   1.284   6.721
 6539SOL    HW220517   3.358   1.166   6.817
 6540SOL     OW20518   4.100   1.901   3.064
 6540SOL    HW120519   4.101   1.995   3.098
 6540SOL    HW220520   4.178   1.888   3.002
 6541SOL     OW20521   3.187   1.986   5.316
 6541SOL    HW120522   3.130   2.033   5.382
 6541SOL    HW220523   3.144   1.987   5.226
 6542SOL     OW20524   4.399   4.618   3.073
 6542SOL    HW120525   4.402   4.692   3.140
 6542SOL    HW220526   4.478   4.559   3.086
 6543SOL     OW20527   1.488   6.547   6.329
 6543SOL    HW120528   1.471   6.641   6.358
 6543SOL    HW220529   1.407   6.491   6.345
 6544SOL     OW20530   0.811   5.101   2.639
 6544SOL    HW120531   0.859   5.122   2.554
 6544SOL    HW220532   0.853   5.020   2.682
 6545SOL     OW20533   6.123   2.180   6.468
 6545SOL    HW120534   6.110   2.197   6.565
 6545SOL    HW220535   6.042   2.135   6.430
 6546SOL     OW20536   2.861   4.666   6.209
 6546SOL    HW120537   2.914   4.590   6.172
 6546SOL    HW220538   2.917   4.749   6.207
 6547SOL     OW20539   4.235   1.163   5.957
 6547SOL    HW120540   4.222   1.224   5.879
 6547SOL    HW220541   4.333   1.146   5.971
 6548SOL     OW20542   4.924   3.747   5.562
 6548SOL    HW120543   4.915   3.648   5.549
 6548SOL    HW220544   4.999   3.765   5.626
 6549SOL     OW20545   2.424   2.168   2.136
 6549SOL    HW120546   2.431   2.256   2.089
 6549SOL    HW220547   2.439   2.094   2.071
 6550SOL     OW20548   1.004   5.793   2.383
 6550SOL    HW120549   1.019   5.892   2.381
 6550SOL    HW220550   1.009   5.757   2.290
 6551SOL     OW20551   3.296   5.241   1.999
 6551SOL    HW120552   3.369   5.207   1.941
 6551SOL    HW220553   3.215   5.183   1.989
 6552SOL     OW20554   4.671   4.836   5.902
 6552SOL    HW120555   4.724   4.761   5.862
 6552SOL    HW220556   4.681   4.917   5.845
 6553SOL     OW20557   6.374   3.497   2.996
 6553SOL    HW120558   6.351   3.452   2.910
 6553SOL    HW220559   6.361   3.596   2.986
 6554SOL     OW20560   6.528   2.825   4.675
 6554SOL    HW120561   6.601   2.883   4.713
 6554SOL    HW220562   6.565   2.734   4.655
 6555SOL     OW20563   0.639   1.396   1.588
 6555SOL    HW120564   0.589   1.482   1.578
 6555SOL    HW220565   0.580   1.320   1.562
 6556SOL     OW20566   3.198   0.041   2.995
 6556SOL    HW120567   3.292   0.025   2.964
 6556SOL    HW220568   3.134   0.006   2.926
 6557SOL     OW20569   5.089   6.057   0.417
 6557SOL    HW120570   5.188   6.057   0.422
 6557SOL    HW220571   5.057   6.143   0.378
 6558SOL     OW20572   5.990   6.918   6.453
 6558SOL    HW120573   6.044   6.942   6.373
 6558SOL    HW220574   5.910   6.978   6.459
 6559SOL     OW20575   3.035   4.054   0.879
 6559SOL    HW120576   3.071   3.962   0.898
 6559SOL    HW220577   3.101   4.104   0.824
 6560SOL     OW20578   4.474   1.997   1.153
 6560SOL    HW120579   4.501   2.074   1.211
 6560SOL    HW220580   4.550   1.974   1.091
 6561SOL     OW20581   3.262   3.200   4.862
 6561SOL    HW120582   3.260   3.154   4.950
 6561SOL    HW220583   3.232   3.295   4.873
 6562SOL     OW20584   0.179   4.456   5.207
 6562SOL    HW120585   0.096   4.478   5.259
 6562SOL    HW220586   0.165   4.372   5.156
 6563SOL     OW20587   1.277   6.404   2.384
 6563SOL    HW120588   1.180   6.409   2.360
 6563SOL    HW220589   1.312   6.495   2.406
 6564SOL     OW20590   1.883   4.910   2.810
 6564SOL    HW120591   1.978   4.919   2.840
 6564SOL    HW220592   1.842   4.831   2.855
 6565SOL     OW20593   0.056   3.556   5.460
 6565SOL    HW120594   0.098   3.597   5.542
 6565SOL    HW220595   6.985   3.594   5.448
 6566SOL     OW20596   4.316   1.388   0.768
 6566SOL    HW120597   4.363   1.473   0.791
 6566SOL    HW220598   4.245   1.406   0.701
 6567SOL     OW20599   0.012   2.538   0.766
 6567SOL    HW120600   0.054   2.611   0.712
 6567SOL    HW220601   6.956   2.500   0.716
 6568SOL     OW20602   5.180   3.342   1.556
 6568SOL    HW120603   5.090   3.350   1.599
 6568SOL    HW220604   5.250   3.375   1.620
 6569SOL     OW20605   1.281   4.290   5.790
 6569SOL    HW120606   1.323   4.252   5.872
 6569SOL    HW220607   1.234   4.375   5.812
 6570SOL     OW20608   0.200   4.037   2.203
 6570SOL    HW120609   0.195   4.091   2.287
 6570SOL    HW220610   0.216   3.941   2.226
 6571SOL     OW20611   2.110   5.148   4.274
 6571SOL    HW120612   2.068   5.070   4.321
 6571SOL    HW220613   2.158   5.205   4.341
 6572SOL     OW20614   1.740   3.587   5.204
 6572SOL    HW120615   1.682   3.509   5.182
 6572SOL    HW220616   1.792   3.614   5.123
 6573SOL     OW20617   1.464   2.352   1.417
 6573SOL    HW120618   1.411   2.391   1.343
 6573SOL    HW220619   1.457   2.252   1.415
 6574SOL     OW20620   2.026   4.938   4.392
 6574SOL    HW120621   2.070   4.869   4.334
 6574SOL    HW220622   2.073   4.944   4.480
 6575SOL     OW20623   1.544   1.355   2.511
 6575SOL    HW120624   1.449   1.328   2.527
 6575SOL    HW220625   1.583   1.389   2.597
 6576SOL     OW20626   0.447   5.225   4.195
 6576SOL    HW120627   0.471   5.128   4.192
 6576SOL    HW220628   0.436   5.254   4.290
 6577SOL     OW20629   0.800   3.903   5.770
 6577SOL    HW120630   0.779   3.909   5.867
 6577SOL    HW220631   0.899   3.910   5.757
 6578SOL     OW20632   5.623   5.959   4.049
 6578SOL    HW120633   5.662   5.941   4.140
 6578SOL    HW220634   5.679   6.026   4.002
 6579SOL     OW20635   7.021   3.920   3.963
 6579SOL    HW120636   6.981   3.895   4.051
 6579SOL    HW220637   0.064   3.849   3.934
 6580SOL     OW20638   5.655   2.385   0.831
 6580SOL    HW120639   5.671   2.480   0.806
 6580SOL    HW220640   5.607   2.338   0.757
 6581SOL     OW20641   2.736   2.100   5.336
 6581SOL    HW120642   2.821   2.150   5.353
 6581SOL    HW220643   2.753   2.002   5.339
 6582SOL     OW20644   6.246   0.373   2.665
 6582SOL    HW120645   6.264   0.444   2.597
 6582SOL    HW220646   6.230   0.416   2.754
 6583SOL     OW20647   6.220   0.771   6.220
 6583SOL    HW120648   6.185   0.733   6.135
 6583SOL    HW220649   6.211   0.703   6.293
 6584SOL     OW20650   6.076   2.160   0.622
 6584SOL    HW120651   6.000   2.143   0.685
 6584SOL    HW220652   6.051   2.232   0.558
 6585SOL     OW20653   2.347   0.658   2.807
 6585SOL    HW120654   2.279   0.637   2.877
 6585SOL    HW220655   2.351   0.583   2.741
 6586SOL     OW20656   5.705   0.608   6.786
 6586SOL    HW120657   5.709   0.669   6.706
 6586SOL    HW220658   5.754   0.650   6.862
 6587SOL     OW20659   1.553   5.692   1.932
 6587SOL    HW120660   1.595   5.762   1.873
 6587SOL    HW220661   1.624   5.632   1.969
 6588SOL     OW20662   3.598   3.570   0.392
 6588SOL    HW120663   3.534   3.507   0.436
 6588SOL    HW220664   3.687   3.566   0.439
 6589SOL     OW20665   4.598   1.782   5.953
 6589SOL    HW120666   4.683   1.769   6.004
 6589SOL    HW220667   4.619   1.787   5.855
 6590SOL     OW20668   6.428   2.140   5.584
 6590SOL    HW120669   6.346   2.197   5.587
 6590SOL    HW220670   6.403   2.047   5.560
 6591SOL     OW20671   4.755   0.238   2.605
 6591SOL    HW120672   4.843   0.190   2.603
 6591SOL    HW220673   4.743   0.287   2.519
 6592SOL     OW20674   5.985   4.758   5.383
 6592SOL    HW120675   5.905   4.792   5.333
 6592SOL    HW220676   5.956   4.691   5.452
 6593SOL     OW20677   5.424   1.251   2.642
 6593SOL    HW120678   5.380   1.338   2.662
 6593SOL    HW220679   5.358   1.190   2.596
 6594SOL     OW20680   5.467   0.525   6.980
 6594SOL    HW120681   5.451   0.465   0.038
 6594SOL    HW220682   5.566   0.538   6.968
 6595SOL     OW20683   3.921   3.024   6.251
 6595SOL    HW120684   3.866   3.065   6.178
 6595SOL    HW220685   3.863   3.002   6.329
 6596SOL     OW20686   2.269   5.435   4.850
 6596SOL    HW120687   2.330   5.419   4.772
 6596SOL    HW220688   2.178   5.400   4.828
 6597SOL     OW20689   0.267   4.300   0.443
 6597SOL    HW120690   0.214   4.287   0.360
 6597SOL    HW220691   0.206   4.328   0.518
 6598SOL     OW20692   3.249   6.290   4.080
 6598SOL    HW120693   3.222   6.316   4.173
 6598SOL    HW220694   3.233   6.192   4.067
 6599SOL     OW20695   4.052   3.683   5.995
 6599SOL    HW120696   4.010   3.771   6.016
 6599SOL    HW220697   3.999   3.637   5.924
 6600SOL     OW20698   4.441   4.804   4.940
 6600SOL    HW120699   4.388   4.720   4.936
 6600SOL    HW220700   4.490   4.817   4.854
 6601SOL     OW20701   1.138   1.064   2.409
 6601SOL    HW120702   1.084   1.146   2.389
 6601SOL    HW220703   1.213   1.057   2.343
 6602SOL     OW20704   5.465   1.463   1.207
 6602SOL    HW120705   5.495   1.421   1.293
 6602SOL    HW220706   5.368   1.444   1.192
 6603SOL     OW20707   3.320   2.149   1.464
 6603SOL    HW120708   3.241   2.094   1.437
 6603SOL    HW220709   3.338   2.135   1.561
 6604SOL     OW20710   4.372   5.212   5.150
 6604SOL    HW120711   4.349   5.137   5.089
 6604SOL    HW220712   4.314   5.291   5.129
 6605SOL     OW20713   5.000   5.681   0.960
 6605SOL    HW120714   5.099   5.681   0.952
 6605SOL    HW220715   4.961   5.741   0.890
 6606SOL     OW20716   0.422   2.974   3.131
 6606SOL    HW120717   0.440   2.960   3.228
 6606SOL    HW220718   0.443   3.069   3.107
 6607SOL     OW20719   2.135   3.826   2.692
 6607SOL    HW120720   2.145   3.727   2.681
 6607SOL    HW220721   2.045   3.854   2.659
 6608SOL     OW20722   5.371   4.517   4.757
 6608SOL    HW120723   5.458   4.520   4.708
 6608SOL    HW220724   5.386   4.487   4.851
 6609SOL     OW20725   5.668   2.452   6.595
 6609SOL    HW120726   5.569   2.439   6.592
 6609SOL    HW220727   5.706   2.444   6.502
 6610SOL     OW20728   4.272   1.138   0.613
 6610SOL    HW120729   4.370   1.156   0.622
 6610SOL    HW220730   4.222   1.225   0.607
 6611SOL     OW20731   5.803   3.014   1.991
 6611SOL    HW120732   5.783   2.918   2.007
 6611SOL    HW220733   5.902   3.026   1.977
 6612SOL     OW20734   0.581   5.465   6.494
 6612SOL    HW120735   0.587   5.553   6.540
 6612SOL    HW220736   0.485   5.439   6.482
 6613SOL     OW20737   6.089   5.140   0.435
 6613SOL    HW120738   6.062   5.044   0.434
 6613SOL    HW220739   6.040   5.189   0.363
 6614SOL     OW20740   5.645   4.014   6.397
 6614SOL    HW120741   5.684   4.069   6.323
 6614SOL    HW220742   5.634   4.071   6.478
 6615SOL     OW20743   0.139   3.504   4.726
 6615SOL    HW120744   0.221   3.559   4.711
 6615SOL    HW220745   0.129   3.484   4.824
 6616SOL     OW20746   4.923   1.443   4.127
 6616SOL    HW120747   4.830   1.445   4.165
 6616SOL    HW220748   4.926   1.382   4.049
 6617SOL     OW20749   3.980   0.783   4.049
 6617SOL    HW120750   3.946   0.689   4.047
 6617SOL    HW220751   3.910   0.844   4.087
 6618SOL     OW20752   0.052   4.506   1.394
 6618SOL    HW120753   0.095   4.422   1.430
 6618SOL    HW220754   0.017   4.488   1.302
 6619SOL     OW20755   6.011   5.733   2.518
 6619SOL    HW120756   6.102   5.745   2.478
 6619SOL    HW220757   5.961   5.819   2.514
 6620SOL     OW20758   5.031   3.361   5.370
 6620SOL    HW120759   5.086   3.279   5.386
 6620SOL    HW220760   5.073   3.417   5.300
 6621SOL     OW20761   4.065   3.255   1.511
 6621SOL    HW120762   3.988   3.239   1.573
 6621SOL    HW220763   4.075   3.176   1.450
 6622SOL     OW20764   6.008   5.340   0.201
 6622SOL    HW120765   6.079   5.401   0.234
 6622SOL    HW220766   5.926   5.350   0.259
 6623SOL     OW20767   3.019   3.574   2.766
 6623SOL    HW120768   2.994   3.553   2.671
 6623SOL    HW220769   3.051   3.669   2.772
 6624SOL     OW20770   4.409   4.845   4.406
 6624SOL    HW120771   4.502   4.881   4.410
 6624SOL    HW220772   4.400   4.769   4.470
 6625SOL     OW20773   5.356   6.402   0.350
 6625SOL    HW120774   5.324   6.383   0.443
 6625SOL    HW220775   5.312   6.485   0.316
 6626SOL     OW20776   2.532   5.319   4.395
 6626SOL    HW120777   2.629   5.306   4.373
 6626SOL    HW220778   2.476   5.302   4.314
 6627SOL     OW20779   0.286   0.773   1.277
 6627SOL    HW120780   0.338   0.855   1.254
 6627SOL    HW220781   0.195   0.799   1.309
 6628SOL     OW20782   3.598   6.223   4.319
 6628SOL    HW120783   3.631   6.298   4.262
 6628SOL    HW220784   3.559   6.261   4.404
 6629SOL     OW20785   2.855   4.557   0.463
 6629SOL    HW120786   2.953   4.577   0.471
 6629SOL    HW220787   2.816   4.547   0.555
 6630SOL     OW20788   3.045   0.934   6.302
 6630SOL    HW120789   3.025   0.992   6.381
 6630SOL    HW220790   3.143   0.937   6.283
 6631SOL     OW20791   3.738   6.852   2.121
 6631SOL    HW120792   3.731   6.912   2.200
 6631SOL    HW220793   3.814   6.788   2.134
 6632SOL     OW20794   6.215   3.332   1.586
 6632SOL    HW120795   6.139   3.306   1.645
 6632SOL    HW220796   6.213   3.276   1.503
 6633SOL     OW20797   1.098   5.979   3.110
 6633SOL    HW120798   1.156   5.953   3.187
 6633SOL    HW220799   1.049   6.064   3.132
 6634SOL     OW20800   6.480   2.253   5.043
 6634SOL    HW120801   6.433   2.317   4.983
 6634SOL    HW220802   6.432   2.165   5.041
 6635SOL     OW20803   3.801   5.187   3.874
 6635SOL    HW120804   3.861   5.196   3.953
 6635SOL    HW220805   3.801   5.092   3.843
 6636SOL     OW20806   2.038   3.305   2.492
 6636SOL    HW120807   1.975   3.380   2.513
 6636SOL    HW220808   2.050   3.298   2.393
 6637SOL     OW20809   0.084   2.751   0.113
 6637SOL    HW120810   0.068   2.689   0.036
 6637SOL    HW220811   0.121   2.699   0.190
 6638SOL     OW20812   1.940   0.522   6.660
 6638SOL    HW120813   1.928   0.434   6.704
 6638SOL    HW220814   1.877   0.530   6.583
 6639SOL     OW20815   3.752   5.141   6.183
 6639SOL    HW120816   3.787   5.197   6.108
 6639SOL    HW220817   3.707   5.199   6.251
 6640SOL     OW20818   5.110   3.948   3.235
 6640SOL    HW120819   5.098   3.861   3.284
 6640SOL    HW220820   5.063   3.944   3.147
 6641SOL     OW20821   2.502   5.194   6.431
 6641SOL    HW120822   2.546   5.259   6.369
 6641SOL    HW220823   2.526   5.217   6.525
 6642SOL     OW20824   6.378   6.465   5.829
 6642SOL    HW120825   6.410   6.480   5.736
 6642SOL    HW220826   6.421   6.530   5.891
 6643SOL     OW20827   4.269   5.615   0.719
 6643SOL    HW120828   4.351   5.664   0.690
 6643SOL    HW220829   4.280   5.518   0.701
 6644SOL     OW20830   0.811   3.342   2.425
 6644SOL    HW120831   0.875   3.415   2.450
 6644SOL    HW220832   0.790   3.348   2.327
 6645SOL     OW20833   0.348   5.018   5.385
 6645SOL    HW120834   0.321   5.113   5.402
 6645SOL    HW220835   0.406   5.014   5.304
 6646SOL     OW20836   1.910   5.574   3.598
 6646SOL    HW120837   2.009   5.563   3.584
 6646SOL    HW220838   1.888   5.550   3.693
 6647SOL     OW20839   4.355   1.565   1.820
 6647SOL    HW120840   4.275   1.559   1.880
 6647SOL    HW220841   4.325   1.557   1.725
 6648SOL     OW20842   3.522   5.419   2.008
 6648SOL    HW120843   3.423   5.407   2.021
 6648SOL    HW220844   3.546   5.394   1.914
 6649SOL     OW20845   3.981   2.001   5.614
 6649SOL    HW120846   4.018   1.914   5.585
 6649SOL    HW220847   3.883   1.991   5.635
 6650SOL     OW20848   3.345   1.428   4.065
 6650SOL    HW120849   3.278   1.419   4.139
 6650SOL    HW220850   3.413   1.356   4.073
 6651SOL     OW20851   0.838   1.628   1.225
 6651SOL    HW120852   0.858   1.535   1.258
 6651SOL    HW220853   0.860   1.694   1.297
 6652SOL     OW20854   0.421   5.352   3.565
 6652SOL    HW120855   0.322   5.340   3.561
 6652SOL    HW220856   0.451   5.400   3.483
 6653SOL     OW20857   3.526   4.158   3.797
 6653SOL    HW120858   3.431   4.167   3.829
 6653SOL    HW220859   3.587   4.159   3.875
 6654SOL     OW20860   1.196   3.345   1.942
 6654SOL    HW120861   1.288   3.350   1.903
 6654SOL    HW220862   1.141   3.420   1.907
 6655SOL     OW20863   1.427   1.182   6.938
 6655SOL    HW120864   1.509   1.128   6.922
 6655SOL    HW220865   1.396   1.169   0.012
 6656SOL     OW20866   6.458   1.651   1.766
 6656SOL    HW120867   6.492   1.665   1.673
 6656SOL    HW220868   6.367   1.610   1.762
 6657SOL     OW20869   3.524   4.724   5.496
 6657SOL    HW120870   3.572   4.649   5.542
 6657SOL    HW220871   3.463   4.687   5.426
 6658SOL     OW20872   6.276   6.840   5.333
 6658SOL    HW120873   6.212   6.888   5.273
 6658SOL    HW220874   6.251   6.743   5.339
 6659SOL     OW20875   2.538   3.112   0.476
 6659SOL    HW120876   2.463   3.151   0.422
 6659SOL    HW220877   2.558   3.173   0.553
 6660SOL     OW20878   7.011   6.660   2.821
 6660SOL    HW120879   0.047   6.585   2.854
 6660SOL    HW220880   6.920   6.625   2.796
 6661SOL     OW20881   6.632   0.079   3.860
 6661SOL    HW120882   6.659   0.050   3.768
 6661SOL    HW220883   6.707   0.132   3.901
 6662SOL     OW20884   1.517   3.484   5.905
 6662SOL    HW120885   1.616   3.482   5.919
 6662SOL    HW220886   1.472   3.434   5.980
 6663SOL     OW20887   0.616   5.349   2.058
 6663SOL    HW120888   0.570   5.399   2.132
 6663SOL    HW220889   0.647   5.415   1.989
 6664SOL     OW20890   0.003   1.745   1.681
 6664SOL    HW120891   6.961   1.814   1.645
 6664SOL    HW220892   7.004   1.656   1.638
 6665SOL     OW20893   2.078   6.635   3.655
 6665SOL    HW120894   2.045   6.633   3.750
 6665SOL    HW220895   2.035   6.710   3.606
 6666SOL     OW20896   6.121   0.625   0.381
 6666SOL    HW120897   6.150   0.530   0.369
 6666SOL    HW220898   6.190   0.686   0.342
 6667SOL     OW20899   5.617   4.930   5.460
 6667SOL    HW120900   5.634   5.023   5.492
 6667SOL    HW220901   5.634   4.865   5.534
 6668SOL     OW20902   6.512   6.083   1.147
 6668SOL    HW120903   6.464   6.131   1.221
 6668SOL    HW220904   6.466   6.100   1.060
 6669SOL     OW20905   0.615   4.755   3.377
 6669SOL    HW120906   0.577   4.663   3.388
 6669SOL    HW220907   0.540   4.821   3.375
 6670SOL     OW20908   5.383   4.754   0.442
 6670SOL    HW120909   5.384   4.803   0.529
 6670SOL    HW220910   5.292   4.763   0.400
 6671SOL     OW20911   1.156   2.335   5.347
 6671SOL    HW120912   1.227   2.394   5.386
 6671SOL    HW220913   1.066   2.379   5.358
 6672SOL     OW20914   6.855   1.353   4.968
 6672SOL    HW120915   6.776   1.321   5.021
 6672SOL    HW220916   6.899   1.428   5.016
 6673SOL     OW20917   3.124   6.190   1.642
 6673SOL    HW120918   3.070   6.204   1.725
 6673SOL    HW220919   3.081   6.239   1.566
 6674SOL     OW20920   0.834   5.868   4.741
 6674SOL    HW120921   0.929   5.852   4.715
 6674SOL    HW220922   0.804   5.957   4.705
 6675SOL     OW20923   6.335   6.587   6.188
 6675SOL    HW120924   6.415   6.585   6.248
 6675SOL    HW220925   6.304   6.493   6.170
 6676SOL     OW20926   0.262   1.281   0.978
 6676SOL    HW120927   0.297   1.199   1.023
 6676SOL    HW220928   0.334   1.319   0.919
 6677SOL     OW20929   0.696   4.483   0.574
 6677SOL    HW120930   0.597   4.477   0.566
 6677SOL    HW220931   0.739   4.427   0.503
 6678SOL     OW20932   0.356   4.109   4.213
 6678SOL    HW120933   0.362   4.019   4.257
 6678SOL    HW220934   0.422   4.115   4.139
 6679SOL     OW20935   2.184   1.336   4.760
 6679SOL    HW120936   2.111   1.280   4.799
 6679SOL    HW220937   2.165   1.353   4.663
 6680SOL     OW20938   3.088   0.725   0.099
 6680SOL    HW120939   3.180   0.700   0.068
 6680SOL    HW220940   3.035   0.758   0.020
 6681SOL     OW20941   6.089   5.163   6.427
 6681SOL    HW120942   6.075   5.065   6.418
 6681SOL    HW220943   6.072   5.207   6.339
 6682SOL     OW20944   6.324   4.773   2.543
 6682SOL    HW120945   6.280   4.863   2.542
 6682SOL    HW220946   6.265   4.707   2.589
 6683SOL     OW20947   5.580   3.006   4.001
 6683SOL    HW120948   5.519   3.068   4.050
 6683SOL    HW220949   5.556   2.911   4.023
 6684SOL     OW20950   1.659   0.701   1.683
 6684SOL    HW120951   1.605   0.773   1.727
 6684SOL    HW220952   1.702   0.737   1.601
 6685SOL     OW20953   6.155   2.842   6.896
 6685SOL    HW120954   6.243   2.867   6.856
 6685SOL    HW220955   6.168   2.769   6.963
 6686SOL     OW20956   4.972   4.517   3.997
 6686SOL    HW120957   5.053   4.570   3.972
 6686SOL    HW220958   4.892   4.576   3.999
 6687SOL     OW20959   0.617   6.892   6.818
 6687SOL    HW120960   0.570   6.980   6.820
 6687SOL    HW220961   0.552   6.820   6.795
 6688SOL     OW20962   0.372   4.591   3.001
 6688SOL    HW120963   0.361   4.531   3.080
 6688SOL    HW220964   0.463   4.633   3.004
 6689SOL     OW20965   5.750   3.684   0.406
 6689SOL    HW120966   5.754   3.747   0.328
 6689SOL    HW220967   5.746   3.737   0.491
 6690SOL     OW20968   0.437   1.024   0.543
 6690SOL    HW120969   0.338   1.014   0.541
 6690SOL    HW220970   0.461   1.121   0.535
 6691SOL     OW20971   0.978   5.413   1.291
 6691SOL    HW120972   0.945   5.459   1.208
 6691SOL    HW220973   0.909   5.348   1.323
 6692SOL     OW20974   4.875   3.425   6.386
 6692SOL    HW120975   4.865   3.513   6.433
 6692SOL    HW220976   4.968   3.418   6.350
 6693SOL     OW20977   3.951   3.301   6.027
 6693SOL    HW120978   3.885   3.235   5.992
 6693SOL    HW220979   3.912   3.350   6.105
 6694SOL     OW20980   2.688   5.628   0.328
 6694SOL    HW120981   2.631   5.699   0.286
 6694SOL    HW220982   2.654   5.538   0.303
 6695SOL     OW20983   1.862   1.671   6.990
 6695SOL    HW120984   1.930   1.649   0.039
 6695SOL    HW220985   1.873   1.766   6.961
 6696SOL     OW20986   1.557   2.120   0.933
 6696SOL    HW120987   1.523   2.052   0.997
 6696SOL    HW220988   1.592   2.075   0.851
 6697SOL     OW20989   5.390   3.555   4.611
 6697SOL    HW120990   5.376   3.642   4.564
 6697SOL    HW220991   5.452   3.568   4.689
 6698SOL     OW20992   2.391   4.567   5.688
 6698SOL    HW120993   2.360   4.492   5.746
 6698SOL    HW220994   2.417   4.532   5.599
 6699SOL     OW20995   1.871   3.197   6.906
 6699SOL    HW120996   1.772   3.189   6.894
 6699SOL    HW220997   1.899   3.291   6.890
 6700SOL     OW20998   0.277   6.152   6.351
 6700SOL    HW120999   0.287   6.199   6.263
 6700SOL    HW221000   0.182   6.121   6.361
 6701SOL     OW21001   1.408   2.262   6.790
 6701SOL    HW121002   1.407   2.362   6.790
 6701SOL    HW221003   1.384   2.229   6.881
 6702SOL     OW21004   3.202   3.266   0.838
 6702SOL    HW121005   3.203   3.326   0.758
 6702SOL    HW221006   3.295   3.253   0.872
 6703SOL     OW21007   0.560   2.054   0.497
 6703SOL    HW121008   0.600   2.118   0.562
 6703SOL    HW221009   0.616   2.051   0.414
 6704SOL     OW21010   5.298   3.587   2.634
 6704SOL    HW121011   5.364   3.549   2.699
 6704SOL    HW221012   5.224   3.631   2.685
 6705SOL     OW21013   5.027   2.466   0.789
 6705SOL    HW121014   5.008   2.509   0.877
 6705SOL    HW221015   5.020   2.534   0.716
 6706SOL     OW21016   1.565   6.690   6.816
 6706SOL    HW121017   1.517   6.652   6.737
 6706SOL    HW221018   1.499   6.729   6.880
 6707SOL     OW21019   1.068   5.098   3.366
 6707SOL    HW121020   0.980   5.127   3.328
 6707SOL    HW221021   1.129   5.177   3.373
 6708SOL     OW21022   2.438   5.943   1.029
 6708SOL    HW121023   2.478   6.035   1.029
 6708SOL    HW221024   2.382   5.931   1.111
 6709SOL     OW21025   5.174   1.785   3.716
 6709SOL    HW121026   5.100   1.730   3.677
 6709SOL    HW221027   5.236   1.815   3.644
 6710SOL     OW21028   2.688   2.563   0.718
 6710SOL    HW121029   2.774   2.605   0.749
 6710SOL    HW221030   2.707   2.473   0.678
 6711SOL     OW21031   5.713   3.552   6.189
 6711SOL    HW121032   5.658   3.568   6.271
 6711SOL    HW221033   5.654   3.515   6.117
 6712SOL     OW21034   3.344   6.255   0.522
 6712SOL    HW121035   3.312   6.218   0.609
 6712SOL    HW221036   3.390   6.343   0.538
 6713SOL     OW21037   0.504   2.659   3.156
 6713SOL    HW121038   0.498   2.758   3.145
 6713SOL    HW221039   0.438   2.629   3.226
 6714SOL     OW21040   6.702   1.001   5.118
 6714SOL    HW121041   6.703   1.100   5.129
 6714SOL    HW221042   6.609   0.966   5.131
 6715SOL     OW21043   5.210   2.876   1.292
 6715SOL    HW121044   5.265   2.793   1.303
 6715SOL    HW221045   5.154   2.889   1.374
 6716SOL     OW21046   3.457   5.925   1.090
 6716SOL    HW121047   3.529   5.986   1.124
 6716SOL    HW221048   3.492   5.870   1.015
 6717SOL     OW21049   3.815   0.997   6.990
 6717SOL    HW121050   3.835   0.902   7.017
 6717SOL    HW221051   3.747   1.036   0.031
 6718SOL     OW21052   4.379   0.194   6.509
 6718SOL    HW121053   4.317   0.271   6.528
 6718SOL    HW221054   4.414   0.203   6.415
 6719SOL     OW21055   1.025   1.904   5.112
 6719SOL    HW121056   1.079   1.869   5.036
 6719SOL    HW221057   1.062   1.992   5.141
 6720SOL     OW21058   1.534   4.645   0.347
 6720SOL    HW121059   1.613   4.698   0.376
 6720SOL    HW221060   1.453   4.675   0.398
 6721SOL     OW21061   6.212   6.626   2.663
 6721SOL    HW121062   6.132   6.573   2.693
 6721SOL    HW221063   6.191   6.671   2.576
 6722SOL     OW21064   3.907   4.713   6.632
 6722SOL    HW121065   3.824   4.668   6.664
 6722SOL    HW221066   3.966   4.734   6.710
 6723SOL     OW21067   3.670   1.996   2.538
 6723SOL    HW121068   3.715   1.913   2.570
 6723SOL    HW221069   3.723   2.076   2.566
 6724SOL     OW21070   3.637   4.595   5.983
 6724SOL    HW121071   3.717   4.652   5.963
 6724SOL    HW221072   3.555   4.651   5.982
 6725SOL     OW21073   0.625   6.250   1.577
 6725SOL    HW121074   0.694   6.236   1.506
 6725SOL    HW221075   0.667   6.296   1.655
 6726SOL     OW21076   2.352   2.606   1.378
 6726SOL    HW121077   2.426   2.635   1.317
 6726SOL    HW221078   2.267   2.601   1.326
 6727SOL     OW21079   2.765   3.934   1.184
 6727SOL    HW121080   2.803   4.009   1.238
 6727SOL    HW221081   2.763   3.960   1.087
 6728SOL     OW21082   4.173   1.646   3.845
 6728SOL    HW121083   4.222   1.601   3.770
 6728SOL    HW221084   4.237   1.663   3.920
 6729SOL     OW21085   3.804   5.704   3.515
 6729SOL    HW121086   3.771   5.628   3.460
 6729SOL    HW221087   3.832   5.779   3.455
 6730SOL     OW21088   1.222   6.717   2.841
 6730SOL    HW121089   1.290   6.778   2.800
 6730SOL    HW221090   1.145   6.706   2.778
 6731SOL     OW21091   1.887   4.005   1.005
 6731SOL    HW121092   1.964   4.067   0.990
 6731SOL    HW221093   1.885   3.977   1.101
 6732SOL     OW21094   3.412   5.758   0.391
 6732SOL    HW121095   3.348   5.702   0.444
 6732SOL    HW221096   3.463   5.700   0.328
 6733SOL     OW21097   6.200   5.963   4.424
 6733SOL    HW121098   6.153   6.009   4.499
 6733SOL    HW221099   6.296   5.992   4.422
 6734SOL     OW21100   2.682   3.800   6.811
 6734SOL    HW121101   2.591   3.762   6.824
 6734SOL    HW221102   2.710   3.788   6.716
 6735SOL     OW21103   0.507   6.520   5.749
 6735SOL    HW121104   0.601   6.515   5.783
 6735SOL    HW221105   0.459   6.595   5.795
 6736SOL     OW21106   2.070   4.258   1.702
 6736SOL    HW121107   2.152   4.290   1.749
 6736SOL    HW221108   2.009   4.335   1.683
 6737SOL     OW21109   1.508   0.220   1.438
 6737SOL    HW121110   1.475   0.310   1.468
 6737SOL    HW221111   1.581   0.190   1.499
 6738SOL     OW21112   5.044   1.729   0.593
 6738SOL    HW121113   5.097   1.658   0.639
 6738SOL    HW221114   4.993   1.782   0.661
 6739SOL     OW21115   3.772   5.340   5.992
 6739SOL    HW121116   3.739   5.412   5.930
 6739SOL    HW221117   3.864   5.313   5.965
 6740SOL     OW21118   5.571   2.432   5.333
 6740SOL    HW121119   5.571   2.343   5.286
 6740SOL    HW221120   5.664   2.467   5.338
 6741SOL     OW21121   0.383   1.033   5.547
 6741SOL    HW121122   0.478   1.065   5.541
 6741SOL    HW221123   0.382   0.933   5.546
 6742SOL     OW21124   5.887   5.720   5.236
 6742SOL    HW121125   5.982   5.721   5.205
 6742SOL    HW221126   5.879   5.769   5.323
 6743SOL     OW21127   5.854   2.152   0.812
 6743SOL    HW121128   5.829   2.078   0.874
 6743SOL    HW221129   5.793   2.230   0.826
 6744SOL     OW21130   4.098   0.586   3.806
 6744SOL    HW121131   4.147   0.656   3.857
 6744SOL    HW221132   4.004   0.579   3.840
 6745SOL     OW21133   1.041   3.916   3.334
 6745SOL    HW121134   1.081   3.847   3.273
 6745SOL    HW221135   1.108   3.988   3.351
 6746SOL     OW21136   6.334   0.145   0.181
 6746SOL    HW121137   6.249   0.136   0.231
 6746SOL    HW221138   6.338   0.235   0.137
 6747SOL     OW21139   5.069   5.429   5.967
 6747SOL    HW121140   5.107   5.473   6.049
 6747SOL    HW221141   5.114   5.340   5.954
 6748SOL     OW21142   6.327   6.780   2.397
 6748SOL    HW121143   6.364   6.804   2.487
 6748SOL    HW221144   6.361   6.844   2.328
 6749SOL     OW21145   3.087   4.942   0.996
 6749SOL    HW121146   3.113   4.930   1.092
 6749SOL    HW221147   2.987   4.948   0.989
 6750SOL     OW21148   2.151   3.206   5.171
 6750SOL    HW121149   2.231   3.147   5.159
 6750SOL    HW221150   2.126   3.245   5.082
 6751SOL     OW21151   4.780   2.623   5.661
 6751SOL    HW121152   4.856   2.626   5.725
 6751SOL    HW221153   4.697   2.596   5.710
 6752SOL     OW21154   6.380   1.010   0.174
 6752SOL    HW121155   6.321   0.964   0.241
 6752SOL    HW221156   6.464   1.041   0.220
 6753SOL     OW21157   5.592   0.637   6.042
 6753SOL    HW121158   5.634   0.549   6.065
 6753SOL    HW221159   5.513   0.622   5.983
 6754SOL     OW21160   4.174   1.407   6.766
 6754SOL    HW121161   4.210   1.490   6.808
 6754SOL    HW221162   4.074   1.408   6.772
 6755SOL     OW21163   5.032   1.606   2.905
 6755SOL    HW121164   4.932   1.606   2.899
 6755SOL    HW221165   5.061   1.667   2.979
 6756SOL     OW21166   4.216   5.148   2.810
 6756SOL    HW121167   4.217   5.211   2.888
 6756SOL    HW221168   4.293   5.085   2.817
 6757SOL     OW21169   6.220   3.787   1.445
 6757SOL    HW121170   6.158   3.751   1.376
 6757SOL    HW221171   6.295   3.723   1.460
 6758SOL     OW21172   6.827   2.458   2.539
 6758SOL    HW121173   6.783   2.472   2.451
 6758SOL    HW221174   6.758   2.447   2.610
 6759SOL     OW21175   0.088   5.404   4.302
 6759SOL    HW121176   0.135   5.338   4.361
 6759SOL    HW221177   0.142   5.488   4.296
 6760SOL     OW21178   0.856   3.702   5.534
 6760SOL    HW121179   0.872   3.783   5.478
 6760SOL    HW221180   0.763   3.706   5.572
 6761SOL     OW21181   6.485   2.810   6.853
 6761SOL    HW121182   6.480   2.711   6.860
 6761SOL    HW221183   6.543   2.835   6.775
 6762SOL     OW21184   0.045   1.754   4.324
 6762SOL    HW121185   0.069   1.838   4.372
 6762SOL    HW221186   0.085   1.755   4.232
 6763SOL     OW21187   5.368   6.448   5.375
 6763SOL    HW121188   5.454   6.471   5.329
 6763SOL    HW221189   5.388   6.405   5.463
 6764SOL     OW21190   1.924   3.759   6.922
 6764SOL    HW121191   1.980   3.832   6.882
 6764SOL    HW221192   1.834   3.758   6.878
 6765SOL     OW21193   4.816   5.690   2.013
 6765SOL    HW121194   4.830   5.699   2.111
 6765SOL    HW221195   4.887   5.631   1.974
 6766SOL     OW21196   2.786   2.250   5.069
 6766SOL    HW121197   2.705   2.194   5.055
 6766SOL    HW221198   2.848   2.204   5.132
 6767SOL     OW21199   0.722   2.897   5.980
 6767SOL    HW121200   0.650   2.957   6.016
 6767SOL    HW221201   0.809   2.918   6.025
 6768SOL     OW21202   6.687   0.332   5.519
 6768SOL    HW121203   6.714   0.417   5.475
 6768SOL    HW221204   6.736   0.255   5.479
 6769SOL     OW21205   1.155   2.506   6.399
 6769SOL    HW121206   1.228   2.484   6.334
 6769SOL    HW221207   1.092   2.428   6.405
 6770SOL     OW21208   0.257   2.232   3.450
 6770SOL    HW121209   0.281   2.172   3.527
 6770SOL    HW221210   0.205   2.310   3.485
 6771SOL     OW21211   5.426   2.318   1.958
 6771SOL    HW121212   5.350   2.302   1.895
 6771SOL    HW221213   5.499   2.367   1.911
 6772SOL     OW21214   1.735   6.761   1.743
 6772SOL    HW121215   1.654   6.776   1.686
 6772SOL    HW221216   1.800   6.703   1.693
 6773SOL     OW21217   1.771   1.447   3.112
 6773SOL    HW121218   1.730   1.417   3.198
 6773SOL    HW221219   1.799   1.542   3.120
 6774SOL     OW21220   3.567   0.968   5.484
 6774SOL    HW121221   3.592   0.871   5.477
 6774SOL    HW221222   3.540   1.002   5.394
 6775SOL     OW21223   1.684   2.745   5.206
 6775SOL    HW121224   1.727   2.835   5.194
 6775SOL    HW221225   1.628   2.724   5.126
 6776SOL     OW21226   3.365   3.363   4.088
 6776SOL    HW121227   3.312   3.282   4.065
 6776SOL    HW221228   3.353   3.433   4.018
 6777SOL     OW21229   6.841   0.128   5.462
 6777SOL    HW121230   6.772   0.055   5.463
 6777SOL    HW221231   6.928   0.091   5.495
 6778SOL     OW21232   6.519   5.634   1.531
 6778SOL    HW121233   6.498   5.714   1.475
 6778SOL    HW221234   6.474   5.642   1.620
 6779SOL     OW21235   5.944   3.067   5.488
 6779SOL    HW121236   5.964   3.054   5.391
 6779SOL    HW221237   5.845   3.073   5.502
 6780SOL     OW21238   4.729   0.876   2.103
 6780SOL    HW121239   4.692   0.798   2.051
 6780SOL    HW221240   4.703   0.868   2.199
 6781SOL     OW21241   5.359   3.946   3.104
 6781SOL    HW121242   5.431   3.889   3.143
 6781SOL    HW221243   5.274   3.930   3.153
 6782SOL     OW21244   6.482   1.683   2.790
 6782SOL    HW121245   6.497   1.724   2.879
 6782SOL    HW221246   6.480   1.754   2.720
 6783SOL     OW21247   0.762   6.710   6.465
 6783SOL    HW121248   0.843   6.710   6.408
 6783SOL    HW221249   0.787   6.728   6.560
 6784SOL     OW21250   1.385   4.771   6.470
 6784SOL    HW121251   1.424   4.679   6.462
 6784SOL    HW221252   1.444   4.837   6.426
 6785SOL     OW21253   5.497   4.227   1.310
 6785SOL    HW121254   5.479   4.257   1.216
 6785SOL    HW221255   5.577   4.168   1.311
 6786SOL     OW21256   6.466   1.366   6.474
 6786SOL    HW121257   6.417   1.416   6.545
 6786SOL    HW221258   6.472   1.269   6.499
 6787SOL     OW21259   4.270   2.502   1.750
 6787SOL    HW121260   4.185   2.552   1.732
 6787SOL    HW221261   4.287   2.438   1.675
 6788SOL     OW21262   1.372   4.496   1.365
 6788SOL    HW121263   1.342   4.591   1.371
 6788SOL    HW221264   1.321   4.449   1.292
 6789SOL     OW21265   5.844   2.628   2.517
 6789SOL    HW121266   5.928   2.681   2.531
 6789SOL    HW221267   5.852   2.574   2.433
 6790SOL     OW21268   0.835   6.079   6.654
 6790SOL    HW121269   0.858   6.064   6.750
 6790SOL    HW221270   0.918   6.083   6.600
 6791SOL     OW21271   1.721   6.501   3.863
 6791SOL    HW121272   1.786   6.573   3.839
 6791SOL    HW221273   1.729   6.481   3.961
 6792SOL     OW21274   3.154   5.917   0.431
 6792SOL    HW121275   3.230   5.857   0.406
 6792SOL    HW221276   3.177   6.011   0.406
 6793SOL     OW21277   1.767   3.293   5.719
 6793SOL    HW121278   1.796   3.388   5.707
 6793SOL    HW221279   1.842   3.232   5.694
 6794SOL     OW21280   4.402   2.419   3.724
 6794SOL    HW121281   4.411   2.474   3.807
 6794SOL    HW221282   4.484   2.430   3.668
 6795SOL     OW21283   0.840   0.164   2.442
 6795SOL    HW121284   0.752   0.206   2.462
 6795SOL    HW221285   0.828   0.095   2.371
 6796SOL     OW21286   5.910   2.083   2.210
 6796SOL    HW121287   5.993   2.116   2.254
 6796SOL    HW221288   5.897   2.129   2.122
 6797SOL     OW21289   1.696   4.320   0.526
 6797SOL    HW121290   1.752   4.243   0.496
 6797SOL    HW221291   1.723   4.402   0.475
 6798SOL     OW21292   5.452   2.090   1.639
 6798SOL    HW121293   5.441   2.028   1.717
 6798SOL    HW221294   5.385   2.164   1.644
 6799SOL     OW21295   4.023   6.467   2.812
 6799SOL    HW121296   4.012   6.406   2.733
 6799SOL    HW221297   3.952   6.447   2.880
 6800SOL     OW21298   6.712   2.852   2.530
 6800SOL    HW121299   6.654   2.773   2.545
 6800SOL    HW221300   6.808   2.824   2.534
 6801SOL     OW21301   2.041   5.150   5.218
 6801SOL    HW121302   2.068   5.160   5.313
 6801SOL    HW221303   2.071   5.061   5.184
 6802SOL     OW21304   2.364   4.272   2.635
 6802SOL    HW121305   2.331   4.308   2.722
 6802SOL    HW221306   2.402   4.346   2.580
 6803SOL     OW21307   6.312   5.398   6.242
 6803SOL    HW121308   6.411   5.396   6.226
 6803SOL    HW221309   6.294   5.424   6.337
 6804SOL     OW21310   3.274   5.937   1.632
 6804SOL    HW121311   3.252   5.937   1.534
 6804SOL    HW221312   3.235   6.019   1.675
 6805SOL     OW21313   0.430   4.253   4.454
 6805SOL    HW121314   0.387   4.199   4.526
 6805SOL    HW221315   0.407   4.215   4.364
 6806SOL     OW21316   5.645   3.417   2.201
 6806SOL    HW121317   5.555   3.447   2.167
 6806SOL    HW221318   5.638   3.395   2.298
 6807SOL     OW21319   4.013   3.429   2.576
 6807SOL    HW121320   4.025   3.463   2.669
 6807SOL    HW221321   4.024   3.329   2.575
 6808SOL     OW21322   2.212   6.222   4.180
 6808SOL    HW121323   2.172   6.240   4.270
 6808SOL    HW221324   2.298   6.173   4.191
 6809SOL     OW21325   6.245   2.474   0.343
 6809SOL    HW121326   6.302   2.514   0.271
 6809SOL    HW221327   6.268   2.516   0.431
 6810SOL     OW21328   3.358   0.013   4.969
 6810SOL    HW121329   3.334   0.048   4.878
 6810SOL    HW221330   3.336   6.937   4.974
 6811SOL     OW21331   6.620   2.077   1.606
 6811SOL    HW121332   6.574   2.014   1.669
 6811SOL    HW221333   6.560   2.155   1.588
 6812SOL     OW21334   3.338   4.533   5.377
 6812SOL    HW121335   3.298   4.548   5.467
 6812SOL    HW221336   3.269   4.550   5.307
 6813SOL     OW21337   0.331   3.231   1.500
 6813SOL    HW121338   0.393   3.200   1.572
 6813SOL    HW221339   0.241   3.188   1.512
 6814SOL     OW21340   4.981   2.194   1.413
 6814SOL    HW121341   4.913   2.225   1.479
 6814SOL    HW221342   4.975   2.095   1.402
 6815SOL     OW21343   1.769   6.127   1.067
 6815SOL    HW121344   1.852   6.087   1.107
 6815SOL    HW221345   1.741   6.207   1.121
 6816SOL     OW21346   5.510   0.371   3.479
 6816SOL    HW121347   5.431   0.389   3.421
 6816SOL    HW221348   5.571   0.307   3.433
 6817SOL     OW21349   6.157   1.088   1.107
 6817SOL    HW121350   6.174   1.037   1.023
 6817SOL    HW221351   6.196   1.039   1.185
 6818SOL     OW21352   7.015   6.474   5.612
 6818SOL    HW121353   6.978   6.420   5.688
 6818SOL    HW221354   0.071   6.528   5.643
 6819SOL     OW21355   6.528   4.000   0.639
 6819SOL    HW121356   6.570   3.972   0.553
 6819SOL    HW221357   6.450   4.060   0.620
 6820SOL     OW21358   2.364   4.486   1.060
 6820SOL    HW121359   2.287   4.521   1.005
 6820SOL    HW221360   2.362   4.529   1.150
 6821SOL     OW21361   2.468   3.838   5.811
 6821SOL    HW121362   2.414   3.757   5.834
 6821SOL    HW221363   2.532   3.816   5.737
 6822SOL     OW21364   0.616   4.294   4.956
 6822SOL    HW121365   0.613   4.333   5.047
 6822SOL    HW221366   0.570   4.205   4.956
 6823SOL     OW21367   6.793   3.372   5.600
 6823SOL    HW121368   6.892   3.364   5.610
 6823SOL    HW221369   6.753   3.280   5.600
 6824SOL     OW21370   1.389   0.787   3.769
 6824SOL    HW121371   1.293   0.805   3.748
 6824SOL    HW221372   1.398   0.695   3.807
 6825SOL     OW21373   4.859   5.337   1.447
 6825SOL    HW121374   4.811   5.414   1.488
 6825SOL    HW221375   4.874   5.356   1.350
 6826SOL     OW21376   5.696   0.747   4.283
 6826SOL    HW121377   5.657   0.724   4.194
 6826SOL    HW221378   5.662   0.838   4.311
 6827SOL     OW21379   5.447   5.224   5.260
 6827SOL    HW121380   5.350   5.224   5.284
 6827SOL    HW221381   5.471   5.314   5.222
 6828SOL     OW21382   2.479   1.957   2.428
 6828SOL    HW121383   2.560   1.903   2.452
 6828SOL    HW221384   2.475   1.968   2.328
 6829SOL     OW21385   5.708   6.288   5.116
 6829SOL    HW121386   5.692   6.236   5.199
 6829SOL    HW221387   5.733   6.225   5.042
 6830SOL     OW21388   3.903   6.445   3.796
 6830SOL    HW121389   3.985   6.468   3.744
 6830SOL    HW221390   3.822   6.478   3.746
 6831SOL     OW21391   1.875   0.259   6.792
 6831SOL    HW121392   1.781   0.232   6.810
 6831SOL    HW221393   1.923   0.184   6.746
 6832SOL     OW21394   3.964   3.799   0.580
 6832SOL    HW121395   3.898   3.724   0.573
 6832SOL    HW221396   4.055   3.766   0.557
 6833SOL     OW21397   4.005   5.494   0.687
 6833SOL    HW121398   4.066   5.562   0.645
 6833SOL    HW221399   4.052   5.406   0.692
 6834SOL     OW21400   6.596   5.691   4.909
 6834SOL    HW121401   6.683   5.688   4.860
 6834SOL    HW221402   6.584   5.608   4.962
 6835SOL     OW21403   3.453   0.497   2.913
 6835SOL    HW121404   3.473   0.565   2.842
 6835SOL    HW221405   3.497   0.524   2.998
 6836SOL     OW21406   1.015   4.417   6.491
 6836SOL    HW121407   1.021   4.322   6.459
 6836SOL    HW221408   0.934   4.427   6.549
 6837SOL     OW21409   5.991   2.360   1.560
 6837SOL    HW121410   5.903   2.319   1.533
 6837SOL    HW221411   6.058   2.287   1.577
 6838SOL     OW21412   2.104   4.780   6.903
 6838SOL    HW121413   2.013   4.797   6.866
 6838SOL    HW221414   2.172   4.828   6.847
 6839SOL     OW21415   6.853   2.746   5.400
 6839SOL    HW121416   6.920   2.672   5.388
 6839SOL    HW221417   6.887   2.811   5.468
 6840SOL     OW21418   3.110   0.359   4.362
 6840SOL    HW121419   3.032   0.419   4.343
 6840SOL    HW221420   3.192   0.397   4.320
 6841SOL     OW21421   4.921   5.856   0.483
 6841SOL    HW121422   4.838   5.881   0.533
 6841SOL    HW221423   4.976   5.938   0.467
 6842SOL     OW21424   6.932   3.502   2.989
 6842SOL    HW121425   6.997   3.503   2.914
 6842SOL    HW221426   6.838   3.506   2.953
 6843SOL     OW21427   4.430   3.031   1.710
 6843SOL    HW121428   4.488   3.059   1.786
 6843SOL    HW221429   4.355   2.973   1.745
 6844SOL     OW21430   3.196   6.413   3.830
 6844SOL    HW121431   3.160   6.344   3.766
 6844SOL    HW221432   3.223   6.369   3.915
 6845SOL     OW21433   4.114   4.367   0.101
 6845SOL    HW121434   4.054   4.438   0.064
 6845SOL    HW221435   4.113   4.370   0.200
 6846SOL     OW21436   3.564   3.367   4.272
 6846SOL    HW121437   3.631   3.441   4.269
 6846SOL    HW221438   3.495   3.382   4.201
 6847SOL     OW21439   5.071   3.490   0.895
 6847SOL    HW121440   5.083   3.445   0.984
 6847SOL    HW221441   5.057   3.588   0.909
 6848SOL     OW21442   1.056   6.089   4.520
 6848SOL    HW121443   1.075   6.115   4.426
 6848SOL    HW221444   1.111   6.145   4.583
 6849SOL     OW21445   2.609   0.546   4.378
 6849SOL    HW121446   2.515   0.524   4.355
 6849SOL    HW221447   2.617   0.644   4.399
 6850SOL     OW21448   6.997   1.973   1.850
 6850SOL    HW121449   0.036   1.939   1.777
 6850SOL    HW221450   6.927   2.032   1.810
 6851SOL     OW21451   2.017   5.387   1.023
 6851SOL    HW121452   2.066   5.311   1.065
 6851SOL    HW221453   2.048   5.473   1.063
 6852SOL     OW21454   4.590   4.721   2.803
 6852SOL    HW121455   4.658   4.702   2.873
 6852SOL    HW221456   4.554   4.634   2.767
 6853SOL     OW21457   6.025   4.240   4.422
 6853SOL    HW121458   5.997   4.324   4.376
 6853SOL    HW221459   5.948   4.176   4.423
 6854SOL     OW21460   6.230   0.907   6.516
 6854SOL    HW121461   6.261   0.814   6.497
 6854SOL    HW221462   6.182   0.909   6.604
 6855SOL     OW21463   2.769   6.957   3.003
 6855SOL    HW121464   2.787   6.867   2.964
 6855SOL    HW221465   2.839   6.979   3.071
 6856SOL     OW21466   0.863   5.301   5.877
 6856SOL    HW121467   0.855   5.217   5.824
 6856SOL    HW221468   0.836   5.284   5.972
 6857SOL     OW21469   4.656   1.086   6.355
 6857SOL    HW121470   4.667   1.017   6.283
 6857SOL    HW221471   4.564   1.080   6.393
 6858SOL     OW21472   3.293   3.128   6.501
 6858SOL    HW121473   3.228   3.202   6.484
 6858SOL    HW221474   3.247   3.040   6.488
 6859SOL     OW21475   4.380   6.877   1.400
 6859SOL    HW121476   4.455   6.845   1.458
 6859SOL    HW221477   4.417   6.910   1.313
 6860SOL     OW21478   4.993   3.254   0.112
 6860SOL    HW121479   5.048   3.268   0.195
 6860SOL    HW221480   4.909   3.307   0.119
 6861SOL     OW21481   6.274   3.545   0.010
 6861SOL    HW121482   6.219   3.512   6.954
 6861SOL    HW221483   6.354   3.593   6.997
 6862SOL     OW21484   2.683   4.680   4.657
 6862SOL    HW121485   2.654   4.749   4.723
 6862SOL    HW221486   2.695   4.592   4.703
 6863SOL     OW21487   0.895   3.977   3.973
 6863SOL    HW121488   0.874   4.052   3.910
 6863SOL    HW221489   0.952   3.909   3.927
 6864SOL     OW21490   2.920   5.640   6.127
 6864SOL    HW121491   2.949   5.602   6.215
 6864SOL    HW221492   2.886   5.567   6.068
 6865SOL     OW21493   0.814   2.553   5.585
 6865SOL    HW121494   0.840   2.480   5.522
 6865SOL    HW221495   0.718   2.542   5.611
 6866SOL     OW21496   0.504   4.371   2.867
 6866SOL    HW121497   0.469   4.302   2.931
 6866SOL    HW221498   0.442   4.449   2.863
 6867SOL     OW21499   2.822   5.568   3.693
 6867SOL    HW121500   2.788   5.661   3.685
 6867SOL    HW221501   2.755   5.504   3.654
 6868SOL     OW21502   2.190   5.875   5.252
 6868SOL    HW121503   2.183   5.775   5.257
 6868SOL    HW221504   2.162   5.914   5.340
 6869SOL     OW21505   0.384   2.532   3.993
 6869SOL    HW121506   0.318   2.503   3.924
 6869SOL    HW221507   0.454   2.462   4.005
 6870SOL     OW21508   4.747   4.137   3.091
 6870SOL    HW121509   4.739   4.039   3.108
 6870SOL    HW221510   4.782   4.152   2.999
 6871SOL     OW21511   4.253   5.984   2.233
 6871SOL    HW121512   4.327   6.018   2.292
 6871SOL    HW221513   4.262   5.885   2.222
 6872SOL     OW21514   3.291   4.074   1.140
 6872SOL    HW121515   3.369   4.110   1.191
 6872SOL    HW221516   3.222   4.146   1.131
 6873SOL     OW21517   4.676   4.576   5.010
 6873SOL    HW121518   4.760   4.629   5.018
 6873SOL    HW221519   4.646   4.574   4.914
 6874SOL     OW21520   1.433   1.424   6.330
 6874SOL    HW121521   1.522   1.390   6.360
 6874SOL    HW221522   1.433   1.524   6.331
 6875SOL     OW21523   3.618   6.454   5.022
 6875SOL    HW121524   3.672   6.413   4.948
 6875SOL    HW221525   3.602   6.551   5.002
 6876SOL     OW21526   2.901   6.921   5.012
 6876SOL    HW121527   2.972   6.988   5.034
 6876SOL    HW221528   2.917   6.837   5.064
 6877SOL     OW21529   2.062   4.428   0.700
 6877SOL    HW121530   2.037   4.331   0.694
 6877SOL    HW221531   2.124   4.441   0.777
 6878SOL     OW21532   2.058   1.683   4.975
 6878SOL    HW121533   2.086   1.588   4.987
 6878SOL    HW221534   2.138   1.739   4.953
 6879SOL     OW21535   6.198   1.092   5.899
 6879SOL    HW121536   6.272   1.039   5.940
 6879SOL    HW221537   6.217   1.106   5.802
 6880SOL     OW21538   1.177   5.193   4.526
 6880SOL    HW121539   1.257   5.146   4.489
 6880SOL    HW221540   1.192   5.214   4.623
 6881SOL     OW21541   4.832   6.402   1.354
 6881SOL    HW121542   4.843   6.450   1.442
 6881SOL    HW221543   4.791   6.465   1.288
 6882SOL     OW21544   2.650   5.773   5.246
 6882SOL    HW121545   2.564   5.730   5.221
 6882SOL    HW221546   2.669   5.755   5.343
 6883SOL     OW21547   2.611   6.931   2.258
 6883SOL    HW121548   2.670   6.859   2.294
 6883SOL    HW221549   2.544   6.892   2.196
 6884SOL     OW21550   1.733   5.082   3.122
 6884SOL    HW121551   1.738   5.112   3.217
 6884SOL    HW221552   1.714   4.984   3.118
 6885SOL     OW21553   4.397   4.628   4.604
 6885SOL    HW121554   4.485   4.588   4.578
 6885SOL    HW221555   4.382   4.615   4.702
 6886SOL     OW21556   5.476   6.529   0.957
 6886SOL    HW121557   5.378   6.527   0.936
 6886SOL    HW221558   5.525   6.474   0.889
 6887SOL     OW21559   0.050   0.669   4.991
 6887SOL    HW121560   6.977   0.648   5.018
 6887SOL    HW221561   0.070   0.765   5.012
 6888SOL     OW21562   6.636   6.521   3.956
 6888SOL    HW121563   6.566   6.517   4.027
 6888SOL    HW221564   6.702   6.592   3.978
 6889SOL     OW21565   2.098   4.081   6.341
 6889SOL    HW121566   2.174   4.041   6.392
 6889SOL    HW221567   2.133   4.131   6.262
 6890SOL     OW21568   1.408   0.475   1.436
 6890SOL    HW121569   1.386   0.499   1.342
 6890SOL    HW221570   1.354   0.531   1.499
 6891SOL     OW21571   5.208   5.349   5.601
 6891SOL    HW121572   5.236   5.425   5.543
 6891SOL    HW221573   5.118   5.367   5.639
 6892SOL     OW21574   3.003   1.865   4.162
 6892SOL    HW121575   3.053   1.859   4.248
 6892SOL    HW221576   2.976   1.773   4.132
 6893SOL     OW21577   5.284   0.356   0.728
 6893SOL    HW121578   5.357   0.424   0.729
 6893SOL    HW221579   5.221   0.374   0.653
 6894SOL     OW21580   5.636   4.257   5.289
 6894SOL    HW121581   5.554   4.298   5.248
 6894SOL    HW221582   5.689   4.329   5.334
 6895SOL     OW21583   5.044   4.942   4.148
 6895SOL    HW121584   5.129   4.973   4.106
 6895SOL    HW221585   5.039   4.842   4.142
 6896SOL     OW21586   5.171   1.740   2.143
 6896SOL    HW121587   5.132   1.829   2.120
 6896SOL    HW221588   5.218   1.746   2.231
 6897SOL     OW21589   4.443   1.607   1.314
 6897SOL    HW121590   4.529   1.577   1.355
 6897SOL    HW221591   4.375   1.534   1.320
 6898SOL     OW21592   4.178   1.473   1.607
 6898SOL    HW121593   4.224   1.420   1.535
 6898SOL    HW221594   4.134   1.410   1.671
 6899SOL     OW21595   5.330   4.445   5.832
 6899SOL    HW121596   5.240   4.467   5.869
 6899SOL    HW221597   5.322   4.427   5.734
 6900SOL     OW21598   4.106   0.424   5.979
 6900SOL    HW121599   4.108   0.445   6.076
 6900SOL    HW221600   4.114   0.325   5.966
 6901SOL     OW21601   1.578   0.913   0.018
 6901SOL    HW121602   1.556   0.865   6.954
 6901SOL    HW221603   1.515   0.885   0.090
 6902SOL     OW21604   6.375   5.126   2.735
 6902SOL    HW121605   6.434   5.201   2.704
 6902SOL    HW221606   6.354   5.139   2.832
 6903SOL     OW21607   6.089   4.628   0.157
 6903SOL    HW121608   6.095   4.624   0.257
 6903SOL    HW221609   6.178   4.608   0.117
 6904SOL     OW21610   0.780   1.113   2.309
 6904SOL    HW121611   0.771   1.096   2.407
 6904SOL    HW221612   0.750   1.033   2.258
 6905SOL     OW21613   3.469   5.415   0.581
 6905SOL    HW121614   3.567   5.432   0.575
 6905SOL    HW221615   3.451   5.344   0.650
 6906SOL     OW21616   5.882   6.093   2.513
 6906SOL    HW121617   5.834   6.174   2.480
 6906SOL    HW221618   5.908   6.106   2.609
 6907SOL     OW21619   3.692   1.137   1.661
 6907SOL    HW121620   3.704   1.162   1.757
 6907SOL    HW221621   3.757   1.186   1.605
 6908SOL     OW21622   5.283   6.982   0.069
 6908SOL    HW121623   5.280   0.028   0.143
 6908SOL    HW221624   5.213   6.912   0.085
 6909SOL     OW21625   2.667   2.104   6.927
 6909SOL    HW121626   2.596   2.043   6.891
 6909SOL    HW221627   2.697   2.167   6.856
 6910SOL     OW21628   4.133   0.907   0.692
 6910SOL    HW121629   4.190   0.980   0.655
 6910SOL    HW221630   4.054   0.946   0.738
 6911SOL     OW21631   3.797   6.433   5.672
 6911SOL    HW121632   3.733   6.509   5.685
 6911SOL    HW221633   3.792   6.400   5.578
 6912SOL     OW21634   3.334   5.641   1.713
 6912SOL    HW121635   3.292   5.573   1.773
 6912SOL    HW221636   3.362   5.720   1.768
 6913SOL     OW21637   3.927   5.928   5.809
 6913SOL    HW121638   3.911   5.838   5.768
 6913SOL    HW221639   3.873   5.937   5.892
 6914SOL     OW21640   0.185   5.241   0.044
 6914SOL    HW121641   0.269   5.193   0.015
 6914SOL    HW221642   0.209   5.331   0.080
 6915SOL     OW21643   0.949   0.091   6.653
 6915SOL    HW121644   0.885   0.093   6.730
 6915SOL    HW221645   0.977   0.184   6.630
 6916SOL     OW21646   6.277   0.576   6.493
 6916SOL    HW121647   6.369   0.604   6.521
 6916SOL    HW221648   6.226   0.544   6.574
 6917SOL     OW21649   3.981   6.116   6.149
 6917SOL    HW121650   4.054   6.059   6.109
 6917SOL    HW221651   3.892   6.083   6.117
 6918SOL     OW21652   1.748   2.577   3.923
 6918SOL    HW121653   1.671   2.639   3.909
 6918SOL    HW221654   1.774   2.577   4.020
 6919SOL     OW21655   1.961   5.836   3.541
 6919SOL    HW121656   2.013   5.880   3.614
 6919SOL    HW221657   1.927   5.747   3.572
 6920SOL     OW21658   5.886   5.739   3.957
 6920SOL    HW121659   5.971   5.697   3.926
 6920SOL    HW221660   5.907   5.820   4.012
 6921SOL     OW21661   1.804   4.841   2.509
 6921SOL    HW121662   1.844   4.911   2.450
 6921SOL    HW221663   1.752   4.885   2.583
 6922SOL     OW21664   1.689   6.421   1.533
 6922SOL    HW121665   1.616   6.368   1.491
 6922SOL    HW221666   1.755   6.449   1.463
 6923SOL     OW21667   5.289   5.642   4.817
 6923SOL    HW121668   5.376   5.691   4.824
 6923SOL    HW221669   5.243   5.667   4.732
 6924SOL     OW21670   5.621   6.006   2.769
 6924SOL    HW121671   5.575   6.067   2.706
 6924SOL    HW221672   5.578   5.916   2.766
 6925SOL     OW21673   4.353   5.714   2.056
 6925SOL    HW121674   4.264   5.681   2.025
 6925SOL    HW221675   4.351   5.728   2.155
 6926SOL     OW21676   2.703   4.237   5.341
 6926SOL    HW121677   2.639   4.192   5.279
 6926SOL    HW221678   2.740   4.319   5.297
 6927SOL     OW21679   4.214   3.652   0.476
 6927SOL    HW121680   4.244   3.587   0.545
 6927SOL    HW221681   4.292   3.677   0.417
 6928SOL     OW21682   6.811   0.225   6.703
 6928SOL    HW121683   6.792   0.296   6.636
 6928SOL    HW221684   6.863   0.264   6.780
 6929SOL     OW21685   4.023   6.029   1.089
 6929SOL    HW121686   4.104   6.007   1.143
 6929SOL    HW221687   4.049   6.049   0.994
 6930SOL     OW21688   0.005   0.694   3.283
 6930SOL    HW121689   7.006   0.611   3.231
 6930SOL    HW221690   0.099   0.724   3.264
 6931SOL     OW21691   2.287   6.810   1.044
 6931SOL    HW121692   2.270   6.896   0.995
 6931SOL    HW221693   2.218   6.743   1.016
 6932SOL     OW21694   3.277   2.818   0.502
 6932SOL    HW121695   3.199   2.881   0.504
 6932SOL    HW221696   3.268   2.757   0.423
 6933SOL     OW21697   3.011   6.288   5.097
 6933SOL    HW121698   2.949   6.241   5.160
 6933SOL    HW221699   3.092   6.318   5.148
 6934SOL     OW21700   5.354   5.081   6.879
 6934SOL    HW121701   5.326   4.988   6.853
 6934SOL    HW221702   5.448   5.079   6.911
 6935SOL     OW21703   4.389   5.594   3.310
 6935SOL    HW121704   4.340   5.547   3.383
 6935SOL    HW221705   4.423   5.526   3.244
 6936SOL     OW21706   1.105   4.741   0.618
 6936SOL    HW121707   1.077   4.649   0.592
 6936SOL    HW221708   1.205   4.747   0.616
 6937SOL     OW21709   4.334   6.092   6.732
 6937SOL    HW121710   4.297   6.141   6.653
 6937SOL    HW221711   4.267   6.027   6.766
 6938SOL     OW21712   6.573   2.140   5.340
 6938SOL    HW121713   6.572   2.057   5.285
 6938SOL    HW221714   6.519   2.127   5.422
 6939SOL     OW21715   6.351   4.520   1.702
 6939SOL    HW121716   6.311   4.544   1.613
 6939SOL    HW221717   6.374   4.422   1.702
 6940SOL     OW21718   3.865   0.520   4.013
 6940SOL    HW121719   3.836   0.454   4.082
 6940SOL    HW221720   3.811   0.508   3.929
 6941SOL     OW21721   3.654   2.829   5.094
 6941SOL    HW121722   3.560   2.800   5.078
 6941SOL    HW221723   3.699   2.764   5.155
 6942SOL     OW21724   6.430   1.489   6.216
 6942SOL    HW121725   6.527   1.485   6.192
 6942SOL    HW221726   6.413   1.430   6.295
 6943SOL     OW21727   6.004   4.015   0.203
 6943SOL    HW121728   6.041   4.102   0.236
 6943SOL    HW221729   6.029   3.942   0.268
 6944SOL     OW21730   2.161   0.318   6.878
 6944SOL    HW121731   2.066   0.341   6.900
 6944SOL    HW221732   2.223   0.379   6.927
 6945SOL     OW21733   3.471   1.521   6.721
 6945SOL    HW121734   3.455   1.578   6.803
 6945SOL    HW221735   3.452   1.426   6.743
 6946SOL     OW21736   6.114   3.981   2.558
 6946SOL    HW121737   6.044   4.032   2.509
 6946SOL    HW221738   6.101   3.883   2.542
 6947SOL     OW21739   3.941   6.876   0.917
 6947SOL    HW121740   3.952   6.960   0.971
 6947SOL    HW221741   3.899   6.805   0.975
 6948SOL     OW21742   3.570   1.676   6.162
 6948SOL    HW121743   3.620   1.747   6.112
 6948SOL    HW221744   3.561   1.704   6.258
 6949SOL     OW21745   5.307   0.017   2.539
 6949SOL    HW121746   5.269   6.984   2.614
 6949SOL    HW221747   5.358   6.978   2.478
 6950SOL     OW21748   3.213   1.840   3.256
 6950SOL    HW121749   3.184   1.880   3.169
 6950SOL    HW221750   3.136   1.837   3.319
 6951SOL     OW21751   4.412   3.588   5.644
 6951SOL    HW121752   4.342   3.541   5.591
 6951SOL    HW221753   4.433   3.676   5.602
 6952SOL     OW21754   0.428   3.610   6.357
 6952SOL    HW121755   0.366   3.657   6.294
 6952SOL    HW221756   0.511   3.583   6.307
 6953SOL     OW21757   6.038   2.339   4.924
 6953SOL    HW121758   5.981   2.416   4.950
 6953SOL    HW221759   5.989   2.253   4.944
 6954SOL     OW21760   0.049   4.682   1.798
 6954SOL    HW121761   7.021   4.597   1.779
 6954SOL    HW221762   0.128   4.690   1.737
 6955SOL     OW21763   0.423   0.622   3.595
 6955SOL    HW121764   0.455   0.533   3.563
 6955SOL    HW221765   0.335   0.643   3.552
 6956SOL     OW21766   3.742   4.135   1.417
 6956SOL    HW121767   3.711   4.057   1.472
 6956SOL    HW221768   3.835   4.119   1.384
 6957SOL     OW21769   1.542   4.458   0.953
 6957SOL    HW121770   1.632   4.424   0.924
 6957SOL    HW221771   1.552   4.552   0.986
 6958SOL     OW21772   1.796   3.545   5.946
 6958SOL    HW121773   1.873   3.553   6.009
 6958SOL    HW221774   1.831   3.528   5.854
 6959SOL     OW21775   4.147   1.160   5.123
 6959SOL    HW121776   4.058   1.169   5.079
 6959SOL    HW221777   4.140   1.190   5.219
 6960SOL     OW21778   1.298   5.925   6.412
 6960SOL    HW121779   1.245   6.008   6.431
 6960SOL    HW221780   1.390   5.950   6.383
 6961SOL     OW21781   5.852   0.718   3.845
 6961SOL    HW121782   5.944   0.689   3.874
 6961SOL    HW221783   5.797   0.637   3.823
 6962SOL     OW21784   3.507   3.303   0.918
 6962SOL    HW121785   3.543   3.276   0.828
 6962SOL    HW221786   3.569   3.369   0.960
 6963SOL     OW21787   6.486   6.088   1.628
 6963SOL    HW121788   6.516   6.181   1.606
 6963SOL    HW221789   6.485   6.033   1.545
 6964SOL     OW21790   3.841   5.043   5.512
 6964SOL    HW121791   3.873   5.138   5.507
 6964SOL    HW221792   3.904   4.990   5.568
 6965SOL     OW21793   6.364   0.991   6.107
 6965SOL    HW121794   6.316   0.923   6.162
 6965SOL    HW221795   6.339   1.083   6.139
 6966SOL     OW21796   4.154   2.279   3.575
 6966SOL    HW121797   4.098   2.219   3.633
 6966SOL    HW221798   4.226   2.321   3.630
 6967SOL     OW21799   2.858   2.962   6.455
 6967SOL    HW121800   2.787   2.969   6.526
 6967SOL    HW221801   2.874   2.866   6.433
 6968SOL     OW21802   3.496   0.915   3.176
 6968SOL    HW121803   3.544   1.002   3.191
 6968SOL    HW221804   3.526   0.848   3.243
 6969SOL     OW21805   3.872   3.288   1.683
 6969SOL    HW121806   3.919   3.264   1.768
 6969SOL    HW221807   3.777   3.311   1.703
 6970SOL     OW21808   5.087   3.989   0.214
 6970SOL    HW121809   5.000   4.039   0.213
 6970SOL    HW221810   5.091   3.930   0.295
 6971SOL     OW21811   6.016   1.681   2.380
 6971SOL    HW121812   5.957   1.758   2.355
 6971SOL    HW221813   6.025   1.620   2.302
 6972SOL     OW21814   4.954   5.830   4.474
 6972SOL    HW121815   5.022   5.874   4.416
 6972SOL    HW221816   4.912   5.898   4.534
 6973SOL     OW21817   1.734   4.466   3.033
 6973SOL    HW121818   1.648   4.426   2.999
 6973SOL    HW221819   1.793   4.489   2.956
 6974SOL     OW21820   2.924   3.627   5.020
 6974SOL    HW121821   2.957   3.688   4.949
 6974SOL    HW221822   2.902   3.538   4.981
 6975SOL     OW21823   1.700   6.671   6.543
 6975SOL    HW121824   1.719   6.573   6.544
 6975SOL    HW221825   1.780   6.721   6.576
 6976SOL     OW21826   1.187   5.935   1.504
 6976SOL    HW121827   1.177   6.016   1.445
 6976SOL    HW221828   1.251   5.870   1.462
 6977SOL     OW21829   5.660   2.669   1.145
 6977SOL    HW121830   5.711   2.752   1.125
 6977SOL    HW221831   5.609   2.641   1.063
 6978SOL     OW21832   5.449   2.737   3.640
 6978SOL    HW121833   5.543   2.708   3.660
 6978SOL    HW221834   5.390   2.657   3.638
 6979SOL     OW21835   6.953   3.619   4.536
 6979SOL    HW121836   6.862   3.633   4.576
 6979SOL    HW221837   7.017   3.594   4.609
 6980SOL     OW21838   4.816   2.074   4.928
 6980SOL    HW121839   4.731   2.093   4.977
 6980SOL    HW221840   4.796   2.050   4.833
 6981SOL     OW21841   3.246   3.429   6.214
 6981SOL    HW121842   3.263   3.424   6.116
 6981SOL    HW221843   3.310   3.494   6.256
 6982SOL     OW21844   1.152   0.219   4.396
 6982SOL    HW121845   1.234   0.267   4.365
 6982SOL    HW221846   1.167   0.181   4.488
 6983SOL     OW21847   6.184   1.051   2.758
 6983SOL    HW121848   6.274   1.048   2.714
 6983SOL    HW221849   6.153   0.958   2.779
 6984SOL     OW21850   2.211   1.074   6.624
 6984SOL    HW121851   2.261   1.143   6.676
 6984SOL    HW221852   2.185   0.999   6.684
 6985SOL     OW21853   4.326   6.982   3.987
 6985SOL    HW121854   4.403   6.921   4.008
 6985SOL    HW221855   4.338   0.048   4.035
 6986SOL     OW21856   2.566   6.382   5.342
 6986SOL    HW121857   2.563   6.363   5.440
 6986SOL    HW221858   2.481   6.426   5.313
 6987SOL     OW21859   6.701   3.436   6.065
 6987SOL    HW121860   6.613   3.456   6.022
 6987SOL    HW221861   6.692   3.355   6.123
 6988SOL     OW21862   5.340   1.695   6.840
 6988SOL    HW121863   5.330   1.757   6.763
 6988SOL    HW221864   5.295   1.734   6.921
 6989SOL     OW21865   2.035   3.640   4.437
 6989SOL    HW121866   1.989   3.565   4.388
 6989SOL    HW221867   1.998   3.727   4.405
 6990SOL     OW21868   4.150   3.544   1.822
 6990SOL    HW121869   4.171   3.628   1.772
 6990SOL    HW221870   4.205   3.469   1.785
 6991SOL     OW21871   4.803   4.700   5.424
 6991SOL    HW121872   4.853   4.776   5.466
 6991SOL    HW221873   4.714   4.733   5.392
 6992SOL     OW21874   6.659   6.625   5.077
 6992SOL    HW121875   6.627   6.626   5.171
 6992SOL    HW221876   6.635   6.712   5.033
 6993SOL     OW21877   0.506   0.540   2.857
 6993SOL    HW121878   0.441   0.474   2.819
 6993SOL    HW221879   0.537   0.602   2.784
 6994SOL     OW21880   2.052   2.435   0.370
 6994SOL    HW121881   2.089   2.405   0.458
 6994SOL    HW221882   1.956   2.462   0.381
 6995SOL     OW21883   0.884   5.467   3.664
 6995SOL    HW121884   0.869   5.368   3.660
 6995SOL    HW221885   0.957   5.487   3.730
 6996SOL     OW21886   1.700   0.095   4.845
 6996SOL    HW121887   1.793   0.112   4.877
 6996SOL    HW221888   1.637   0.093   4.923
 6997SOL     OW21889   4.608   5.067   4.462
 6997SOL    HW121890   4.561   5.069   4.550
 6997SOL    HW221891   4.646   5.158   4.443
 6998SOL     OW21892   2.580   2.098   1.911
 6998SOL    HW121893   2.530   2.041   1.845
 6998SOL    HW221894   2.611   2.181   1.865
 6999SOL     OW21895   5.571   1.986   6.951
 6999SOL    HW121896   5.601   1.894   6.928
 6999SOL    HW221897   5.621   2.052   6.896
 7000SOL     OW21898   6.779   7.002   1.794
 7000SOL    HW121899   6.696   0.038   1.795
 7000SOL    HW221900   6.858   0.038   1.817
 7001SOL     OW21901   2.551   1.425   6.775
 7001SOL    HW121902   2.550   1.482   6.856
 7001SOL    HW221903   2.642   1.388   6.760
 7002SOL     OW21904   2.796   5.518   1.425
 7002SOL    HW121905   2.885   5.545   1.388
 7002SOL    HW221906   2.805   5.430   1.472
 7003SOL     OW21907   1.559   6.290   6.006
 7003SOL    HW121908   1.581   6.220   5.938
 7003SOL    HW221909   1.484   6.347   5.973
 7004SOL     OW21910   2.318   3.971   6.506
 7004SOL    HW121911   2.290   4.046   6.566
 7004SOL    HW221912   2.413   3.983   6.479
 7005SOL     OW21913   6.281   0.494   5.796
 7005SOL    HW121914   6.194   0.464   5.756
 7005SOL    HW221915   6.344   0.417   5.798
 7006SOL     OW21916   5.103   5.635   4.266
 7006SOL    HW121917   5.035   5.650   4.194
 7006SOL    HW221918   5.190   5.678   4.239
 7007SOL     OW21919   5.446   4.965   1.194
 7007SOL    HW121920   5.517   5.028   1.162
 7007SOL    HW221921   5.470   4.930   1.284
 7008SOL     OW21922   0.717   6.617   3.874
 7008SOL    HW121923   0.743   6.533   3.921
 7008SOL    HW221924   0.735   6.696   3.932
 7009SOL     OW21925   6.927   4.155   1.451
 7009SOL    HW121926   7.013   4.199   1.476
 7009SOL    HW221927   6.895   4.193   1.364
 7010SOL     OW21928   4.991   4.187   5.884
 7010SOL    HW121929   5.035   4.212   5.798
 7010SOL    HW221930   4.907   4.241   5.895
 7011SOL     OW21931   1.267   0.138   5.693
 7011SOL    HW121932   1.259   0.132   5.793
 7011SOL    HW221933   1.282   0.233   5.667
 7012SOL     OW21934   0.434   0.618   1.713
 7012SOL    HW121935   0.363   0.681   1.680
 7012SOL    HW221936   0.441   0.541   1.650
 7013SOL     OW21937   6.414   2.166   1.212
 7013SOL    HW121938   6.450   2.252   1.247
 7013SOL    HW221939   6.330   2.143   1.262
 7014SOL     OW21940   2.486   5.169   1.036
 7014SOL    HW121941   2.453   5.258   1.002
 7014SOL    HW221942   2.457   5.097   0.974
 7015SOL     OW21943   4.753   2.150   2.154
 7015SOL    HW121944   4.653   2.155   2.148
 7015SOL    HW221945   4.791   2.242   2.148
 7016SOL     OW21946   5.266   4.500   0.474
 7016SOL    HW121947   5.238   4.485   0.380
 7016SOL    HW221948   5.301   4.593   0.484
 7017SOL     OW21949   5.197   2.343   5.304
 7017SOL    HW121950   5.238   2.282   5.237
 7017SOL    HW221951   5.098   2.333   5.303
 7018SOL     OW21952   0.650   4.286   3.284
 7018SOL    HW121953   0.623   4.365   3.339
 7018SOL    HW221954   0.623   4.202   3.332
 7019SOL     OW21955   6.443   6.147   2.273
 7019SOL    HW121956   6.457   6.231   2.219
 7019SOL    HW221957   6.422   6.071   2.212
 7020SOL     OW21958   6.697   5.682   0.176
 7020SOL    HW121959   6.728   5.593   0.209
 7020SOL    HW221960   6.607   5.702   0.214
 7021SOL     OW21961   3.203   6.791   5.533
 7021SOL    HW121962   3.111   6.828   5.531
 7021SOL    HW221963   3.233   6.770   5.440
 7022SOL     OW21964   3.633   4.517   5.613
 7022SOL    HW121965   3.569   4.442   5.632
 7022SOL    HW221966   3.709   4.483   5.557
 7023SOL     OW21967   4.752   5.237   2.424
 7023SOL    HW121968   4.697   5.201   2.500
 7023SOL    HW221969   4.691   5.271   2.352
 7024SOL     OW21970   6.073   6.767   2.102
 7024SOL    HW121971   6.163   6.806   2.119
 7024SOL    HW221972   6.046   6.709   2.179
 7025SOL     OW21973   3.174   0.229   1.538
 7025SOL    HW121974   3.169   0.160   1.465
 7025SOL    HW221975   3.092   0.223   1.595
 7026SOL     OW21976   4.474   2.466   0.464
 7026SOL    HW121977   4.468   2.512   0.376
 7026SOL    HW221978   4.569   2.463   0.494
 7027SOL     OW21979   5.716   5.704   5.005
 7027SOL    HW121980   5.771   5.699   5.089
 7027SOL    HW221981   5.701   5.611   4.970
 7028SOL     OW21982   3.383   0.552   4.681
 7028SOL    HW121983   3.352   0.562   4.776
 7028SOL    HW221984   3.423   0.638   4.650
 7029SOL     OW21985   3.551   0.019   4.056
 7029SOL    HW121986   3.572   6.952   4.014
 7029SOL    HW221987   3.471   0.009   4.116
 7030SOL     OW21988   1.105   3.886   3.818
 7030SOL    HW121989   1.145   3.928   3.899
 7030SOL    HW221990   1.177   3.869   3.750
 7031SOL     OW21991   1.859   0.834   4.251
 7031SOL    HW121992   1.888   0.778   4.173
 7031SOL    HW221993   1.876   0.931   4.230
 7032SOL     OW21994   6.174   2.229   3.444
 7032SOL    HW121995   6.116   2.310   3.444
 7032SOL    HW221996   6.268   2.254   3.470
 7033SOL     OW21997   0.225   0.961   5.077
 7033SOL    HW121998   0.229   0.960   4.977
 7033SOL    HW221999   0.130   0.963   5.107
 7034SOL     OW22000   0.085   5.079   4.080
 7034SOL    HW122001   0.028   5.044   4.005
 7034SOL    HW222002   0.113   5.173   4.058
 7035SOL     OW22003   6.882   4.756   1.051
 7035SOL    HW122004   6.901   4.673   1.103
 7035SOL    HW222005   6.835   4.821   1.109
 7036SOL     OW22006   6.378   5.549   0.480
 7036SOL    HW122007   6.394   5.489   0.402
 7036SOL    HW222008   6.450   5.535   0.548
 7037SOL     OW22009   1.399   0.380   6.383
 7037SOL    HW122010   1.440   0.319   6.451
 7037SOL    HW222011   1.405   0.474   6.414
 7038SOL     OW22012   2.525   2.546   4.270
 7038SOL    HW122013   2.579   2.484   4.326
 7038SOL    HW222014   2.442   2.499   4.239
 7039SOL     OW22015   4.000   1.978   6.407
 7039SOL    HW122016   4.056   1.970   6.489
 7039SOL    HW222017   3.962   2.071   6.401
 7040SOL     OW22018   6.567   2.028   6.588
 7040SOL    HW122019   6.480   1.988   6.618
 7040SOL    HW222020   6.585   2.002   6.493
 7041SOL     OW22021   2.043   1.409   3.559
 7041SOL    HW122022   2.012   1.325   3.514
 7041SOL    HW222023   2.001   1.488   3.513
 7042SOL     OW22024   1.928   1.057   6.997
 7042SOL    HW122025   1.952   1.152   7.014
 7042SOL    HW222026   1.915   1.010   0.064
 7043SOL     OW22027   1.607   2.750   1.453
 7043SOL    HW122028   1.525   2.790   1.413
 7043SOL    HW222029   1.644   2.679   1.393
 7044SOL     OW22030   0.175   5.782   0.874
 7044SOL    HW122031   0.247   5.755   0.811
 7044SOL    HW222032   0.097   5.817   0.822
 7045SOL     OW22033   0.445   4.531   0.519
 7045SOL    HW122034   0.410   4.606   0.574
 7045SOL    HW222035   0.370   4.468   0.496
 7046SOL     OW22036   2.618   2.102   3.625
 7046SOL    HW122037   2.709   2.109   3.585
 7046SOL    HW222038   2.626   2.084   3.723
 7047SOL     OW22039   1.051   6.832   3.468
 7047SOL    HW122040   1.112   6.820   3.546
 7047SOL    HW222041   1.063   6.755   3.404
 7048SOL     OW22042   0.393   5.634   6.871
 7048SOL    HW122043   0.465   5.688   6.828
 7048SOL    HW222044   0.421   5.537   6.872
 7049SOL     OW22045   2.656   1.359   6.510
 7049SOL    HW122046   2.618   1.422   6.578
 7049SOL    HW222047   2.686   1.410   6.429
 7050SOL     OW22048   3.431   3.427   5.695
 7050SOL    HW122049   3.494   3.351   5.708
 7050SOL    HW222050   3.356   3.399   5.634
 7051SOL     OW22051   5.680   6.190   1.918
 7051SOL    HW122052   5.763   6.153   1.958
 7051SOL    HW222053   5.600   6.154   1.968
 7052SOL     OW22054   6.288   0.677   4.649
 7052SOL    HW122055   6.251   0.708   4.736
 7052SOL    HW222056   6.379   0.715   4.635
 7053SOL     OW22057   6.240   3.455   6.246
 7053SOL    HW122058   6.164   3.423   6.302
 7053SOL    HW222059   6.259   3.551   6.267
 7054SOL     OW22060   5.731   2.348   2.690
 7054SOL    HW122061   5.753   2.335   2.593
 7054SOL    HW222062   5.806   2.395   2.735
 7055SOL     OW22063   4.286   1.743   3.317
 7055SOL    HW122064   4.341   1.822   3.293
 7055SOL    HW222065   4.191   1.771   3.332
 7056SOL     OW22066   4.767   5.806   4.875
 7056SOL    HW122067   4.791   5.887   4.821
 7056SOL    HW222068   4.732   5.736   4.814
 7057SOL     OW22069   5.757   6.421   2.961
 7057SOL    HW122070   5.849   6.434   2.996
 7057SOL    HW222071   5.724   6.329   2.984
 7058SOL     OW22072   6.871   3.797   4.870
 7058SOL    HW122073   6.851   3.837   4.780
 7058SOL    HW222074   6.918   3.864   4.927
 7059SOL     OW22075   1.452   0.494   1.914
 7059SOL    HW122076   1.519   0.493   1.840
 7059SOL    HW222077   1.359   0.490   1.876
 7060SOL     OW22078   3.956   0.157   1.604
 7060SOL    HW122079   3.889   0.110   1.661
 7060SOL    HW222080   4.014   0.089   1.558
 7061SOL     OW22081   0.983   1.374   2.705
 7061SOL    HW122082   0.888   1.386   2.677
 7061SOL    HW222083   0.990   1.386   2.804
 7062SOL     OW22084   6.251   1.066   5.599
 7062SOL    HW122085   6.331   1.076   5.539
 7062SOL    HW222086   6.175   1.029   5.546
 7063SOL     OW22087   2.059   6.792   1.658
 7063SOL    HW122088   2.134   6.805   1.593
 7063SOL    HW222089   2.015   6.704   1.641
 7064SOL     OW22090   3.420   3.024   0.696
 7064SOL    HW122091   3.410   2.972   0.782
 7064SOL    HW222092   3.368   2.979   0.624
 7065SOL     OW22093   3.196   3.671   2.474
 7065SOL    HW122094   3.144   3.742   2.427
 7065SOL    HW222095   3.294   3.689   2.466
 7066SOL     OW22096   2.609   4.787   1.587
 7066SOL    HW122097   2.516   4.799   1.620
 7066SOL    HW222098   2.671   4.773   1.664
 7067SOL     OW22099   1.109   4.041   4.803
 7067SOL    HW122100   1.040   4.104   4.838
 7067SOL    HW222101   1.079   3.947   4.815
 7068SOL     OW22102   0.712   1.218   2.825
 7068SOL    HW122103   0.664   1.170   2.899
 7068SOL    HW222104   0.749   1.304   2.860
 7069SOL     OW22105   1.712   4.151   5.419
 7069SOL    HW122106   1.802   4.106   5.416
 7069SOL    HW222107   1.724   4.250   5.415
 7070SOL     OW22108   5.612   5.550   2.776
 7070SOL    HW122109   5.711   5.563   2.768
 7070SOL    HW222110   5.586   5.464   2.732
 7071SOL     OW22111   1.722   6.702   5.703
 7071SOL    HW122112   1.809   6.658   5.728
 7071SOL    HW222113   1.741   6.794   5.668
 7072SOL     OW22114   0.230   0.197   6.516
 7072SOL    HW122115   0.159   0.162   6.578
 7072SOL    HW222116   0.197   0.281   6.472
 7073SOL     OW22117   2.297   2.445   0.025
 7073SOL    HW122118   2.270   2.445   6.950
 7073SOL    HW222119   2.375   2.506   0.038
 7074SOL     OW22120   3.896   1.256   6.663
 7074SOL    HW122121   3.893   1.311   6.746
 7074SOL    HW222122   3.907   1.159   6.688
 7075SOL     OW22123   0.752   6.082   3.377
 7075SOL    HW122124   0.762   5.988   3.409
 7075SOL    HW222125   0.812   6.142   3.429
 7076SOL     OW22126   2.800   1.114   6.237
 7076SOL    HW122127   2.776   1.206   6.209
 7076SOL    HW222128   2.778   1.102   6.335
 7077SOL     OW22129   1.207   5.499   6.099
 7077SOL    HW122130   1.205   5.590   6.140
 7077SOL    HW222131   1.209   5.430   6.172
 7078SOL     OW22132   0.244   0.457   1.371
 7078SOL    HW122133   0.191   0.466   1.456
 7078SOL    HW222134   0.266   0.548   1.336
 7079SOL     OW22135   4.930   6.439   4.424
 7079SOL    HW122136   4.927   6.343   4.454
 7079SOL    HW222137   4.958   6.443   4.329
 7080SOL     OW22138   5.978   0.384   3.937
 7080SOL    HW122139   5.965   0.330   4.020
 7080SOL    HW222140   5.894   0.385   3.883
 7081SOL     OW22141   4.487   1.128   4.577
 7081SOL    HW122142   4.467   1.190   4.501
 7081SOL    HW222143   4.403   1.078   4.602
 7082SOL     OW22144   6.091   1.159   0.342
 7082SOL    HW122145   5.997   1.184   0.317
 7082SOL    HW222146   6.088   1.081   0.404
 7083SOL     OW22147   4.158   0.217   5.194
 7083SOL    HW122148   4.173   0.301   5.142
 7083SOL    HW222149   4.200   0.225   5.284
 7084SOL     OW22150   6.047   5.839   0.003
 7084SOL    HW122151   5.992   5.893   0.069
 7084SOL    HW222152   5.988   5.772   6.979
 7085SOL     OW22153   5.109   1.799   1.366
 7085SOL    HW122154   5.094   1.717   1.311
 7085SOL    HW222155   5.180   1.855   1.324
 7086SOL     OW22156   1.456   0.763   5.901
 7086SOL    HW122157   1.533   0.760   5.837
 7086SOL    HW222158   1.466   0.841   5.962
 7087SOL     OW22159   2.371   2.679   4.751
 7087SOL    HW122160   2.423   2.680   4.837
 7087SOL    HW222161   2.309   2.758   4.749
 7088SOL     OW22162   6.794   1.472   4.388
 7088SOL    HW122163   6.843   1.470   4.475
 7088SOL    HW222164   6.700   1.440   4.403
 7089SOL     OW22165   2.711   1.866   2.062
 7089SOL    HW122166   2.708   1.933   1.988
 7089SOL    HW222167   2.639   1.798   2.049
 7090SOL     OW22168   3.249   0.738   5.252
 7090SOL    HW122169   3.225   0.832   5.275
 7090SOL    HW222170   3.251   0.682   5.335
 7091SOL     OW22171   6.709   5.236   6.731
 7091SOL    HW122172   6.666   5.314   6.685
 7091SOL    HW222173   6.651   5.206   6.806
 7092SOL     OW22174   3.579   2.417   0.627
 7092SOL    HW122175   3.640   2.342   0.652
 7092SOL    HW222176   3.617   2.503   0.659
 7093SOL     OW22177   3.808   3.556   5.891
 7093SOL    HW122178   3.812   3.506   5.804
 7093SOL    HW222179   3.761   3.643   5.878
 7094SOL     OW22180   5.883   1.086   6.840
 7094SOL    HW122181   5.915   1.148   6.769
 7094SOL    HW222182   5.783   1.089   6.844
 7095SOL     OW22183   0.934   4.404   1.379
 7095SOL    HW122184   0.848   4.453   1.374
 7095SOL    HW222185   0.972   4.393   1.287
 7096SOL     OW22186   3.555   0.079   3.317
 7096SOL    HW122187   3.472   0.093   3.263
 7096SOL    HW222188   3.592   7.009   3.300
 7097SOL     OW22189   1.552   1.192   1.657
 7097SOL    HW122190   1.549   1.235   1.747
 7097SOL    HW222191   1.611   1.245   1.597
 7098SOL     OW22192   1.463   0.817   6.631
 7098SOL    HW122193   1.543   0.801   6.690
 7098SOL    HW222194   1.384   0.769   6.669
 7099SOL     OW22195   0.109   1.308   4.621
 7099SOL    HW122196   0.133   1.302   4.718
 7099SOL    HW222197   0.013   1.285   4.609
 7100SOL     OW22198   5.568   1.877   0.941
 7100SOL    HW122199   5.581   1.936   0.862
 7100SOL    HW222200   5.629   1.798   0.935
 7101SOL     OW22201   1.726   0.626   4.691
 7101SOL    HW122202   1.769   0.694   4.632
 7101SOL    HW222203   1.736   0.535   4.650
 7102SOL     OW22204   4.415   2.559   0.193
 7102SOL    HW122205   4.452   2.609   0.114
 7102SOL    HW222206   4.336   2.609   0.230
 7103SOL     OW22207   2.189   0.070   6.265
 7103SOL    HW122208   2.228   0.155   6.227
 7103SOL    HW222209   2.142   0.020   6.192
 7104SOL     OW22210   0.280   3.681   1.489
 7104SOL    HW122211   0.220   3.601   1.489
 7104SOL    HW222212   0.371   3.654   1.520
 7105SOL     OW22213   2.118   2.375   4.952
 7105SOL    HW122214   2.145   2.327   5.036
 7105SOL    HW222215   2.142   2.319   4.873
 7106SOL     OW22216   3.253   2.819   5.364
 7106SOL    HW122217   3.292   2.838   5.454
 7106SOL    HW222218   3.175   2.880   5.348
 7107SOL     OW22219   2.278   1.701   0.184
 7107SOL    HW122220   2.359   1.643   0.170
 7107SOL    HW222221   2.288   1.751   0.270
 7108SOL     OW22222   4.463   6.479   2.679
 7108SOL    HW122223   4.552   6.525   2.686
 7108SOL    HW222224   4.395   6.529   2.734
 7109SOL     OW22225   4.629   5.731   6.753
 7109SOL    HW122226   4.647   5.725   6.852
 7109SOL    HW222227   4.605   5.825   6.730
 7110SOL     OW22228   3.640   4.953   4.214
 7110SOL    HW122229   3.694   4.926   4.295
 7110SOL    HW222230   3.544   4.931   4.231
 7111SOL     OW22231   0.899   3.370   3.375
 7111SOL    HW122232   0.957   3.294   3.405
 7111SOL    HW222233   0.922   3.452   3.429
 7112SOL     OW22234   1.858   6.496   2.791
 7112SOL    HW122235   1.873   6.559   2.867
 7112SOL    HW222236   1.914   6.414   2.804
 7113SOL     OW22237   3.672   3.968   6.079
 7113SOL    HW122238   3.587   3.915   6.077
 7113SOL    HW222239   3.652   4.064   6.057
 7114SOL     OW22240   3.785   6.545   0.954
 7114SOL    HW122241   3.878   6.575   0.975
 7114SOL    HW222242   3.769   6.551   0.855
 7115SOL     OW22243   4.117   2.311   1.852
 7115SOL    HW122244   4.030   2.315   1.804
 7115SOL    HW222245   4.178   2.382   1.817
 7116SOL     OW22246   6.224   4.115   3.582
 7116SOL    HW122247   6.308   4.122   3.635
 7116SOL    HW222248   6.147   4.095   3.644
 7117SOL     OW22249   5.642   0.111   2.565
 7117SOL    HW122250   5.564   0.165   2.600
 7117SOL    HW222251   5.608   0.029   2.519
 7118SOL     OW22252   6.682   3.438   3.678
 7118SOL    HW122253   6.742   3.449   3.599
 7118SOL    HW222254   6.645   3.527   3.705
 7119SOL     OW22255   0.756   2.163   2.253
 7119SOL    HW122256   0.780   2.202   2.164
 7119SOL    HW222257   0.697   2.226   2.302
 7120SOL     OW22258   4.496   6.114   4.260
 7120SOL    HW122259   4.500   6.214   4.247
 7120SOL    HW222260   4.430   6.075   4.195
 7121SOL     OW22261   1.740   6.388   1.066
 7121SOL    HW122262   1.798   6.398   0.985
 7121SOL    HW222263   1.774   6.447   1.139
 7122SOL     OW22264   0.319   6.316   0.155
 7122SOL    HW122265   0.246   6.351   0.214
 7122SOL    HW222266   0.335   6.378   0.079
 7123SOL     OW22267   3.381   4.603   0.726
 7123SOL    HW122268   3.377   4.523   0.786
 7123SOL    HW222269   3.406   4.684   0.780
 7124SOL     OW22270   0.244   5.265   6.752
 7124SOL    HW122271   0.324   5.279   6.810
 7124SOL    HW222272   0.169   5.227   6.807
 7125SOL     OW22273   1.197   5.544   3.335
 7125SOL    HW122274   1.257   5.570   3.411
 7125SOL    HW222275   1.242   5.476   3.278
 7126SOL     OW22276   1.616   4.422   1.406
 7126SOL    HW122277   1.602   4.401   1.502
 7126SOL    HW222278   1.529   4.447   1.363
 7127SOL     OW22279   2.279   0.285   4.848
 7127SOL    HW122280   2.236   0.363   4.893
 7127SOL    HW222281   2.235   0.201   4.878
 7128SOL     OW22282   3.370   3.641   2.698
 7128SOL    HW122283   3.455   3.637   2.646
 7128SOL    HW222284   3.293   3.626   2.636
 7129SOL     OW22285   3.417   1.695   0.799
 7129SOL    HW122286   3.480   1.773   0.788
 7129SOL    HW222287   3.465   1.611   0.777
 7130SOL     OW22288   1.556   0.372   2.863
 7130SOL    HW122289   1.533   0.454   2.811
 7130SOL    HW222290   1.604   0.399   2.947
 7131SOL     OW22291   2.810   1.351   3.104
 7131SOL    HW122292   2.811   1.255   3.073
 7131SOL    HW222293   2.903   1.386   3.108
 7132SOL     OW22294   3.024   3.857   2.354
 7132SOL    HW122295   2.930   3.834   2.327
 7132SOL    HW222296   3.073   3.892   2.275
 7133SOL     OW22297   6.289   4.049   1.794
 7133SOL    HW122298   6.295   4.013   1.887
 7133SOL    HW222299   6.210   4.009   1.748
 7134SOL     OW22300   4.508   4.614   2.408
 7134SOL    HW122301   4.533   4.574   2.320
 7134SOL    HW222302   4.537   4.553   2.482
 7135SOL     OW22303   0.133   1.696   5.467
 7135SOL    HW122304   0.087   1.636   5.532
 7135SOL    HW222305   0.229   1.669   5.457
 7136SOL     OW22306   1.883   2.043   6.351
 7136SOL    HW122307   1.789   2.068   6.327
 7136SOL    HW222308   1.888   1.944   6.368
 7137SOL     OW22309   5.266   1.734   5.330
 7137SOL    HW122310   5.302   1.768   5.243
 7137SOL    HW222311   5.340   1.696   5.384
 7138SOL     OW22312   2.292   1.738   6.400
 7138SOL    HW122313   2.327   1.766   6.311
 7138SOL    HW222314   2.219   1.799   6.428
 7139SOL     OW22315   2.038   1.582   0.185
 7139SOL    HW122316   2.129   1.625   0.180
 7139SOL    HW222317   2.016   1.563   0.280
 7140SOL     OW22318   6.624   4.668   4.623
 7140SOL    HW122319   6.571   4.625   4.696
 7140SOL    HW222320   6.669   4.598   4.568
 7141SOL     OW22321   0.998   0.391   2.105
 7141SOL    HW122322   0.912   0.377   2.153
 7141SOL    HW222323   0.988   0.466   2.039
 7142SOL     OW22324   3.713   6.727   4.151
 7142SOL    HW122325   3.760   6.640   4.169
 7142SOL    HW222326   3.695   6.774   4.237
 7143SOL     OW22327   1.792   2.782   3.697
 7143SOL    HW122328   1.758   2.697   3.656
 7143SOL    HW222329   1.749   2.797   3.786
 7144SOL     OW22330   1.328   3.548   3.645
 7144SOL    HW122331   1.422   3.519   3.663
 7144SOL    HW222332   1.298   3.611   3.717
 7145SOL     OW22333   3.523   5.750   6.970
 7145SOL    HW122334   3.501   5.847   6.976
 7145SOL    HW222335   3.509   5.708   0.039
 7146SOL     OW22336   3.865   4.833   1.364
 7146SOL    HW122337   3.928   4.886   1.307
 7146SOL    HW222338   3.820   4.894   1.429
 7147SOL     OW22339   0.625   1.213   3.577
 7147SOL    HW122340   0.670   1.297   3.548
 7147SOL    HW222341   0.603   1.157   3.497
 7148SOL     OW22342   6.783   2.410   0.710
 7148SOL    HW122343   6.760   2.324   0.755
 7148SOL    HW222344   6.742   2.486   0.761
 7149SOL     OW22345   1.127   0.583   4.610
 7149SOL    HW122346   1.100   0.640   4.688
 7149SOL    HW222347   1.206   0.624   4.564
 7150SOL     OW22348   6.466   2.902   5.892
 7150SOL    HW122349   6.500   2.987   5.933
 7150SOL    HW222350   6.395   2.863   5.950
 7151SOL     OW22351   1.202   0.233   0.245
 7151SOL    HW122352   1.165   0.186   0.166
 7151SOL    HW222353   1.132   0.293   0.285
 7152SOL     OW22354   0.905   2.519   4.610
 7152SOL    HW122355   0.878   2.609   4.644
 7152SOL    HW222356   0.844   2.449   4.649
 7153SOL     OW22357   4.718   1.977   3.201
 7153SOL    HW122358   4.653   2.029   3.145
 7153SOL    HW222359   4.777   2.040   3.251
 7154SOL     OW22360   3.167   6.866   4.407
 7154SOL    HW122361   3.068   6.860   4.420
 7154SOL    HW222362   3.197   6.960   4.423
 7155SOL     OW22363   2.563   1.436   4.162
 7155SOL    HW122364   2.589   1.503   4.231
 7155SOL    HW222365   2.646   1.396   4.121
 7156SOL     OW22366   2.197   5.598   5.285
 7156SOL    HW122367   2.180   5.500   5.272
 7156SOL    HW222368   2.295   5.616   5.277
 7157SOL     OW22369   5.961   4.278   0.626
 7157SOL    HW122370   5.873   4.318   0.651
 7157SOL    HW222371   5.952   4.180   0.616
 7158SOL     OW22372   3.621   0.550   3.174
 7158SOL    HW122373   3.561   0.624   3.206
 7158SOL    HW222374   3.703   0.589   3.134
 7159SOL     OW22375   1.331   6.256   6.952
 7159SOL    HW122376   1.336   6.162   6.987
 7159SOL    HW222377   1.389   6.316   7.006
 7160SOL     OW22378   0.168   0.416   2.224
 7160SOL    HW122379   0.105   0.464   2.286
 7160SOL    HW222380   0.122   0.398   2.137
 7161SOL     OW22381   2.948   3.883   4.839
 7161SOL    HW122382   2.887   3.958   4.866
 7161SOL    HW222383   3.033   3.890   4.890
 7162SOL     OW22384   3.365   4.887   4.266
 7162SOL    HW122385   3.278   4.848   4.234
 7162SOL    HW222386   3.349   4.980   4.300
 7163SOL     OW22387   1.023   6.343   3.743
 7163SOL    HW122388   1.089   6.271   3.765
 7163SOL    HW222389   1.071   6.432   3.742
 7164SOL     OW22390   3.804   1.585   4.198
 7164SOL    HW122391   3.714   1.596   4.154
 7164SOL    HW222392   3.800   1.509   4.262
 7165SOL     OW22393   4.419   5.120   1.930
 7165SOL    HW122394   4.323   5.128   1.903
 7165SOL    HW222395   4.475   5.181   1.874
 7166SOL     OW22396   3.452   6.617   2.666
 7166SOL    HW122397   3.390   6.625   2.744
 7166SOL    HW222398   3.399   6.599   2.583
 7167SOL     OW22399   5.864   3.050   0.448
 7167SOL    HW122400   5.854   3.149   0.444
 7167SOL    HW222401   5.957   3.025   0.423
 7168SOL     OW22402   6.649   1.146   4.389
 7168SOL    HW122403   6.721   1.173   4.324
 7168SOL    HW222404   6.690   1.130   4.479
 7169SOL     OW22405   2.656   2.869   7.006
 7169SOL    HW122406   2.597   2.950   7.010
 7169SOL    HW222407   2.739   2.885   0.038
 7170SOL     OW22408   4.848   3.980   4.689
 7170SOL    HW122409   4.755   3.956   4.661
 7170SOL    HW222410   4.899   3.897   4.708
 7171SOL     OW22411   3.740   3.764   5.134
 7171SOL    HW122412   3.687   3.782   5.217
 7171SOL    HW222413   3.779   3.849   5.101
 7172SOL     OW22414   5.607   5.959   1.273
 7172SOL    HW122415   5.597   6.051   1.235
 7172SOL    HW222416   5.694   5.920   1.244
 7173SOL     OW22417   6.812   6.516   4.407
 7173SOL    HW122418   6.740   6.524   4.339
 7173SOL    HW222419   6.892   6.471   4.366
 7174SOL     OW22420   1.156   6.617   6.013
 7174SOL    HW122421   1.153   6.652   6.107
 7174SOL    HW222422   1.200   6.684   5.954
 7175SOL     OW22423   6.160   3.702   5.820
 7175SOL    HW122424   6.102   3.752   5.755
 7175SOL    HW222425   6.252   3.695   5.783
 7176SOL     OW22426   1.053   3.495   1.205
 7176SOL    HW122427   0.980   3.427   1.210
 7176SOL    HW222428   1.088   3.498   1.111
 7177SOL     OW22429   0.726   5.352   1.443
 7177SOL    HW122430   0.719   5.451   1.429
 7177SOL    HW222431   0.654   5.306   1.392
 7178SOL     OW22432   6.453   0.703   6.701
 7178SOL    HW122433   6.550   0.727   6.695
 7178SOL    HW222434   6.443   0.622   6.759
 7179SOL     OW22435   0.578   3.659   5.755
 7179SOL    HW122436   0.566   3.641   5.853
 7179SOL    HW222437   0.612   3.576   5.710
 7180SOL     OW22438   7.012   0.688   1.941
 7180SOL    HW122439   6.980   0.595   1.926
 7180SOL    HW222440   6.935   0.746   1.968
 7181SOL     OW22441   5.400   6.099   2.327
 7181SOL    HW122442   5.438   6.126   2.416
 7181SOL    HW222443   5.308   6.136   2.318
 7182SOL     OW22444   3.662   3.776   5.850
 7182SOL    HW122445   3.605   3.816   5.779
 7182SOL    HW222446   3.619   3.787   5.940
 7183SOL     OW22447   2.126   2.760   2.853
 7183SOL    HW122448   2.217   2.723   2.832
 7183SOL    HW222449   2.057   2.713   2.798
 7184SOL     OW22450   2.499   5.333   2.949
 7184SOL    HW122451   2.464   5.424   2.928
 7184SOL    HW222452   2.575   5.311   2.888
 7185SOL     OW22453   5.509   2.182   6.314
 7185SOL    HW122454   5.602   2.208   6.341
 7185SOL    HW222455   5.452   2.173   6.395
 7186SOL     OW22456   1.374   6.655   4.385
 7186SOL    HW122457   1.374   6.722   4.460
 7186SOL    HW222458   1.288   6.661   4.334
 7187SOL     OW22459   1.627   4.938   1.156
 7187SOL    HW122460   1.531   4.951   1.180
 7187SOL    HW222461   1.679   4.910   1.237
 7188SOL     OW22462   4.450   0.457   1.796
 7188SOL    HW122463   4.503   0.375   1.777
 7188SOL    HW222464   4.404   0.446   1.884
 7189SOL     OW22465   5.989   1.022   5.502
 7189SOL    HW122466   5.906   1.018   5.558
 7189SOL    HW222467   5.972   1.081   5.423
 7190SOL     OW22468   4.500   5.005   2.296
 7190SOL    HW122469   4.536   4.929   2.350
 7190SOL    HW222470   4.439   4.970   2.225
 7191SOL     OW22471   0.728   3.616   1.795
 7191SOL    HW122472   0.804   3.552   1.781
 7191SOL    HW222473   0.737   3.693   1.732
 7192SOL     OW22474   2.931   4.407   5.982
 7192SOL    HW122475   2.831   4.412   5.980
 7192SOL    HW222476   2.960   4.365   6.068
 7193SOL     OW22477   5.842   2.123   4.889
 7193SOL    HW122478   5.888   2.097   4.804
 7193SOL    HW222479   5.854   2.051   4.957
 7194SOL     OW22480   3.250   0.580   2.113
 7194SOL    HW122481   3.241   0.496   2.059
 7194SOL    HW222482   3.230   0.659   2.054
 7195SOL     OW22483   0.377   0.242   2.829
 7195SOL    HW122484   0.445   0.224   2.900
 7195SOL    HW222485   0.364   0.161   2.773
 7196SOL     OW22486   4.058   4.384   1.523
 7196SOL    HW122487   4.068   4.344   1.432
 7196SOL    HW222488   3.993   4.329   1.576
 7197SOL     OW22489   2.012   1.081   4.150
 7197SOL    HW122490   2.109   1.064   4.134
 7197SOL    HW222491   1.996   1.098   4.248
 7198SOL     OW22492   0.167   7.010   5.755
 7198SOL    HW122493   0.256   0.021   5.725
 7198SOL    HW222494   0.157   0.003   5.854
 7199SOL     OW22495   6.209   5.920   1.625
 7199SOL    HW122496   6.305   5.947   1.617
 7199SOL    HW222497   6.158   5.992   1.671
 7200SOL     OW22498   1.148   1.928   2.807
 7200SOL    HW122499   1.223   1.976   2.762
 7200SOL    HW222500   1.091   1.884   2.738
 7201SOL     OW22501   1.507   4.649   3.216
 7201SOL    HW122502   1.462   4.618   3.300
 7201SOL    HW222503   1.549   4.571   3.170
 7202SOL     OW22504   2.453   6.922   5.867
 7202SOL    HW122505   2.472   6.997   5.931
 7202SOL    HW222506   2.355   6.902   5.869
 7203SOL     OW22507   5.661   0.666   0.168
 7203SOL    HW122508   5.652   0.582   0.222
 7203SOL    HW222509   5.570   0.704   0.152
 7204SOL     OW22510   0.328   3.235   2.561
 7204SOL    HW122511   0.336   3.160   2.626
 7204SOL    HW222512   0.407   3.235   2.500
 7205SOL     OW22513   1.069   4.215   1.199
 7205SOL    HW122514   1.075   4.303   1.152
 7205SOL    HW222515   1.092   4.141   1.135
 7206SOL     OW22516   6.437   0.875   1.750
 7206SOL    HW122517   6.400   0.789   1.783
 7206SOL    HW222518   6.448   0.872   1.651
 7207SOL     OW22519   3.899   0.397   1.501
 7207SOL    HW122520   3.911   0.310   1.550
 7207SOL    HW222521   3.861   0.466   1.562
 7208SOL     OW22522   2.628   0.072   5.093
 7208SOL    HW122523   2.693   0.133   5.047
 7208SOL    HW222524   2.548   0.125   5.123
 7209SOL     OW22525   2.619   3.770   5.582
 7209SOL    HW122526   2.696   3.768   5.646
 7209SOL    HW222527   2.644   3.825   5.502
 7210SOL     OW22528   4.333   0.553   4.168
 7210SOL    HW122529   4.291   0.640   4.194
 7210SOL    HW222530   4.297   0.480   4.226
 7211SOL     OW22531   0.666   5.511   3.039
 7211SOL    HW122532   0.648   5.416   3.012
 7211SOL    HW222533   0.581   5.563   3.038
 7212SOL     OW22534   5.881   6.658   3.121
 7212SOL    HW122535   5.878   6.700   3.030
 7212SOL    HW222536   5.962   6.690   3.169
 7213SOL     OW22537   5.498   6.219   5.794
 7213SOL    HW122538   5.562   6.269   5.853
 7213SOL    HW222539   5.422   6.184   5.849
 7214SOL     OW22540   1.438   5.081   6.139
 7214SOL    HW122541   1.379   5.141   6.193
 7214SOL    HW222542   1.382   5.030   6.074
 7215SOL     OW22543   1.437   3.106   1.131
 7215SOL    HW122544   1.418   3.027   1.189
 7215SOL    HW222545   1.464   3.183   1.188
 7216SOL     OW22546   2.698   1.933   2.736
 7216SOL    HW122547   2.762   1.857   2.729
 7216SOL    HW222548   2.723   2.003   2.669
 7217SOL     OW22549   1.086   3.670   1.992
 7217SOL    HW122550   1.180   3.635   1.990
 7217SOL    HW222551   1.042   3.650   1.904
 7218SOL     OW22552   6.364   2.950   3.475
 7218SOL    HW122553   6.326   2.958   3.567
 7218SOL    HW222554   6.294   2.915   3.413
 7219SOL     OW22555   2.067   1.358   1.452
 7219SOL    HW122556   2.094   1.317   1.539
 7219SOL    HW222557   2.066   1.458   1.462
 7220SOL     OW22558   6.717   1.852   3.088
 7220SOL    HW122559   6.665   1.776   3.125
 7220SOL    HW222560   6.809   1.852   3.128
 7221SOL     OW22561   6.521   3.855   4.612
 7221SOL    HW122562   6.610   3.823   4.578
 7221SOL    HW222563   6.535   3.907   4.696
 7222SOL     OW22564   6.668   0.037   2.793
 7222SOL    HW122565   6.610   7.002   2.853
 7222SOL    HW222566   6.631   0.036   2.700
 7223SOL     OW22567   4.758   1.147   4.239
 7223SOL    HW122568   4.783   1.092   4.318
 7223SOL    HW222569   4.702   1.224   4.268
 7224SOL     OW22570   5.490   1.517   3.215
 7224SOL    HW122571   5.565   1.564   3.261
 7224SOL    HW222572   5.499   1.418   3.228
 7225SOL     OW22573   2.717   0.479   1.559
 7225SOL    HW122574   2.635   0.474   1.502
 7225SOL    HW222575   2.797   0.485   1.500
 7226SOL     OW22576   5.621   6.504   5.495
 7226SOL    HW122577   5.613   6.601   5.473
 7226SOL    HW222578   5.698   6.490   5.558
 7227SOL     OW22579   0.836   2.811   5.467
 7227SOL    HW122580   0.858   2.724   5.510
 7227SOL    HW222581   0.795   2.873   5.534
 7228SOL     OW22582   1.327   0.177   2.906
 7228SOL    HW122583   1.281   0.133   2.829
 7228SOL    HW222584   1.394   0.243   2.872
 7229SOL     OW22585   6.361   6.946   3.626
 7229SOL    HW122586   6.360   6.889   3.708
 7229SOL    HW222587   6.380   6.890   3.546
 7230SOL     OW22588   6.278   5.455   1.037
 7230SOL    HW122589   6.313   5.402   1.115
 7230SOL    HW222590   6.207   5.517   1.069
 7231SOL     OW22591   6.083   0.878   6.753
 7231SOL    HW122592   6.037   0.958   6.792
 7231SOL    HW222593   6.037   0.795   6.785
 7232SOL     OW22594   3.265   3.878   0.658
 7232SOL    HW122595   3.236   3.973   0.660
 7232SOL    HW222596   3.185   3.819   0.672
 7233SOL     OW22597   1.235   1.826   6.594
 7233SOL    HW122598   1.314   1.863   6.546
 7233SOL    HW222599   1.220   1.731   6.567
 7234SOL     OW22600   5.373   2.454   3.731
 7234SOL    HW122601   5.317   2.458   3.814
 7234SOL    HW222602   5.464   2.492   3.750
 7235SOL     OW22603   5.768   2.267   4.578
 7235SOL    HW122604   5.682   2.220   4.597
 7235SOL    HW222605   5.844   2.213   4.614
 7236SOL     OW22606   0.915   1.772   3.231
 7236SOL    HW122607   0.983   1.802   3.164
 7236SOL    HW222608   0.959   1.756   3.319
 7237SOL     OW22609   5.889   5.222   5.341
 7237SOL    HW122610   5.972   5.231   5.395
 7237SOL    HW222611   5.813   5.267   5.388
 7238SOL     OW22612   1.396   0.113   2.365
 7238SOL    HW122613   1.386   0.013   2.372
 7238SOL    HW222614   1.357   0.144   2.279
 7239SOL     OW22615   4.913   1.622   2.044
 7239SOL    HW122616   4.996   1.619   2.099
 7239SOL    HW222617   4.872   1.713   2.050
 7240SOL     OW22618   3.322   3.191   3.749
 7240SOL    HW122619   3.297   3.126   3.677
 7240SOL    HW222620   3.303   3.151   3.838
 7241SOL     OW22621   4.383   0.226   5.380
 7241SOL    HW122622   4.308   0.205   5.442
 7241SOL    HW222623   4.470   0.201   5.424
 7242SOL     OW22624   5.966   5.807   0.334
 7242SOL    HW122625   5.893   5.777   0.395
 7242SOL    HW222626   6.026   5.729   0.313
 7243SOL     OW22627   0.953   5.852   1.287
 7243SOL    HW122628   0.898   5.915   1.342
 7243SOL    HW222629   0.909   5.762   1.286
 7244SOL     OW22630   5.142   1.811   1.624
 7244SOL    HW122631   5.078   1.755   1.677
 7244SOL    HW222632   5.117   1.808   1.527
 7245SOL     OW22633   6.039   1.616   3.336
 7245SOL    HW122634   6.006   1.633   3.243
 7245SOL    HW222635   6.107   1.686   3.360
 7246SOL     OW22636   0.716   5.655   5.484
 7246SOL    HW122637   0.722   5.754   5.481
 7246SOL    HW222638   0.744   5.623   5.575
 7247SOL     OW22639   3.902   5.616   3.765
 7247SOL    HW122640   3.861   5.669   3.690
 7247SOL    HW222641   3.830   5.574   3.820
 7248SOL     OW22642   3.067   0.911   5.048
 7248SOL    HW122643   3.016   0.825   5.040
 7248SOL    HW222644   3.006   0.988   5.033
 7249SOL     OW22645   5.043   2.658   6.340
 7249SOL    HW122646   5.045   2.746   6.387
 7249SOL    HW222647   4.951   2.642   6.303
 7250SOL     OW22648   3.095   2.888   0.010
 7250SOL    HW122649   3.150   2.817   0.053
 7250SOL    HW222650   3.153   2.968   7.012
 7251SOL     OW22651   5.993   1.176   5.251
 7251SOL    HW122652   6.042   1.256   5.283
 7251SOL    HW222653   5.894   1.195   5.250
 7252SOL     OW22654   4.517   3.542   5.347
 7252SOL    HW122655   4.594   3.553   5.285
 7252SOL    HW222656   4.528   3.460   5.402
 7253SOL     OW22657   4.950   5.151   6.920
 7253SOL    HW122658   4.999   5.065   6.936
 7253SOL    HW222659   4.928   5.194   7.007
 7254SOL     OW22660   5.395   5.955   5.109
 7254SOL    HW122661   5.369   6.046   5.141
 7254SOL    HW222662   5.395   5.954   5.009
 7255SOL     OW22663   3.631   3.541   3.470
 7255SOL    HW122664   3.617   3.624   3.415
 7255SOL    HW222665   3.583   3.551   3.557
 7256SOL     OW22666   3.339   5.926   3.498
 7256SOL    HW122667   3.262   5.877   3.540
 7256SOL    HW222668   3.420   5.869   3.499
 7257SOL     OW22669   6.013   5.272   2.408
 7257SOL    HW122670   5.966   5.196   2.454
 7257SOL    HW222671   6.082   5.310   2.470
 7258SOL     OW22672   2.861   0.858   6.492
 7258SOL    HW122673   2.839   0.947   6.533
 7258SOL    HW222674   2.897   0.871   6.400
 7259SOL     OW22675   3.501   4.153   5.941
 7259SOL    HW122676   3.435   4.218   5.905
 7259SOL    HW222677   3.465   4.060   5.932
 7260SOL     OW22678   4.285   2.273   2.549
 7260SOL    HW122679   4.363   2.211   2.559
 7260SOL    HW222680   4.245   2.263   2.458
 7261SOL     OW22681   2.361   4.650   1.285
 7261SOL    HW122682   2.351   4.560   1.326
 7261SOL    HW222683   2.369   4.719   1.357
 7262SOL     OW22684   5.958   0.201   4.809
 7262SOL    HW122685   6.057   0.199   4.820
 7262SOL    HW222686   5.934   0.174   4.716
 7263SOL     OW22687   5.007   4.988   1.336
 7263SOL    HW122688   5.096   4.972   1.378
 7263SOL    HW222689   4.937   4.991   1.408
 7264SOL     OW22690   7.013   0.053   4.611
 7264SOL    HW122691   0.012   6.976   4.606
 7264SOL    HW222692   0.074   0.102   4.640
 7265SOL     OW22693   4.516   3.112   6.760
 7265SOL    HW122694   4.581   3.126   6.835
 7265SOL    HW222695   4.563   3.120   6.672
 7266SOL     OW22696   4.130   1.093   2.965
 7266SOL    HW122697   4.140   1.026   3.037
 7266SOL    HW222698   4.187   1.173   2.984
 7267SOL     OW22699   4.943   1.946   3.698
 7267SOL    HW122700   4.956   1.970   3.794
 7267SOL    HW222701   5.027   1.907   3.662
 7268SOL     OW22702   3.893   6.527   6.940
 7268SOL    HW122703   3.913   6.613   6.893
 7268SOL    HW222704   3.975   6.469   6.941
 7269SOL     OW22705   1.707   6.902   3.739
 7269SOL    HW122706   1.660   6.844   3.806
 7269SOL    HW222707   1.642   6.964   3.696
 7270SOL     OW22708   3.470   2.673   1.594
 7270SOL    HW122709   3.550   2.650   1.650
 7270SOL    HW222710   3.474   2.769   1.568
 7271SOL     OW22711   4.753   6.184   4.000
 7271SOL    HW122712   4.853   6.185   4.002
 7271SOL    HW222713   4.720   6.109   4.057
 7272SOL     OW22714   5.779   1.208   1.654
 7272SOL    HW122715   5.683   1.182   1.660
 7272SOL    HW222716   5.800   1.240   1.562
 7273SOL     OW22717   6.234   5.275   4.542
 7273SOL    HW122718   6.287   5.283   4.457
 7273SOL    HW222719   6.158   5.340   4.539
 7274SOL     OW22720   5.899   4.918   3.863
 7274SOL    HW122721   5.809   4.959   3.878
 7274SOL    HW222722   5.889   4.821   3.844
 7275SOL     OW22723   5.427   0.003   2.185
 7275SOL    HW122724   5.484   0.076   2.147
 7275SOL    HW222725   5.396   6.964   2.111
 7276SOL     OW22726   4.151   1.507   2.818
 7276SOL    HW122727   4.196   1.506   2.907
 7276SOL    HW222728   4.110   1.596   2.802
 7277SOL     OW22729   6.073   2.673   3.945
 7277SOL    HW122730   6.050   2.641   4.037
 7277SOL    HW222731   6.165   2.714   3.947
 7278SOL     OW22732   3.884   1.532   2.998
 7278SOL    HW122733   3.949   1.457   2.982
 7278SOL    HW222734   3.792   1.494   3.005
 7279SOL     OW22735   3.620   3.594   1.904
 7279SOL    HW122736   3.674   3.616   1.985
 7279SOL    HW222737   3.542   3.537   1.930
 7280SOL     OW22738   6.507   1.611   5.834
 7280SOL    HW122739   6.490   1.512   5.840
 7280SOL    HW222740   6.605   1.627   5.823
 7281SOL     OW22741   3.615   6.805   3.896
 7281SOL    HW122742   3.634   6.782   3.991
 7281SOL    HW222743   3.686   6.865   3.860
 7282SOL     OW22744   0.727   3.739   1.531
 7282SOL    HW122745   0.819   3.778   1.537
 7282SOL    HW222746   0.734   3.641   1.508
 7283SOL     OW22747   2.849   6.025   2.887
 7283SOL    HW122748   2.870   5.928   2.900
 7283SOL    HW222749   2.870   6.075   2.971
 7284SOL     OW22750   0.641   0.490   3.880
 7284SOL    HW122751   0.567   0.423   3.873
 7284SOL    HW222752   0.637   0.535   3.969
 7285SOL     OW22753   4.841   2.407   2.115
 7285SOL    HW122754   4.748   2.442   2.132
 7285SOL    HW222755   4.886   2.467   2.049
 7286SOL     OW22756   6.820   1.390   4.695
 7286SOL    HW122757   6.862   1.358   4.780
 7286SOL    HW222758   6.774   1.477   4.710
 7287SOL     OW22759   3.480   1.394   4.354
 7287SOL    HW122760   3.381   1.403   4.343
 7287SOL    HW222761   3.503   1.299   4.374
 7288SOL     OW22762   2.878   1.539   1.454
 7288SOL    HW122763   2.880   1.612   1.522
 7288SOL    HW222764   2.844   1.575   1.367
 7289SOL     OW22765   6.857   2.628   1.152
 7289SOL    HW122766   6.829   2.588   1.240
 7289SOL    HW222767   6.818   2.719   1.143
 7290SOL     OW22768   3.307   2.067   4.925
 7290SOL    HW122769   3.269   2.142   4.978
 7290SOL    HW222770   3.291   2.084   4.828
 7291SOL     OW22771   1.028   0.930   0.222
 7291SOL    HW122772   1.074   0.975   0.145
 7291SOL    HW222773   1.030   0.990   0.302
 7292SOL     OW22774   3.421   1.409   2.372
 7292SOL    HW122775   3.493   1.450   2.427
 7292SOL    HW222776   3.448   1.410   2.275
 7293SOL     OW22777   6.150   1.377   4.209
 7293SOL    HW122778   6.078   1.309   4.194
 7293SOL    HW222779   6.117   1.467   4.183
 7294SOL     OW22780   2.294   1.412   2.479
 7294SOL    HW122781   2.244   1.419   2.392
 7294SOL    HW222782   2.236   1.447   2.553
 7295SOL     OW22783   5.120   4.531   1.418
 7295SOL    HW122784   5.197   4.560   1.475
 7295SOL    HW222785   5.150   4.521   1.324
 7296SOL     OW22786   3.117   0.428   2.650
 7296SOL    HW122787   3.108   0.511   2.596
 7296SOL    HW222788   3.026   0.394   2.674
 7297SOL     OW22789   4.675   0.481   0.134
 7297SOL    HW122790   4.742   0.548   0.168
 7297SOL    HW222791   4.607   0.463   0.205
 7298SOL     OW22792   4.165   4.554   0.800
 7298SOL    HW122793   4.099   4.624   0.773
 7298SOL    HW222794   4.165   4.480   0.733
 7299SOL     OW22795   0.088   3.021   0.233
 7299SOL    HW122796   0.181   3.056   0.238
 7299SOL    HW222797   0.089   2.934   0.183
 7300SOL     OW22798   0.557   4.331   2.406
 7300SOL    HW122799   0.565   4.308   2.502
 7300SOL    HW222800   0.647   4.327   2.362
 7301SOL     OW22801   3.580   2.079   0.520
 7301SOL    HW122802   3.599   2.176   0.504
 7301SOL    HW222803   3.608   2.026   0.439
 7302SOL     OW22804   5.760   1.418   6.857
 7302SOL    HW122805   5.799   1.505   6.827
 7302SOL    HW222806   5.816   1.379   6.930
 7303SOL     OW22807   3.981   2.448   1.105
 7303SOL    HW122808   4.036   2.528   1.130
 7303SOL    HW222809   3.927   2.469   1.024
 7304SOL     OW22810   3.296   0.157   0.709
 7304SOL    HW122811   3.363   0.118   0.645
 7304SOL    HW222812   3.206   0.119   0.688
 7305SOL     OW22813   6.875   6.890   6.354
 7305SOL    HW122814   6.952   6.913   6.413
 7305SOL    HW222815   6.908   6.850   6.269
 7306SOL     OW22816   1.825   3.551   0.972
 7306SOL    HW122817   1.786   3.471   0.926
 7306SOL    HW222818   1.815   3.631   0.913
 7307SOL     OW22819   4.463   6.610   1.195
 7307SOL    HW122820   4.433   6.607   1.100
 7307SOL    HW222821   4.383   6.613   1.255
 7308SOL     OW22822   3.584   2.090   2.912
 7308SOL    HW122823   3.677   2.120   2.893
 7308SOL    HW222824   3.580   1.990   2.913
 7309SOL     OW22825   2.448   5.420   3.405
 7309SOL    HW122826   2.427   5.333   3.360
 7309SOL    HW222827   2.390   5.492   3.367
 7310SOL     OW22828   5.286   3.074   0.158
 7310SOL    HW122829   5.240   2.990   0.131
 7310SOL    HW222830   5.223   3.131   0.211
 7311SOL     OW22831   1.283   6.729   5.610
 7311SOL    HW122832   1.348   6.688   5.673
 7311SOL    HW222833   1.230   6.657   5.565
 7312SOL     OW22834   5.721   1.950   4.498
 7312SOL    HW122835   5.758   1.974   4.408
 7312SOL    HW222836   5.685   2.032   4.542
 7313SOL     OW22837   3.157   1.152   3.290
 7313SOL    HW122838   3.248   1.185   3.316
 7313SOL    HW222839   3.148   1.156   3.190
 7314SOL     OW22840   2.601   5.522   4.921
 7314SOL    HW122841   2.656   5.524   5.004
 7314SOL    HW222842   2.615   5.435   4.874
 7315SOL     OW22843   2.424   4.981   2.181
 7315SOL    HW122844   2.337   4.936   2.203
 7315SOL    HW222845   2.499   4.916   2.192
 7316SOL     OW22846   3.105   1.064   2.566
 7316SOL    HW122847   3.095   1.163   2.556
 7316SOL    HW222848   3.169   1.045   2.640
 7317SOL     OW22849   5.527   1.356   1.445
 7317SOL    HW122850   5.470   1.402   1.513
 7317SOL    HW222851   5.623   1.363   1.472
 7318SOL     OW22852   5.207   6.874   1.482
 7318SOL    HW122853   5.148   6.954   1.470
 7318SOL    HW222854   5.271   6.890   1.557
 7319SOL     OW22855   4.515   5.286   5.948
 7319SOL    HW122856   4.506   5.195   5.908
 7319SOL    HW222857   4.424   5.323   5.968
 7320SOL     OW22858   2.046   3.088   0.388
 7320SOL    HW122859   1.954   3.104   0.423
 7320SOL    HW222860   2.099   3.172   0.392
 7321SOL     OW22861   2.356   2.334   5.210
 7321SOL    HW122862   2.428   2.319   5.277
 7321SOL    HW222863   2.285   2.392   5.249
 7322SOL     OW22864   2.666   2.092   3.893
 7322SOL    HW122865   2.725   2.170   3.872
 7322SOL    HW222866   2.610   2.113   3.973
 7323SOL     OW22867   2.204   1.995   0.177
 7323SOL    HW122868   2.223   2.070   0.113
 7323SOL    HW222869   2.228   1.908   0.134
 7324SOL     OW22870   5.725   4.069   5.038
 7324SOL    HW122871   5.706   4.165   5.056
 7324SOL    HW222872   5.687   4.043   4.948
 7325SOL     OW22873   3.485   0.798   0.174
 7325SOL    HW122874   3.498   0.810   0.272
 7325SOL    HW222875   3.509   0.882   0.126
 7326SOL     OW22876   3.847   6.761   0.471
 7326SOL    HW122877   3.749   6.769   0.489
 7326SOL    HW222878   3.898   6.803   0.546
 7327SOL     OW22879   1.933   4.699   3.215
 7327SOL    HW122880   1.893   4.624   3.268
 7327SOL    HW222881   1.944   4.671   3.120
 7328SOL     OW22882   3.863   5.675   6.895
 7328SOL    HW122883   3.861   5.579   6.870
 7328SOL    HW222884   3.902   5.685   6.986
 7329SOL     OW22885   2.766   3.840   6.559
 7329SOL    HW122886   2.859   3.805   6.552
 7329SOL    HW222887   2.726   3.846   6.468
 7330SOL     OW22888   2.582   3.513   1.603
 7330SOL    HW122889   2.539   3.502   1.693
 7330SOL    HW222890   2.545   3.446   1.540
 7331SOL     OW22891   5.374   1.950   2.712
 7331SOL    HW122892   5.408   1.857   2.725
 7331SOL    HW222893   5.287   1.948   2.663
 7332SOL     OW22894   1.563   0.317   4.714
 7332SOL    HW122895   1.632   0.255   4.752
 7332SOL    HW222896   1.534   0.382   4.784
 7333SOL     OW22897   6.182   1.486   1.868
 7333SOL    HW122898   6.161   1.561   1.930
 7333SOL    HW222899   6.100   1.429   1.856
 7334SOL     OW22900   1.093   4.781   5.139
 7334SOL    HW122901   0.997   4.754   5.130
 7334SOL    HW222902   1.111   4.859   5.079
 7335SOL     OW22903   6.419   2.744   1.720
 7335SOL    HW122904   6.408   2.765   1.623
 7335SOL    HW222905   6.341   2.690   1.751
 7336SOL     OW22906   2.618   6.987   1.047
 7336SOL    HW122907   2.589   6.984   0.951
 7336SOL    HW222908   2.706   6.941   1.057
 7337SOL     OW22909   2.893   1.552   2.001
 7337SOL    HW122910   2.874   1.609   1.921
 7337SOL    HW222911   2.937   1.467   1.971
 7338SOL     OW22912   5.272   2.236   0.054
 7338SOL    HW122913   5.258   2.206   6.980
 7338SOL    HW222914   5.301   2.331   0.056
 7339SOL     OW22915   6.657   6.572   3.649
 7339SOL    HW122916   6.739   6.628   3.636
 7339SOL    HW222917   6.646   6.551   3.746
 7340SOL     OW22918   3.165   0.165   0.244
 7340SOL    HW122919   3.180   0.224   0.164
 7340SOL    HW222920   3.079   0.191   0.288
 7341SOL     OW22921   6.058   5.271   2.974
 7341SOL    HW122922   5.960   5.251   2.971
 7341SOL    HW222923   6.084   5.326   2.895
 7342SOL     OW22924   0.166   4.963   6.656
 7342SOL    HW122925   0.137   4.891   6.719
 7342SOL    HW222926   0.111   5.045   6.672
 7343SOL     OW22927   0.374   1.885   3.341
 7343SOL    HW122928   0.354   1.856   3.435
 7343SOL    HW222929   0.432   1.967   3.344
 7344SOL     OW22930   1.533   1.405   5.654
 7344SOL    HW122931   1.549   1.504   5.663
 7344SOL    HW222932   1.568   1.374   5.566
 7345SOL     OW22933   1.289   6.805   6.901
 7345SOL    HW122934   1.219   6.863   6.860
 7345SOL    HW222935   1.253   6.713   6.915
 7346SOL     OW22936   3.379   5.512   2.866
 7346SOL    HW122937   3.400   5.481   2.773
 7346SOL    HW222938   3.408   5.607   2.877
 7347SOL     OW22939   5.864   2.918   3.488
 7347SOL    HW122940   5.953   2.877   3.471
 7347SOL    HW222941   5.862   3.011   3.449
 7348SOL     OW22942   5.714   0.490   6.484
 7348SOL    HW122943   5.756   0.426   6.549
 7348SOL    HW222944   5.648   0.442   6.427
 7349SOL     OW22945   3.914   2.023   1.056
 7349SOL    HW122946   3.879   1.931   1.073
 7349SOL    HW222947   3.940   2.065   1.143
 7350SOL     OW22948   1.734   1.681   2.077
 7350SOL    HW122949   1.649   1.676   2.129
 7350SOL    HW222950   1.746   1.774   2.042
 7351SOL     OW22951   5.858   5.150   0.051
 7351SOL    HW122952   5.906   5.236   0.070
 7351SOL    HW222953   5.920   5.088   0.003
 7352SOL     OW22954   6.882   1.713   2.830
 7352SOL    HW122955   6.815   1.735   2.900
 7352SOL    HW222956   6.942   1.640   2.864
 7353SOL     OW22957   5.672   1.649   4.374
 7353SOL    HW122958   5.753   1.695   4.338
 7353SOL    HW222959   5.635   1.702   4.451
 7354SOL     OW22960   5.824   4.419   5.059
 7354SOL    HW122961   5.887   4.403   4.982
 7354SOL    HW222962   5.855   4.366   5.138
 7355SOL     OW22963   6.965   5.712   0.303
 7355SOL    HW122964   6.909   5.672   0.376
 7355SOL    HW222965   6.921   5.697   0.215
 7356SOL     OW22966   6.716   2.277   6.414
 7356SOL    HW122967   6.686   2.190   6.374
 7356SOL    HW222968   6.636   2.330   6.442
 7357SOL     OW22969   1.002   0.720   1.483
 7357SOL    HW122970   0.971   0.661   1.409
 7357SOL    HW222971   0.939   0.714   1.560
 7358SOL     OW22972   3.571   1.419   3.718
 7358SOL    HW122973   3.478   1.454   3.714
 7358SOL    HW222974   3.576   1.332   3.668
 7359SOL     OW22975   3.439   3.803   4.290
 7359SOL    HW122976   3.449   3.832   4.385
 7359SOL    HW222977   3.368   3.858   4.246
 7360SOL     OW22978   1.694   4.834   5.503
 7360SOL    HW122979   1.653   4.923   5.524
 7360SOL    HW222980   1.644   4.762   5.551
 7361SOL     OW22981   4.698   0.144   1.591
 7361SOL    HW122982   4.600   0.153   1.605
 7361SOL    HW222983   4.716   0.113   1.498
 7362SOL     OW22984   1.110   4.956   0.289
 7362SOL    HW122985   1.050   4.936   0.366
 7362SOL    HW222986   1.134   5.053   0.290
 7363SOL     OW22987   5.034   2.236   6.135
 7363SOL    HW122988   5.067   2.178   6.060
 7363SOL    HW222989   4.956   2.191   6.179
 7364SOL     OW22990   5.163   6.595   0.242
 7364SOL    HW122991   5.108   6.630   0.318
 7364SOL    HW222992   5.159   6.660   0.166
 7365SOL     OW22993   5.328   0.149   1.647
 7365SOL    HW122994   5.328   0.212   1.569
 7365SOL    HW222995   5.235   0.142   1.684
 7366SOL     OW22996   3.348   6.819   0.697
 7366SOL    HW122997   3.292   6.794   0.775
 7366SOL    HW222998   3.291   6.829   0.616
 7367SOL     OW22999   4.825   2.898   5.949
 7367SOL    HW123000   4.891   2.948   6.005
 7367SOL    HW223001   4.735   2.900   5.993
 7368SOL     OW23002   3.377   2.799   5.117
 7368SOL    HW123003   3.328   2.732   5.061
 7368SOL    HW223004   3.335   2.803   5.208
 7369SOL     OW23005   0.257   6.797   6.387
 7369SOL    HW123006   0.192   6.784   6.462
 7369SOL    HW223007   0.279   6.708   6.346
 7370SOL     OW23008   6.949   5.636   0.984
 7370SOL    HW123009   0.020   5.675   0.981
 7370SOL    HW223010   6.900   5.670   1.064
 7371SOL     OW23011   2.483   5.052   3.387
 7371SOL    HW123012   2.429   4.979   3.430
 7371SOL    HW223013   2.446   5.071   3.296
 7372SOL     OW23014   2.075   6.900   4.966
 7372SOL    HW123015   2.113   6.917   5.057
 7372SOL    HW223016   2.061   6.988   4.919
 7373SOL     OW23017   4.005   1.556   0.763
 7373SOL    HW123018   4.074   1.591   0.828
 7373SOL    HW223019   3.939   1.628   0.744
 7374SOL     OW23020   2.391   3.820   0.754
 7374SOL    HW123021   2.342   3.765   0.822
 7374SOL    HW223022   2.407   3.765   0.673
 7375SOL     OW23023   2.096   5.570   2.584
 7375SOL    HW123024   2.054   5.495   2.635
 7375SOL    HW223025   2.150   5.627   2.646
 7376SOL     OW23026   3.573   4.701   0.132
 7376SOL    HW123027   3.521   4.784   0.110
 7376SOL    HW223028   3.548   4.628   0.069
 7377SOL     OW23029   4.895   5.908   1.415
 7377SOL    HW123030   4.941   5.848   1.349
 7377SOL    HW223031   4.910   6.003   1.389
 7378SOL     OW23032   0.833   1.338   6.434
 7378SOL    HW123033   0.900   1.343   6.360
 7378SOL    HW223034   0.741   1.349   6.396
 7379SOL     OW23035   4.618   0.992   0.012
 7379SOL    HW123036   4.685   0.950   6.973
 7379SOL    HW223037   4.623   0.950   0.103
 7380SOL     OW23038   0.469   3.305   6.330
 7380SOL    HW123039   0.521   3.229   6.368
 7380SOL    HW223040   0.475   3.384   6.392
 7381SOL     OW23041   5.558   3.017   0.509
 7381SOL    HW123042   5.636   3.011   0.446
 7381SOL    HW223043   5.508   3.102   0.492
 7382SOL     OW23044   0.645   5.632   3.708
 7382SOL    HW123045   0.725   5.575   3.686
 7382SOL    HW223046   0.675   5.724   3.733
 7383SOL     OW23047   1.847   4.751   2.070
 7383SOL    HW123048   1.822   4.711   1.982
 7383SOL    HW223049   1.900   4.684   2.122
 7384SOL     OW23050   5.796   0.822   1.564
 7384SOL    HW123051   5.714   0.844   1.617
 7384SOL    HW223052   5.788   0.861   1.472
 7385SOL     OW23053   5.156   6.851   2.389
 7385SOL    HW123054   5.109   6.768   2.420
 7385SOL    HW223055   5.089   6.920   2.364
 7386SOL     OW23056   6.213   1.801   5.247
 7386SOL    HW123057   6.213   1.753   5.159
 7386SOL    HW223058   6.120   1.834   5.266
 7387SOL     OW23059   5.300   5.492   4.454
 7387SOL    HW123060   5.358   5.512   4.375
 7387SOL    HW223061   5.252   5.575   4.482
 7388SOL     OW23062   4.962   3.641   4.463
 7388SOL    HW123063   4.895   3.699   4.416
 7388SOL    HW223064   4.957   3.548   4.427
 7389SOL     OW23065   2.322   3.600   5.876
 7389SOL    HW123066   2.252   3.582   5.807
 7389SOL    HW223067   2.394   3.531   5.869
 7390SOL     OW23068   4.677   5.921   0.588
 7390SOL    HW123069   4.617   5.986   0.541
 7390SOL    HW223070   4.633   5.832   0.593
 7391SOL     OW23071   0.214   5.067   0.795
 7391SOL    HW123072   0.162   5.110   0.721
 7391SOL    HW223073   0.265   4.989   0.759
 7392SOL     OW23074   1.101   4.384   1.594
 7392SOL    HW123075   1.166   4.459   1.577
 7392SOL    HW223076   1.027   4.389   1.527
 7393SOL     OW23077   1.315   3.925   0.690
 7393SOL    HW123078   1.311   4.017   0.729
 7393SOL    HW223079   1.263   3.924   0.605
 7394SOL     OW23080   2.953   4.266   6.950
 7394SOL    HW123081   2.948   4.189   6.887
 7394SOL    HW223082   3.019   4.247   0.001
 7395SOL     OW23083   2.480   6.865   0.531
 7395SOL    HW123084   2.390   6.872   0.572
 7395SOL    HW223085   2.534   6.796   0.581
 7396SOL     OW23086   6.664   6.799   2.295
 7396SOL    HW123087   6.679   6.820   2.198
 7396SOL    HW223088   6.647   6.701   2.306
 7397SOL     OW23089   5.458   4.288   4.251
 7397SOL    HW123090   5.533   4.293   4.185
 7397SOL    HW223091   5.490   4.241   4.333
 7398SOL     OW23092   4.037   5.632   3.244
 7398SOL    HW123093   4.036   5.540   3.284
 7398SOL    HW223094   4.015   5.626   3.147
 7399SOL     OW23095   4.938   6.169   4.494
 7399SOL    HW123096   5.010   6.125   4.440
 7399SOL    HW223097   4.849   6.146   4.455
 7400SOL     OW23098   2.589   4.358   6.838
 7400SOL    HW123099   2.654   4.408   6.894
 7400SOL    HW223100   2.599   4.260   6.854
 7401SOL     OW23101   6.543   2.956   3.937
 7401SOL    HW123102   6.585   3.038   3.976
 7401SOL    HW223103   6.605   2.916   3.869
 7402SOL     OW23104   1.652   6.348   5.242
 7402SOL    HW123105   1.555   6.351   5.221
 7402SOL    HW223106   1.687   6.440   5.256
 7403SOL     OW23107   1.997   3.196   1.404
 7403SOL    HW123108   1.923   3.133   1.430
 7403SOL    HW223109   2.046   3.159   1.325
 7404SOL     OW23110   1.428   2.873   2.762
 7404SOL    HW123111   1.494   2.819   2.711
 7404SOL    HW223112   1.444   2.970   2.746
 7405SOL     OW23113   3.264   5.493   5.766
 7405SOL    HW123114   3.347   5.457   5.724
 7405SOL    HW223115   3.279   5.588   5.793
 7406SOL     OW23116   5.873   5.867   2.939
 7406SOL    HW123117   5.834   5.776   2.955
 7406SOL    HW223118   5.829   5.909   2.860
 7407SOL     OW23119   4.165   1.647   6.065
 7407SOL    HW123120   4.238   1.592   6.025
 7407SOL    HW223121   4.076   1.609   6.037
 7408SOL     OW23122   0.745   3.216   4.964
 7408SOL    HW123123   0.768   3.281   4.892
 7408SOL    HW223124   0.720   3.266   5.047
 7409SOL     OW23125   2.118   0.164   4.341
 7409SOL    HW123126   2.200   0.106   4.339
 7409SOL    HW223127   2.131   0.241   4.279
 7410SOL     OW23128   4.004   5.262   5.882
 7410SOL    HW123129   3.961   5.181   5.841
 7410SOL    HW223130   4.024   5.329   5.810
 7411SOL     OW23131   6.018   3.483   5.870
 7411SOL    HW123132   6.081   3.560   5.860
 7411SOL    HW223133   6.011   3.434   5.783
 7412SOL     OW23134   1.277   0.572   0.097
 7412SOL    HW123135   1.212   0.539   0.165
 7412SOL    HW223136   1.349   0.504   0.085
 7413SOL     OW23137   6.411   3.758   2.946
 7413SOL    HW123138   6.343   3.828   2.926
 7413SOL    HW223139   6.501   3.789   2.915
 7414SOL     OW23140   0.331   5.478   2.064
 7414SOL    HW123141   0.301   5.383   2.051
 7414SOL    HW223142   0.372   5.512   1.980
 7415SOL     OW23143   2.717   1.536   3.515
 7415SOL    HW123144   2.637   1.493   3.557
 7415SOL    HW223145   2.798   1.516   3.570
 7416SOL     OW23146   6.347   0.746   2.436
 7416SOL    HW123147   6.252   0.774   2.419
 7416SOL    HW223148   6.387   0.808   2.504
 7417SOL     OW23149   0.265   5.395   1.549
 7417SOL    HW123150   0.200   5.348   1.491
 7417SOL    HW223151   0.332   5.443   1.492
 7418SOL     OW23152   2.142   3.630   0.889
 7418SOL    HW123153   2.209   3.612   0.960
 7418SOL    HW223154   2.052   3.640   0.930
 7419SOL     OW23155   6.068   2.018   5.436
 7419SOL    HW123156   6.044   2.110   5.465
 7419SOL    HW223157   6.122   1.973   5.507
 7420SOL     OW23158   0.545   6.550   1.763
 7420SOL    HW123159   0.609   6.601   1.706
 7420SOL    HW223160   0.495   6.613   1.822
 7421SOL     OW23161   4.677   2.262   0.943
 7421SOL    HW123162   4.634   2.269   1.033
 7421SOL    HW223163   4.677   2.352   0.899
 7422SOL     OW23164   1.757   1.801   0.337
 7422SOL    HW123165   1.750   1.702   0.349
 7422SOL    HW223166   1.848   1.832   0.365
 7423SOL     OW23167   3.022   4.326   0.556
 7423SOL    HW123168   3.058   4.418   0.572
 7423SOL    HW223169   2.948   4.307   0.621
 7424SOL     OW23170   5.689   6.432   3.741
 7424SOL    HW123171   5.769   6.372   3.743
 7424SOL    HW223172   5.656   6.440   3.648
 7425SOL     OW23173   4.158   6.847   4.951
 7425SOL    HW123174   4.110   6.929   4.919
 7425SOL    HW223175   4.201   6.866   5.039
 7426SOL     OW23176   0.065   0.427   6.478
 7426SOL    HW123177   0.088   0.517   6.514
 7426SOL    HW223178   6.991   0.405   6.503
 7427SOL     OW23179   5.155   5.207   6.224
 7427SOL    HW123180   5.103   5.135   6.179
 7427SOL    HW223181   5.094   5.259   6.285
 7428SOL     OW23182   5.693   1.564   5.307
 7428SOL    HW123183   5.758   1.570   5.231
 7428SOL    HW223184   5.669   1.656   5.337
 7429SOL     OW23185   5.615   6.563   3.209
 7429SOL    HW123186   5.670   6.581   3.127
 7429SOL    HW223187   5.658   6.608   3.288
 7430SOL     OW23188   0.783   3.898   4.654
 7430SOL    HW123189   0.785   3.986   4.606
 7430SOL    HW223190   0.862   3.892   4.715
 7431SOL     OW23191   6.893   3.798   2.758
 7431SOL    HW123192   6.812   3.806   2.816
 7431SOL    HW223193   6.880   3.726   2.691
 7432SOL     OW23194   2.171   6.393   5.500
 7432SOL    HW123195   2.169   6.426   5.594
 7432SOL    HW223196   2.082   6.354   5.476
 7433SOL     OW23197   0.679   6.878   0.734
 7433SOL    HW123198   0.580   6.883   0.721
 7433SOL    HW223199   0.724   6.871   0.645
 7434SOL     OW23200   4.355   6.904   0.743
 7434SOL    HW123201   4.324   6.987   0.696
 7434SOL    HW223202   4.426   6.927   0.809
 7435SOL     OW23203   0.898   4.359   6.953
 7435SOL    HW123204   0.962   4.436   6.951
 7435SOL    HW223205   0.879   4.335   0.027
 7436SOL     OW23206   5.250   3.544   6.836
 7436SOL    HW123207   5.315   3.610   6.874
 7436SOL    HW223208   5.201   3.585   6.759
 7437SOL     OW23209   6.601   6.672   5.749
 7437SOL    HW123210   6.655   6.620   5.683
 7437SOL    HW223211   6.618   6.770   5.734
 7438SOL     OW23212   6.857   4.119   0.960
 7438SOL    HW123213   6.793   4.053   0.920
 7438SOL    HW223214   6.941   4.120   0.907
 7439SOL     OW23215   1.595   6.497   2.668
 7439SOL    HW123216   1.670   6.545   2.715
 7439SOL    HW223217   1.567   6.418   2.722
 7440SOL     OW23218   1.538   0.850   4.628
 7440SOL    HW123219   1.552   0.898   4.541
 7440SOL    HW223220   1.580   0.759   4.623
 7441SOL     OW23221   0.131   0.771   3.571
 7441SOL    HW123222   0.059   0.744   3.635
 7441SOL    HW223223   0.108   0.860   3.531
 7442SOL     OW23224   1.832   0.991   0.242
 7442SOL    HW123225   1.779   1.061   0.195
 7442SOL    HW223226   1.783   0.961   0.324
 7443SOL     OW23227   6.068   1.468   1.591
 7443SOL    HW123228   6.042   1.481   1.687
 7443SOL    HW223229   6.079   1.557   1.547
 7444SOL     OW23230   1.988   2.965   4.994
 7444SOL    HW123231   2.059   2.999   4.932
 7444SOL    HW223232   2.026   2.890   5.049
 7445SOL     OW23233   5.721   2.868   2.518
 7445SOL    HW123234   5.785   2.939   2.545
 7445SOL    HW223235   5.766   2.779   2.524
 7446SOL     OW23236   4.609   4.446   2.610
 7446SOL    HW123237   4.708   4.463   2.608
 7446SOL    HW223238   4.574   4.463   2.702
 7447SOL     OW23239   1.490   3.018   6.349
 7447SOL    HW123240   1.416   3.075   6.312
 7447SOL    HW223241   1.517   3.052   6.439
 7448SOL     OW23242   6.891   1.239   5.406
 7448SOL    HW123243   6.951   1.244   5.326
 7448SOL    HW223244   6.929   1.174   5.471
 7449SOL     OW23245   3.162   1.320   2.775
 7449SOL    HW123246   3.169   1.237   2.830
 7449SOL    HW223247   3.084   1.374   2.807
 7450SOL     OW23248   3.891   2.058   1.910
 7450SOL    HW123249   3.906   2.103   1.821
 7450SOL    HW223250   3.814   2.103   1.956
 7451SOL     OW23251   0.861   0.764   1.713
 7451SOL    HW123252   0.912   0.847   1.735
 7451SOL    HW223253   0.775   0.763   1.763
 7452SOL     OW23254   2.111   5.273   3.118
 7452SOL    HW123255   2.057   5.189   3.120
 7452SOL    HW223256   2.084   5.332   3.194
 7453SOL     OW23257   6.119   4.469   4.574
 7453SOL    HW123258   6.116   4.565   4.547
 7453SOL    HW223259   6.095   4.412   4.495
 7454SOL     OW23260   2.961   2.272   0.020
 7454SOL    HW123261   3.010   2.185   0.024
 7454SOL    HW223262   2.907   2.284   0.103
 7455SOL     OW23263   5.298   0.114   0.886
 7455SOL    HW123264   5.389   0.073   0.883
 7455SOL    HW223265   5.298   0.198   0.832
 7456SOL     OW23266   1.728   3.293   6.460
 7456SOL    HW123267   1.695   3.376   6.415
 7456SOL    HW223268   1.650   3.243   6.498
 7457SOL     OW23269   0.430   6.642   5.527
 7457SOL    HW123270   0.508   6.695   5.492
 7457SOL    HW223271   0.461   6.583   5.602
 7458SOL     OW23272   2.960   0.533   1.920
 7458SOL    HW123273   2.887   0.474   1.885
 7458SOL    HW223274   3.023   0.556   1.847
 7459SOL     OW23275   3.726   5.477   3.394
 7459SOL    HW123276   3.765   5.463   3.303
 7459SOL    HW223277   3.635   5.437   3.399
 7460SOL     OW23278   1.396   5.343   6.367
 7460SOL    HW123279   1.461   5.306   6.434
 7460SOL    HW223280   1.304   5.311   6.389
 7461SOL     OW23281   3.518   1.682   4.118
 7461SOL    HW123282   3.463   1.603   4.089
 7461SOL    HW223283   3.471   1.728   4.194
 7462SOL     OW23284   1.484   2.359   4.103
 7462SOL    HW123285   1.496   2.365   4.003
 7462SOL    HW223286   1.495   2.450   4.143
 7463SOL     OW23287   4.019   3.684   2.500
 7463SOL    HW123288   4.012   3.587   2.525
 7463SOL    HW223289   4.035   3.738   2.582
 7464SOL     OW23290   4.644   5.543   0.513
 7464SOL    HW123291   4.710   5.487   0.563
 7464SOL    HW223292   4.566   5.564   0.572
 7465SOL     OW23293   2.836   1.702   2.680
 7465SOL    HW123294   2.787   1.714   2.594
 7465SOL    HW223295   2.824   1.608   2.712
 7466SOL     OW23296   0.362   6.349   0.835
 7466SOL    HW123297   0.273   6.367   0.794
 7466SOL    HW223298   0.362   6.376   0.931
 7467SOL     OW23299   4.278   2.518   0.922
 7467SOL    HW123300   4.260   2.425   0.952
 7467SOL    HW223301   4.298   2.576   1.001
 7468SOL     OW23302   5.158   4.865   4.594
 7468SOL    HW123303   5.181   4.880   4.690
 7468SOL    HW223304   5.148   4.767   4.577
 7469SOL     OW23305   5.188   2.036   0.762
 7469SOL    HW123306   5.097   1.994   0.756
 7469SOL    HW223307   5.213   2.048   0.858
 7470SOL     OW23308   0.797   3.689   3.328
 7470SOL    HW123309   0.820   3.782   3.355
 7470SOL    HW223310   0.728   3.652   3.392
 7471SOL     OW23311   6.774   4.087   5.749
 7471SOL    HW123312   6.784   4.103   5.847
 7471SOL    HW223313   6.826   4.156   5.699
 7472SOL     OW23314   4.453   5.804   2.907
 7472SOL    HW123315   4.439   5.813   3.006
 7472SOL    HW223316   4.505   5.722   2.888
 7473SOL     OW23317   1.678   2.361   6.069
 7473SOL    HW123318   1.765   2.318   6.045
 7473SOL    HW223319   1.694   2.456   6.096
 7474SOL     OW23320   2.479   1.218   1.972
 7474SOL    HW123321   2.461   1.314   1.949
 7474SOL    HW223322   2.576   1.207   1.992
 7475SOL     OW23323   5.267   0.960   6.334
 7475SOL    HW123324   5.179   1.001   6.312
 7475SOL    HW223325   5.254   0.891   6.406
 7476SOL     OW23326   1.757   6.652   4.725
 7476SOL    HW123327   1.855   6.669   4.718
 7476SOL    HW223328   1.712   6.681   4.640
 7477SOL     OW23329   4.795   4.298   4.934
 7477SOL    HW123330   4.846   4.375   4.973
 7477SOL    HW223331   4.702   4.327   4.912
 7478SOL     OW23332   6.964   4.497   1.134
 7478SOL    HW123333   6.970   4.508   1.034
 7478SOL    HW223334   6.908   4.417   1.155
 7479SOL     OW23335   3.787   0.192   4.582
 7479SOL    HW123336   3.754   0.242   4.663
 7479SOL    HW223337   3.720   0.122   4.557
 7480SOL     OW23338   5.612   5.077   6.943
 7480SOL    HW123339   5.636   5.027   6.860
 7480SOL    HW223340   5.693   5.120   6.982
 7481SOL     OW23341   5.628   6.446   0.725
 7481SOL    HW123342   5.615   6.538   0.687
 7481SOL    HW223343   5.687   6.452   0.806
 7482SOL     OW23344   4.746   0.325   4.982
 7482SOL    HW123345   4.756   0.226   4.971
 7482SOL    HW223346   4.779   0.371   4.900
 7483SOL     OW23347   3.820   6.946   6.726
 7483SOL    HW123348   3.735   6.990   6.699
 7483SOL    HW223349   3.833   6.957   6.825
 7484SOL     OW23350   3.311   6.143   0.779
 7484SOL    HW123351   3.220   6.104   0.793
 7484SOL    HW223352   3.340   6.190   0.862
 7485SOL     OW23353   1.271   0.195   5.009
 7485SOL    HW123354   1.189   0.207   4.953
 7485SOL    HW223355   1.287   0.277   5.064
 7486SOL     OW23356   1.793   2.193   5.095
 7486SOL    HW123357   1.761   2.153   5.009
 7486SOL    HW223358   1.727   2.172   5.167
 7487SOL     OW23359   2.238   6.133   2.539
 7487SOL    HW123360   2.307   6.094   2.479
 7487SOL    HW223361   2.185   6.201   2.489
 7488SOL     OW23362   4.536   2.416   4.591
 7488SOL    HW123363   4.557   2.510   4.616
 7488SOL    HW223364   4.449   2.389   4.633
 7489SOL     OW23365   1.190   3.537   3.287
 7489SOL    HW123366   1.137   3.530   3.372
 7489SOL    HW223367   1.129   3.560   3.212
 7490SOL     OW23368   5.798   0.536   2.511
 7490SOL    HW123369   5.701   0.526   2.533
 7490SOL    HW223370   5.836   0.446   2.488
 7491SOL     OW23371   1.202   0.225   1.082
 7491SOL    HW123372   1.285   0.172   1.064
 7491SOL    HW223373   1.136   0.167   1.129
 7492SOL     OW23374   1.393   2.403   2.536
 7492SOL    HW123375   1.434   2.392   2.446
 7492SOL    HW223376   1.458   2.374   2.606
 7493SOL     OW23377   5.806   4.102   6.995
 7493SOL    HW123378   5.772   4.195   6.981
 7493SOL    HW223379   5.871   4.102   0.050
 7494SOL     OW23380   5.221   2.155   1.046
 7494SOL    HW123381   5.129   2.185   1.020
 7494SOL    HW223382   5.260   2.221   1.110
 7495SOL     OW23383   1.520   1.866   3.456
 7495SOL    HW123384   1.491   1.775   3.485
 7495SOL    HW223385   1.440   1.922   3.438
 7496SOL     OW23386   0.245   4.930   6.021
 7496SOL    HW123387   0.282   4.901   6.109
 7496SOL    HW223388   0.311   4.990   5.975
 7497SOL     OW23389   0.379   4.171   3.046
 7497SOL    HW123390   0.450   4.103   3.064
 7497SOL    HW223391   0.320   4.139   2.972
 7498SOL     OW23392   4.930   1.740   4.131
 7498SOL    HW123393   4.916   1.642   4.116
 7498SOL    HW223394   4.965   1.754   4.224
 7499SOL     OW23395   3.355   4.919   3.433
 7499SOL    HW123396   3.262   4.952   3.419
 7499SOL    HW223397   3.383   4.937   3.527
 7500SOL     OW23398   4.848   4.011   1.812
 7500SOL    HW123399   4.917   4.054   1.753
 7500SOL    HW223400   4.833   4.068   1.892
 7501SOL     OW23401   0.961   4.363   3.494
 7501SOL    HW123402   0.936   4.309   3.574
 7501SOL    HW223403   0.982   4.457   3.522
 7502SOL     OW23404   1.213   1.937   4.665
 7502SOL    HW123405   1.126   1.915   4.621
 7502SOL    HW223406   1.288   1.922   4.600
 7503SOL     OW23407   2.186   2.246   0.625
 7503SOL    HW123408   2.107   2.192   0.596
 7503SOL    HW223409   2.249   2.186   0.676
 7504SOL     OW23410   5.455   5.395   5.970
 7504SOL    HW123411   5.416   5.336   6.041
 7504SOL    HW223412   5.416   5.487   5.978
 7505SOL     OW23413   1.619   1.951   3.174
 7505SOL    HW123414   1.547   1.975   3.108
 7505SOL    HW223415   1.577   1.917   3.258
 7506SOL     OW23416   3.618   0.709   2.870
 7506SOL    HW123417   3.654   0.799   2.896
 7506SOL    HW223418   3.694   0.644   2.863
 7507SOL     OW23419   1.877   6.811   5.172
 7507SOL    HW123420   1.850   6.835   5.079
 7507SOL    HW223421   1.813   6.744   5.209
 7508SOL     OW23422   4.954   5.981   3.260
 7508SOL    HW123423   4.948   6.025   3.170
 7508SOL    HW223424   4.910   5.892   3.256
 7509SOL     OW23425   2.558   4.223   6.598
 7509SOL    HW123426   2.463   4.242   6.572
 7509SOL    HW223427   2.588   4.291   6.665
 7510SOL     OW23428   3.962   3.201   4.368
 7510SOL    HW123429   3.924   3.293   4.379
 7510SOL    HW223430   3.888   3.135   4.355
 7511SOL     OW23431   1.370   1.047   2.249
 7511SOL    HW123432   1.365   0.947   2.246
 7511SOL    HW223433   1.396   1.082   2.159
 7512SOL     OW23434   1.921   2.621   2.729
 7512SOL    HW123435   1.877   2.636   2.817
 7512SOL    HW223436   1.953   2.526   2.723
 7513SOL     OW23437   2.347   2.718   6.833
 7513SOL    HW123438   2.441   2.744   6.857
 7513SOL    HW223439   2.292   2.712   6.917
 7514SOL     OW23440   2.867   5.367   2.979
 7514SOL    HW123441   2.820   5.437   3.033
 7514SOL    HW223442   2.879   5.285   3.034
 7515SOL     OW23443   6.968   5.127   3.411
 7515SOL    HW123444   0.029   5.128   3.353
 7515SOL    HW223445   6.976   5.199   3.480
 7516SOL     OW23446   1.597   3.733   1.200
 7516SOL    HW123447   1.542   3.779   1.270
 7516SOL    HW223448   1.673   3.792   1.173
 7517SOL     OW23449   1.594   5.254   2.348
 7517SOL    HW123450   1.574   5.322   2.277
 7517SOL    HW223451   1.552   5.282   2.434
 7518SOL     OW23452   4.896   3.732   2.237
 7518SOL    HW123453   4.880   3.750   2.141
 7518SOL    HW223454   4.836   3.789   2.293
 7519SOL     OW23455   2.096   0.818   4.826
 7519SOL    HW123456   2.109   0.823   4.925
 7519SOL    HW223457   2.040   0.896   4.796
 7520SOL     OW23458   1.835   0.256   4.121
 7520SOL    HW123459   1.845   0.246   4.022
 7520SOL    HW223460   1.905   0.203   4.167
 7521SOL     OW23461   4.417   2.851   5.942
 7521SOL    HW123462   4.462   2.848   5.853
 7521SOL    HW223463   4.319   2.841   5.931
 7522SOL     OW23464   2.034   6.449   2.086
 7522SOL    HW123465   1.989   6.450   2.175
 7522SOL    HW223466   1.973   6.485   2.016
 7523SOL     OW23467   6.689   6.184   6.134
 7523SOL    HW123468   6.726   6.204   6.043
 7523SOL    HW223469   6.589   6.186   6.131
 7524SOL     OW23470   6.337   1.731   6.168
 7524SOL    HW123471   6.385   1.778   6.094
 7524SOL    HW223472   6.370   1.636   6.173
 7525SOL     OW23473   0.272   6.943   0.371
 7525SOL    HW123474   0.304   0.011   0.404
 7525SOL    HW223475   0.241   6.951   0.277
 7526SOL     OW23476   4.159   3.383   5.109
 7526SOL    HW123477   4.111   3.355   5.025
 7526SOL    HW223478   4.191   3.301   5.157
 7527SOL     OW23479   2.429   6.440   1.447
 7527SOL    HW123480   2.449   6.416   1.543
 7527SOL    HW223481   2.514   6.439   1.395
 7528SOL     OW23482   6.243   2.128   0.392
 7528SOL    HW123483   6.270   2.225   0.386
 7528SOL    HW223484   6.198   2.112   0.480
 7529SOL     OW23485   1.351   0.218   3.972
 7529SOL    HW123486   1.367   0.204   3.874
 7529SOL    HW223487   1.429   0.182   4.023
 7530SOL     OW23488   0.115   3.233   2.988
 7530SOL    HW123489   0.152   3.324   3.009
 7530SOL    HW223490   0.182   3.163   3.015
 7531SOL     OW23491   1.650   2.739   4.193
 7531SOL    HW123492   1.597   2.792   4.126
 7531SOL    HW223493   1.613   2.756   4.285
 7532SOL     OW23494   4.628   4.376   2.259
 7532SOL    HW123495   4.652   4.309   2.328
 7532SOL    HW223496   4.581   4.331   2.183
 7533SOL     OW23497   3.753   6.637   5.402
 7533SOL    HW123498   3.765   6.537   5.407
 7533SOL    HW223499   3.835   6.678   5.362
 7534SOL     OW23500   4.344   6.411   4.272
 7534SOL    HW123501   4.335   6.411   4.173
 7534SOL    HW223502   4.258   6.380   4.314
 7535SOL     OW23503   3.109   4.669   6.747
 7535SOL    HW123504   3.065   4.584   6.717
 7535SOL    HW223505   3.199   4.677   6.706
 7536SOL     OW23506   4.272   5.098   6.797
 7536SOL    HW123507   4.246   5.195   6.801
 7536SOL    HW223508   4.275   5.069   6.702
 7537SOL     OW23509   2.373   4.458   4.696
 7537SOL    HW123510   2.381   4.475   4.598
 7537SOL    HW223511   2.332   4.368   4.711
 7538SOL     OW23512   3.440   4.021   5.401
 7538SOL    HW123513   3.489   4.021   5.313
 7538SOL    HW223514   3.389   4.106   5.410
 7539SOL     OW23515   1.122   3.213   4.515
 7539SOL    HW123516   1.180   3.276   4.463
 7539SOL    HW223517   1.105   3.252   4.606
 7540SOL     OW23518   2.967   1.223   0.352
 7540SOL    HW123519   2.989   1.131   0.318
 7540SOL    HW223520   3.044   1.260   0.402
 7541SOL     OW23521   0.456   1.874   5.874
 7541SOL    HW123522   0.496   1.948   5.929
 7541SOL    HW223523   0.522   1.800   5.865
 7542SOL     OW23524   1.845   0.452   4.543
 7542SOL    HW123525   1.878   0.424   4.633
 7542SOL    HW223526   1.765   0.396   4.518
 7543SOL     OW23527   2.761   2.595   1.746
 7543SOL    HW123528   2.685   2.533   1.764
 7543SOL    HW223529   2.843   2.562   1.792
 7544SOL     OW23530   1.174   2.069   2.403
 7544SOL    HW123531   1.158   1.976   2.369
 7544SOL    HW223532   1.090   2.123   2.393
 7545SOL     OW23533   3.927   0.214   3.918
 7545SOL    HW123534   3.845   0.252   3.961
 7545SOL    HW223535   4.006   0.234   3.975
 7546SOL     OW23536   4.981   6.791   4.969
 7546SOL    HW123537   5.028   6.703   4.966
 7546SOL    HW223538   5.038   6.859   5.015
 7547SOL     OW23539   2.196   6.403   0.522
 7547SOL    HW123540   2.240   6.460   0.592
 7547SOL    HW223541   2.155   6.463   0.453
 7548SOL     OW23542   2.507   4.068   0.831
 7548SOL    HW123543   2.596   4.032   0.856
 7548SOL    HW223544   2.446   3.993   0.806
 7549SOL     OW23545   6.125   6.917   2.594
 7549SOL    HW123546   6.164   6.997   2.640
 7549SOL    HW223547   6.075   6.946   2.512
 7550SOL     OW23548   1.027   5.598   0.526
 7550SOL    HW123549   1.122   5.602   0.494
 7550SOL    HW223550   0.968   5.566   0.452
 7551SOL     OW23551   4.880   3.905   6.158
 7551SOL    HW123552   4.944   3.937   6.088
 7551SOL    HW223553   4.807   3.851   6.115
 7552SOL     OW23554   3.464   6.034   4.177
 7552SOL    HW123555   3.486   6.103   4.247
 7552SOL    HW223556   3.549   6.004   4.133
 7553SOL     OW23557   4.348   4.063   5.874
 7553SOL    HW123558   4.298   3.992   5.823
 7553SOL    HW223559   4.436   4.026   5.904
 7554SOL     OW23560   6.837   1.289   0.645
 7554SOL    HW123561   6.895   1.232   0.703
 7554SOL    HW223562   6.833   1.381   0.683
 7555SOL     OW23563   2.306   6.717   6.400
 7555SOL    HW123564   2.351   6.647   6.455
 7555SOL    HW223565   2.207   6.699   6.399
 7556SOL     OW23566   7.007   3.844   2.361
 7556SOL    HW123567   0.020   3.932   2.396
 7556SOL    HW223568   0.037   3.770   2.405
 7557SOL     OW23569   4.737   4.155   0.678
 7557SOL    HW123570   4.640   4.175   0.691
 7557SOL    HW223571   4.749   4.057   0.659
 7558SOL     OW23572   1.557   3.725   3.734
 7558SOL    HW123573   1.609   3.799   3.775
 7558SOL    HW223574   1.522   3.665   3.805
 7559SOL     OW23575   0.803   4.961   0.195
 7559SOL    HW123576   0.849   4.876   0.221
 7559SOL    HW223577   0.859   5.010   0.129
 7560SOL     OW23578   4.414   0.005   6.145
 7560SOL    HW123579   4.486   6.980   6.093
 7560SOL    HW223580   4.339   6.962   6.163
 7561SOL     OW23581   1.794   2.884   0.385
 7561SOL    HW123582   1.789   2.942   0.305
 7561SOL    HW223583   1.773   2.789   0.360
 7562SOL     OW23584   4.698   6.414   4.923
 7562SOL    HW123585   4.695   6.500   4.973
 7562SOL    HW223586   4.774   6.415   4.858
 7563SOL     OW23587   2.095   1.707   3.844
 7563SOL    HW123588   2.114   1.621   3.892
 7563SOL    HW223589   2.158   1.778   3.877
 7564SOL     OW23590   6.271   5.522   4.140
 7564SOL    HW123591   6.269   5.621   4.123
 7564SOL    HW223592   6.187   5.495   4.188
 7565SOL     OW23593   5.076   4.923   6.476
 7565SOL    HW123594   4.990   4.908   6.524
 7565SOL    HW223595   5.087   4.854   6.404
 7566SOL     OW23596   1.708   5.363   3.715
 7566SOL    HW123597   1.759   5.333   3.796
 7566SOL    HW223598   1.773   5.394   3.645
 7567SOL     OW23599   2.784   4.053   0.100
 7567SOL    HW123600   2.771   4.126   0.032
 7567SOL    HW223601   2.850   4.082   0.168
 7568SOL     OW23602   4.230   4.847   3.860
 7568SOL    HW123603   4.296   4.832   3.786
 7568SOL    HW223604   4.258   4.796   3.941
 7569SOL     OW23605   3.640   0.083   2.854
 7569SOL    HW123606   3.663   0.001   2.908
 7569SOL    HW223607   3.659   0.065   2.757
 7570SOL     OW23608   6.249   5.115   5.076
 7570SOL    HW123609   6.281   5.040   5.018
 7570SOL    HW223610   6.149   5.108   5.088
 7571SOL     OW23611   6.889   4.473   0.292
 7571SOL    HW123612   6.868   4.536   0.367
 7571SOL    HW223613   6.872   4.379   0.322
 7572SOL     OW23614   5.925   1.424   3.743
 7572SOL    HW123615   5.953   1.359   3.814
 7572SOL    HW223616   5.825   1.422   3.734
 7573SOL     OW23617   2.894   5.067   3.949
 7573SOL    HW123618   2.972   5.125   3.972
 7573SOL    HW223619   2.809   5.113   3.974
 7574SOL     OW23620   4.187   6.383   1.494
 7574SOL    HW123621   4.143   6.294   1.495
 7574SOL    HW223622   4.282   6.373   1.463
 7575SOL     OW23623   4.875   3.279   4.048
 7575SOL    HW123624   4.912   3.187   4.058
 7575SOL    HW223625   4.866   3.302   3.952
 7576SOL     OW23626   0.365   4.599   1.806
 7576SOL    HW123627   0.398   4.534   1.874
 7576SOL    HW223628   0.388   4.565   1.714
 7577SOL     OW23629   3.894   1.616   3.874
 7577SOL    HW123630   3.865   1.690   3.935
 7577SOL    HW223631   3.991   1.596   3.890
 7578SOL     OW23632   2.035   5.508   5.514
 7578SOL    HW123633   2.117   5.546   5.471
 7578SOL    HW223634   1.955   5.531   5.459
 7579SOL     OW23635   4.492   2.287   4.330
 7579SOL    HW123636   4.518   2.315   4.423
 7579SOL    HW223637   4.395   2.260   4.330
 7580SOL     OW23638   1.677   3.333   2.359
 7580SOL    HW123639   1.601   3.390   2.328
 7580SOL    HW223640   1.750   3.391   2.394
 7581SOL     OW23641   5.808   1.064   1.119
 7581SOL    HW123642   5.780   1.150   1.078
 7581SOL    HW223643   5.866   1.082   1.199
 7582SOL     OW23644   4.135   3.023   1.305
 7582SOL    HW123645   4.098   2.944   1.354
 7582SOL    HW223646   4.069   3.054   1.237
 7583SOL     OW23647   6.317   4.044   3.292
 7583SOL    HW123648   6.287   4.085   3.378
 7583SOL    HW223649   6.318   3.944   3.301
 7584SOL     OW23650   1.980   2.517   1.881
 7584SOL    HW123651   2.044   2.583   1.921
 7584SOL    HW223652   1.934   2.558   1.802
 7585SOL     OW23653   3.203   4.165   0.677
 7585SOL    HW123654   3.133   4.215   0.627
 7585SOL    HW223655   3.294   4.195   0.647
 7586SOL     OW23656   1.428   2.887   3.549
 7586SOL    HW123657   1.418   2.885   3.648
 7586SOL    HW223658   1.339   2.903   3.506
 7587SOL     OW23659   3.254   0.591   5.499
 7587SOL    HW123660   3.251   0.646   5.583
 7587SOL    HW223661   3.296   0.503   5.518
 7588SOL     OW23662   0.314   4.603   1.364
 7588SOL    HW123663   0.220   4.635   1.371
 7588SOL    HW223664   0.330   4.567   1.272
 7589SOL     OW23665   4.316   5.652   6.132
 7589SOL    HW123666   4.230   5.602   6.123
 7589SOL    HW223667   4.380   5.621   6.062
 7590SOL     OW23668   2.515   0.688   5.067
 7590SOL    HW123669   2.581   0.647   5.130
 7590SOL    HW223670   2.540   0.665   4.973
 7591SOL     OW23671   6.597   5.613   6.018
 7591SOL    HW123672   6.624   5.686   6.081
 7591SOL    HW223673   6.595   5.526   6.067
 7592SOL     OW23674   4.740   5.019   6.079
 7592SOL    HW123675   4.712   4.935   6.032
 7592SOL    HW223676   4.779   5.083   6.013
 7593SOL     OW23677   6.547   4.906   0.029
 7593SOL    HW123678   6.533   4.822   6.998
 7593SOL    HW223679   6.640   4.940   0.012
 7594SOL     OW23680   0.914   0.211   4.255
 7594SOL    HW123681   0.911   0.198   4.156
 7594SOL    HW223682   0.995   0.164   4.291
 7595SOL     OW23683   0.201   4.060   6.618
 7595SOL    HW123684   0.268   3.992   6.591
 7595SOL    HW223685   0.246   4.134   6.668
 7596SOL     OW23686   5.172   5.119   2.316
 7596SOL    HW123687   5.159   5.182   2.239
 7596SOL    HW223688   5.100   5.134   2.385
 7597SOL     OW23689   2.384   4.400   2.880
 7597SOL    HW123690   2.465   4.375   2.933
 7597SOL    HW223691   2.310   4.425   2.942
 7598SOL     OW23692   6.643   1.354   2.489
 7598SOL    HW123693   6.579   1.357   2.413
 7598SOL    HW223694   6.692   1.441   2.495
 7599SOL     OW23695   5.266   3.967   1.961
 7599SOL    HW123696   5.196   3.950   2.030
 7599SOL    HW223697   5.223   3.964   1.870
 7600SOL     OW23698   2.257   2.256   2.637
 7600SOL    HW123699   2.320   2.267   2.714
 7600SOL    HW223700   2.305   2.275   2.552
 7601SOL     OW23701   2.054   0.758   5.326
 7601SOL    HW123702   2.115   0.748   5.405
 7601SOL    HW223703   1.982   0.689   5.330
 7602SOL     OW23704   2.050   2.988   5.316
 7602SOL    HW123705   2.113   2.911   5.300
 7602SOL    HW223706   2.081   3.067   5.263
 7603SOL     OW23707   6.280   1.278   2.433
 7603SOL    HW123708   6.327   1.314   2.352
 7603SOL    HW223709   6.270   1.352   2.500
 7604SOL     OW23710   5.897   5.582   6.391
 7604SOL    HW123711   5.917   5.597   6.488
 7604SOL    HW223712   5.963   5.517   6.353
 7605SOL     OW23713   5.070   3.348   5.737
 7605SOL    HW123714   5.032   3.260   5.711
 7605SOL    HW223715   5.133   3.380   5.667
 7606SOL     OW23716   5.670   1.103   3.933
 7606SOL    HW123717   5.641   1.172   3.867
 7606SOL    HW223718   5.637   1.128   4.024
 7607SOL     OW23719   4.821   6.128   6.000
 7607SOL    HW123720   4.865   6.201   5.947
 7607SOL    HW223721   4.873   6.112   6.083
 7608SOL     OW23722   3.720   3.276   4.674
 7608SOL    HW123723   3.622   3.293   4.686
 7608SOL    HW223724   3.733   3.186   4.631
 7609SOL     OW23725   1.314   2.950   3.162
 7609SOL    HW123726   1.248   2.961   3.087
 7609SOL    HW223727   1.403   2.924   3.124
 7610SOL     OW23728   5.855   0.263   2.465
 7610SOL    HW123729   5.782   0.224   2.521
 7610SOL    HW223730   5.909   0.189   2.424
 7611SOL     OW23731   1.241   1.864   1.779
 7611SOL    HW123732   1.283   1.804   1.847
 7611SOL    HW223733   1.158   1.904   1.818
 7612SOL     OW23734   3.477   1.144   2.830
 7612SOL    HW123735   3.473   1.240   2.857
 7612SOL    HW223736   3.568   1.123   2.794
 7613SOL     OW23737   6.603   0.715   2.342
 7613SOL    HW123738   6.600   0.626   2.298
 7613SOL    HW223739   6.509   0.747   2.359
 7614SOL     OW23740   4.371   1.048   0.369
 7614SOL    HW123741   4.301   0.987   0.333
 7614SOL    HW223742   4.340   1.087   0.456
 7615SOL     OW23743   4.294   4.510   6.013
 7615SOL    HW123744   4.209   4.559   6.034
 7615SOL    HW223745   4.275   4.436   5.949
 7616SOL     OW23746   7.007   6.277   3.489
 7616SOL    HW123747   6.959   6.231   3.415
 7616SOL    HW223748   0.009   6.210   3.561
 7617SOL     OW23749   4.186   5.320   3.098
 7617SOL    HW123750   4.103   5.305   3.153
 7617SOL    HW223751   4.198   5.418   3.083
 7618SOL     OW23752   3.188   1.553   0.300
 7618SOL    HW123753   3.138   1.629   0.340
 7618SOL    HW223754   3.163   1.542   0.204
 7619SOL     OW23755   5.744   3.530   5.800
 7619SOL    HW123756   5.828   3.506   5.848
 7619SOL    HW223757   5.665   3.495   5.852
 7620SOL     OW23758   2.436   5.665   2.082
 7620SOL    HW123759   2.526   5.702   2.059
 7620SOL    HW223760   2.372   5.740   2.099
 7621SOL     OW23761   2.855   3.164   1.339
 7621SOL    HW123762   2.931   3.127   1.392
 7621SOL    HW223763   2.889   3.235   1.278
 7622SOL     OW23764   4.938   1.860   0.821
 7622SOL    HW123765   4.926   1.882   0.918
 7622SOL    HW223766   4.890   1.927   0.765
 7623SOL     OW23767   7.018   6.751   4.608
 7623SOL    HW123768   6.994   6.659   4.638
 7623SOL    HW223769   0.062   6.791   4.673
 7624SOL     OW23770   0.088   1.220   4.889
 7624SOL    HW123771   0.182   1.239   4.918
 7624SOL    HW223772   0.027   1.225   4.969
 7625SOL     OW23773   2.177   4.802   0.454
 7625SOL    HW123774   2.101   4.842   0.403
 7625SOL    HW223775   2.259   4.802   0.397
 7626SOL     OW23776   2.594   3.914   5.358
 7626SOL    HW123777   2.676   3.969   5.343
 7626SOL    HW223778   2.523   3.942   5.292
 7627SOL     OW23779   6.941   0.344   6.886
 7627SOL    HW123780   6.903   0.436   6.880
 7627SOL    HW223781   0.018   0.351   6.909
 7628SOL     OW23782   4.145   1.722   0.187
 7628SOL    HW123783   4.107   1.708   0.278
 7628SOL    HW223784   4.072   1.743   0.122
 7629SOL     OW23785   6.180   5.382   2.595
 7629SOL    HW123786   6.245   5.433   2.538
 7629SOL    HW223787   6.212   5.381   2.689
 7630SOL     OW23788   5.637   1.584   2.072
 7630SOL    HW123789   5.553   1.569   2.020
 7630SOL    HW223790   5.659   1.682   2.072
 7631SOL     OW23791   0.547   0.238   3.786
 7631SOL    HW123792   0.454   0.238   3.824
 7631SOL    HW223793   0.561   0.155   3.733
 7632SOL     OW23794   4.602   0.858   4.584
 7632SOL    HW123795   4.615   0.806   4.668
 7632SOL    HW223796   4.578   0.953   4.607
 7633SOL     OW23797   5.609   3.366   6.006
 7633SOL    HW123798   5.618   3.268   6.021
 7633SOL    HW223799   5.513   3.388   5.989
 7634SOL     OW23800   0.776   2.501   1.890
 7634SOL    HW123801   0.804   2.571   1.957
 7634SOL    HW223802   0.751   2.545   1.804
 7635SOL     OW23803   1.936   5.045   5.875
 7635SOL    HW123804   1.910   4.950   5.858
 7635SOL    HW223805   1.860   5.105   5.853
 7636SOL     OW23806   0.731   1.601   3.283
 7636SOL    HW123807   0.803   1.668   3.264
 7636SOL    HW223808   0.751   1.552   3.368
 7637SOL     OW23809   2.931   6.356   3.914
 7637SOL    HW123810   3.021   6.357   3.958
 7637SOL    HW223811   2.860   6.368   3.983
 7638SOL     OW23812   4.928   5.024   2.089
 7638SOL    HW123813   4.833   5.048   2.071
 7638SOL    HW223814   4.935   4.925   2.105
 7639SOL     OW23815   0.767   2.001   4.525
 7639SOL    HW123816   0.833   2.076   4.529
 7639SOL    HW223817   0.757   1.970   4.431
 7640SOL     OW23818   1.990   2.811   6.003
 7640SOL    HW123819   1.931   2.887   5.974
 7640SOL    HW223820   1.970   2.730   5.948
 7641SOL     OW23821   5.691   3.392   1.838
 7641SOL    HW123822   5.620   3.379   1.907
 7641SOL    HW223823   5.735   3.481   1.852
 7642SOL     OW23824   0.963   3.354   3.089
 7642SOL    HW123825   0.970   3.342   3.188
 7642SOL    HW223826   0.870   3.333   3.059
 7643SOL     OW23827   5.483   3.744   3.635
 7643SOL    HW123828   5.471   3.655   3.592
 7643SOL    HW223829   5.435   3.814   3.582
 7644SOL     OW23830   6.383   2.511   3.664
 7644SOL    HW123831   6.380   2.481   3.760
 7644SOL    HW223832   6.428   2.441   3.609
 7645SOL     OW23833   4.157   3.063   0.697
 7645SOL    HW123834   4.143   2.987   0.634
 7645SOL    HW223835   4.086   3.131   0.683
 7646SOL     OW23836   0.821   0.724   2.376
 7646SOL    HW123837   0.893   0.772   2.326
 7646SOL    HW223838   0.766   0.670   2.313
 7647SOL     OW23839   2.413   4.215   0.152
 7647SOL    HW123840   2.451   4.126   0.127
 7647SOL    HW223841   2.313   4.209   0.155
 7648SOL     OW23842   2.444   0.346   3.596
 7648SOL    HW123843   2.539   0.328   3.572
 7648SOL    HW223844   2.387   0.344   3.513
 7649SOL     OW23845   3.918   2.038   0.796
 7649SOL    HW123846   3.880   1.949   0.772
 7649SOL    HW223847   3.918   2.049   0.895
 7650SOL     OW23848   0.249   4.584   0.881
 7650SOL    HW123849   0.167   4.640   0.874
 7650SOL    HW223850   0.328   4.637   0.850
 7651SOL     OW23851   5.579   1.872   5.916
 7651SOL    HW123852   5.660   1.819   5.939
 7651SOL    HW223853   5.529   1.896   5.999
 7652SOL     OW23854   0.491   2.781   2.332
 7652SOL    HW123855   0.457   2.765   2.424
 7652SOL    HW223856   0.565   2.717   2.312
 7653SOL     OW23857   4.639   2.455   1.729
 7653SOL    HW123858   4.706   2.386   1.703
 7653SOL    HW223859   4.586   2.483   1.649
 7654SOL     OW23860   5.644   3.853   5.257
 7654SOL    HW123861   5.727   3.806   5.224
 7654SOL    HW223862   5.618   3.923   5.191
 7655SOL     OW23863   5.198   4.703   6.283
 7655SOL    HW123864   5.198   4.620   6.340
 7655SOL    HW223865   5.292   4.723   6.256
 7656SOL     OW23866   0.131   0.120   5.451
 7656SOL    HW123867   0.080   0.189   5.399
 7656SOL    HW223868   0.214   0.161   5.489
 7657SOL     OW23869   3.480   2.127   3.403
 7657SOL    HW123870   3.483   2.029   3.425
 7657SOL    HW223871   3.480   2.139   3.304
 7658SOL     OW23872   4.325   0.859   5.680
 7658SOL    HW123873   4.253   0.867   5.611
 7658SOL    HW223874   4.305   0.781   5.739
 7659SOL     OW23875   5.034   6.120   6.186
 7659SOL    HW123876   5.029   6.110   6.286
 7659SOL    HW223877   5.052   6.030   6.145
 7660SOL     OW23878   5.459   5.235   3.709
 7660SOL    HW123879   5.411   5.292   3.643
 7660SOL    HW223880   5.503   5.292   3.778
 7661SOL     OW23881   6.036   3.189   3.595
 7661SOL    HW123882   6.006   3.099   3.628
 7661SOL    HW223883   6.128   3.181   3.558
 7662SOL     OW23884   6.037   5.361   3.365
 7662SOL    HW123885   5.956   5.371   3.306
 7662SOL    HW223886   6.035   5.272   3.410
 7663SOL     OW23887   0.840   6.799   6.690
 7663SOL    HW123888   0.935   6.830   6.700
 7663SOL    HW223889   0.781   6.850   6.753
 7664SOL     OW23890   4.901   5.066   4.824
 7664SOL    HW123891   4.869   5.034   4.734
 7664SOL    HW223892   4.974   5.006   4.856
 7665SOL     OW23893   2.288   5.729   3.668
 7665SOL    HW123894   2.315   5.779   3.586
 7665SOL    HW223895   2.370   5.700   3.718
 7666SOL     OW23896   2.018   0.212   2.596
 7666SOL    HW123897   2.064   0.124   2.579
 7666SOL    HW223898   1.941   0.198   2.657
 7667SOL     OW23899   5.549   0.123   5.505
 7667SOL    HW123900   5.449   0.130   5.502
 7667SOL    HW223901   5.588   0.215   5.498
 7668SOL     OW23902   2.916   3.460   2.995
 7668SOL    HW123903   2.909   3.367   2.960
 7668SOL    HW223904   2.944   3.521   2.921
 7669SOL     OW23905   4.772   6.663   5.106
 7669SOL    HW123906   4.842   6.719   5.063
 7669SOL    HW223907   4.815   6.588   5.156
 7670SOL     OW23908   1.627   6.037   1.401
 7670SOL    HW123909   1.541   6.013   1.445
 7670SOL    HW223910   1.652   5.967   1.334
 7671SOL     OW23911   4.653   2.679   4.747
 7671SOL    HW123912   4.681   2.748   4.814
 7671SOL    HW223913   4.578   2.624   4.784
 7672SOL     OW23914   5.366   6.888   1.687
 7672SOL    HW123915   5.349   6.854   1.779
 7672SOL    HW223916   5.366   6.988   1.689
 7673SOL     OW23917   1.802   4.053   0.419
 7673SOL    HW123918   1.765   3.974   0.370
 7673SOL    HW223919   1.764   4.056   0.511
 7674SOL     OW23920   6.265   1.345   5.812
 7674SOL    HW123921   6.364   1.339   5.823
 7674SOL    HW223922   6.220   1.296   5.886
 7675SOL     OW23923   5.469   6.853   3.227
 7675SOL    HW123924   5.446   6.764   3.266
 7675SOL    HW223925   5.436   6.926   3.286
 7676SOL     OW23926   2.259   0.026   0.915
 7676SOL    HW123927   2.206   0.092   0.968
 7676SOL    HW223928   2.353   0.059   0.905
 7677SOL     OW23929   1.789   2.309   2.377
 7677SOL    HW123930   1.796   2.361   2.462
 7677SOL    HW223931   1.764   2.369   2.302
 7678SOL     OW23932   4.890   6.945   5.788
 7678SOL    HW123933   4.952   0.002   5.783
 7678SOL    HW223934   4.838   6.939   5.702
 7679SOL     OW23935   1.768   4.957   4.460
 7679SOL    HW123936   1.762   4.873   4.514
 7679SOL    HW223937   1.859   4.963   4.419
 7680SOL     OW23938   4.383   0.536   0.890
 7680SOL    HW123939   4.412   0.631   0.883
 7680SOL    HW223940   4.337   0.521   0.978
 7681SOL     OW23941   4.154   2.538   5.510
 7681SOL    HW123942   4.121   2.509   5.600
 7681SOL    HW223943   4.214   2.617   5.520
 7682SOL     OW23944   3.258   1.049   0.057
 7682SOL    HW123945   3.321   1.000   7.017
 7682SOL    HW223946   3.275   1.147   0.051
 7683SOL     OW23947   6.662   3.572   2.849
 7683SOL    HW123948   6.676   3.607   2.756
 7683SOL    HW223949   6.565   3.582   2.874
 7684SOL     OW23950   4.011   1.842   6.163
 7684SOL    HW123951   4.002   1.868   6.259
 7684SOL    HW223952   4.088   1.779   6.153
 7685SOL     OW23953   4.618   4.722   1.445
 7685SOL    HW123954   4.639   4.694   1.539
 7685SOL    HW223955   4.522   4.701   1.425
 7686SOL     OW23956   2.124   0.563   2.084
 7686SOL    HW123957   2.222   0.542   2.086
 7686SOL    HW223958   2.110   0.659   2.059
 7687SOL     OW23959   4.897   4.288   5.294
 7687SOL    HW123960   4.832   4.354   5.333
 7687SOL    HW223961   4.855   4.197   5.291
 7688SOL     OW23962   6.621   0.405   3.820
 7688SOL    HW123963   6.592   0.499   3.839
 7688SOL    HW223964   6.603   0.383   3.724
 7689SOL     OW23965   3.378   0.022   5.235
 7689SOL    HW123966   3.351   6.952   5.268
 7689SOL    HW223967   3.367   0.026   5.136
 7690SOL     OW23968   1.010   5.243   3.087
 7690SOL    HW123969   0.949   5.183   3.140
 7690SOL    HW223970   0.987   5.339   3.107
 7691SOL     OW23971   6.662   3.621   5.607
 7691SOL    HW123972   6.603   3.639   5.685
 7691SOL    HW223973   6.710   3.534   5.620
 7692SOL     OW23974   1.541   6.312   1.350
 7692SOL    HW123975   1.549   6.216   1.323
 7692SOL    HW223976   1.508   6.365   1.272
 7693SOL     OW23977   4.575   0.898   0.274
 7693SOL    HW123978   4.497   0.954   0.304
 7693SOL    HW223979   4.597   0.831   0.344
 7694SOL     OW23980   5.536   5.425   3.906
 7694SOL    HW123981   5.531   5.519   3.939
 7694SOL    HW223982   5.610   5.377   3.953
 7695SOL     OW23983   5.419   7.004   6.529
 7695SOL    HW123984   5.447   0.066   6.577
 7695SOL    HW223985   5.390   6.935   6.595
 7696SOL     OW23986   1.178   4.228   5.513
 7696SOL    HW123987   1.218   4.173   5.439
 7696SOL    HW223988   1.248   4.246   5.583
 7697SOL     OW23989   4.514   0.743   2.543
 7697SOL    HW123990   4.500   0.780   2.636
 7697SOL    HW223991   4.442   0.676   2.523
 7698SOL     OW23992   0.236   1.928   6.231
 7698SOL    HW123993   0.139   1.943   6.251
 7698SOL    HW223994   0.286   2.014   6.242
 7699SOL     OW23995   3.449   3.386   1.352
 7699SOL    HW123996   3.416   3.354   1.441
 7699SOL    HW223997   3.375   3.381   1.285
 7700SOL     OW23998   5.435   1.038   5.170
 7700SOL    HW123999   5.396   0.996   5.088
 7700SOL    HW224000   5.530   1.064   5.152
 7701SOL     OW24001   6.615   2.566   5.111
 7701SOL    HW124002   6.601   2.663   5.091
 7701SOL    HW224003   6.710   2.542   5.093
 7702SOL     OW24004   0.974   6.179   0.149
 7702SOL    HW124005   1.009   6.106   0.208
 7702SOL    HW224006   0.974   6.265   0.200
 7703SOL     OW24007   0.881   2.272   0.149
 7703SOL    HW124008   0.932   2.239   0.229
 7703SOL    HW224009   0.940   2.334   0.096
 7704SOL     OW24010   3.974   4.002   1.305
 7704SOL    HW124011   4.000   4.097   1.289
 7704SOL    HW224012   4.055   3.945   1.308
 7705SOL     OW24013   4.143   3.449   4.604
 7705SOL    HW124014   4.243   3.444   4.610
 7705SOL    HW224015   4.117   3.535   4.560
 7706SOL     OW24016   5.227   1.490   5.506
 7706SOL    HW124017   5.290   1.548   5.455
 7706SOL    HW224018   5.226   1.398   5.466
 7707SOL     OW24019   0.370   4.842   6.273
 7707SOL    HW124020   0.320   4.761   6.305
 7707SOL    HW224021   0.468   4.830   6.291
 7708SOL     OW24022   4.312   1.522   5.262
 7708SOL    HW124023   4.316   1.424   5.241
 7708SOL    HW224024   4.341   1.537   5.356
 7709SOL     OW24025   3.994   2.579   1.658
 7709SOL    HW124026   3.912   2.538   1.616
 7709SOL    HW224027   3.974   2.673   1.684
 7710SOL     OW24028   3.355   1.530   6.462
 7710SOL    HW124029   3.334   1.616   6.416
 7710SOL    HW224030   3.384   1.549   6.556
 7711SOL     OW24031   4.728   6.592   4.548
 7711SOL    HW124032   4.812   6.543   4.522
 7711SOL    HW224033   4.650   6.530   4.543
 7712SOL     OW24034   6.264   4.414   5.976
 7712SOL    HW124035   6.208   4.436   5.896
 7712SOL    HW224036   6.353   4.381   5.946
 7713SOL     OW24037   0.772   5.043   6.460
 7713SOL    HW124038   0.727   5.059   6.548
 7713SOL    HW224039   0.861   5.001   6.475
 7714SOL     OW24040   6.127   4.889   4.940
 7714SOL    HW124041   6.143   4.806   4.993
 7714SOL    HW224042   6.065   4.949   4.990
 7715SOL     OW24043   3.661   2.065   1.516
 7715SOL    HW124044   3.579   2.040   1.568
 7715SOL    HW224045   3.640   2.142   1.456
 7716SOL     OW24046   3.976   2.121   4.566
 7716SOL    HW124047   3.957   2.140   4.470
 7716SOL    HW224048   4.054   2.059   4.573
 7717SOL     OW24049   2.770   6.561   0.464
 7717SOL    HW124050   2.817   6.520   0.542
 7717SOL    HW224051   2.803   6.519   0.379
 7718SOL     OW24052   1.400   6.279   3.149
 7718SOL    HW124053   1.395   6.369   3.193
 7718SOL    HW224054   1.319   6.265   3.093
 7719SOL     OW24055   5.326   2.774   5.384
 7719SOL    HW124056   5.318   2.844   5.455
 7719SOL    HW224057   5.305   2.685   5.423
 7720SOL     OW24058   4.783   6.556   1.610
 7720SOL    HW124059   4.871   6.582   1.650
 7720SOL    HW224060   4.749   6.474   1.655
 7721SOL     OW24061   0.488   5.149   3.261
 7721SOL    HW124062   0.423   5.224   3.270
 7721SOL    HW224063   0.579   5.179   3.292
 7722SOL     OW24064   0.353   5.958   3.663
 7722SOL    HW124065   0.398   5.894   3.600
 7722SOL    HW224066   0.277   6.003   3.617
 7723SOL     OW24067   0.089   2.377   6.021
 7723SOL    HW124068   0.159   2.308   5.998
 7723SOL    HW224069   0.014   2.333   6.070
 7724SOL     OW24070   2.804   5.879   6.823
 7724SOL    HW124071   2.821   5.926   6.910
 7724SOL    HW224072   2.707   5.859   6.815
 7725SOL     OW24073   5.124   3.979   3.741
 7725SOL    HW124074   5.131   3.895   3.687
 7725SOL    HW224075   5.213   4.001   3.780
 7726SOL     OW24076   5.062   5.697   3.989
 7726SOL    HW124077   5.118   5.632   3.937
 7726SOL    HW224078   4.970   5.698   3.951
 7727SOL     OW24079   5.897   3.740   2.229
 7727SOL    HW124080   5.975   3.773   2.175
 7727SOL    HW224081   5.813   3.783   2.196
 7728SOL     OW24082   1.982   3.354   2.798
 7728SOL    HW124083   1.991   3.272   2.742
 7728SOL    HW224084   2.036   3.345   2.881
 7729SOL     OW24085   5.357   1.388   6.135
 7729SOL    HW124086   5.390   1.350   6.049
 7729SOL    HW224087   5.257   1.379   6.138
 7730SOL     OW24088   4.185   5.991   3.263
 7730SOL    HW124089   4.256   6.053   3.296
 7730SOL    HW224090   4.149   5.938   3.341
 7731SOL     OW24091   5.846   1.757   4.190
 7731SOL    HW124092   5.857   1.857   4.195
 7731SOL    HW224093   5.810   1.733   4.100
 7732SOL     OW24094   4.104   4.837   0.755
 7732SOL    HW124095   4.031   4.811   0.692
 7732SOL    HW224096   4.191   4.801   0.722
 7733SOL     OW24097   3.704   5.545   1.356
 7733SOL    HW124098   3.766   5.605   1.405
 7733SOL    HW224099   3.622   5.530   1.411
 7734SOL     OW24100   1.133   3.278   2.202
 7734SOL    HW124101   1.126   3.185   2.236
 7734SOL    HW224102   1.154   3.277   2.104
 7735SOL     OW24103   5.881   4.010   0.670
 7735SOL    HW124104   5.803   3.973   0.620
 7735SOL    HW224105   5.857   4.022   0.766
 7736SOL     OW24106   5.530   4.348   6.720
 7736SOL    HW124107   5.438   4.388   6.718
 7736SOL    HW224108   5.530   4.264   6.667
 7737SOL     OW24109   5.057   2.566   0.010
 7737SOL    HW124110   4.995   2.552   6.954
 7737SOL    HW224111   5.005   2.558   0.096
 7738SOL     OW24112   1.875   5.052   6.551
 7738SOL    HW124113   1.942   5.063   6.478
 7738SOL    HW224114   1.856   5.141   6.593
 7739SOL     OW24115   6.147   4.274   2.260
 7739SOL    HW124116   6.132   4.330   2.179
 7739SOL    HW224117   6.245   4.262   2.276
 7740SOL     OW24118   6.700   6.009   3.176
 7740SOL    HW124119   6.736   5.931   3.227
 7740SOL    HW224120   6.615   5.983   3.131
 7741SOL     OW24121   2.784   5.027   3.647
 7741SOL    HW124122   2.829   5.043   3.735
 7741SOL    HW224123   2.796   4.931   3.621
 7742SOL     OW24124   0.071   0.548   4.600
 7742SOL    HW124125   0.084   0.527   4.697
 7742SOL    HW224126   0.042   0.643   4.590
 7743SOL     OW24127   4.966   3.278   2.006
 7743SOL    HW124128   4.963   3.178   2.010
 7743SOL    HW224129   4.943   3.309   1.914
 7744SOL     OW24130   0.206   6.430   4.448
 7744SOL    HW124131   0.129   6.430   4.385
 7744SOL    HW224132   0.263   6.349   4.434
 7745SOL     OW24133   6.011   2.670   5.596
 7745SOL    HW124134   6.024   2.758   5.641
 7745SOL    HW224135   6.014   2.682   5.497
 7746SOL     OW24136   2.386   0.829   6.549
 7746SOL    HW124137   2.459   0.773   6.509
 7746SOL    HW224138   2.363   0.793   6.639
 7747SOL     OW24139   5.101   5.235   0.619
 7747SOL    HW124140   5.071   5.183   0.699
 7747SOL    HW224141   5.156   5.177   0.560
 7748SOL     OW24142   1.512   3.440   6.858
 7748SOL    HW124143   1.427   3.404   6.819
 7748SOL    HW224144   1.532   3.392   6.943
 7749SOL     OW24145   5.663   3.248   5.717
 7749SOL    HW124146   5.703   3.338   5.701
 7749SOL    HW224147   5.654   3.200   5.629
 7750SOL     OW24148   4.143   5.662   2.752
 7750SOL    HW124149   4.184   5.752   2.740
 7750SOL    HW224150   4.117   5.624   2.663
 7751SOL     OW24151   0.953   2.733   1.511
 7751SOL    HW124152   1.034   2.717   1.568
 7751SOL    HW224153   0.946   2.662   1.441
 7752SOL     OW24154   2.753   1.238   2.498
 7752SOL    HW124155   2.688   1.164   2.483
 7752SOL    HW224156   2.817   1.242   2.422
 7753SOL     OW24157   4.485   0.257   5.138
 7753SOL    HW124158   4.461   0.242   5.234
 7753SOL    HW224159   4.573   0.213   5.119
 7754SOL     OW24160   4.596   6.172   1.175
 7754SOL    HW124161   4.533   6.245   1.150
 7754SOL    HW224162   4.612   6.174   1.274
 7755SOL     OW24163   1.274   3.320   6.088
 7755SOL    HW124164   1.312   3.337   6.179
 7755SOL    HW224165   1.292   3.225   6.062
 7756SOL     OW24166   1.517   3.670   2.432
 7756SOL    HW124167   1.508   3.748   2.370
 7756SOL    HW224168   1.598   3.682   2.490
 7757SOL     OW24169   0.827   4.347   0.404
 7757SOL    HW124170   0.792   4.307   0.319
 7757SOL    HW224171   0.916   4.390   0.387
 7758SOL     OW24172   7.018   1.028   5.216
 7758SOL    HW124173   6.928   1.036   5.174
 7758SOL    HW224174   7.008   1.017   5.315
 7759SOL     OW24175   3.408   1.447   2.855
 7759SOL    HW124176   3.443   1.503   2.781
 7759SOL    HW224177   3.322   1.404   2.827
 7760SOL     OW24178   5.422   2.626   0.440
 7760SOL    HW124179   5.458   2.684   0.513
 7760SOL    HW224180   5.437   2.670   0.351
 7761SOL     OW24181   5.035   5.544   2.828
 7761SOL    HW124182   4.984   5.557   2.743
 7761SOL    HW224183   5.091   5.461   2.821
 7762SOL     OW24184   4.458   1.708   0.438
 7762SOL    HW124185   4.519   1.629   0.432
 7762SOL    HW224186   4.472   1.768   0.359
 7763SOL     OW24187   1.829   0.784   3.204
 7763SOL    HW124188   1.755   0.842   3.172
 7763SOL    HW224189   1.812   0.756   3.299
 7764SOL     OW24190   3.830   4.356   5.426
 7764SOL    HW124191   3.890   4.407   5.363
 7764SOL    HW224192   3.872   4.269   5.449
 7765SOL     OW24193   6.280   4.199   4.542
 7765SOL    HW124194   6.267   4.146   4.626
 7765SOL    HW224195   6.191   4.222   4.503
 7766SOL     OW24196   6.869   2.744   5.930
 7766SOL    HW124197   6.782   2.744   5.881
 7766SOL    HW224198   6.852   2.747   6.029
 7767SOL     OW24199   4.104   0.767   3.562
 7767SOL    HW124200   4.048   0.741   3.483
 7767SOL    HW224201   4.093   0.699   3.634
 7768SOL     OW24202   3.367   5.924   3.864
 7768SOL    HW124203   3.440   5.856   3.858
 7768SOL    HW224204   3.292   5.898   3.804
 7769SOL     OW24205   3.750   2.168   6.180
 7769SOL    HW124206   3.816   2.103   6.143
 7769SOL    HW224207   3.658   2.128   6.174
 7770SOL     OW24208   1.387   3.196   3.462
 7770SOL    HW124209   1.450   3.223   3.535
 7770SOL    HW224210   1.384   3.096   3.457
 7771SOL     OW24211   1.096   3.682   5.319
 7771SOL    HW124212   1.032   3.758   5.304
 7771SOL    HW224213   1.189   3.718   5.323
 7772SOL     OW24214   5.167   6.062   2.166
 7772SOL    HW124215   5.199   5.969   2.184
 7772SOL    HW224216   5.206   6.094   2.080
 7773SOL     OW24217   2.956   6.548   6.078
 7773SOL    HW124218   2.943   6.525   5.982
 7773SOL    HW224219   2.987   6.468   6.128
 7774SOL     OW24220   5.088   0.805   3.058
 7774SOL    HW124221   5.145   0.819   2.977
 7774SOL    HW224222   5.110   0.874   3.127
 7775SOL     OW24223   3.829   1.823   1.354
 7775SOL    HW124224   3.833   1.908   1.406
 7775SOL    HW224225   3.920   1.804   1.316
 7776SOL     OW24226   2.728   1.651   3.875
 7776SOL    HW124227   2.735   1.751   3.879
 7776SOL    HW224228   2.632   1.626   3.862
 7777SOL     OW24229   5.146   5.023   3.250
 7777SOL    HW124230   5.127   4.929   3.222
 7777SOL    HW224231   5.214   5.023   3.324
 7778SOL     OW24232   0.597   3.111   1.717
 7778SOL    HW124233   0.503   3.123   1.748
 7778SOL    HW224234   0.636   3.030   1.760
 7779SOL     OW24235   2.514   1.070   3.850
 7779SOL    HW124236   2.518   1.170   3.842
 7779SOL    HW224237   2.418   1.042   3.859
 7780SOL     OW24238   6.245   5.787   4.012
 7780SOL    HW124239   6.225   5.746   3.923
 7780SOL    HW224240   6.341   5.814   4.015
 7781SOL     OW24241   3.090   3.061   1.458
 7781SOL    HW124242   3.062   2.994   1.527
 7781SOL    HW224243   3.162   3.022   1.401
 7782SOL     OW24244   5.353   5.016   3.416
 7782SOL    HW124245   5.319   5.003   3.509
 7782SOL    HW224246   5.451   4.996   3.412
 7783SOL     OW24247   0.394   6.566   3.868
 7783SOL    HW124248   0.483   6.603   3.843
 7783SOL    HW224249   0.381   6.573   3.967
 7784SOL     OW24250   0.920   3.095   2.395
 7784SOL    HW124251   0.878   3.186   2.398
 7784SOL    HW224252   0.865   3.031   2.448
 7785SOL     OW24253   6.519   0.090   2.551
 7785SOL    HW124254   6.489   0.061   2.460
 7785SOL    HW224255   6.439   0.109   2.608
 7786SOL     OW24256   5.467   0.775   6.778
 7786SOL    HW124257   5.554   0.813   6.746
 7786SOL    HW224258   5.479   0.678   6.798
 7787SOL     OW24259   0.958   2.226   0.715
 7787SOL    HW124260   1.034   2.191   0.660
 7787SOL    HW224261   0.994   2.285   0.788
 7788SOL     OW24262   0.762   4.546   2.275
 7788SOL    HW124263   0.845   4.499   2.244
 7788SOL    HW224264   0.788   4.621   2.336
 7789SOL     OW24265   3.523   0.332   6.750
 7789SOL    HW124266   3.590   0.403   6.770
 7789SOL    HW224267   3.520   0.266   6.825
 7790SOL     OW24268   4.093   4.987   4.855
 7790SOL    HW124269   4.121   4.954   4.764
 7790SOL    HW224270   4.109   5.085   4.861
 7791SOL     OW24271   2.079   6.568   1.382
 7791SOL    HW124272   2.058   6.663   1.359
 7791SOL    HW224273   2.172   6.561   1.416
 7792SOL     OW24274   1.365   1.687   1.966
 7792SOL    HW124275   1.418   1.608   1.996
 7792SOL    HW224276   1.355   1.751   2.042
 7793SOL     OW24277   5.326   1.465   0.933
 7793SOL    HW124278   5.277   1.395   0.985
 7793SOL    HW224279   5.416   1.430   0.908
 7794SOL     OW24280   1.064   1.615   2.456
 7794SOL    HW124281   1.018   1.529   2.477
 7794SOL    HW224282   1.016   1.690   2.501
 7795SOL     OW24283   4.626   3.626   0.964
 7795SOL    HW124284   4.691   3.701   0.953
 7795SOL    HW224285   4.664   3.542   0.925
 7796SOL     OW24286   4.033   1.152   0.366
 7796SOL    HW124287   4.034   1.057   0.399
 7796SOL    HW224288   4.041   1.214   0.444
 7797SOL     OW24289   1.484   6.311   2.814
 7797SOL    HW124290   1.390   6.340   2.832
 7797SOL    HW224291   1.512   6.243   2.881
 7798SOL     OW24292   2.081   3.195   0.929
 7798SOL    HW124293   2.053   3.151   0.843
 7798SOL    HW224294   2.027   3.157   1.004
 7799SOL     OW24295   1.984   6.203   4.435
 7799SOL    HW124296   2.012   6.133   4.500
 7799SOL    HW224297   1.982   6.292   4.480
 7800SOL     OW24298   0.613   0.733   1.863
 7800SOL    HW124299   0.540   0.698   1.804
 7800SOL    HW224300   0.576   0.804   1.923
 7801SOL     OW24301   2.694   2.193   0.862
 7801SOL    HW124302   2.741   2.247   0.932
 7801SOL    HW224303   2.684   2.247   0.779
 7802SOL     OW24304   6.995   4.946   3.874
 7802SOL    HW124305   6.898   4.925   3.874
 7802SOL    HW224306   0.026   4.868   3.839
 7803SOL     OW24307   3.147   2.344   6.311
 7803SOL    HW124308   3.146   2.354   6.211
 7803SOL    HW224309   3.230   2.295   6.338
 7804SOL     OW24310   3.037   1.184   5.692
 7804SOL    HW124311   3.037   1.202   5.790
 7804SOL    HW224312   3.067   1.091   5.675
 7805SOL     OW24313   6.885   2.111   0.093
 7805SOL    HW124314   6.862   2.014   0.085
 7805SOL    HW224315   6.866   2.158   0.007
 7806SOL     OW24316   6.111   2.646   4.944
 7806SOL    HW124317   6.155   2.601   5.022
 7806SOL    HW224318   6.014   2.625   4.944
 7807SOL     OW24319   2.225   6.204   5.193
 7807SOL    HW124320   2.248   6.139   5.265
 7807SOL    HW224321   2.148   6.170   5.140
 7808SOL     OW24322   0.235   2.978   4.464
 7808SOL    HW124323   0.324   2.960   4.422
 7808SOL    HW224324   0.248   3.000   4.561
 7809SOL     OW24325   2.920   0.773   3.196
 7809SOL    HW124326   2.917   0.726   3.108
 7809SOL    HW224327   3.009   0.818   3.206
 7810SOL     OW24328   2.759   6.643   5.651
 7810SOL    HW124329   2.727   6.731   5.684
 7810SOL    HW224330   2.685   6.595   5.604
 7811SOL     OW24331   1.271   5.280   3.062
 7811SOL    HW124332   1.312   5.224   3.133
 7811SOL    HW224333   1.175   5.255   3.050
 7812SOL     OW24334   2.748   0.186   6.054
 7812SOL    HW124335   2.781   0.203   6.147
 7812SOL    HW224336   2.807   0.119   6.010
 7813SOL     OW24337   6.061   0.956   0.536
 7813SOL    HW124338   6.081   0.871   0.586
 7813SOL    HW224339   5.983   1.001   0.579
 7814SOL     OW24340   0.117   2.125   2.056
 7814SOL    HW124341   0.045   2.089   1.997
 7814SOL    HW224342   0.185   2.054   2.073
 7815SOL     OW24343   4.510   5.745   4.017
 7815SOL    HW124344   4.553   5.656   4.030
 7815SOL    HW224345   4.581   5.816   4.016
 7816SOL     OW24346   1.226   1.332   5.077
 7816SOL    HW124347   1.296   1.331   5.006
 7816SOL    HW224348   1.140   1.297   5.040
 7817SOL     OW24349   4.521   1.033   5.635
 7817SOL    HW124350   4.463   0.956   5.660
 7817SOL    HW224351   4.465   1.116   5.628
 7818SOL     OW24352   4.361   0.708   3.010
 7818SOL    HW124353   4.358   0.748   3.102
 7818SOL    HW224354   4.267   0.691   2.978
 7819SOL     OW24355   2.569   2.475   4.695
 7819SOL    HW124356   2.502   2.544   4.669
 7819SOL    HW224357   2.648   2.519   4.739
 7820SOL     OW24358   2.212   0.652   6.726
 7820SOL    HW124359   2.228   0.590   6.648
 7820SOL    HW224360   2.126   0.701   6.713
 7821SOL     OW24361   3.100   5.751   6.520
 7821SOL    HW124362   3.089   5.755   6.619
 7821SOL    HW224363   3.050   5.672   6.484
 7822SOL     OW24364   0.850   1.256   4.440
 7822SOL    HW124365   0.753   1.230   4.433
 7822SOL    HW224366   0.903   1.204   4.373
 7823SOL     OW24367   2.034   2.508   5.613
 7823SOL    HW124368   2.016   2.570   5.537
 7823SOL    HW224369   2.107   2.444   5.589
 7824SOL     OW24370   6.048   3.845   2.930
 7824SOL    HW124371   6.022   3.823   3.024
 7824SOL    HW224372   6.071   3.942   2.924
 7825SOL     OW24373   2.950   3.347   3.770
 7825SOL    HW124374   2.866   3.298   3.794
 7825SOL    HW224375   3.004   3.364   3.852
 7826SOL     OW24376   6.018   6.498   1.438
 7826SOL    HW124377   5.995   6.525   1.345
 7826SOL    HW224378   6.062   6.409   1.437
 7827SOL     OW24379   5.124   3.804   0.425
 7827SOL    HW124380   5.210   3.754   0.414
 7827SOL    HW224381   5.055   3.744   0.464
 7828SOL     OW24382   0.960   5.936   0.303
 7828SOL    HW124383   0.867   5.966   0.281
 7828SOL    HW224384   0.977   5.949   0.401
 7829SOL     OW24385   3.143   3.820   2.833
 7829SOL    HW124386   3.195   3.735   2.839
 7829SOL    HW224387   3.118   3.851   2.925
 7830SOL     OW24388   0.172   4.565   6.674
 7830SOL    HW124389   0.148   4.494   6.740
 7830SOL    HW224390   0.215   4.642   6.721
 7831SOL     OW24391   3.586   3.473   0.128
 7831SOL    HW124392   3.570   3.515   0.217
 7831SOL    HW224393   3.510   3.497   0.066
 7832SOL     OW24394   4.110   2.725   6.061
 7832SOL    HW124395   4.157   2.642   6.032
 7832SOL    HW224396   4.077   2.714   6.154
 7833SOL     OW24397   6.199   6.704   1.846
 7833SOL    HW124398   6.148   6.702   1.932
 7833SOL    HW224399   6.281   6.760   1.856
 7834SOL     OW24400   4.881   1.352   1.565
 7834SOL    HW124401   4.846   1.346   1.659
 7834SOL    HW224402   4.828   1.291   1.506
 7835SOL     OW24403   2.387   2.143   4.302
 7835SOL    HW124404   2.314   2.094   4.254
 7835SOL    HW224405   2.348   2.198   4.376
 7836SOL     OW24406   2.549   0.183   6.529
 7836SOL    HW124407   2.493   0.175   6.611
 7836SOL    HW224408   2.529   0.106   6.468
 7837SOL     OW24409   5.275   6.492   2.409
 7837SOL    HW124410   5.249   6.433   2.332
 7837SOL    HW224411   5.327   6.570   2.374
 7838SOL     OW24412   3.156   5.394   4.167
 7838SOL    HW124413   3.142   5.307   4.216
 7838SOL    HW224414   3.111   5.468   4.217
 7839SOL     OW24415   0.032   5.443   2.994
 7839SOL    HW124416   0.038   5.365   2.932
 7839SOL    HW224417   6.979   5.427   3.060
 7840SOL     OW24418   4.159   2.926   6.348
 7840SOL    HW124419   4.085   2.948   6.285
 7840SOL    HW224420   4.220   2.859   6.305
 7841SOL     OW24421   1.100   1.620   5.841
 7841SOL    HW124422   1.079   1.668   5.926
 7841SOL    HW224423   1.062   1.672   5.764
 7842SOL     OW24424   1.788   0.946   2.569
 7842SOL    HW124425   1.791   1.044   2.588
 7842SOL    HW224426   1.845   0.897   2.635
 7843SOL     OW24427   0.310   1.907   1.797
 7843SOL    HW124428   0.290   1.818   1.839
 7843SOL    HW224429   0.345   1.969   1.867
 7844SOL     OW24430   3.432   2.143   3.141
 7844SOL    HW124431   3.481   2.133   3.055
 7844SOL    HW224432   3.369   2.066   3.153
 7845SOL     OW24433   1.128   1.225   4.313
 7845SOL    HW124434   1.106   1.311   4.359
 7845SOL    HW224435   1.210   1.238   4.257
 7846SOL     OW24436   4.747   6.359   2.940
 7846SOL    HW124437   4.826   6.388   2.993
 7846SOL    HW224438   4.702   6.439   2.901
 7847SOL     OW24439   0.683   6.577   6.142
 7847SOL    HW124440   0.660   6.673   6.157
 7847SOL    HW224441   0.771   6.571   6.096
 7848SOL     OW24442   4.682   3.480   1.188
 7848SOL    HW124443   4.664   3.536   1.107
 7848SOL    HW224444   4.771   3.437   1.180
 7849SOL     OW24445   6.166   4.572   5.500
 7849SOL    HW124446   6.143   4.660   5.460
 7849SOL    HW224447   6.265   4.565   5.509
 7850SOL     OW24448   1.397   2.941   4.919
 7850SOL    HW124449   1.402   3.001   4.999
 7850SOL    HW224450   1.387   2.846   4.950
 7851SOL     OW24451   2.921   6.540   0.739
 7851SOL    HW124452   2.974   6.622   0.760
 7851SOL    HW224453   2.910   6.485   0.822
 7852SOL     OW24454   2.491   6.490   0.400
 7852SOL    HW124455   2.557   6.540   0.455
 7852SOL    HW224456   2.522   6.486   0.305
 7853SOL     OW24457   2.251   1.620   6.680
 7853SOL    HW124458   2.295   1.646   6.593
 7853SOL    HW224459   2.249   1.520   6.687
 7854SOL     OW24460   3.772   4.187   4.747
 7854SOL    HW124461   3.833   4.266   4.744
 7854SOL    HW224462   3.682   4.217   4.780
 7855SOL     OW24463   3.289   6.757   4.939
 7855SOL    HW124464   3.253   6.670   4.971
 7855SOL    HW224465   3.268   6.770   4.843
 7856SOL     OW24466   2.799   2.878   5.617
 7856SOL    HW124467   2.789   2.876   5.517
 7856SOL    HW224468   2.717   2.839   5.659
 7857SOL     OW24469   0.231   3.047   5.107
 7857SOL    HW124470   0.181   3.133   5.117
 7857SOL    HW224471   0.324   3.066   5.075
 7858SOL     OW24472   5.166   2.694   3.274
 7858SOL    HW124473   5.224   2.615   3.293
 7858SOL    HW224474   5.204   2.775   3.319
 7859SOL     OW24475   6.695   6.860   0.155
 7859SOL    HW124476   6.645   6.931   0.106
 7859SOL    HW224477   6.669   6.770   0.120
 7860SOL     OW24478   4.572   6.324   0.846
 7860SOL    HW124479   4.657   6.278   0.871
 7860SOL    HW224480   4.585   6.423   0.849
 7861SOL     OW24481   6.516   3.431   0.117
 7861SOL    HW124482   6.426   3.474   0.117
 7861SOL    HW224483   6.537   3.398   0.025
 7862SOL     OW24484   2.917   4.469   1.574
 7862SOL    HW124485   2.886   4.474   1.669
 7862SOL    HW224486   2.874   4.392   1.528
 7863SOL     OW24487   4.339   5.706   2.327
 7863SOL    HW124488   4.438   5.696   2.324
 7863SOL    HW224489   4.299   5.631   2.380
 7864SOL     OW24490   2.047   6.014   5.471
 7864SOL    HW124491   1.976   5.990   5.537
 7864SOL    HW224492   2.008   6.066   5.396
 7865SOL     OW24493   4.425   0.414   3.526
 7865SOL    HW124494   4.334   0.386   3.558
 7865SOL    HW224495   4.487   0.335   3.529
 7866SOL     OW24496   2.657   0.313   5.802
 7866SOL    HW124497   2.561   0.296   5.778
 7866SOL    HW224498   2.682   0.257   5.881
 7867SOL     OW24499   0.171   2.999   0.549
 7867SOL    HW124500   0.223   3.041   0.475
 7867SOL    HW224501   0.074   3.023   0.539
 7868SOL     OW24502   5.478   6.896   1.258
 7868SOL    HW124503   5.565   6.892   1.208
 7868SOL    HW224504   5.491   6.856   1.349
 7869SOL     OW24505   6.089   1.643   4.461
 7869SOL    HW124506   6.024   1.683   4.396
 7869SOL    HW224507   6.171   1.700   4.465
 7870SOL     OW24508   6.133   0.112   3.019
 7870SOL    HW124509   6.195   0.107   3.097
 7870SOL    HW224510   6.038   0.107   3.052
 7871SOL     OW24511   5.640   2.797   2.991
 7871SOL    HW124512   5.582   2.847   3.055
 7871SOL    HW224513   5.663   2.707   3.030
 7872SOL     OW24514   5.398   3.751   3.972
 7872SOL    HW124515   5.320   3.709   3.926
 7872SOL    HW224516   5.481   3.734   3.919
 7873SOL     OW24517   0.191   6.113   5.092
 7873SOL    HW124518   0.260   6.040   5.091
 7873SOL    HW224519   0.202   6.167   5.176
 7874SOL     OW24520   6.031   6.689   0.387
 7874SOL    HW124521   6.112   6.637   0.413
 7874SOL    HW224522   5.955   6.664   0.447
 7875SOL     OW24523   5.875   2.320   6.958
 7875SOL    HW124524   5.796   2.283   6.909
 7875SOL    HW224525   5.845   2.396   7.017
 7876SOL     OW24526   6.825   2.323   5.272
 7876SOL    HW124527   6.882   2.242   5.286
 7876SOL    HW224528   6.839   2.387   5.348
 7877SOL     OW24529   5.985   3.547   1.688
 7877SOL    HW124530   5.897   3.593   1.678
 7877SOL    HW224531   6.004   3.491   1.608
 7878SOL     OW24532   3.721   4.116   1.842
 7878SOL    HW124533   3.741   4.165   1.927
 7878SOL    HW224534   3.641   4.058   1.855
 7879SOL     OW24535   7.017   1.653   4.937
 7879SOL    HW124536   6.922   1.665   4.965
 7879SOL    HW224537   0.044   1.593   5.001
 7880SOL     OW24538   1.868   6.423   6.550
 7880SOL    HW124539   1.769   6.407   6.548
 7880SOL    HW224540   1.916   6.337   6.566
 7881SOL     OW24541   0.339   4.934   5.649
 7881SOL    HW124542   0.334   4.941   5.549
 7881SOL    HW224543   0.289   5.011   5.690
 7882SOL     OW24544   1.673   4.977   0.463
 7882SOL    HW124545   1.698   4.891   0.507
 7882SOL    HW224546   1.581   5.003   0.492
 7883SOL     OW24547   2.581   2.347   2.443
 7883SOL    HW124548   2.631   2.336   2.357
 7883SOL    HW224549   2.483   2.333   2.426
 7884SOL     OW24550   0.231   2.353   5.335
 7884SOL    HW124551   0.209   2.292   5.259
 7884SOL    HW224552   0.245   2.300   5.418
 7885SOL     OW24553   5.477   5.005   2.640
 7885SOL    HW124554   5.454   4.913   2.609
 7885SOL    HW224555   5.523   5.054   2.567
 7886SOL     OW24556   3.558   5.185   2.734
 7886SOL    HW124557   3.504   5.186   2.818
 7886SOL    HW224558   3.546   5.097   2.687
 7887SOL     OW24559   0.555   3.276   0.645
 7887SOL    HW124560   0.456   3.261   0.642
 7887SOL    HW224561   0.584   3.282   0.741
 7888SOL     OW24562   0.325   1.750   4.992
 7888SOL    HW124563   0.344   1.663   4.945
 7888SOL    HW224564   0.397   1.816   4.971
 7889SOL     OW24565   5.834   4.739   0.383
 7889SOL    HW124566   5.749   4.698   0.350
 7889SOL    HW224567   5.871   4.800   0.312
 7890SOL     OW24568   1.163   2.691   1.691
 7890SOL    HW124569   1.230   2.618   1.683
 7890SOL    HW224570   1.201   2.765   1.746
 7891SOL     OW24571   5.909   1.077   4.725
 7891SOL    HW124572   5.825   1.030   4.698
 7891SOL    HW224573   5.985   1.045   4.669
 7892SOL     OW24574   0.733   1.838   4.302
 7892SOL    HW124575   0.651   1.785   4.280
 7892SOL    HW224576   0.809   1.776   4.322
 7893SOL     OW24577   5.512   6.078   0.636
 7893SOL    HW124578   5.473   6.082   0.544
 7893SOL    HW224579   5.509   5.985   0.670
 7894SOL     OW24580   3.091   6.796   6.694
 7894SOL    HW124581   3.010   6.853   6.693
 7894SOL    HW224582   3.173   6.853   6.704
 7895SOL     OW24583   5.007   6.593   2.437
 7895SOL    HW124584   4.947   6.513   2.437
 7895SOL    HW224585   5.095   6.568   2.396
 7896SOL     OW24586   3.503   2.102   0.986
 7896SOL    HW124587   3.589   2.154   0.986
 7896SOL    HW224588   3.439   2.144   1.051
 7897SOL     OW24589   5.048   0.749   1.415
 7897SOL    HW124590   5.026   0.798   1.499
 7897SOL    HW224591   5.039   0.650   1.431
 7898SOL     OW24592   3.852   6.452   3.035
 7898SOL    HW124593   3.851   6.352   3.025
 7898SOL    HW224594   3.823   6.476   3.128
 7899SOL     OW24595   6.056   4.679   2.660
 7899SOL    HW124596   5.992   4.647   2.590
 7899SOL    HW224597   6.055   4.615   2.737
 7900SOL     OW24598   0.502   3.924   0.746
 7900SOL    HW124599   0.504   3.985   0.824
 7900SOL    HW224600   0.530   3.832   0.774
 7901SOL     OW24601   0.071   2.567   6.236
 7901SOL    HW124602   0.070   2.491   6.171
 7901SOL    HW224603   0.009   2.546   6.312
 7902SOL     OW24604   1.506   0.224   1.159
 7902SOL    HW124605   1.504   0.209   1.257
 7902SOL    HW224606   1.493   0.136   1.112
 7903SOL     OW24607   3.424   2.153   5.619
 7903SOL    HW124608   3.441   2.199   5.531
 7903SOL    HW224609   3.328   2.167   5.645
 7904SOL     OW24610   5.099   3.354   3.001
 7904SOL    HW124611   5.082   3.439   3.051
 7904SOL    HW224612   5.038   3.349   2.922
 7905SOL     OW24613   6.003   1.965   1.071
 7905SOL    HW124614   6.050   1.952   0.984
 7905SOL    HW224615   5.921   2.022   1.057
 7906SOL     OW24616   6.890   6.151   5.654
 7906SOL    HW124617   6.985   6.162   5.627
 7906SOL    HW224618   6.884   6.144   5.754
 7907SOL     OW24619   5.305   5.661   3.103
 7907SOL    HW124620   5.210   5.679   3.078
 7907SOL    HW224621   5.314   5.661   3.203
 7908SOL     OW24622   1.806   0.009   6.212
 7908SOL    HW124623   1.828   0.018   6.309
 7908SOL    HW224624   1.823   6.936   6.182
 7909SOL     OW24625   6.699   4.229   2.748
 7909SOL    HW124626   6.754   4.206   2.668
 7909SOL    HW224627   6.673   4.326   2.744
 7910SOL     OW24628   1.201   4.197   4.595
 7910SOL    HW124629   1.153   4.285   4.596
 7910SOL    HW224630   1.154   4.133   4.657
 7911SOL     OW24631   6.212   3.731   6.284
 7911SOL    HW124632   6.264   3.811   6.314
 7911SOL    HW224633   6.165   3.751   6.198
 7912SOL     OW24634   5.495   5.538   2.039
 7912SOL    HW124635   5.507   5.625   1.991
 7912SOL    HW224636   5.462   5.468   1.976
 7913SOL     OW24637   1.498   3.988   6.672
 7913SOL    HW124638   1.535   4.062   6.617
 7913SOL    HW224639   1.563   3.965   6.745
 7914SOL     OW24640   1.494   0.502   4.896
 7914SOL    HW124641   1.462   0.574   4.834
 7914SOL    HW224642   1.492   0.536   4.991
 7915SOL     OW24643   3.105   6.529   1.858
 7915SOL    HW124644   3.187   6.578   1.831
 7915SOL    HW224645   3.042   6.525   1.780
 7916SOL     OW24646   2.064   0.654   3.463
 7916SOL    HW124647   2.057   0.593   3.385
 7916SOL    HW224648   2.143   0.714   3.451
 7917SOL     OW24649   4.726   1.695   2.835
 7917SOL    HW124650   4.678   1.759   2.775
 7917SOL    HW224651   4.763   1.620   2.781
 7918SOL     OW24652   1.183   2.585   2.541
 7918SOL    HW124653   1.231   2.667   2.572
 7918SOL    HW224654   1.248   2.509   2.532
 7919SOL     OW24655   1.074   0.173   4.807
 7919SOL    HW124656   1.143   0.234   4.766
 7919SOL    HW224657   0.993   0.171   4.748
 7920SOL     OW24658   5.264   6.969   1.090
 7920SOL    HW124659   5.264   0.002   1.006
 7920SOL    HW224660   5.356   6.971   1.130
 7921SOL     OW24661   6.428   3.497   0.773
 7921SOL    HW124662   6.431   3.475   0.675
 7921SOL    HW224663   6.521   3.516   0.805
 7922SOL     OW24664   1.905   6.333   3.561
 7922SOL    HW124665   1.810   6.320   3.590
 7922SOL    HW224666   1.946   6.406   3.615
 7923SOL     OW24667   5.189   0.521   0.926
 7923SOL    HW124668   5.245   0.558   0.851
 7923SOL    HW224669   5.139   0.442   0.893
 7924SOL     OW24670   5.710   6.098   0.159
 7924SOL    HW124671   5.646   6.029   0.193
 7924SOL    HW224672   5.686   6.187   0.198
 7925SOL     OW24673   2.096   4.696   6.246
 7925SOL    HW124674   2.141   4.722   6.160
 7925SOL    HW224675   2.061   4.778   6.291
 7926SOL     OW24676   4.392   5.511   7.020
 7926SOL    HW124677   4.322   5.583   0.005
 7926SOL    HW224678   4.482   5.551   0.015
 7927SOL     OW24679   4.983   6.892   3.719
 7927SOL    HW124680   4.912   6.952   3.754
 7927SOL    HW224681   4.951   6.847   3.635
 7928SOL     OW24682   5.957   2.532   4.191
 7928SOL    HW124683   5.874   2.502   4.238
 7928SOL    HW224684   6.032   2.540   4.256
 7929SOL     OW24685   4.507   4.042   5.486
 7929SOL    HW124686   4.433   4.082   5.433
 7929SOL    HW224687   4.489   3.945   5.501
 7930SOL     OW24688   3.869   5.486   1.093
 7930SOL    HW124689   3.904   5.580   1.092
 7930SOL    HW224690   3.783   5.483   1.144
 7931SOL     OW24691   5.157   0.793   0.390
 7931SOL    HW124692   5.167   0.714   0.330
 7931SOL    HW224693   5.067   0.789   0.435
 7932SOL     OW24694   0.996   3.801   0.921
 7932SOL    HW124695   1.052   3.721   0.901
 7932SOL    HW224696   0.943   3.826   0.839
 7933SOL     OW24697   1.721   1.043   6.791
 7933SOL    HW124698   1.791   1.060   6.861
 7933SOL    HW224699   1.694   1.129   6.749
 7934SOL     OW24700   6.567   5.453   0.645
 7934SOL    HW124701   6.620   5.530   0.680
 7934SOL    HW224702   6.524   5.404   0.721
 7935SOL     OW24703   6.099   3.591   3.443
 7935SOL    HW124704   6.060   3.546   3.524
 7935SOL    HW224705   6.197   3.605   3.458
 7936SOL     OW24706   2.366   5.886   3.441
 7936SOL    HW124707   2.346   5.969   3.494
 7936SOL    HW224708   2.344   5.902   3.345
 7937SOL     OW24709   3.786   1.002   1.104
 7937SOL    HW124710   3.726   1.032   1.030
 7937SOL    HW224711   3.731   0.973   1.183
 7938SOL     OW24712   1.995   6.802   3.310
 7938SOL    HW124713   1.965   6.708   3.297
 7938SOL    HW224714   1.982   6.828   3.406
 7939SOL     OW24715   1.742   0.051   3.442
 7939SOL    HW124716   1.691   0.086   3.521
 7939SOL    HW224717   1.801   6.997   3.472
 7940SOL     OW24718   6.860   1.533   5.236
 7940SOL    HW124719   6.801   1.575   5.305
 7940SOL    HW224720   6.921   1.468   5.280
 7941SOL     OW24721   2.750   0.250   0.947
 7941SOL    HW124722   2.844   0.256   0.913
 7941SOL    HW224723   2.723   0.154   0.952
 7942SOL     OW24724   1.417   3.767   1.698
 7942SOL    HW124725   1.420   3.833   1.622
 7942SOL    HW224726   1.469   3.685   1.673
 7943SOL     OW24727   1.842   5.569   0.023
 7943SOL    HW124728   1.770   5.636   0.039
 7943SOL    HW224729   1.907   5.604   6.978
 7944SOL     OW24730   1.457   2.064   0.530
 7944SOL    HW124731   1.512   2.056   0.613
 7944SOL    HW224732   1.467   1.981   0.475
 7945SOL     OW24733   6.220   4.513   4.007
 7945SOL    HW124734   6.125   4.507   3.977
 7945SOL    HW224735   6.256   4.603   3.984
 7946SOL     OW24736   4.822   1.370   5.560
 7946SOL    HW124737   4.730   1.409   5.563
 7946SOL    HW224738   4.871   1.392   5.645
 7947SOL     OW24739   0.705   4.186   0.150
 7947SOL    HW124740   0.668   4.189   0.057
 7947SOL    HW224741   0.636   4.219   0.215
 7948SOL     OW24742   1.420   5.680   1.229
 7948SOL    HW124743   1.352   5.751   1.209
 7948SOL    HW224744   1.378   5.590   1.218
 7949SOL     OW24745   3.652   5.800   4.629
 7949SOL    HW124746   3.605   5.865   4.568
 7949SOL    HW224747   3.592   5.723   4.649
 7950SOL     OW24748   6.671   2.517   6.054
 7950SOL    HW124749   6.595   2.476   6.002
 7950SOL    HW224750   6.758   2.483   6.017
 7951SOL     OW24751   3.158   0.476   2.949
 7951SOL    HW124752   3.153   0.445   2.854
 7951SOL    HW224753   3.253   0.496   2.972
 7952SOL     OW24754   0.272   3.417   5.732
 7952SOL    HW124755   0.338   3.343   5.742
 7952SOL    HW224756   0.307   3.485   5.667
 7953SOL     OW24757   0.833   0.741   0.281
 7953SOL    HW124758   0.906   0.798   0.242
 7953SOL    HW224759   0.745   0.785   0.266
 7954SOL     OW24760   3.788   2.814   0.916
 7954SOL    HW124761   3.822   2.768   0.998
 7954SOL    HW224762   3.766   2.746   0.846
 7955SOL     OW24763   6.579   0.465   6.364
 7955SOL    HW124764   6.549   0.372   6.387
 7955SOL    HW224765   6.560   0.482   6.267
 7956SOL     OW24766   0.209   6.918   1.004
 7956SOL    HW124767   0.281   6.885   1.064
 7956SOL    HW224768   0.132   6.952   1.059
 7957SOL     OW24769   6.050   1.713   6.213
 7957SOL    HW124770   6.146   1.703   6.189
 7957SOL    HW224771   6.001   1.627   6.195
 7958SOL     OW24772   4.692   2.668   6.628
 7958SOL    HW124773   4.668   2.676   6.531
 7958SOL    HW224774   4.613   2.694   6.684
 7959SOL     OW24775   5.506   2.702   6.918
 7959SOL    HW124776   5.427   2.644   6.938
 7959SOL    HW224777   5.478   2.798   6.922
 7960SOL     OW24778   0.817   2.488   5.170
 7960SOL    HW124779   0.726   2.469   5.132
 7960SOL    HW224780   0.887   2.461   5.104
 7961SOL     OW24781   5.866   0.223   6.203
 7961SOL    HW124782   5.915   0.162   6.141
 7961SOL    HW224783   5.930   0.265   6.267
 7962SOL     OW24784   5.496   0.363   4.874
 7962SOL    HW124785   5.435   0.316   4.938
 7962SOL    HW224786   5.490   0.319   4.784
 7963SOL     OW24787   5.758   5.917   2.317
 7963SOL    HW124788   5.798   5.990   2.372
 7963SOL    HW224789   5.661   5.908   2.339
 7964SOL     OW24790   0.772   4.451   1.704
 7964SOL    HW124791   0.871   4.456   1.715
 7964SOL    HW224792   0.735   4.543   1.692
 7965SOL     OW24793   4.369   1.712   6.499
 7965SOL    HW124794   4.273   1.684   6.506
 7965SOL    HW224795   4.425   1.634   6.472
 7966SOL     OW24796   5.756   3.625   5.547
 7966SOL    HW124797   5.766   3.582   5.637
 7966SOL    HW224798   5.659   3.640   5.527
 7967SOL     OW24799   2.248   4.093   1.312
 7967SOL    HW124800   2.256   3.997   1.285
 7967SOL    HW224801   2.170   4.104   1.374
 7968SOL     OW24802   1.948   2.394   3.278
 7968SOL    HW124803   1.996   2.481   3.266
 7968SOL    HW224804   2.001   2.334   3.337
 7969SOL     OW24805   3.042   4.154   6.523
 7969SOL    HW124806   3.128   4.111   6.547
 7969SOL    HW224807   2.971   4.125   6.588
 7970SOL     OW24808   6.366   2.757   2.709
 7970SOL    HW124809   6.363   2.848   2.668
 7970SOL    HW224810   6.450   2.710   2.680
 7971SOL     OW24811   2.708   0.128   6.982
 7971SOL    HW124812   2.759   0.205   0.000
 7971SOL    HW224813   2.748   0.102   6.895
 7972SOL     OW24814   3.722   3.176   4.234
 7972SOL    HW124815   3.703   3.091   4.285
 7972SOL    HW224816   3.656   3.246   4.261
 7973SOL     OW24817   0.668   5.639   2.186
 7973SOL    HW124818   0.752   5.654   2.134
 7973SOL    HW224819   0.677   5.557   2.243
 7974SOL     OW24820   6.936   2.766   4.146
 7974SOL    HW124821   6.920   2.693   4.080
 7974SOL    HW224822   0.011   2.794   4.143
 7975SOL     OW24823   4.246   0.415   6.649
 7975SOL    HW124824   4.176   0.419   6.721
 7975SOL    HW224825   4.306   0.494   6.656
 7976SOL     OW24826   0.245   0.256   0.744
 7976SOL    HW124827   0.325   0.313   0.728
 7976SOL    HW224828   0.166   0.295   0.696
 7977SOL     OW24829   5.175   4.747   2.854
 7977SOL    HW124830   5.098   4.742   2.790
 7977SOL    HW224831   5.233   4.666   2.842
 7978SOL     OW24832   0.288   3.965   1.408
 7978SOL    HW124833   0.380   3.982   1.444
 7978SOL    HW224834   0.274   3.867   1.396
 7979SOL     OW24835   3.824   2.593   5.770
 7979SOL    HW124836   3.907   2.633   5.731
 7979SOL    HW224837   3.744   2.641   5.736
 7980SOL     OW24838   4.115   5.965   2.527
 7980SOL    HW124839   4.171   5.939   2.606
 7980SOL    HW224840   4.164   5.943   2.443
 7981SOL     OW24841   0.820   2.877   4.044
 7981SOL    HW124842   0.854   2.923   3.962
 7981SOL    HW224843   0.742   2.927   4.081
 7982SOL     OW24844   6.611   6.687   0.614
 7982SOL    HW124845   6.576   6.770   0.570
 7982SOL    HW224846   6.697   6.660   0.570
 7983SOL     OW24847   3.488   1.622   1.080
 7983SOL    HW124848   3.456   1.653   0.990
 7983SOL    HW224849   3.507   1.524   1.076
 7984SOL     OW24850   6.341   2.208   2.075
 7984SOL    HW124851   6.434   2.199   2.039
 7984SOL    HW224852   6.344   2.237   2.171
 7985SOL     OW24853   3.103   3.667   5.897
 7985SOL    HW124854   3.078   3.580   5.855
 7985SOL    HW224855   3.044   3.684   5.975
 7986SOL     OW24856   2.019   1.103   3.776
 7986SOL    HW124857   2.084   1.065   3.710
 7986SOL    HW224858   1.942   1.040   3.787
 7987SOL     OW24859   1.150   2.799   6.854
 7987SOL    HW124860   1.163   2.729   6.783
 7987SOL    HW224861   1.125   2.754   6.940
 7988SOL     OW24862   6.112   0.101   1.807
 7988SOL    HW124863   6.017   0.071   1.811
 7988SOL    HW224864   6.146   0.116   1.900
 7989SOL     OW24865   0.493   4.750   1.494
 7989SOL    HW124866   0.425   4.703   1.438
 7989SOL    HW224867   0.482   4.723   1.590
 7990SOL     OW24868   4.233   5.089   5.521
 7990SOL    HW124869   4.305   5.060   5.583
 7990SOL    HW224870   4.241   5.187   5.502
 7991SOL     OW24871   5.268   0.977   4.336
 7991SOL    HW124872   5.239   0.882   4.330
 7991SOL    HW224873   5.308   1.006   4.248
 7992SOL     OW24874   3.006   0.963   0.259
 7992SOL    HW124875   2.907   0.948   0.254
 7992SOL    HW224876   3.054   0.880   0.230
 7993SOL     OW24877   6.361   5.131   0.675
 7993SOL    HW124878   6.383   5.196   0.747
 7993SOL    HW224879   6.263   5.114   0.674
 7994SOL     OW24880   0.663   1.573   5.081
 7994SOL    HW124881   0.638   1.508   5.010
 7994SOL    HW224882   0.709   1.652   5.040
 7995SOL     OW24883   0.458   6.016   0.598
 7995SOL    HW124884   0.530   5.956   0.563
 7995SOL    HW224885   0.477   6.041   0.693
 7996SOL     OW24886   1.598   6.255   3.980
 7996SOL    HW124887   1.521   6.313   4.008
 7996SOL    HW224888   1.671   6.263   4.048
 7997SOL     OW24889   2.656   0.478   6.036
 7997SOL    HW124890   2.644   0.426   5.951
 7997SOL    HW224891   2.642   0.417   6.114
 7998SOL     OW24892   1.832   1.955   1.466
 7998SOL    HW124893   1.755   1.982   1.525
 7998SOL    HW224894   1.816   1.987   1.373
 7999SOL     OW24895   0.048   0.648   2.353
 7999SOL    HW124896   7.003   0.702   2.404
 7999SOL    HW224897   0.087   0.703   2.280
 8000SOL     OW24898   4.292   5.938   1.073
 8000SOL    HW124899   4.379   5.967   1.033
 8000SOL    HW224900   4.254   5.863   1.019
 8001SOL     OW24901   4.786   4.926   2.373
 8001SOL    HW124902   4.713   4.921   2.441
 8001SOL    HW224903   4.785   5.017   2.330
 8002SOL     OW24904   1.423   0.661   5.131
 8002SOL    HW124905   1.472   0.688   5.214
 8002SOL    HW224906   1.370   0.739   5.096
 8003SOL     OW24907   2.280   5.327   2.738
 8003SOL    HW124908   2.290   5.349   2.641
 8003SOL    HW224909   2.354   5.369   2.789
 8004SOL     OW24910   2.070   3.678   3.823
 8004SOL    HW124911   1.973   3.650   3.821
 8004SOL    HW224912   2.083   3.755   3.761
 8005SOL     OW24913   2.967   0.131   4.460
 8005SOL    HW124914   2.959   0.120   4.559
 8005SOL    HW224915   2.985   0.227   4.439
 8006SOL     OW24916   4.252   5.486   6.597
 8006SOL    HW124917   4.347   5.454   6.599
 8006SOL    HW224918   4.241   5.556   6.526
 8007SOL     OW24919   6.847   0.371   1.225
 8007SOL    HW124920   6.865   0.387   1.128
 8007SOL    HW224921   6.902   0.294   1.256
 8008SOL     OW24922   5.697   5.369   1.404
 8008SOL    HW124923   5.601   5.384   1.380
 8008SOL    HW224924   5.723   5.431   1.479
 8009SOL     OW24925   6.078   0.261   1.035
 8009SOL    HW124926   6.171   0.263   1.072
 8009SOL    HW224927   6.015   0.296   1.104
 8010SOL     OW24928   2.942   0.289   0.417
 8010SOL    HW124929   2.997   0.368   0.392
 8010SOL    HW224930   2.851   0.319   0.447
 8011SOL     OW24931   3.489   1.889   1.686
 8011SOL    HW124932   3.531   1.808   1.645
 8011SOL    HW224933   3.509   1.891   1.783
 8012SOL     OW24934   5.980   0.808   5.278
 8012SOL    HW124935   5.987   0.721   5.229
 8012SOL    HW224936   5.884   0.837   5.281
 8013SOL     OW24937   3.377   0.341   3.681
 8013SOL    HW124938   3.408   0.352   3.587
 8013SOL    HW224939   3.411   0.254   3.717
 8014SOL     OW24940   2.133   2.584   3.764
 8014SOL    HW124941   2.197   2.568   3.689
 8014SOL    HW224942   2.068   2.508   3.770
 8015SOL     OW24943   3.780   5.918   4.831
 8015SOL    HW124944   3.778   5.853   4.908
 8015SOL    HW224945   3.736   5.877   4.751
 8016SOL     OW24946   3.217   3.588   5.390
 8016SOL    HW124947   3.146   3.636   5.338
 8016SOL    HW224948   3.270   3.531   5.328
 8017SOL     OW24949   5.188   6.271   1.772
 8017SOL    HW124950   5.110   6.281   1.710
 8017SOL    HW224951   5.238   6.358   1.777
 8018SOL     OW24952   3.289   2.978   1.130
 8018SOL    HW124953   3.264   2.901   1.188
 8018SOL    HW224954   3.351   2.947   1.058
 8019SOL     OW24955   3.215   3.372   1.210
 8019SOL    HW124956   3.118   3.357   1.194
 8019SOL    HW224957   3.254   3.427   1.136
 8020SOL     OW24958   0.888   0.161   0.306
 8020SOL    HW124959   0.932   0.131   0.222
 8020SOL    HW224960   0.858   0.082   0.358
 8021SOL     OW24961   1.427   2.414   0.612
 8021SOL    HW124962   1.416   2.501   0.659
 8021SOL    HW224963   1.359   2.349   0.645
 8022SOL     OW24964   3.847   0.282   2.774
 8022SOL    HW124965   3.768   0.227   2.803
 8022SOL    HW224966   3.891   0.237   2.695
 8023SOL     OW24967   3.533   4.853   2.255
 8023SOL    HW124968   3.554   4.761   2.220
 8023SOL    HW224969   3.453   4.889   2.207
 8024SOL     OW24970   2.986   0.665   6.832
 8024SOL    HW124971   2.951   0.726   6.760
 8024SOL    HW224972   2.921   0.591   6.848
 8025SOL     OW24973   1.030   6.692   1.781
 8025SOL    HW124974   1.048   6.686   1.683
 8025SOL    HW224975   1.093   6.632   1.830
 8026SOL     OW24976   0.302   6.703   5.280
 8026SOL    HW124977   0.387   6.718   5.230
 8026SOL    HW224978   0.321   6.669   5.372
 8027SOL     OW24979   3.893   6.827   6.487
 8027SOL    HW124980   3.898   6.885   6.406
 8027SOL    HW224981   3.875   6.883   6.568
 8028SOL     OW24982   3.367   5.678   6.541
 8028SOL    HW124983   3.273   5.699   6.515
 8028SOL    HW224984   3.368   5.624   6.625
 8029SOL     OW24985   1.521   6.842   1.627
 8029SOL    HW124986   1.442   6.900   1.610
 8029SOL    HW224987   1.493   6.746   1.626
 8030SOL     OW24988   0.747   3.713   1.065
 8030SOL    HW124989   0.822   3.777   1.084
 8030SOL    HW224990   0.700   3.690   1.151
 8031SOL     OW24991   0.699   0.972   3.743
 8031SOL    HW124992   0.635   0.895   3.737
 8031SOL    HW224993   0.654   1.055   3.709
 8032SOL     OW24994   0.416   3.348   1.809
 8032SOL    HW124995   0.506   3.314   1.781
 8032SOL    HW224996   0.395   3.313   1.900
 8033SOL     OW24997   4.185   5.293   0.671
 8033SOL    HW124998   4.213   5.292   0.766
 8033SOL    HW224999   4.258   5.330   0.614
 8034SOL     OW25000   0.701   1.562   4.788
 8034SOL    HW125001   0.634   1.532   4.720
 8034SOL    HW225002   0.734   1.653   4.764
 8035SOL     OW25003   5.422   0.286   4.628
 8035SOL    HW125004   5.358   0.361   4.647
 8035SOL    HW225005   5.441   0.283   4.530
 8036SOL     OW25006   5.166   4.970   5.327
 8036SOL    HW125007   5.162   5.070   5.328
 8036SOL    HW225008   5.255   4.940   5.292
 8037SOL     OW25009   3.423   0.987   6.857
 8037SOL    HW125010   3.416   0.947   6.765
 8037SOL    HW225011   3.509   1.036   6.866
 8038SOL     OW25012   5.609   5.823   1.702
 8038SOL    HW125013   5.576   5.732   1.678
 8038SOL    HW225014   5.559   5.891   1.648
 8039SOL     OW25015   1.620   2.638   4.952
 8039SOL    HW125016   1.674   2.557   4.974
 8039SOL    HW225017   1.671   2.695   4.887
 8040SOL     OW25018   0.685   6.815   5.469
 8040SOL    HW125019   0.669   6.818   5.568
 8040SOL    HW225020   0.743   6.891   5.442
 8041SOL     OW25021   3.090   1.777   2.806
 8041SOL    HW125022   3.025   1.782   2.731
 8041SOL    HW225023   3.072   1.696   2.862
 8042SOL     OW25024   4.846   4.281   6.293
 8042SOL    HW125025   4.775   4.262   6.225
 8042SOL    HW225026   4.936   4.256   6.256
 8043SOL     OW25027   5.755   5.416   6.927
 8043SOL    HW125028   5.853   5.403   6.911
 8043SOL    HW225029   5.706   5.334   6.897
 8044SOL     OW25030   1.037   2.846   1.195
 8044SOL    HW125031   0.942   2.822   1.177
 8044SOL    HW225032   1.040   2.914   1.268
 8045SOL     OW25033   5.608   3.211   5.146
 8045SOL    HW125034   5.690   3.252   5.187
 8045SOL    HW225035   5.563   3.279   5.088
 8046SOL     OW25036   0.161   4.270   1.473
 8046SOL    HW125037   0.238   4.232   1.422
 8046SOL    HW225038   0.188   4.284   1.568
 8047SOL     OW25039   2.721   6.287   6.876
 8047SOL    HW125040   2.676   6.375   6.888
 8047SOL    HW225041   2.708   6.255   6.782
 8048SOL     OW25042   4.604   1.680   6.784
 8048SOL    HW125043   4.655   1.675   6.698
 8048SOL    HW225044   4.578   1.588   6.813
 8049SOL     OW25045   2.557   1.510   0.914
 8049SOL    HW125046   2.572   1.429   0.970
 8049SOL    HW225047   2.492   1.489   0.840
 8050SOL     OW25048   6.743   4.852   5.872
 8050SOL    HW125049   6.729   4.753   5.874
 8050SOL    HW225050   6.704   4.893   5.955
 8051SOL     OW25051   3.927   6.928   3.618
 8051SOL    HW125052   3.916   7.010   3.562
 8051SOL    HW225053   4.020   6.892   3.607
 8052SOL     OW25054   2.184   1.541   3.064
 8052SOL    HW125055   2.149   1.634   3.075
 8052SOL    HW225056   2.120   1.488   3.009
 8053SOL     OW25057   2.019   1.144   6.450
 8053SOL    HW125058   2.108   1.119   6.487
 8053SOL    HW225059   2.000   1.089   6.368
 8054SOL     OW25060   5.039   3.715   5.082
 8054SOL    HW125061   5.050   3.814   5.068
 8054SOL    HW225062   4.949   3.686   5.048
 8055SOL     OW25063   0.022   1.097   6.554
 8055SOL    HW125064   0.004   1.007   6.514
 8055SOL    HW225065   7.010   1.099   6.648
 8056SOL     OW25066   1.888   2.856   2.588
 8056SOL    HW125067   1.953   2.865   2.512
 8056SOL    HW225068   1.902   2.767   2.633
 8057SOL     OW25069   2.809   1.689   1.784
 8057SOL    HW125070   2.710   1.677   1.792
 8057SOL    HW225071   2.831   1.786   1.780
 8058SOL     OW25072   3.351   6.134   1.983
 8058SOL    HW125073   3.435   6.101   2.027
 8058SOL    HW225074   3.372   6.159   1.888
 8059SOL     OW25075   4.485   4.373   5.346
 8059SOL    HW125076   4.443   4.295   5.299
 8059SOL    HW225077   4.453   4.376   5.441
 8060SOL     OW25078   0.427   1.421   5.179
 8060SOL    HW125079   0.420   1.449   5.084
 8060SOL    HW225080   0.475   1.492   5.232
 8061SOL     OW25081   6.637   0.743   0.855
 8061SOL    HW125082   6.725   0.779   0.886
 8061SOL    HW225083   6.599   0.803   0.784
 8062SOL     OW25084   4.813   4.819   6.647
 8062SOL    HW125085   4.745   4.875   6.694
 8062SOL    HW225086   4.766   4.751   6.590
 8063SOL     OW25087   2.477   4.547   2.060
 8063SOL    HW125088   2.508   4.495   1.980
 8063SOL    HW225089   2.539   4.624   2.075
 8064SOL     OW25090   6.855   2.467   0.077
 8064SOL    HW125091   6.805   2.408   0.140
 8064SOL    HW225092   6.952   2.465   0.100
 8065SOL     OW25093   4.656   0.460   6.665
 8065SOL    HW125094   4.581   0.525   6.649
 8065SOL    HW225095   4.651   0.425   6.758
 8066SOL     OW25096   6.401   0.805   5.444
 8066SOL    HW125097   6.476   0.856   5.404
 8066SOL    HW225098   6.314   0.838   5.406
 8067SOL     OW25099   5.592   0.528   4.405
 8067SOL    HW125100   5.624   0.605   4.350
 8067SOL    HW225101   5.552   0.562   4.490
 8068SOL     OW25102   0.233   4.099   0.925
 8068SOL    HW125103   0.216   4.002   0.941
 8068SOL    HW225104   0.332   4.114   0.917
 8069SOL     OW25105   0.664   2.927   2.093
 8069SOL    HW125106   0.686   2.840   2.138
 8069SOL    HW225107   0.690   2.922   1.997
 8070SOL     OW25108   5.200   3.900   1.672
 8070SOL    HW125109   5.130   3.945   1.617
 8070SOL    HW225110   5.172   3.807   1.693
 8071SOL     OW25111   1.753   0.271   6.204
 8071SOL    HW125112   1.746   0.172   6.217
 8071SOL    HW225113   1.672   0.304   6.155
 8072SOL     OW25114   2.881   1.895   5.636
 8072SOL    HW125115   2.849   1.977   5.682
 8072SOL    HW225116   2.939   1.842   5.697
 8073SOL     OW25117   5.620   6.353   0.238
 8073SOL    HW125118   5.669   6.439   0.223
 8073SOL    HW225119   5.527   6.372   0.269
 8074SOL     OW25120   6.381   0.304   0.761
 8074SOL    HW125121   6.329   0.388   0.778
 8074SOL    HW225122   6.476   0.328   0.743
 8075SOL     OW25123   0.074   6.654   1.112
 8075SOL    HW125124   0.123   6.741   1.103
 8075SOL    HW225125   0.028   6.652   1.200
 8076SOL     OW25126   6.700   5.967   0.632
 8076SOL    HW125127   6.657   5.915   0.706
 8076SOL    HW225128   6.642   5.963   0.550
 8077SOL     OW25129   6.329   4.533   0.887
 8077SOL    HW125130   6.404   4.467   0.891
 8077SOL    HW225131   6.264   4.506   0.817
 8078SOL     OW25132   5.417   1.786   1.535
 8078SOL    HW125133   5.469   1.785   1.620
 8078SOL    HW225134   5.326   1.823   1.552
 8079SOL     OW25135   0.118   0.676   6.592
 8079SOL    HW125136   0.195   0.734   6.618
 8079SOL    HW225137   0.046   0.732   6.551
 8080SOL     OW25138   6.867   3.472   3.486
 8080SOL    HW125139   6.812   3.550   3.456
 8080SOL    HW225140   6.883   3.410   3.409
 8081SOL     OW25141   5.721   0.862   5.266
 8081SOL    HW125142   5.719   0.902   5.174
 8081SOL    HW225143   5.638   0.808   5.281
 8082SOL     OW25144   4.706   2.178   4.551
 8082SOL    HW125145   4.684   2.273   4.573
 8082SOL    HW225146   4.804   2.163   4.559
 8083SOL     OW25147   6.949   2.577   3.947
 8083SOL    HW125148   0.001   2.602   3.883
 8083SOL    HW225149   6.866   2.556   3.896
 8084SOL     OW25150   5.639   1.397   0.292
 8084SOL    HW125151   5.566   1.411   0.225
 8084SOL    HW225152   5.601   1.360   0.376
 8085SOL     OW25153   1.501   6.031   4.205
 8085SOL    HW125154   1.546   6.108   4.160
 8085SOL    HW225155   1.487   5.957   4.138
 8086SOL     OW25156   0.213   1.887   2.221
 8086SOL    HW125157   0.139   1.834   2.181
 8086SOL    HW225158   0.192   1.908   2.316
 8087SOL     OW25159   6.103   1.001   6.294
 8087SOL    HW125160   6.173   0.995   6.365
 8087SOL    HW225161   6.104   0.918   6.238
 8088SOL     OW25162   6.218   0.098   5.557
 8088SOL    HW125163   6.257   0.024   5.501
 8088SOL    HW225164   6.263   0.184   5.535
 8089SOL     OW25165   6.793   0.388   0.318
 8089SOL    HW125166   6.745   0.460   0.266
 8089SOL    HW225167   6.819   0.314   0.256
 8090SOL     OW25168   4.282   2.276   4.617
 8090SOL    HW125169   4.303   2.230   4.530
 8090SOL    HW225170   4.183   2.287   4.625
 8091SOL     OW25171   1.161   3.349   5.530
 8091SOL    HW125172   1.129   3.292   5.606
 8091SOL    HW225173   1.177   3.442   5.563
 8092SOL     OW25174   4.494   6.985   5.462
 8092SOL    HW125175   4.407   6.982   5.511
 8092SOL    HW225176   4.502   6.904   5.403
 8093SOL     OW25177   3.756   0.304   3.193
 8093SOL    HW125178   3.706   0.378   3.149
 8093SOL    HW225179   3.692   0.237   3.230
 8094SOL     OW25180   2.350   5.152   3.093
 8094SOL    HW125181   2.399   5.217   3.036
 8094SOL    HW225182   2.257   5.185   3.109
 8095SOL     OW25183   1.023   5.594   4.994
 8095SOL    HW125184   0.942   5.555   4.951
 8095SOL    HW225185   1.026   5.567   5.090
 8096SOL     OW25186   0.849   4.678   0.451
 8096SOL    HW125187   0.787   4.637   0.518
 8096SOL    HW225188   0.874   4.771   0.481
 8097SOL     OW25189   4.826   0.678   0.237
 8097SOL    HW125190   4.807   0.755   0.298
 8097SOL    HW225191   4.883   0.709   0.161
 8098SOL     OW25192   2.747   6.532   5.219
 8098SOL    HW125193   2.740   6.522   5.120
 8098SOL    HW225194   2.666   6.493   5.263
 8099SOL     OW25195   2.060   4.398   3.354
 8099SOL    HW125196   1.964   4.419   3.367
 8099SOL    HW225197   2.082   4.400   3.257
 8100SOL     OW25198   0.097   6.385   0.311
 8100SOL    HW125199   0.078   6.293   0.345
 8100SOL    HW225200   0.150   6.436   0.380
 8101SOL     OW25201   3.014   4.759   6.475
 8101SOL    HW125202   2.945   4.765   6.547
 8101SOL    HW225203   2.987   4.815   6.397
 8102SOL     OW25204   1.497   4.416   3.874
 8102SOL    HW125205   1.454   4.326   3.869
 8102SOL    HW225206   1.548   4.433   3.789
 8103SOL     OW25207   5.079   0.392   1.708
 8103SOL    HW125208   5.161   0.428   1.752
 8103SOL    HW225209   5.075   0.293   1.720
 8104SOL     OW25210   1.166   6.567   0.168
 8104SOL    HW125211   1.172   6.649   0.225
 8104SOL    HW225212   1.140   6.593   0.075
 8105SOL     OW25213   6.876   7.020   2.466
 8105SOL    HW125214   6.895   7.017   2.564
 8105SOL    HW225215   6.807   6.951   2.444
 8106SOL     OW25216   3.786   6.204   0.074
 8106SOL    HW125217   3.762   6.291   0.030
 8106SOL    HW225218   3.756   6.205   0.169
 8107SOL     OW25219   0.736   6.246   0.386
 8107SOL    HW125220   0.652   6.263   0.437
 8107SOL    HW225221   0.725   6.277   0.291
 8108SOL     OW25222   1.789   1.059   1.287
 8108SOL    HW125223   1.833   1.149   1.279
 8108SOL    HW225224   1.801   1.008   1.202
 8109SOL     OW25225   0.476   4.403   1.964
 8109SOL    HW125226   0.502   4.462   2.041
 8109SOL    HW225227   0.438   4.318   1.999
 8110SOL     OW25228   4.516   4.763   6.966
 8110SOL    HW125229   4.552   4.834   0.006
 8110SOL    HW225230   4.576   4.683   6.969
 8111SOL     OW25231   5.361   2.326   2.342
 8111SOL    HW125232   5.319   2.384   2.272
 8111SOL    HW225233   5.312   2.338   2.429
 8112SOL     OW25234   2.055   4.879   6.476
 8112SOL    HW125235   1.959   4.851   6.484
 8112SOL    HW225236   2.097   4.879   6.566
 8113SOL     OW25237   5.668   5.283   6.692
 8113SOL    HW125238   5.607   5.324   6.623
 8113SOL    HW225239   5.655   5.184   6.692
 8114SOL     OW25240   2.197   3.031   3.109
 8114SOL    HW125241   2.156   3.033   3.200
 8114SOL    HW225242   2.269   2.961   3.106
 8115SOL     OW25243   2.703   1.391   6.133
 8115SOL    HW125244   2.628   1.334   6.166
 8115SOL    HW225245   2.666   1.472   6.088
 8116SOL     OW25246   3.967   3.224   1.940
 8116SOL    HW125247   3.988   3.275   2.024
 8116SOL    HW225248   4.034   3.152   1.928
 8117SOL     OW25249   1.155   0.911   3.226
 8117SOL    HW125250   1.209   0.994   3.210
 8117SOL    HW225251   1.216   0.833   3.237
 8118SOL     OW25252   6.298   2.293   6.635
 8118SOL    HW125253   6.248   2.283   6.548
 8118SOL    HW225254   6.240   2.262   6.710
 8119SOL     OW25255   5.643   4.995   6.695
 8119SOL    HW125256   5.732   4.964   6.662
 8119SOL    HW225257   5.570   4.950   6.643
 8120SOL     OW25258   1.970   6.749   2.352
 8120SOL    HW125259   2.003   6.784   2.440
 8120SOL    HW225260   2.026   6.786   2.278
 8121SOL     OW25261   1.393   2.487   2.928
 8121SOL    HW125262   1.322   2.538   2.976
 8121SOL    HW225263   1.351   2.418   2.869
 8122SOL     OW25264   0.464   5.247   0.976
 8122SOL    HW125265   0.462   5.268   0.878
 8122SOL    HW225266   0.457   5.148   0.989
 8123SOL     OW25267   6.500   0.735   5.996
 8123SOL    HW125268   6.412   0.782   5.992
 8123SOL    HW225269   6.549   0.749   5.910
 8124SOL     OW25270   6.260   6.338   6.075
 8124SOL    HW125271   6.246   6.271   6.148
 8124SOL    HW225272   6.316   6.298   6.003
 8125SOL     OW25273   0.659   6.007   1.869
 8125SOL    HW125274   0.681   5.936   1.803
 8125SOL    HW225275   0.740   6.029   1.923
 8126SOL     OW25276   3.514   5.987   4.494
 8126SOL    HW125277   3.547   6.022   4.407
 8126SOL    HW225278   3.431   6.036   4.521
 8127SOL     OW25279   4.398   1.766   5.699
 8127SOL    HW125280   4.346   1.815   5.769
 8127SOL    HW225281   4.493   1.797   5.701
 8128SOL     OW25282   4.036   2.917   0.983
 8128SOL    HW125283   3.969   2.891   0.914
 8128SOL    HW225284   4.126   2.883   0.956
 8129SOL     OW25285   6.210   2.641   2.897
 8129SOL    HW125286   6.278   2.659   2.826
 8129SOL    HW225287   6.206   2.717   2.961
 8130SOL     OW25288   0.257   6.141   6.869
 8130SOL    HW125289   0.342   6.178   6.832
 8130SOL    HW225290   0.274   6.105   6.961
 8131SOL     OW25291   2.697   2.731   0.476
 8131SOL    HW125292   2.781   2.703   0.522
 8131SOL    HW225293   2.624   2.667   0.496
 8132SOL     OW25294   6.005   1.687   4.805
 8132SOL    HW125295   5.915   1.731   4.801
 8132SOL    HW225296   6.018   1.629   4.725
 8133SOL     OW25297   4.157   5.513   1.470
 8133SOL    HW125298   4.168   5.470   1.560
 8133SOL    HW225299   4.206   5.600   1.469
 8134SOL     OW25300   6.558   1.835   6.905
 8134SOL    HW125301   6.606   1.764   6.852
 8134SOL    HW225302   6.575   1.820   7.003
 8135SOL     OW25303   2.543   6.031   2.045
 8135SOL    HW125304   2.550   5.931   2.041
 8135SOL    HW225305   2.447   6.057   2.057
 8136SOL     OW25306   4.281   4.772   2.413
 8136SOL    HW125307   4.362   4.718   2.438
 8136SOL    HW225308   4.296   4.818   2.326
 8137SOL     OW25309   3.693   1.091   5.778
 8137SOL    HW125310   3.738   1.020   5.725
 8137SOL    HW225311   3.616   1.128   5.726
 8138SOL     OW25312   6.344   0.693   2.806
 8138SOL    HW125313   6.247   0.676   2.818
 8138SOL    HW225314   6.397   0.621   2.850
 8139SOL     OW25315   1.023   1.334   4.631
 8139SOL    HW125316   0.978   1.286   4.556
 8139SOL    HW225317   1.045   1.427   4.603
 8140SOL     OW25318   4.590   2.618   3.096
 8140SOL    HW125319   4.592   2.713   3.065
 8140SOL    HW225320   4.641   2.561   3.031
 8141SOL     OW25321   6.004   4.008   3.779
 8141SOL    HW125322   5.911   3.981   3.754
 8141SOL    HW225323   6.042   3.940   3.842
 8142SOL     OW25324   0.426   6.276   0.438
 8142SOL    HW125325   0.377   6.276   0.351
 8142SOL    HW225326   0.411   6.190   0.486
 8143SOL     OW25327   6.872   2.510   6.404
 8143SOL    HW125328   6.853   2.418   6.437
 8143SOL    HW225329   6.792   2.568   6.415
 8144SOL     OW25330   4.517   6.104   0.444
 8144SOL    HW125331   4.457   6.137   0.517
 8144SOL    HW225332   4.542   6.180   0.384
 8145SOL     OW25333   4.466   6.669   4.302
 8145SOL    HW125334   4.537   6.697   4.367
 8145SOL    HW225335   4.462   6.569   4.299
 8146SOL     OW25336   3.335   1.712   2.980
 8146SOL    HW125337   3.273   1.753   2.913
 8146SOL    HW225338   3.331   1.613   2.973
 8147SOL     OW25339   5.016   1.647   3.568
 8147SOL    HW125340   4.916   1.641   3.559
 8147SOL    HW225341   5.057   1.642   3.477
 8148SOL     OW25342   0.636   3.352   3.321
 8148SOL    HW125343   0.609   3.361   3.225
 8148SOL    HW225344   0.736   3.346   3.326
 8149SOL     OW25345   3.759   5.212   4.265
 8149SOL    HW125346   3.721   5.120   4.266
 8149SOL    HW225347   3.826   5.219   4.191
 8150SOL     OW25348   1.296   5.684   0.406
 8150SOL    HW125349   1.265   5.767   0.359
 8150SOL    HW225350   1.377   5.706   0.461
 8151SOL     OW25351   0.801   1.796   4.987
 8151SOL    HW125352   0.825   1.767   4.894
 8151SOL    HW225353   0.885   1.824   5.035
 8152SOL     OW25354   0.580   1.076   3.030
 8152SOL    HW125355   0.486   1.070   2.996
 8152SOL    HW225356   0.628   0.991   3.010
 8153SOL     OW25357   2.301   6.267   6.919
 8153SOL    HW125358   2.239   6.224   6.853
 8153SOL    HW225359   2.257   6.347   6.959
 8154SOL     OW25360   1.664   6.288   3.699
 8154SOL    HW125361   1.583   6.230   3.707
 8154SOL    HW225362   1.670   6.348   3.779
 8155SOL     OW25363   3.793   3.726   4.567
 8155SOL    HW125364   3.720   3.740   4.634
 8155SOL    HW225365   3.753   3.713   4.477
 8156SOL     OW25366   0.868   6.611   5.191
 8156SOL    HW125367   0.881   6.709   5.207
 8156SOL    HW225368   0.934   6.579   5.124
 8157SOL     OW25369   5.675   2.205   6.739
 8157SOL    HW125370   5.716   2.126   6.694
 8157SOL    HW225371   5.645   2.271   6.671
 8158SOL     OW25372   0.929   5.792   2.894
 8158SOL    HW125373   1.000   5.850   2.852
 8158SOL    HW225374   0.964   5.756   2.981
 8159SOL     OW25375   0.237   6.520   0.500
 8159SOL    HW125376   0.202   6.457   0.570
 8159SOL    HW225377   0.332   6.542   0.521
 8160SOL     OW25378   5.698   2.348   1.127
 8160SOL    HW125379   5.670   2.366   1.032
 8160SOL    HW225380   5.618   2.354   1.187
 8161SOL     OW25381   4.192   3.759   1.655
 8161SOL    HW125382   4.264   3.731   1.591
 8161SOL    HW225383   4.223   3.838   1.707
 8162SOL     OW25384   6.059   0.641   1.270
 8162SOL    HW125385   6.132   0.693   1.227
 8162SOL    HW225386   5.970   0.682   1.246
 8163SOL     OW25387   2.447   2.981   5.463
 8163SOL    HW125388   2.420   3.052   5.528
 8163SOL    HW225389   2.490   3.025   5.383
 8164SOL     OW25390   5.436   4.499   1.436
 8164SOL    HW125391   5.445   4.400   1.421
 8164SOL    HW225392   5.510   4.546   1.388
 8165SOL     OW25393   1.445   3.432   1.836
 8165SOL    HW125394   1.485   3.493   1.905
 8165SOL    HW225395   1.516   3.372   1.799
 8166SOL     OW25396   2.432   7.021   2.756
 8166SOL    HW125397   2.463   7.015   2.661
 8166SOL    HW225398   2.361   0.070   2.764
 8167SOL     OW25399   5.336   2.962   4.470
 8167SOL    HW125400   5.250   2.939   4.515
 8167SOL    HW225401   5.376   3.043   4.512
 8168SOL     OW25402   2.796   1.940   2.330
 8168SOL    HW125403   2.783   1.969   2.235
 8168SOL    HW225404   2.767   1.845   2.340
 8169SOL     OW25405   5.421   3.874   5.666
 8169SOL    HW125406   5.470   3.916   5.590
 8169SOL    HW225407   5.479   3.875   5.748
 8170SOL     OW25408   0.622   5.264   4.005
 8170SOL    HW125409   0.540   5.255   4.062
 8170SOL    HW225410   0.599   5.310   3.920
 8171SOL     OW25411   1.913   0.670   6.893
 8171SOL    HW125412   1.971   0.751   6.888
 8171SOL    HW225413   1.930   0.612   6.813
 8172SOL     OW25414   6.835   5.979   2.187
 8172SOL    HW125415   6.876   5.889   2.178
 8172SOL    HW225416   6.763   5.976   2.257
 8173SOL     OW25417   6.640   2.905   6.665
 8173SOL    HW125418   6.622   3.003   6.650
 8173SOL    HW225419   6.728   2.895   6.711
 8174SOL     OW25420   4.679   6.613   2.749
 8174SOL    HW125421   4.757   6.666   2.716
 8174SOL    HW225422   4.609   6.675   2.786
 8175SOL     OW25423   1.196   2.454   3.234
 8175SOL    HW125424   1.201   2.515   3.156
 8175SOL    HW225425   1.280   2.462   3.288
 8176SOL     OW25426   4.181   5.002   3.056
 8176SOL    HW125427   4.123   4.950   3.119
 8176SOL    HW225428   4.173   5.099   3.076
 8177SOL     OW25429   2.503   6.841   6.194
 8177SOL    HW125430   2.495   6.929   6.148
 8177SOL    HW225431   2.411   6.804   6.210
 8178SOL     OW25432   1.934   6.155   6.663
 8178SOL    HW125433   1.860   6.199   6.714
 8178SOL    HW225434   2.003   6.120   6.727
 8179SOL     OW25435   4.065   0.133   6.026
 8179SOL    HW125436   4.106   0.043   6.044
 8179SOL    HW225437   4.003   0.156   6.101
 8180SOL     OW25438   4.886   4.025   5.043
 8180SOL    HW125439   4.846   4.084   4.974
 8180SOL    HW225440   4.838   4.038   5.130
 8181SOL     OW25441   2.236   1.972   2.608
 8181SOL    HW125442   2.333   1.949   2.608
 8181SOL    HW225443   2.225   2.072   2.607
 8182SOL     OW25444   5.747   2.680   5.278
 8182SOL    HW125445   5.745   2.709   5.183
 8182SOL    HW225446   5.669   2.717   5.327
 8183SOL     OW25447   2.145   3.889   3.377
 8183SOL    HW125448   2.141   3.789   3.376
 8183SOL    HW225449   2.083   3.925   3.306
 8184SOL     OW25450   6.247   6.374   4.953
 8184SOL    HW125451   6.232   6.327   5.040
 8184SOL    HW225452   6.308   6.318   4.896
 8185SOL     OW25453   0.775   2.687   3.460
 8185SOL    HW125454   0.681   2.704   3.491
 8185SOL    HW225455   0.773   2.646   3.369
 8186SOL     OW25456   4.360   3.299   6.592
 8186SOL    HW125457   4.341   3.389   6.632
 8186SOL    HW225458   4.420   3.248   6.654
 8187SOL     OW25459   2.245   1.746   5.751
 8187SOL    HW125460   2.302   1.690   5.691
 8187SOL    HW225461   2.226   1.696   5.836
 8188SOL     OW25462   5.060   3.676   2.763
 8188SOL    HW125463   5.009   3.591   2.758
 8188SOL    HW225464   5.014   3.746   2.709
 8189SOL     OW25465   6.588   5.450   3.262
 8189SOL    HW125466   6.639   5.471   3.346
 8189SOL    HW225467   6.491   5.440   3.284
 8190SOL     OW25468   5.410   3.344   3.051
 8190SOL    HW125469   5.363   3.432   3.042
 8190SOL    HW225470   5.356   3.272   3.008
 8191SOL     OW25471   6.108   4.369   0.830
 8191SOL    HW125472   6.053   4.318   0.764
 8191SOL    HW225473   6.153   4.306   0.892
 8192SOL     OW25474   2.018   1.438   0.711
 8192SOL    HW125475   2.034   1.343   0.686
 8192SOL    HW225476   2.046   1.453   0.806
 8193SOL     OW25477   3.679   6.082   6.127
 8193SOL    HW125478   3.583   6.083   6.152
 8193SOL    HW225479   3.699   6.159   6.067
 8194SOL     OW25480   1.426   0.806   2.591
 8194SOL    HW125481   1.416   0.724   2.535
 8194SOL    HW225482   1.437   0.886   2.532
 8195SOL     OW25483   6.284   1.014   1.346
 8195SOL    HW125484   6.342   1.070   1.404
 8195SOL    HW225485   6.235   0.947   1.402
 8196SOL     OW25486   2.672   0.751   1.006
 8196SOL    HW125487   2.667   0.651   0.997
 8196SOL    HW225488   2.630   0.779   1.091
 8197SOL     OW25489   0.447   6.641   0.739
 8197SOL    HW125490   0.365   6.698   0.741
 8197SOL    HW225491   0.481   6.630   0.833
 8198SOL     OW25492   2.248   1.018   3.276
 8198SOL    HW125493   2.236   1.019   3.177
 8198SOL    HW225494   2.272   0.926   3.305
 8199SOL     OW25495   5.933   4.602   0.905
 8199SOL    HW125496   5.975   4.516   0.934
 8199SOL    HW225497   5.968   4.628   0.815
 8200SOL     OW25498   4.012   4.602   1.306
 8200SOL    HW125499   3.951   4.667   1.351
 8200SOL    HW225500   4.090   4.650   1.268
 8201SOL     OW25501   0.725   1.193   4.777
 8201SOL    HW125502   0.812   1.149   4.753
 8201SOL    HW225503   0.695   1.252   4.702
 8202SOL     OW25504   1.409   3.753   4.023
 8202SOL    HW125505   1.505   3.768   4.048
 8202SOL    HW225506   1.356   3.836   4.040
 8203SOL     OW25507   6.594   4.173   6.565
 8203SOL    HW125508   6.526   4.242   6.541
 8203SOL    HW225509   6.642   4.143   6.483
 8204SOL     OW25510   3.315   6.946   1.759
 8204SOL    HW125511   3.318   6.979   1.664
 8204SOL    HW225512   3.395   6.888   1.776
 8205SOL     OW25513   3.631   6.802   2.923
 8205SOL    HW125514   3.541   6.766   2.898
 8205SOL    HW225515   3.671   6.746   2.995
 8206SOL     OW25516   3.611   2.006   4.265
 8206SOL    HW125517   3.683   1.942   4.294
 8206SOL    HW225518   3.595   1.996   4.167
 8207SOL     OW25519   2.203   6.518   7.020
 8207SOL    HW125520   2.118   6.498   6.972
 8207SOL    HW225521   2.247   6.598   6.978
 8208SOL     OW25522   0.954   5.650   0.784
 8208SOL    HW125523   0.971   5.613   0.692
 8208SOL    HW225524   1.041   5.672   0.828
 8209SOL     OW25525   1.070   6.040   4.153
 8209SOL    HW125526   1.004   6.049   4.078
 8209SOL    HW225527   1.112   5.949   4.149
 8210SOL     OW25528   2.498   0.595   1.393
 8210SOL    HW125529   2.413   0.566   1.349
 8210SOL    HW225530   2.477   0.659   1.467
 8211SOL     OW25531   3.320   4.013   4.183
 8211SOL    HW125532   3.339   4.035   4.088
 8211SOL    HW225533   3.391   4.053   4.242
 8212SOL     OW25534   3.483   5.316   6.858
 8212SOL    HW125535   3.415   5.274   6.918
 8212SOL    HW225536   3.571   5.271   6.869
 8213SOL     OW25537   4.836   4.137   2.052
 8213SOL    HW125538   4.758   4.200   2.043
 8213SOL    HW225539   4.918   4.190   2.076
 8214SOL     OW25540   3.800   5.126   3.539
 8214SOL    HW125541   3.816   5.216   3.578
 8214SOL    HW225542   3.884   5.091   3.498
 8215SOL     OW25543   2.699   6.316   5.024
 8215SOL    HW125544   2.732   6.287   5.114
 8215SOL    HW225545   2.603   6.292   5.014
 8216SOL     OW25546   6.290   4.963   0.117
 8216SOL    HW125547   6.231   4.950   0.037
 8216SOL    HW225548   6.385   4.948   0.091
 8217SOL     OW25549   3.679   6.581   3.717
 8217SOL    HW125550   3.605   6.514   3.713
 8217SOL    HW225551   3.649   6.659   3.773
 8218SOL     OW25552   2.598   6.076   3.949
 8218SOL    HW125553   2.542   6.151   3.916
 8218SOL    HW225554   2.562   5.989   3.916
 8219SOL     OW25555   3.471   3.959   4.556
 8219SOL    HW125556   3.545   4.017   4.522
 8219SOL    HW225557   3.396   4.017   4.587
 8220SOL     OW25558   4.648   4.218   6.098
 8220SOL    HW125559   4.577   4.251   6.161
 8220SOL    HW225560   4.620   4.129   6.061
 8221SOL     OW25561   6.101   3.803   3.939
 8221SOL    HW125562   6.056   3.714   3.939
 8221SOL    HW225563   6.116   3.833   4.034
 8222SOL     OW25564   5.155   2.053   5.931
 8222SOL    HW125565   5.247   2.037   5.966
 8222SOL    HW225566   5.107   1.965   5.921
 8223SOL     OW25567   1.150   6.533   5.417
 8223SOL    HW125568   1.176   6.436   5.415
 8223SOL    HW225569   1.162   6.572   5.326
 8224SOL     OW25570   5.120   1.329   5.025
 8224SOL    HW125571   5.108   1.426   5.048
 8224SOL    HW225572   5.108   1.274   5.108
 8225SOL     OW25573   6.188   1.906   0.033
 8225SOL    HW125574   6.212   1.840   6.983
 8225SOL    HW225575   6.093   1.892   0.060
 8226SOL     OW25576   3.765   0.514   6.717
 8226SOL    HW125577   3.729   0.570   6.791
 8226SOL    HW225578   3.856   0.481   6.742
 8227SOL     OW25579   5.936   3.452   2.207
 8227SOL    HW125580   5.840   3.434   2.188
 8227SOL    HW225581   5.951   3.551   2.213
 8228SOL     OW25582   2.677   1.502   4.629
 8228SOL    HW125583   2.578   1.514   4.623
 8228SOL    HW225584   2.722   1.591   4.631
 8229SOL     OW25585   4.646   3.871   0.689
 8229SOL    HW125586   4.608   3.889   0.598
 8229SOL    HW225587   4.593   3.799   0.734
 8230SOL     OW25588   5.864   1.088   6.415
 8230SOL    HW125589   5.944   1.045   6.374
 8230SOL    HW225590   5.804   1.122   6.343
 8231SOL     OW25591   3.071   1.594   1.701
 8231SOL    HW125592   3.099   1.657   1.628
 8231SOL    HW225593   2.987   1.628   1.744
 8232SOL     OW25594   3.724   6.418   4.160
 8232SOL    HW125595   3.809   6.396   4.112
 8232SOL    HW225596   3.647   6.410   4.097
 8233SOL     OW25597   3.340   0.602   0.052
 8233SOL    HW125598   3.378   0.677   0.105
 8233SOL    HW225599   3.390   0.518   0.072
 8234SOL     OW25600   0.377   2.503   6.162
 8234SOL    HW125601   0.429   2.589   6.165
 8234SOL    HW225602   0.311   2.501   6.237
 8235SOL     OW25603   1.072   6.620   6.926
 8235SOL    HW125604   1.028   6.691   6.980
 8235SOL    HW225605   1.002   6.559   6.889
 8236SOL     OW25606   0.994   0.419   0.287
 8236SOL    HW125607   0.934   0.393   0.363
 8236SOL    HW225608   0.957   0.382   0.202
 8237SOL     OW25609   4.566   4.596   6.029
 8237SOL    HW125610   4.572   4.689   5.993
 8237SOL    HW225611   4.471   4.564   6.026
 8238SOL     OW25612   0.018   5.339   6.583
 8238SOL    HW125613   6.985   5.256   6.592
 8238SOL    HW225614   0.098   5.334   6.642
 8239SOL     OW25615   4.856   3.089   3.657
 8239SOL    HW125616   4.786   3.021   3.633
 8239SOL    HW225617   4.939   3.071   3.604
 8240SOL     OW25618   3.649   3.592   4.905
 8240SOL    HW125619   3.663   3.634   4.995
 8240SOL    HW225620   3.607   3.659   4.843
 8241SOL     OW25621   0.482   2.879   5.416
 8241SOL    HW125622   0.414   2.918   5.477
 8241SOL    HW225623   0.559   2.942   5.404
 8242SOL     OW25624   0.669   3.919   3.531
 8242SOL    HW125625   0.618   3.986   3.478
 8242SOL    HW225626   0.607   3.846   3.561
 8243SOL     OW25627   2.132   5.775   3.893
 8243SOL    HW125628   2.094   5.864   3.917
 8243SOL    HW225629   2.212   5.788   3.835
 8244SOL     OW25630   5.292   6.752   4.991
 8244SOL    HW125631   5.354   6.788   4.921
 8244SOL    HW225632   5.243   6.672   4.954
 8245SOL     OW25633   5.721   4.127   2.272
 8245SOL    HW125634   5.751   4.154   2.180
 8245SOL    HW225635   5.625   4.100   2.269
 8246SOL     OW25636   2.182   4.532   6.988
 8246SOL    HW125637   2.152   4.622   6.959
 8246SOL    HW225638   2.106   4.485   0.014
 8247SOL     OW25639   2.154   4.411   3.600
 8247SOL    HW125640   2.252   4.391   3.606
 8247SOL    HW225641   2.123   4.394   3.506
 8248SOL     OW25642   6.523   0.366   2.517
 8248SOL    HW125643   6.551   0.273   2.542
 8248SOL    HW225644   6.597   0.430   2.538
 8249SOL     OW25645   3.666   6.845   5.555
 8249SOL    HW125646   3.584   6.900   5.539
 8249SOL    HW225647   3.678   6.781   5.479
 8250SOL     OW25648   1.999   1.395   6.771
 8250SOL    HW125649   2.045   1.423   6.687
 8250SOL    HW225650   1.900   1.409   6.761
 8251SOL     OW25651   1.870   1.580   6.346
 8251SOL    HW125652   1.807   1.547   6.417
 8251SOL    HW225653   1.964   1.567   6.376
 8252SOL     OW25654   0.706   0.995   6.266
 8252SOL    HW125655   0.796   0.980   6.224
 8252SOL    HW225656   0.636   0.995   6.196
 8253SOL     OW25657   6.748   3.527   4.904
 8253SOL    HW125658   6.725   3.506   4.999
 8253SOL    HW225659   6.807   3.607   4.901
 8254SOL     OW25660   4.965   4.250   6.916
 8254SOL    HW125661   4.980   4.283   7.009
 8254SOL    HW225662   5.004   4.158   6.907
 8255SOL     OW25663   2.065   6.158   5.813
 8255SOL    HW125664   1.989   6.183   5.753
 8255SOL    HW225665   2.064   6.060   5.831
 8256SOL     OW25666   1.613   5.585   2.670
 8256SOL    HW125667   1.535   5.620   2.721
 8256SOL    HW225668   1.698   5.621   2.709
 8257SOL     OW25669   4.480   4.850   3.695
 8257SOL    HW125670   4.544   4.869   3.620
 8257SOL    HW225671   4.508   4.900   3.777
 8258SOL     OW25672   0.557   2.838   4.690
 8258SOL    HW125673   0.542   2.846   4.592
 8258SOL    HW225674   0.655   2.838   4.709
 8259SOL     OW25675   5.318   3.640   4.214
 8259SOL    HW125676   5.241   3.678   4.264
 8259SOL    HW225677   5.344   3.701   4.139
 8260SOL     OW25678   4.708   2.600   6.358
 8260SOL    HW125679   4.654   2.597   6.274
 8260SOL    HW225680   4.729   2.507   6.388
 8261SOL     OW25681   5.094   2.171   2.461
 8261SOL    HW125682   5.014   2.217   2.423
 8261SOL    HW225683   5.156   2.239   2.501
 8262SOL     OW25684   5.193   4.248   2.200
 8262SOL    HW125685   5.193   4.148   2.205
 8262SOL    HW225686   5.284   4.283   2.222
 8263SOL     OW25687   6.877   1.311   0.114
 8263SOL    HW125688   6.890   1.380   0.185
 8263SOL    HW225689   6.883   1.354   0.024
 8264SOL     OW25690   3.444   1.302   1.700
 8264SOL    HW125691   3.525   1.338   1.747
 8264SOL    HW225692   3.426   1.357   1.618
 8265SOL     OW25693   5.553   5.414   0.198
 8265SOL    HW125694   5.574   5.405   0.100
 8265SOL    HW225695   5.458   5.388   0.214
 8266SOL     OW25696   4.418   2.358   3.003
 8266SOL    HW125697   4.408   2.345   3.102
 8266SOL    HW225698   4.476   2.438   2.986
 8267SOL     OW25699   2.116   3.567   2.625
 8267SOL    HW125700   2.104   3.487   2.684
 8267SOL    HW225701   2.152   3.538   2.537
 8268SOL     OW25702   2.502   5.162   1.467
 8268SOL    HW125703   2.490   5.186   1.563
 8268SOL    HW225704   2.534   5.242   1.417
 8269SOL     OW25705   6.479   2.099   3.288
 8269SOL    HW125706   6.438   2.012   3.260
 8269SOL    HW225707   6.460   2.168   3.219
 8270SOL     OW25708   4.143   5.397   0.173
 8270SOL    HW125709   4.144   5.304   0.136
 8270SOL    HW225710   4.177   5.460   0.104
 8271SOL     OW25711   2.389   0.282   5.749
 8271SOL    HW125712   2.422   0.372   5.775
 8271SOL    HW225713   2.289   0.282   5.744
 8272SOL     OW25714   0.236   0.763   1.628
 8272SOL    HW125715   0.184   0.790   1.547
 8272SOL    HW225716   0.259   0.844   1.682
 8273SOL     OW25717   5.500   0.410   6.290
 8273SOL    HW125718   5.560   0.391   6.212
 8273SOL    HW225719   5.443   0.330   6.310
 8274SOL     OW25720   5.393   6.770   3.905
 8274SOL    HW125721   5.400   6.790   4.002
 8274SOL    HW225722   5.424   6.848   3.852
 8275SOL     OW25723   4.803   0.833   4.168
 8275SOL    HW125724   4.765   0.878   4.087
 8275SOL    HW225725   4.793   0.734   4.158
 8276SOL     OW25726   5.045   2.518   0.287
 8276SOL    HW125727   5.084   2.511   0.379
 8276SOL    HW225728   5.003   2.431   0.261
 8277SOL     OW25729   1.094   6.979   1.807
 8277SOL    HW125730   1.033   6.902   1.789
 8277SOL    HW225731   1.167   6.950   1.869
 8278SOL     OW25732   1.548   1.060   1.433
 8278SOL    HW125733   1.543   1.111   1.519
 8278SOL    HW225734   1.638   1.070   1.392
 8279SOL     OW25735   6.032   4.448   5.786
 8279SOL    HW125736   5.952   4.472   5.842
 8279SOL    HW225737   6.062   4.528   5.735
 8280SOL     OW25738   0.225   4.908   0.520
 8280SOL    HW125739   0.250   4.896   0.424
 8280SOL    HW225740   0.132   4.876   0.535
 8281SOL     OW25741   2.509   4.449   0.264
 8281SOL    HW125742   2.600   4.486   0.244
 8281SOL    HW225743   2.503   4.355   0.230
 8282SOL     OW25744   4.741   2.714   0.754
 8282SOL    HW125745   4.836   2.744   0.741
 8282SOL    HW225746   4.682   2.765   0.692
 8283SOL     OW25747   0.923   2.061   3.426
 8283SOL    HW125748   0.877   2.104   3.348
 8283SOL    HW225749   0.972   2.130   3.479
 8284SOL     OW25750   4.562   2.749   0.962
 8284SOL    HW125751   4.602   2.720   0.875
 8284SOL    HW225752   4.635   2.774   1.026
 8285SOL     OW25753   0.291   4.817   0.216
 8285SOL    HW125754   0.250   4.729   0.235
 8285SOL    HW225755   0.232   4.870   0.155
 8286SOL     OW25756   6.751   2.037   0.380
 8286SOL    HW125757   6.687   2.029   0.456
 8286SOL    HW225758   6.718   1.982   0.303
 8287SOL     OW25759   0.801   2.017   2.719
 8287SOL    HW125760   0.753   2.091   2.674
 8287SOL    HW225761   0.784   2.021   2.818
 8288SOL     OW25762   2.166   6.744   2.564
 8288SOL    HW125763   2.265   6.745   2.576
 8288SOL    HW225764   2.129   6.658   2.598
 8289SOL     OW25765   5.969   6.678   0.781
 8289SOL    HW125766   5.922   6.725   0.707
 8289SOL    HW225767   6.025   6.604   0.743
 8290SOL     OW25768   4.676   2.846   1.729
 8290SOL    HW125769   4.693   2.774   1.796
 8290SOL    HW225770   4.640   2.927   1.775
 8291SOL     OW25771   6.312   5.374   5.187
 8291SOL    HW125772   6.286   5.282   5.156
 8291SOL    HW225773   6.355   5.368   5.277
 8292SOL     OW25774   0.101   4.131   5.755
 8292SOL    HW125775   0.171   4.060   5.746
 8292SOL    HW225776   0.035   4.122   5.681
 8293SOL     OW25777   2.790   5.289   4.376
 8293SOL    HW125778   2.868   5.346   4.403
 8293SOL    HW225779   2.812   5.193   4.392
 8294SOL     OW25780   6.309   3.435   5.669
 8294SOL    HW125781   6.211   3.419   5.661
 8294SOL    HW225782   6.332   3.458   5.764
 8295SOL     OW25783   4.271   4.660   1.206
 8295SOL    HW125784   4.322   4.724   1.149
 8295SOL    HW225785   4.334   4.597   1.250
 8296SOL     OW25786   3.130   0.330   2.013
 8296SOL    HW125787   3.200   0.283   1.960
 8296SOL    HW225788   3.095   0.408   1.960
 8297SOL     OW25789   5.931   4.720   1.846
 8297SOL    HW125790   6.017   4.750   1.804
 8297SOL    HW225791   5.855   4.741   1.784
 8298SOL     OW25792   0.155   6.067   0.664
 8298SOL    HW125793   0.095   5.997   0.702
 8298SOL    HW225794   0.248   6.029   0.655
 8299SOL     OW25795   0.914   1.358   0.022
 8299SOL    HW125796   0.897   1.348   0.120
 8299SOL    HW225797   0.943   1.452   0.003
 8300SOL     OW25798   4.162   6.708   4.645
 8300SOL    HW125799   4.091   6.663   4.699
 8300SOL    HW225800   4.242   6.726   4.702
 8301SOL     OW25801   5.967   4.545   6.804
 8301SOL    HW125802   5.948   4.544   6.902
 8301SOL    HW225803   5.882   4.532   6.754
 8302SOL     OW25804   3.336   6.422   6.048
 8302SOL    HW125805   3.400   6.391   6.118
 8302SOL    HW225806   3.295   6.509   6.076
 8303SOL     OW25807   0.078   4.145   4.410
 8303SOL    HW125808   0.137   4.164   4.488
 8303SOL    HW225809   0.095   4.212   4.338
 8304SOL     OW25810   5.835   3.032   4.017
 8304SOL    HW125811   5.855   3.017   4.113
 8304SOL    HW225812   5.737   3.018   4.000
 8305SOL     OW25813   4.040   6.213   5.789
 8305SOL    HW125814   4.068   6.121   5.763
 8305SOL    HW225815   4.010   6.263   5.708
 8306SOL     OW25816   5.316   1.053   3.687
 8306SOL    HW125817   5.291   1.144   3.654
 8306SOL    HW225818   5.411   1.033   3.663
 8307SOL     OW25819   0.584   4.679   4.548
 8307SOL    HW125820   0.646   4.752   4.577
 8307SOL    HW225821   0.602   4.596   4.600
 8308SOL     OW25822   2.025   5.321   0.369
 8308SOL    HW125823   2.046   5.262   0.447
 8308SOL    HW225824   2.084   5.296   0.292
 8309SOL     OW25825   5.573   5.133   2.396
 8309SOL    HW125826   5.609   5.222   2.370
 8309SOL    HW225827   5.535   5.087   2.315
 8310SOL     OW25828   2.245   5.718   2.742
 8310SOL    HW125829   2.200   5.698   2.829
 8310SOL    HW225830   2.228   5.813   2.716
 8311SOL     OW25831   4.839   6.845   2.672
 8311SOL    HW125832   4.753   6.867   2.626
 8311SOL    HW225833   4.867   6.922   2.729
 8312SOL     OW25834   6.533   6.640   0.867
 8312SOL    HW125835   6.549   6.545   0.893
 8312SOL    HW225836   6.550   6.652   0.769
 8313SOL     OW25837   4.794   2.069   5.954
 8313SOL    HW125838   4.849   1.993   5.919
 8313SOL    HW225839   4.735   2.104   5.881
 8314SOL     OW25840   5.511   5.857   5.344
 8314SOL    HW125841   5.482   5.901   5.259
 8314SOL    HW225842   5.469   5.903   5.422
 8315SOL     OW25843   3.480   1.709   6.919
 8315SOL    HW125844   3.556   1.675   6.974
 8315SOL    HW225845   3.407   1.741   6.980
 8316SOL     OW25846   1.255   1.311   4.770
 8316SOL    HW125847   1.170   1.315   4.716
 8316SOL    HW225848   1.319   1.250   4.725
 8317SOL     OW25849   2.673   1.663   6.252
 8317SOL    HW125850   2.755   1.606   6.266
 8317SOL    HW225851   2.632   1.641   6.163
 8318SOL     OW25852   4.546   6.465   5.183
 8318SOL    HW125853   4.620   6.397   5.186
 8318SOL    HW225854   4.580   6.553   5.215
 8319SOL     OW25855   2.904   6.073   6.313
 8319SOL    HW125856   2.880   6.027   6.399
 8319SOL    HW225857   2.877   6.015   6.236
 8320SOL     OW25858   4.229   5.470   5.127
 8320SOL    HW125859   4.229   5.570   5.139
 8320SOL    HW225860   4.142   5.442   5.087
 8321SOL     OW25861   0.445   0.339   0.147
 8321SOL    HW125862   0.489   0.421   0.111
 8321SOL    HW225863   0.363   0.319   0.094
 8322SOL     OW25864   2.555   0.384   2.170
 8322SOL    HW125865   2.620   0.324   2.217
 8322SOL    HW225866   2.486   0.416   2.235
 8323SOL     OW25867   6.481   5.138   6.430
 8323SOL    HW125868   6.398   5.188   6.455
 8323SOL    HW225869   6.520   5.095   6.511
 8324SOL     OW25870   7.000   5.971   4.957
 8324SOL    HW125871   0.037   6.040   5.000
 8324SOL    HW225872   0.020   5.880   4.971
 8325SOL     OW25873   1.362   5.651   5.193
 8325SOL    HW125874   1.289   5.688   5.135
 8325SOL    HW225875   1.411   5.727   5.237
 8326SOL     OW25876   3.016   0.949   6.956
 8326SOL    HW125877   3.053   0.909   6.872
 8326SOL    HW225878   3.092   0.979   7.014
 8327SOL     OW25879   0.681   6.238   5.833
 8327SOL    HW125880   0.748   6.248   5.760
 8327SOL    HW225881   0.591   6.219   5.794
 8328SOL     OW25882   0.904   0.106   0.961
 8328SOL    HW125883   0.924   0.204   0.957
 8328SOL    HW225884   0.829   0.090   1.024
 8329SOL     OW25885   1.394   2.101   6.048
 8329SOL    HW125886   1.344   2.015   6.045
 8329SOL    HW225887   1.487   2.084   6.080
 8330SOL     OW25888   3.324   6.618   0.138
 8330SOL    HW125889   3.245   6.679   0.130
 8330SOL    HW225890   3.292   6.524   0.155
 8331SOL     OW25891   1.518   2.326   5.838
 8331SOL    HW125892   1.431   2.368   5.812
 8331SOL    HW225893   1.515   2.301   5.935
 8332SOL     OW25894   5.447   4.310   1.048
 8332SOL    HW125895   5.533   4.342   1.007
 8332SOL    HW225896   5.388   4.272   0.976
 8333SOL     OW25897   2.117   4.484   5.938
 8333SOL    HW125898   2.061   4.464   5.857
 8333SOL    HW225899   2.138   4.581   5.940
 8334SOL     OW25900   2.913   2.815   5.279
 8334SOL    HW125901   2.815   2.814   5.299
 8334SOL    HW225902   2.949   2.721   5.283
 8335SOL     OW25903   6.480   2.850   0.134
 8335SOL    HW125904   6.480   2.867   0.036
 8335SOL    HW225905   6.505   2.933   0.183
 8336SOL     OW25906   0.489   4.876   3.762
 8336SOL    HW125907   0.416   4.907   3.824
 8336SOL    HW225908   0.533   4.795   3.801
 8337SOL     OW25909   6.321   6.556   4.637
 8337SOL    HW125910   6.376   6.598   4.565
 8337SOL    HW225911   6.250   6.619   4.665
 8338SOL     OW25912   2.180   5.001   0.670
 8338SOL    HW125913   2.127   4.966   0.748
 8338SOL    HW225914   2.172   4.937   0.594
 8339SOL     OW25915   6.600   0.450   1.727
 8339SOL    HW125916   6.553   0.537   1.736
 8339SOL    HW225917   6.630   0.437   1.632
 8340SOL     OW25918   6.020   2.248   6.715
 8340SOL    HW125919   6.005   2.280   6.809
 8340SOL    HW225920   5.949   2.287   6.655
 8341SOL     OW25921   3.416   0.194   1.215
 8341SOL    HW125922   3.456   0.266   1.271
 8341SOL    HW225923   3.463   0.191   1.127
 8342SOL     OW25924   4.149   0.934   1.556
 8342SOL    HW125925   4.062   0.931   1.605
 8342SOL    HW225926   4.219   0.974   1.615
 8343SOL     OW25927   4.334   6.197   3.388
 8343SOL    HW125928   4.349   6.250   3.305
 8343SOL    HW225929   4.422   6.173   3.429
 8344SOL     OW25930   2.225   4.215   4.765
 8344SOL    HW125931   2.270   4.128   4.784
 8344SOL    HW225932   2.153   4.201   4.698
 8345SOL     OW25933   6.782   6.740   4.030
 8345SOL    HW125934   6.744   6.790   4.109
 8345SOL    HW225935   6.792   6.803   3.953
 8346SOL     OW25936   5.407   4.202   3.177
 8346SOL    HW125937   5.403   4.103   3.165
 8346SOL    HW225938   5.360   4.227   3.262
 8347SOL     OW25939   1.025   1.194   6.851
 8347SOL    HW125940   0.999   1.248   6.931
 8347SOL    HW225941   0.944   1.180   6.793
 8348SOL     OW25942   2.678   7.013   0.753
 8348SOL    HW125943   2.672   6.924   0.708
 8348SOL    HW225944   2.617   0.057   0.709
 8349SOL     OW25945   4.640   5.855   1.311
 8349SOL    HW125946   4.653   5.861   1.212
 8349SOL    HW225947   4.727   5.876   1.357
 8350SOL     OW25948   2.559   0.997   6.785
 8350SOL    HW125949   2.491   1.066   6.810
 8350SOL    HW225950   2.568   0.994   6.686
 8351SOL     OW25951   0.233   4.035   3.317
 8351SOL    HW125952   0.226   3.985   3.403
 8351SOL    HW225953   0.254   3.971   3.243
 8352SOL     OW25954   2.398   7.001   6.415
 8352SOL    HW125955   2.309   0.010   6.380
 8352SOL    HW225956   2.404   6.901   6.411
 8353SOL     OW25957   0.635   5.870   2.898
 8353SOL    HW125958   0.732   5.853   2.915
 8353SOL    HW225959   0.611   5.836   2.807
 8354SOL     OW25960   5.279   2.972   3.783
 8354SOL    HW125961   5.358   2.953   3.725
 8354SOL    HW225962   5.229   2.887   3.801
 8355SOL     OW25963   3.627   3.981   5.631
 8355SOL    HW125964   3.539   3.951   5.667
 8355SOL    HW225965   3.630   3.966   5.532
 8356SOL     OW25966   3.111   3.379   2.550
 8356SOL    HW125967   3.015   3.398   2.529
 8356SOL    HW225968   3.170   3.443   2.499
 8357SOL     OW25969   2.996   6.708   5.166
 8357SOL    HW125970   3.000   6.609   5.165
 8357SOL    HW225971   2.977   6.740   5.260
 8358SOL     OW25972   0.554   0.338   4.663
 8358SOL    HW125973   0.479   0.283   4.625
 8358SOL    HW225974   0.604   0.381   4.588
 8359SOL     OW25975   5.013   2.342   4.970
 8359SOL    HW125976   5.017   2.396   4.886
 8359SOL    HW225977   5.062   2.256   4.957
 8360SOL     OW25978   3.680   0.250   2.365
 8360SOL    HW125979   3.668   0.345   2.393
 8360SOL    HW225980   3.601   0.220   2.312
 8361SOL     OW25981   4.555   1.494   6.993
 8361SOL    HW125982   4.575   1.398   6.975
 8361SOL    HW225983   4.479   1.501   0.036
 8362SOL     OW25984   0.743   4.602   1.967
 8362SOL    HW125985   0.655   4.630   2.006
 8362SOL    HW225986   0.735   4.509   1.930
 8363SOL     OW25987   3.603   2.315   1.360
 8363SOL    HW125988   3.682   2.371   1.386
 8363SOL    HW225989   3.539   2.310   1.437
 8364SOL     OW25990   0.495   1.677   3.184
 8364SOL    HW125991   0.575   1.647   3.235
 8364SOL    HW225992   0.466   1.767   3.217
 8365SOL     OW25993   2.408   2.803   1.133
 8365SOL    HW125994   2.400   2.901   1.149
 8365SOL    HW225995   2.482   2.766   1.190
 8366SOL     OW25996   5.066   5.927   1.737
 8366SOL    HW125997   5.007   5.994   1.693
 8366SOL    HW225998   5.042   5.835   1.704
 8367SOL     OW25999   1.132   4.843   4.067
 8367SOL    HW126000   1.105   4.857   3.972
 8367SOL    HW226001   1.085   4.910   4.125
 8368SOL     OW26002   0.352   3.175   5.894
 8368SOL    HW126003   0.303   3.095   5.859
 8368SOL    HW226004   0.292   3.226   5.956
 8369SOL     OW26005   1.389   0.681   0.888
 8369SOL    HW126006   1.331   0.681   0.807
 8369SOL    HW226007   1.409   0.587   0.915
 8370SOL     OW26008   2.471   3.401   1.235
 8370SOL    HW126009   2.519   3.314   1.248
 8370SOL    HW226010   2.395   3.406   1.300
 8371SOL     OW26011   3.004   4.354   5.685
 8371SOL    HW126012   2.948   4.288   5.635
 8371SOL    HW226013   3.004   4.331   5.782
 8372SOL     OW26014   1.426   6.844   3.385
 8372SOL    HW126015   1.344   6.896   3.361
 8372SOL    HW226016   1.507   6.902   3.371
 8373SOL     OW26017   6.107   0.167   4.476
 8373SOL    HW126018   6.033   0.232   4.458
 8373SOL    HW226019   6.187   0.194   4.422
 8374SOL     OW26020   0.670   2.404   3.623
 8374SOL    HW126021   0.757   2.386   3.576
 8374SOL    HW226022   0.670   2.497   3.660
 8375SOL     OW26023   1.688   2.454   5.660
 8375SOL    HW126024   1.621   2.421   5.727
 8375SOL    HW226025   1.773   2.402   5.669
 8376SOL     OW26026   0.982   1.578   3.684
 8376SOL    HW126027   0.910   1.635   3.723
 8376SOL    HW226028   1.053   1.563   3.752
 8377SOL     OW26029   4.560   5.736   1.894
 8377SOL    HW126030   4.486   5.728   1.960
 8377SOL    HW226031   4.646   5.710   1.938
 8378SOL     OW26032   4.120   5.910   6.029
 8378SOL    HW126033   4.078   5.927   5.940
 8378SOL    HW226034   4.065   5.843   6.079
 8379SOL     OW26035   5.963   2.629   1.704
 8379SOL    HW126036   6.058   2.642   1.734
 8379SOL    HW226037   5.962   2.574   1.621
 8380SOL     OW26038   1.242   5.298   2.767
 8380SOL    HW126039   1.152   5.318   2.729
 8380SOL    HW226040   1.244   5.324   2.864
 8381SOL     OW26041   0.553   2.456   2.944
 8381SOL    HW126042   0.465   2.415   2.922
 8381SOL    HW226043   0.542   2.522   3.018
 8382SOL     OW26044   1.342   0.006   1.960
 8382SOL    HW126045   1.282   0.055   2.023
 8382SOL    HW226046   1.407   0.070   1.919
 8383SOL     OW26047   1.756   6.830   4.928
 8383SOL    HW126048   1.728   6.907   4.870
 8383SOL    HW226049   1.769   6.748   4.872
 8384SOL     OW26050   0.424   4.255   3.651
 8384SOL    HW126051   0.357   4.187   3.680
 8384SOL    HW226052   0.377   4.338   3.620
 8385SOL     OW26053   4.479   2.476   1.963
 8385SOL    HW126054   4.554   2.457   1.900
 8385SOL    HW226055   4.396   2.497   1.911
 8386SOL     OW26056   6.488   5.440   2.220
 8386SOL    HW126057   6.580   5.417   2.190
 8386SOL    HW226058   6.437   5.356   2.240
 8387SOL     OW26059   0.505   2.679   3.537
 8387SOL    HW126060   0.544   2.619   3.607
 8387SOL    HW226061   0.416   2.645   3.509
 8388SOL     OW26062   3.422   6.309   1.501
 8388SOL    HW126063   3.515   6.347   1.502
 8388SOL    HW226064   3.366   6.356   1.569
 8389SOL     OW26065   1.310   2.606   4.287
 8389SOL    HW126066   1.215   2.575   4.290
 8389SOL    HW226067   1.323   2.661   4.205
 8390SOL     OW26068   1.266   6.418   6.441
 8390SOL    HW126069   1.219   6.459   6.363
 8390SOL    HW226070   1.244   6.320   6.445
 8391SOL     OW26071   5.109   5.989   0.801
 8391SOL    HW126072   5.086   6.079   0.766
 8391SOL    HW226073   5.178   5.997   0.873
 8392SOL     OW26074   3.290   5.643   0.819
 8392SOL    HW126075   3.216   5.648   0.886
 8392SOL    HW226076   3.255   5.666   0.729
 8393SOL     OW26077   1.485   6.578   1.977
 8393SOL    HW126078   1.491   6.565   1.878
 8393SOL    HW226079   1.460   6.492   2.020
 8394SOL     OW26080   1.742   1.386   4.151
 8394SOL    HW126081   1.705   1.293   4.143
 8394SOL    HW226082   1.716   1.425   4.239
 8395SOL     OW26083   2.010   5.980   6.472
 8395SOL    HW126084   2.063   5.915   6.526
 8395SOL    HW226085   1.982   6.056   6.530
 8396SOL     OW26086   5.049   1.586   0.322
 8396SOL    HW126087   4.956   1.577   0.286
 8396SOL    HW226088   5.045   1.603   0.420
 8397SOL     OW26089   0.483   4.103   3.440
 8397SOL    HW126090   0.472   4.165   3.517
 8397SOL    HW226091   0.396   4.095   3.391
 8398SOL     OW26092   5.630   1.433   6.441
 8398SOL    HW126093   5.573   1.489   6.381
 8398SOL    HW226094   5.597   1.442   6.535
 8399SOL     OW26095   5.611   6.836   5.504
 8399SOL    HW126096   5.665   6.835   5.420
 8399SOL    HW226097   5.577   6.929   5.521
 8400SOL     OW26098   6.025   6.042   3.077
 8400SOL    HW126099   5.966   5.979   3.026
 8400SOL    HW226100   6.080   6.096   3.014
 8401SOL     OW26101   2.644   3.478   5.376
 8401SOL    HW126102   2.611   3.572   5.381
 8401SOL    HW226103   2.568   3.418   5.348
 8402SOL     OW26104   4.358   1.267   4.368
 8402SOL    HW126105   4.394   1.354   4.335
 8402SOL    HW226106   4.343   1.205   4.291
 8403SOL     OW26107   0.599   1.651   6.407
 8403SOL    HW126108   0.690   1.692   6.406
 8403SOL    HW226109   0.596   1.574   6.344
 8404SOL     OW26110   4.605   5.026   5.163
 8404SOL    HW126111   4.587   5.073   5.076
 8404SOL    HW226112   4.575   5.084   5.238
 8405SOL     OW26113   0.720   2.618   6.022
 8405SOL    HW126114   0.718   2.718   6.024
 8405SOL    HW226115   0.703   2.582   6.114
 8406SOL     OW26116   6.095   3.829   1.683
 8406SOL    HW126117   6.122   3.835   1.587
 8406SOL    HW226118   6.079   3.733   1.707
 8407SOL     OW26119   5.498   3.402   2.754
 8407SOL    HW126120   5.457   3.312   2.767
 8407SOL    HW226121   5.567   3.418   2.825
 8408SOL     OW26122   4.968   4.448   4.264
 8408SOL    HW126123   4.932   4.454   4.171
 8408SOL    HW226124   5.037   4.518   4.278
 8409SOL     OW26125   1.313   2.128   4.112
 8409SOL    HW126126   1.374   2.206   4.123
 8409SOL    HW226127   1.218   2.159   4.115
 8410SOL     OW26128   1.943   5.520   2.356
 8410SOL    HW126129   1.849   5.552   2.357
 8410SOL    HW226130   1.995   5.566   2.429
 8411SOL     OW26131   1.819   3.451   2.993
 8411SOL    HW126132   1.846   3.544   3.018
 8411SOL    HW226133   1.875   3.420   2.916
 8412SOL     OW26134   5.252   2.325   2.607
 8412SOL    HW126135   5.179   2.355   2.668
 8412SOL    HW226136   5.341   2.343   2.650
 8413SOL     OW26137   1.508   5.457   2.206
 8413SOL    HW126138   1.543   5.546   2.235
 8413SOL    HW226139   1.414   5.446   2.238
 8414SOL     OW26140   6.066   6.932   4.474
 8414SOL    HW126141   5.977   6.903   4.510
 8414SOL    HW226142   6.067   0.010   4.464
 8415SOL     OW26143   0.456   4.743   0.813
 8415SOL    HW126144   0.470   4.807   0.738
 8415SOL    HW226145   0.400   4.786   0.884
 8416SOL     OW26146   4.061   4.807   3.197
 8416SOL    HW126147   3.964   4.826   3.205
 8416SOL    HW226148   4.077   4.750   3.116
 8417SOL     OW26149   0.623   5.606   0.268
 8417SOL    HW126150   0.612   5.556   0.354
 8417SOL    HW226151   0.570   5.691   0.271
 8418SOL     OW26152   5.266   6.359   3.041
 8418SOL    HW126153   5.311   6.283   3.089
 8418SOL    HW226154   5.308   6.371   2.952
 8419SOL     OW26155   2.434   1.640   2.993
 8419SOL    HW126156   2.421   1.695   2.910
 8419SOL    HW226157   2.346   1.602   3.022
 8420SOL     OW26158   4.709   1.938   5.206
 8420SOL    HW126159   4.727   1.840   5.219
 8420SOL    HW226160   4.795   1.988   5.207
 8421SOL     OW26161   0.210   0.748   0.613
 8421SOL    HW126162   0.201   0.830   0.668
 8421SOL    HW226163   0.119   0.715   0.588
 8422SOL     OW26164   2.839   0.871   1.290
 8422SOL    HW126165   2.744   0.848   1.270
 8422SOL    HW226166   2.853   0.969   1.274
 8423SOL     OW26167   2.028   4.639   1.390
 8423SOL    HW126168   1.943   4.670   1.347
 8423SOL    HW226169   2.060   4.707   1.456
 8424SOL     OW26170   2.677   2.348   1.865
 8424SOL    HW126171   2.757   2.344   1.925
 8424SOL    HW226172   2.594   2.359   1.920
 8425SOL     OW26173   0.280   5.270   5.458
 8425SOL    HW126174   0.317   5.289   5.549
 8425SOL    HW226175   0.200   5.328   5.443
 8426SOL     OW26176   3.480   4.031   2.564
 8426SOL    HW126177   3.559   4.055   2.508
 8426SOL    HW226178   3.507   4.028   2.660
 8427SOL     OW26179   2.568   1.358   0.058
 8427SOL    HW126180   2.484   1.305   0.070
 8427SOL    HW226181   2.642   1.315   0.110
 8428SOL     OW26182   6.679   3.388   1.688
 8428SOL    HW126183   6.621   3.468   1.706
 8428SOL    HW226184   6.622   3.306   1.688
 8429SOL     OW26185   1.250   6.720   3.094
 8429SOL    HW126186   1.224   6.809   3.133
 8429SOL    HW226187   1.244   6.724   2.995
 8430SOL     OW26188   3.767   6.719   3.504
 8430SOL    HW126189   3.851   6.769   3.525
 8430SOL    HW226190   3.745   6.657   3.580
 8431SOL     OW26191   3.095   3.065   2.498
 8431SOL    HW126192   3.057   3.040   2.409
 8431SOL    HW226193   3.099   3.165   2.506
 8432SOL     OW26194   4.672   5.660   0.288
 8432SOL    HW126195   4.655   5.604   0.369
 8432SOL    HW226196   4.770   5.683   0.284
 8433SOL     OW26197   0.006   1.109   3.842
 8433SOL    HW126198   7.019   1.206   3.867
 8433SOL    HW226199   6.937   1.067   3.845
 8434SOL     OW26200   5.400   6.569   6.992
 8434SOL    HW126201   5.467   6.501   0.001
 8434SOL    HW226202   5.320   6.523   6.954
 8435SOL     OW26203   5.125   3.625   0.683
 8435SOL    HW126204   5.060   3.610   0.609
 8435SOL    HW226205   5.105   3.562   0.758
 8436SOL     OW26206   3.467   4.180   1.324
 8436SOL    HW126207   3.534   4.186   1.398
 8436SOL    HW226208   3.392   4.244   1.342
 8437SOL     OW26209   0.700   2.833   0.858
 8437SOL    HW126210   0.612   2.857   0.816
 8437SOL    HW226211   0.757   2.915   0.864
 8438SOL     OW26212   2.505   5.717   1.702
 8438SOL    HW126213   2.510   5.621   1.729
 8438SOL    HW226214   2.550   5.730   1.614
 8439SOL     OW26215   5.265   0.185   2.332
 8439SOL    HW126216   5.281   0.119   2.259
 8439SOL    HW226217   5.263   0.138   2.420
 8440SOL     OW26218   1.296   3.884   3.634
 8440SOL    HW126219   1.393   3.859   3.634
 8440SOL    HW226220   1.280   3.957   3.568
 8441SOL     OW26221   3.913   5.651   1.514
 8441SOL    HW126222   4.002   5.609   1.498
 8441SOL    HW226223   3.914   5.746   1.484
 8442SOL     OW26224   2.888   3.343   0.835
 8442SOL    HW126225   2.840   3.257   0.852
 8442SOL    HW226226   2.856   3.383   0.749
 8443SOL     OW26227   0.077   2.607   1.039
 8443SOL    HW126228   7.007   2.615   1.078
 8443SOL    HW226229   0.070   2.579   0.943
 8444SOL     OW26230   4.945   2.486   3.113
 8444SOL    HW126231   5.038   2.463   3.139
 8444SOL    HW226232   4.946   2.562   3.048
 8445SOL     OW26233   3.467   5.528   2.390
 8445SOL    HW126234   3.541   5.482   2.440
 8445SOL    HW226235   3.502   5.560   2.302
 8446SOL     OW26236   5.928   3.534   2.977
 8446SOL    HW126237   5.973   3.589   2.906
 8446SOL    HW226238   5.995   3.511   3.047
 8447SOL     OW26239   5.522   4.820   1.411
 8447SOL    HW126240   5.561   4.840   1.501
 8447SOL    HW226241   5.531   4.722   1.392
 8448SOL     OW26242   1.555   4.617   5.620
 8448SOL    HW126243   1.586   4.525   5.595
 8448SOL    HW226244   1.467   4.635   5.575
 8449SOL     OW26245   1.861   0.555   5.305
 8449SOL    HW126246   1.823   0.569   5.214
 8449SOL    HW226247   1.860   0.457   5.327
 8450SOL     OW26248   1.613   5.885   0.994
 8450SOL    HW126249   1.636   5.830   1.074
 8450SOL    HW226250   1.651   5.977   1.004
 8451SOL     OW26251   2.730   4.243   1.511
 8451SOL    HW126252   2.708   4.174   1.579
 8451SOL    HW226253   2.648   4.265   1.458
 8452SOL     OW26254   6.784   5.658   2.304
 8452SOL    HW126255   6.778   5.663   2.403
 8452SOL    HW226256   6.779   5.562   2.275
 8453SOL     OW26257   0.879   4.571   5.482
 8453SOL    HW126258   0.846   4.494   5.537
 8453SOL    HW226259   0.968   4.548   5.443
 8454SOL     OW26260   1.993   6.921   5.672
 8454SOL    HW126261   1.929   6.897   5.599
 8454SOL    HW226262   2.074   6.864   5.666
 8455SOL     OW26263   6.120   2.165   0.131
 8455SOL    HW126264   6.177   2.158   0.213
 8455SOL    HW226265   6.137   2.086   0.072
 8456SOL     OW26266   6.426   4.212   3.780
 8456SOL    HW126267   6.461   4.192   3.871
 8456SOL    HW226268   6.412   4.311   3.771
 8457SOL     OW26269   5.469   5.907   6.008
 8457SOL    HW126270   5.383   5.949   5.981
 8457SOL    HW226271   5.503   5.951   6.092
 8458SOL     OW26272   0.990   1.558   1.675
 8458SOL    HW126273   1.066   1.606   1.632
 8458SOL    HW226274   0.907   1.615   1.671
 8459SOL     OW26275   2.563   4.660   2.667
 8459SOL    HW126276   2.516   4.572   2.666
 8459SOL    HW226277   2.531   4.715   2.590
 8460SOL     OW26278   3.593   1.088   0.934
 8460SOL    HW126279   3.574   1.056   0.842
 8460SOL    HW226280   3.510   1.085   0.989
 8461SOL     OW26281   5.758   4.659   2.972
 8461SOL    HW126282   5.772   4.569   2.928
 8461SOL    HW226283   5.662   4.686   2.962
 8462SOL     OW26284   1.985   3.687   0.624
 8462SOL    HW126285   2.032   3.657   0.707
 8462SOL    HW226286   1.942   3.776   0.641
 8463SOL     OW26287   0.397   6.302   1.394
 8463SOL    HW126288   0.440   6.345   1.315
 8463SOL    HW226289   0.467   6.271   1.457
 8464SOL     OW26290   0.047   3.268   6.820
 8464SOL    HW126291   0.071   3.309   6.908
 8464SOL    HW226292   0.037   3.340   6.751
 8465SOL     OW26293   6.349   4.184   0.590
 8465SOL    HW126294   6.337   4.278   0.558
 8465SOL    HW226295   6.282   4.164   0.661
 8466SOL     OW26296   0.399   1.212   4.928
 8466SOL    HW126297   0.416   1.186   5.023
 8466SOL    HW226298   0.393   1.129   4.871
 8467SOL     OW26299   3.119   1.556   0.676
 8467SOL    HW126300   3.049   1.562   0.748
 8467SOL    HW226301   3.209   1.540   0.718
 8468SOL     OW26302   6.540   3.639   1.738
 8468SOL    HW126303   6.485   3.636   1.822
 8468SOL    HW226304   6.624   3.691   1.756
 8469SOL     OW26305   3.356   2.828   5.615
 8469SOL    HW126306   3.401   2.847   5.703
 8469SOL    HW226307   3.291   2.753   5.627
 8470SOL     OW26308   2.135   5.608   1.124
 8470SOL    HW126309   2.113   5.698   1.085
 8470SOL    HW226310   2.208   5.619   1.192
 8471SOL     OW26311   3.922   2.176   3.789
 8471SOL    HW126312   3.865   2.199   3.710
 8471SOL    HW226313   3.951   2.080   3.782
 8472SOL     OW26314   6.317   1.711   6.884
 8472SOL    HW126315   6.298   1.663   6.798
 8472SOL    HW226316   6.401   1.765   6.874
 8473SOL     OW26317   4.934   4.938   5.488
 8473SOL    HW126318   4.982   4.922   5.401
 8473SOL    HW226319   4.919   5.036   5.500
 8474SOL     OW26320   3.381   3.976   6.297
 8474SOL    HW126321   3.442   4.050   6.324
 8474SOL    HW226322   3.417   3.930   6.216
 8475SOL     OW26323   0.784   1.941   3.036
 8475SOL    HW126324   0.792   1.888   3.121
 8475SOL    HW226325   0.871   1.987   3.017
 8476SOL     OW26326   6.768   0.900   2.683
 8476SOL    HW126327   6.722   0.818   2.715
 8476SOL    HW226328   6.709   0.949   2.619
 8477SOL     OW26329   5.934   6.566   1.183
 8477SOL    HW126330   5.987   6.648   1.164
 8477SOL    HW226331   5.853   6.591   1.236
 8478SOL     OW26332   2.051   6.598   6.422
 8478SOL    HW126333   2.012   6.676   6.473
 8478SOL    HW226334   1.997   6.516   6.441
 8479SOL     OW26335   1.212   2.200   0.007
 8479SOL    HW126336   1.229   2.137   0.083
 8479SOL    HW226337   1.140   2.162   6.970
 8480SOL     OW26338   3.302   4.366   1.434
 8480SOL    HW126339   3.370   4.348   1.505
 8480SOL    HW226340   3.227   4.300   1.442
 8481SOL     OW26341   5.459   3.673   2.226
 8481SOL    HW126342   5.412   3.651   2.141
 8481SOL    HW226343   5.533   3.738   2.208
 8482SOL     OW26344   5.094   0.321   5.569
 8482SOL    HW126345   5.044   0.377   5.503
 8482SOL    HW226346   5.033   0.296   5.645
 8483SOL     OW26347   4.423   5.307   4.156
 8483SOL    HW126348   4.324   5.311   4.162
 8483SOL    HW226349   4.454   5.215   4.179
 8484SOL     OW26350   5.573   6.847   5.991
 8484SOL    HW126351   5.511   6.799   6.053
 8484SOL    HW226352   5.530   6.856   5.901
 8485SOL     OW26353   3.597   0.126   6.091
 8485SOL    HW126354   3.655   0.202   6.120
 8485SOL    HW226355   3.602   0.117   5.992
 8486SOL     OW26356   4.753   2.842   4.928
 8486SOL    HW126357   4.788   2.930   4.960
 8486SOL    HW226358   4.715   2.791   5.005
 8487SOL     OW26359   0.672   1.626   5.346
 8487SOL    HW126360   0.744   1.586   5.401
 8487SOL    HW226361   0.683   1.599   5.250
 8488SOL     OW26362   4.375   5.825   3.178
 8488SOL    HW126363   4.378   5.742   3.234
 8488SOL    HW226364   4.315   5.893   3.221
 8489SOL     OW26365   6.198   2.235   1.853
 8489SOL    HW126366   6.221   2.171   1.779
 8489SOL    HW226367   6.260   2.221   1.930
 8490SOL     OW26368   4.065   0.236   0.007
 8490SOL    HW126369   4.056   0.258   0.104
 8490SOL    HW226370   4.153   0.191   7.012
 8491SOL     OW26371   2.904   6.193   1.904
 8491SOL    HW126372   2.832   6.193   1.974
 8491SOL    HW226373   2.981   6.247   1.936
 8492SOL     OW26374   6.007   6.599   4.124
 8492SOL    HW126375   6.085   6.658   4.101
 8492SOL    HW226376   5.955   6.579   4.041
 8493SOL     OW26377   5.227   0.097   5.497
 8493SOL    HW126378   5.266   0.101   5.405
 8493SOL    HW226379   5.170   0.177   5.513
 8494SOL     OW26380   0.279   3.786   2.265
 8494SOL    HW126381   0.202   3.738   2.306
 8494SOL    HW226382   0.308   3.738   2.182
 8495SOL     OW26383   4.621   6.174   5.051
 8495SOL    HW126384   4.524   6.166   5.030
 8495SOL    HW226385   4.659   6.254   5.005
 8496SOL     OW26386   3.901   2.170   2.340
 8496SOL    HW126387   3.824   2.229   2.313
 8496SOL    HW226388   3.918   2.180   2.438
 8497SOL     OW26389   6.437   0.737   3.434
 8497SOL    HW126390   6.390   0.649   3.445
 8497SOL    HW226391   6.530   0.722   3.400
 8498SOL     OW26392   5.666   6.250   5.368
 8498SOL    HW126393   5.621   6.168   5.404
 8498SOL    HW226394   5.635   6.330   5.420
 8499SOL     OW26395   6.454   0.509   6.137
 8499SOL    HW126396   6.455   0.591   6.079
 8499SOL    HW226397   6.382   0.447   6.106
 8500SOL     OW26398   0.562   0.825   5.972
 8500SOL    HW126399   0.570   0.924   5.979
 8500SOL    HW226400   0.465   0.799   5.967
 8501SOL     OW26401   3.892   6.389   5.093
 8501SOL    HW126402   3.952   6.462   5.060
 8501SOL    HW226403   3.843   6.348   5.016
 8502SOL     OW26404   6.339   2.870   0.419
 8502SOL    HW126405   6.434   2.898   0.406
 8502SOL    HW226406   6.334   2.771   0.429
 8503SOL     OW26407   4.831   2.056   6.232
 8503SOL    HW126408   4.747   2.003   6.246
 8503SOL    HW226409   4.839   2.080   6.135
 8504SOL     OW26410   1.333   1.121   3.181
 8504SOL    HW126411   1.345   1.169   3.268
 8504SOL    HW226412   1.301   1.186   3.111
 8505SOL     OW26413   6.114   1.477   2.731
 8505SOL    HW126414   6.195   1.480   2.673
 8505SOL    HW226415   6.123   1.402   2.797
 8506SOL     OW26416   1.976   1.103   4.425
 8506SOL    HW126417   1.894   1.079   4.477
 8506SOL    HW226418   2.054   1.049   4.458
 8507SOL     OW26419   4.214   5.570   0.375
 8507SOL    HW126420   4.233   5.656   0.327
 8507SOL    HW226421   4.178   5.503   0.310
 8508SOL     OW26422   3.604   0.710   6.066
 8508SOL    HW126423   3.623   0.680   6.160
 8508SOL    HW226424   3.520   0.666   6.034
 8509SOL     OW26425   4.172   2.274   2.283
 8509SOL    HW126426   4.181   2.230   2.193
 8509SOL    HW226427   4.075   2.291   2.302
 8510SOL     OW26428   0.333   2.051   4.979
 8510SOL    HW126429   0.358   2.146   4.998
 8510SOL    HW226430   0.412   2.003   4.942
 8511SOL     OW26431   5.856   2.024   4.280
 8511SOL    HW126432   5.952   2.047   4.298
 8511SOL    HW226433   5.812   2.101   4.232
 8512SOL     OW26434   2.705   6.203   6.607
 8512SOL    HW126435   2.790   6.256   6.602
 8512SOL    HW226436   2.727   6.106   6.603
 8513SOL     OW26437   3.819   5.976   6.913
 8513SOL    HW126438   3.805   5.878   6.925
 8513SOL    HW226439   3.802   6.023   7.000
 8514SOL     OW26440   4.555   5.407   4.510
 8514SOL    HW126441   4.563   5.501   4.478
 8514SOL    HW226442   4.631   5.353   4.475
 8515SOL     OW26443   5.369   2.969   1.631
 8515SOL    HW126444   5.452   3.005   1.588
 8515SOL    HW226445   5.375   2.982   1.730
 8516SOL     OW26446   6.778   2.379   1.469
 8516SOL    HW126447   6.807   2.475   1.474
 8516SOL    HW226448   6.753   2.347   1.560
 8517SOL     OW26449   0.623   3.730   4.796
 8517SOL    HW126450   0.679   3.792   4.740
 8517SOL    HW226451   0.683   3.662   4.839
 8518SOL     OW26452   3.959   5.914   1.435
 8518SOL    HW126453   4.000   6.002   1.459
 8518SOL    HW226454   3.872   5.930   1.388
 8519SOL     OW26455   2.740   5.477   3.337
 8519SOL    HW126456   2.838   5.478   3.360
 8519SOL    HW226457   2.688   5.440   3.414
 8520SOL     OW26458   3.523   5.548   0.240
 8520SOL    HW126459   3.478   5.472   0.287
 8520SOL    HW226460   3.615   5.520   0.211
 8521SOL     OW26461   0.750   1.289   3.200
 8521SOL    HW126462   0.682   1.357   3.228
 8521SOL    HW226463   0.703   1.208   3.163
 8522SOL     OW26464   2.218   5.848   4.311
 8522SOL    HW126465   2.288   5.906   4.270
 8522SOL    HW226466   2.262   5.781   4.371
 8523SOL     OW26467   2.051   5.469   6.701
 8523SOL    HW126468   2.029   5.563   6.675
 8523SOL    HW226469   2.141   5.444   6.664
 8524SOL     OW26470   2.077   1.404   6.525
 8524SOL    HW126471   2.175   1.385   6.524
 8524SOL    HW226472   2.027   1.323   6.495
 8525SOL     OW26473   5.712   4.302   4.603
 8525SOL    HW126474   5.782   4.255   4.656
 8525SOL    HW226475   5.665   4.237   4.543
 8526SOL     OW26476   6.923   3.489   1.837
 8526SOL    HW126477   6.943   3.541   1.754
 8526SOL    HW226478   6.841   3.433   1.821
 8527SOL     OW26479   5.234   0.905   5.034
 8527SOL    HW126480   5.148   0.913   4.984
 8527SOL    HW226481   5.281   0.821   5.007
 8528SOL     OW26482   5.452   0.110   0.271
 8528SOL    HW126483   5.529   0.048   0.255
 8528SOL    HW226484   5.455   0.143   0.366
 8529SOL     OW26485   0.011   0.832   4.565
 8529SOL    HW126486   0.072   0.889   4.511
 8529SOL    HW226487   7.013   0.877   4.653
 8530SOL     OW26488   1.660   5.189   6.023
 8530SOL    HW126489   1.740   5.168   6.079
 8530SOL    HW226490   1.581   5.139   6.058
 8531SOL     OW26491   3.088   5.448   2.810
 8531SOL    HW126492   3.019   5.389   2.852
 8531SOL    HW226493   3.161   5.467   2.875
 8532SOL     OW26494   0.975   3.279   6.762
 8532SOL    HW126495   0.972   3.264   6.663
 8532SOL    HW226496   0.885   3.308   6.794
 8533SOL     OW26497   3.399   0.365   6.444
 8533SOL    HW126498   3.349   0.347   6.529
 8533SOL    HW226499   3.405   0.281   6.391
 8534SOL     OW26500   3.199   2.497   1.138
 8534SOL    HW126501   3.118   2.551   1.114
 8534SOL    HW226502   3.240   2.534   1.222
 8535SOL     OW26503   0.111   2.694   5.579
 8535SOL    HW126504   0.081   2.658   5.667
 8535SOL    HW226505   0.196   2.746   5.591
 8536SOL     OW26506   6.770   0.439   6.544
 8536SOL    HW126507   6.805   0.521   6.590
 8536SOL    HW226508   6.693   0.464   6.485
 8537SOL     OW26509   3.740   6.502   3.308
 8537SOL    HW126510   3.774   6.415   3.344
 8537SOL    HW226511   3.733   6.568   3.382
 8538SOL     OW26512   3.803   1.651   5.031
 8538SOL    HW126513   3.860   1.630   5.111
 8538SOL    HW226514   3.708   1.660   5.060
 8539SOL     OW26515   0.435   3.263   3.046
 8539SOL    HW126516   0.366   3.330   3.072
 8539SOL    HW226517   0.526   3.306   3.049
 8540SOL     OW26518   4.405   5.895   5.997
 8540SOL    HW126519   4.417   5.817   6.058
 8540SOL    HW226520   4.309   5.923   5.998
 8541SOL     OW26521   3.486   5.609   5.976
 8541SOL    HW126522   3.398   5.614   5.930
 8541SOL    HW226523   3.491   5.679   6.047
 8542SOL     OW26524   1.455   5.498   4.735
 8542SOL    HW126525   1.355   5.497   4.739
 8542SOL    HW226526   1.490   5.560   4.805
 8543SOL     OW26527   3.447   1.787   5.787
 8543SOL    HW126528   3.429   1.699   5.831
 8543SOL    HW226529   3.501   1.773   5.704
 8544SOL     OW26530   4.729   3.771   5.360
 8544SOL    HW126531   4.752   3.704   5.290
 8544SOL    HW226532   4.790   3.759   5.439
 8545SOL     OW26533   2.146   0.769   6.405
 8545SOL    HW126534   2.228   0.813   6.443
 8545SOL    HW226535   2.100   0.834   6.343
 8546SOL     OW26536   2.929   1.579   4.055
 8546SOL    HW126537   2.891   1.584   4.147
 8546SOL    HW226538   2.858   1.604   3.989
 8547SOL     OW26539   5.835   4.557   5.933
 8547SOL    HW126540   5.880   4.519   6.014
 8547SOL    HW226541   5.783   4.639   5.959
 8548SOL     OW26542   1.597   4.428   4.128
 8548SOL    HW126543   1.589   4.346   4.185
 8548SOL    HW226544   1.560   4.409   4.037
 8549SOL     OW26545   2.858   0.403   3.785
 8549SOL    HW126546   2.957   0.404   3.801
 8549SOL    HW226547   2.822   0.312   3.806
 8550SOL     OW26548   0.379   3.369   5.165
 8550SOL    HW126549   0.415   3.440   5.104
 8550SOL    HW226550   0.455   3.315   5.201
 8551SOL     OW26551   3.344   1.866   4.246
 8551SOL    HW126552   3.307   1.876   4.154
 8551SOL    HW226553   3.334   1.953   4.295
 8552SOL     OW26554   4.232   1.688   2.491
 8552SOL    HW126555   4.235   1.591   2.464
 8552SOL    HW226556   4.268   1.699   2.583
 8553SOL     OW26557   5.563   2.766   0.628
 8553SOL    HW126558   5.639   2.749   0.565
 8553SOL    HW226559   5.530   2.860   0.615
 8554SOL     OW26560   0.316   0.873   6.623
 8554SOL    HW126561   0.305   0.968   6.648
 8554SOL    HW226562   0.410   0.844   6.642
 8555SOL     OW26563   3.589   2.000   3.997
 8555SOL    HW126564   3.493   1.970   3.998
 8555SOL    HW226565   3.606   2.055   3.916
 8556SOL     OW26566   1.074   4.107   6.046
 8556SOL    HW126567   1.102   4.026   6.097
 8556SOL    HW226568   1.084   4.090   5.948
 8557SOL     OW26569   6.041   0.025   0.533
 8557SOL    HW126570   6.020   0.027   0.631
 8557SOL    HW226571   6.121   0.083   0.515
 8558SOL     OW26572   2.840   6.189   3.508
 8558SOL    HW126573   2.885   6.103   3.483
 8558SOL    HW226574   2.800   6.230   3.426
 8559SOL     OW26575   1.816   3.049   3.239
 8559SOL    HW126576   1.727   3.037   3.196
 8559SOL    HW226577   1.831   2.976   3.306
 8560SOL     OW26578   3.411   4.458   1.696
 8560SOL    HW126579   3.466   4.529   1.740
 8560SOL    HW226580   3.314   4.474   1.716
 8561SOL     OW26581   3.347   0.903   2.458
 8561SOL    HW126582   3.263   0.908   2.512
 8561SOL    HW226583   3.360   0.810   2.425
 8562SOL     OW26584   5.411   3.713   5.949
 8562SOL    HW126585   5.497   3.741   5.906
 8562SOL    HW226586   5.406   3.613   5.950
 8563SOL     OW26587   6.668   4.172   3.585
 8563SOL    HW126588   6.583   4.222   3.600
 8563SOL    HW226589   6.744   4.220   3.630
 8564SOL     OW26590   3.672   6.374   6.891
 8564SOL    HW126591   3.753   6.428   6.914
 8564SOL    HW226592   3.701   6.286   6.852
 8565SOL     OW26593   1.118   5.146   0.656
 8565SOL    HW126594   1.109   5.243   0.678
 8565SOL    HW226595   1.107   5.092   0.740
 8566SOL     OW26596   2.591   0.788   3.893
 8566SOL    HW126597   2.616   0.728   3.817
 8566SOL    HW226598   2.568   0.879   3.858
 8567SOL     OW26599   1.933   3.426   0.216
 8567SOL    HW126600   1.965   3.506   0.267
 8567SOL    HW226601   1.839   3.404   0.243
 8568SOL     OW26602   5.775   7.016   6.682
 8568SOL    HW126603   5.830   0.071   6.718
 8568SOL    HW226604   5.750   0.015   6.587
 8569SOL     OW26605   4.325   2.001   6.353
 8569SOL    HW126606   4.265   2.076   6.323
 8569SOL    HW226607   4.317   1.990   6.452
 8570SOL     OW26608   1.758   2.397   4.277
 8570SOL    HW126609   1.679   2.424   4.332
 8570SOL    HW226610   1.727   2.337   4.203
 8571SOL     OW26611   1.683   0.874   3.724
 8571SOL    HW126612   1.585   0.885   3.707
 8571SOL    HW226613   1.697   0.840   3.817
 8572SOL     OW26614   2.474   3.058   6.145
 8572SOL    HW126615   2.521   2.987   6.092
 8572SOL    HW226616   2.433   3.125   6.083
 8573SOL     OW26617   1.754   6.528   5.979
 8573SOL    HW126618   1.815   6.562   5.908
 8573SOL    HW226619   1.721   6.436   5.954
 8574SOL     OW26620   6.255   2.508   5.686
 8574SOL    HW126621   6.170   2.560   5.689
 8574SOL    HW226622   6.288   2.493   5.779
 8575SOL     OW26623   1.487   6.962   3.983
 8575SOL    HW126624   1.392   6.958   4.016
 8575SOL    HW226625   1.510   6.877   3.937
 8576SOL     OW26626   1.246   4.219   3.914
 8576SOL    HW126627   1.324   4.159   3.898
 8576SOL    HW226628   1.180   4.208   3.840
 8577SOL     OW26629   1.889   1.322   1.238
 8577SOL    HW126630   1.893   1.412   1.194
 8577SOL    HW226631   1.949   1.322   1.319
 8578SOL     OW26632   1.821   0.918   5.896
 8578SOL    HW126633   1.815   1.000   5.953
 8578SOL    HW226634   1.904   0.921   5.842
 8579SOL     OW26635   2.647   0.172   2.892
 8579SOL    HW126636   2.684   0.091   2.938
 8579SOL    HW226637   2.637   0.152   2.794
 8580SOL     OW26638   1.212   0.209   2.183
 8580SOL    HW126639   1.138   0.275   2.170
 8580SOL    HW226640   1.299   0.251   2.160
 8581SOL     OW26641   4.060   3.161   3.768
 8581SOL    HW126642   4.025   3.221   3.839
 8581SOL    HW226643   3.991   3.092   3.746
 8582SOL     OW26644   5.577   5.633   6.536
 8582SOL    HW126645   5.662   5.595   6.573
 8582SOL    HW226646   5.506   5.562   6.537
 8583SOL     OW26647   3.749   0.139   2.088
 8583SOL    HW126648   3.769   0.211   2.155
 8583SOL    HW226649   3.833   0.088   2.069
 8584SOL     OW26650   5.246   2.660   6.119
 8584SOL    HW126651   5.294   2.589   6.067
 8584SOL    HW226652   5.169   2.619   6.167
 8585SOL     OW26653   4.741   2.861   3.028
 8585SOL    HW126654   4.743   2.892   3.124
 8585SOL    HW226655   4.820   2.803   3.010
 8586SOL     OW26656   6.013   0.093   6.023
 8586SOL    HW126657   5.958   0.021   5.981
 8586SOL    HW226658   6.064   0.142   5.952
 8587SOL     OW26659   6.645   6.532   1.319
 8587SOL    HW126660   6.595   6.617   1.301
 8587SOL    HW226661   6.701   6.509   1.240
 8588SOL     OW26662   2.049   2.214   5.745
 8588SOL    HW126663   2.064   2.283   5.674
 8588SOL    HW226664   2.090   2.127   5.717
 8589SOL     OW26665   6.154   3.282   6.461
 8589SOL    HW126666   6.111   3.211   6.517
 8589SOL    HW226667   6.187   3.241   6.376
 8590SOL     OW26668   0.663   1.541   2.938
 8590SOL    HW126669   0.755   1.503   2.950
 8590SOL    HW226670   0.636   1.590   3.020
 8591SOL     OW26671   0.659   4.401   6.276
 8591SOL    HW126672   0.693   4.325   6.332
 8591SOL    HW226673   0.731   4.431   6.213
 8592SOL     OW26674   0.120   2.264   4.518
 8592SOL    HW126675   0.059   2.330   4.475
 8592SOL    HW226676   0.208   2.307   4.539
 8593SOL     OW26677   6.468   0.676   0.574
 8593SOL    HW126678   6.497   0.772   0.573
 8593SOL    HW226679   6.383   0.667   0.625
 8594SOL     OW26680   6.427   2.204   7.004
 8594SOL    HW126681   6.484   2.194   6.922
 8594SOL    HW226682   6.338   2.241   6.979
 8595SOL     OW26683   5.616   6.448   1.842
 8595SOL    HW126684   5.642   6.402   1.927
 8595SOL    HW226685   5.644   6.544   1.846
 8596SOL     OW26686   0.591   2.844   5.724
 8596SOL    HW126687   0.642   2.863   5.808
 8596SOL    HW226688   0.581   2.928   5.671
 8597SOL     OW26689   6.187   2.274   5.599
 8597SOL    HW126690   6.219   2.368   5.609
 8597SOL    HW226691   6.145   2.243   5.685
 8598SOL     OW26692   6.516   0.336   5.730
 8598SOL    HW126693   6.555   0.348   5.638
 8598SOL    HW226694   6.510   0.239   5.751
 8599SOL     OW26695   6.131   4.377   5.263
 8599SOL    HW126696   6.154   4.370   5.360
 8599SOL    HW226697   6.078   4.296   5.235
 8600SOL     OW26698   3.588   3.306   1.782
 8600SOL    HW126699   3.545   3.388   1.744
 8600SOL    HW226700   3.540   3.279   1.865
 8601SOL     OW26701   4.896   4.386   1.408
 8601SOL    HW126702   4.971   4.450   1.426
 8601SOL    HW226703   4.836   4.382   1.487
 8602SOL     OW26704   1.901   6.238   5.317
 8602SOL    HW126705   1.812   6.256   5.276
 8602SOL    HW226706   1.965   6.311   5.292
 8603SOL     OW26707   0.455   1.073   0.278
 8603SOL    HW126708   0.418   1.069   0.371
 8603SOL    HW226709   0.529   1.140   0.275
 8604SOL     OW26710   2.052   5.851   5.792
 8604SOL    HW126711   2.101   5.818   5.711
 8604SOL    HW226712   1.985   5.783   5.821
 8605SOL     OW26713   6.733   5.195   4.074
 8605SOL    HW126714   6.774   5.244   3.997
 8605SOL    HW226715   6.695   5.260   4.139
 8606SOL     OW26716   0.559   0.593   6.244
 8606SOL    HW126717   0.622   0.618   6.170
 8606SOL    HW226718   0.486   0.660   6.249
 8607SOL     OW26719   3.344   2.862   1.843
 8607SOL    HW126720   3.310   2.953   1.820
 8607SOL    HW226721   3.308   2.796   1.778
 8608SOL     OW26722   1.262   5.372   2.376
 8608SOL    HW126723   1.243   5.279   2.345
 8608SOL    HW226724   1.320   5.369   2.457
 8609SOL     OW26725   5.453   2.192   3.682
 8609SOL    HW126726   5.401   2.276   3.699
 8609SOL    HW226727   5.432   2.125   3.753
 8610SOL     OW26728   6.772   5.416   2.222
 8610SOL    HW126729   6.798   5.338   2.279
 8610SOL    HW226730   6.826   5.416   2.138
 8611SOL     OW26731   2.104   1.657   5.496
 8611SOL    HW126732   2.193   1.680   5.535
 8611SOL    HW226733   2.048   1.739   5.488
 8612SOL     OW26734   3.332   3.078   5.974
 8612SOL    HW126735   3.300   3.061   6.067
 8612SOL    HW226736   3.376   2.996   5.939
 8613SOL     OW26737   3.685   3.247   3.606
 8613SOL    HW126738   3.641   3.271   3.692
 8613SOL    HW226739   3.619   3.252   3.531
 8614SOL     OW26740   0.040   3.310   3.873
 8614SOL    HW126741   0.006   3.352   3.789
 8614SOL    HW226742   7.006   3.341   3.950
 8615SOL     OW26743   3.924   0.379   5.079
 8615SOL    HW126744   4.009   0.431   5.074
 8615SOL    HW226745   3.874   0.404   5.162
 8616SOL     OW26746   5.890   3.682   5.305
 8616SOL    HW126747   5.866   3.617   5.233
 8616SOL    HW226748   5.844   3.656   5.391
 8617SOL     OW26749   0.781   6.915   3.969
 8617SOL    HW126750   0.754   6.876   4.058
 8617SOL    HW226751   0.765   7.013   3.970
 8618SOL     OW26752   6.954   4.883   0.503
 8618SOL    HW126753   6.925   4.927   0.587
 8618SOL    HW226754   6.893   4.910   0.428
 8619SOL     OW26755   5.919   4.260   6.679
 8619SOL    HW126756   5.971   4.319   6.616
 8619SOL    HW226757   5.901   4.173   6.635
 8620SOL     OW26758   0.921   6.070   3.934
 8620SOL    HW126759   0.832   6.089   3.893
 8620SOL    HW226760   0.989   6.056   3.862
 8621SOL     OW26761   6.410   3.237   1.927
 8621SOL    HW126762   6.446   3.190   1.846
 8621SOL    HW226763   6.358   3.318   1.898
 8622SOL     OW26764   0.888   6.155   1.949
 8622SOL    HW126765   0.936   6.076   1.909
 8622SOL    HW226766   0.942   6.190   2.026
 8623SOL     OW26767   1.727   2.367   3.590
 8623SOL    HW126768   1.776   2.429   3.529
 8623SOL    HW226769   1.678   2.299   3.536
 8624SOL     OW26770   3.439   3.827   6.059
 8624SOL    HW126771   3.378   3.750   6.074
 8624SOL    HW226772   3.430   3.861   5.966
 8625SOL     OW26773   4.171   3.489   6.190
 8625SOL    HW126774   4.127   3.542   6.117
 8625SOL    HW226775   4.102   3.433   6.236
 8626SOL     OW26776   5.467   1.279   0.481
 8626SOL    HW126777   5.421   1.246   0.399
 8626SOL    HW226778   5.426   1.237   0.562
 8627SOL     OW26779   6.920   0.262   2.376
 8627SOL    HW126780   6.896   0.172   2.413
 8627SOL    HW226781   6.977   0.311   2.442
 8628SOL     OW26782   1.162   6.219   0.497
 8628SOL    HW126783   1.084   6.253   0.444
 8628SOL    HW226784   1.157   6.120   0.505
 8629SOL     OW26785   6.960   1.018   4.761
 8629SOL    HW126786   7.008   1.075   4.827
 8629SOL    HW226787   6.884   1.069   4.721
 8630SOL     OW26788   5.414   2.989   1.921
 8630SOL    HW126789   5.356   3.070   1.921
 8630SOL    HW226790   5.470   2.987   2.004
 8631SOL     OW26791   1.213   5.857   0.210
 8631SOL    HW126792   1.117   5.873   0.233
 8631SOL    HW226793   1.225   5.762   0.181
 8632SOL     OW26794   6.023   5.884   3.602
 8632SOL    HW126795   5.975   5.967   3.574
 8632SOL    HW226796   5.990   5.806   3.549
 8633SOL     OW26797   6.589   3.904   5.744
 8633SOL    HW126798   6.530   3.923   5.666
 8633SOL    HW226799   6.663   3.972   5.747
 8634SOL     OW26800   4.885   4.667   0.119
 8634SOL    HW126801   4.814   4.654   0.050
 8634SOL    HW226802   4.846   4.714   0.199
 8635SOL     OW26803   5.417   1.419   0.130
 8635SOL    HW126804   5.375   1.486   0.191
 8635SOL    HW226805   5.381   1.432   0.037
 8636SOL     OW26806   4.676   5.689   0.002
 8636SOL    HW126807   4.723   5.607   6.990
 8636SOL    HW226808   4.690   5.699   0.100
 8637SOL     OW26809   2.978   2.611   1.009
 8637SOL    HW126810   3.035   2.690   0.987
 8637SOL    HW226811   2.998   2.537   0.945
 8638SOL     OW26812   4.754   2.062   3.973
 8638SOL    HW126813   4.714   2.149   4.002
 8638SOL    HW226814   4.690   2.016   3.911
 8639SOL     OW26815   4.166   4.357   0.619
 8639SOL    HW126816   4.142   4.393   0.530
 8639SOL    HW226817   4.140   4.260   0.624
 8640SOL     OW26818   2.895   2.673   6.527
 8640SOL    HW126819   2.945   2.588   6.545
 8640SOL    HW226820   2.887   2.726   6.612
 8641SOL     OW26821   3.177   5.120   3.058
 8641SOL    HW126822   3.095   5.112   3.001
 8641SOL    HW226823   3.233   5.038   3.048
 8642SOL     OW26824   2.494   6.535   2.880
 8642SOL    HW126825   2.508   6.465   2.809
 8642SOL    HW226826   2.450   6.615   2.839
 8643SOL     OW26827   3.690   6.256   1.258
 8643SOL    HW126828   3.622   6.328   1.246
 8643SOL    HW226829   3.726   6.228   1.169
 8644SOL     OW26830   5.414   2.032   0.147
 8644SOL    HW126831   5.487   2.009   0.083
 8644SOL    HW226832   5.374   2.120   0.121
 8645SOL     OW26833   4.644   5.630   2.837
 8645SOL    HW126834   4.596   5.570   2.773
 8645SOL    HW226835   4.688   5.575   2.908
 8646SOL     OW26836   6.089   1.695   3.830
 8646SOL    HW126837   6.050   1.650   3.749
 8646SOL    HW226838   6.064   1.792   3.829
 8647SOL     OW26839   1.858   4.361   2.058
 8647SOL    HW126840   1.907   4.423   2.120
 8647SOL    HW226841   1.800   4.414   1.996
 8648SOL     OW26842   5.994   5.641   6.040
 8648SOL    HW126843   5.986   5.661   6.138
 8648SOL    HW226844   5.904   5.645   5.998
 8649SOL     OW26845   5.402   2.904   2.272
 8649SOL    HW126846   5.381   2.824   2.329
 8649SOL    HW226847   5.453   2.971   2.326
 8650SOL     OW26848   0.972   1.047   4.710
 8650SOL    HW126849   0.977   0.948   4.726
 8650SOL    HW226850   0.999   1.096   4.792
 8651SOL     OW26851   4.727   1.237   1.351
 8651SOL    HW126852   4.697   1.144   1.372
 8651SOL    HW226853   4.759   1.241   1.256
 8652SOL     OW26854   6.090   3.109   4.906
 8652SOL    HW126855   6.100   3.030   4.966
 8652SOL    HW226856   6.123   3.086   4.815
 8653SOL     OW26857   4.438   1.010   6.803
 8653SOL    HW126858   4.468   0.983   6.895
 8653SOL    HW226859   4.390   0.933   6.760
 8654SOL     OW26860   6.467   4.495   3.709
 8654SOL    HW126861   6.527   4.558   3.660
 8654SOL    HW226862   6.493   4.492   3.806
 8655SOL     OW26863   1.548   0.013   4.615
 8655SOL    HW126864   1.571   0.047   4.706
 8655SOL    HW226865   1.625   6.980   4.580
 8656SOL     OW26866   3.358   6.325   0.138
 8656SOL    HW126867   3.441   6.294   0.183
 8656SOL    HW226868   3.354   6.287   0.045
 8657SOL     OW26869   3.017   1.875   2.515
 8657SOL    HW126870   2.939   1.863   2.455
 8657SOL    HW226871   3.026   1.971   2.539
 8658SOL     OW26872   6.163   4.044   0.743
 8658SOL    HW126873   6.068   4.019   0.730
 8658SOL    HW226874   6.222   3.972   0.706
 8659SOL     OW26875   3.015   6.725   3.264
 8659SOL    HW126876   3.027   6.820   3.233
 8659SOL    HW226877   2.975   6.725   3.355
 8660SOL     OW26878   6.702   4.652   0.844
 8660SOL    HW126879   6.729   4.562   0.879
 8660SOL    HW226880   6.767   4.721   0.877
 8661SOL     OW26881   5.843   2.946   1.010
 8661SOL    HW126882   5.801   3.034   0.988
 8661SOL    HW226883   5.823   2.881   0.936
 8662SOL     OW26884   1.520   2.610   2.040
 8662SOL    HW126885   1.577   2.570   1.969
 8662SOL    HW226886   1.525   2.710   2.034
 8663SOL     OW26887   2.881   5.935   1.537
 8663SOL    HW126888   2.941   5.911   1.614
 8663SOL    HW226889   2.812   5.864   1.525
 8664SOL     OW26890   3.178   6.069   4.468
 8664SOL    HW126891   3.137   6.097   4.555
 8664SOL    HW226892   3.181   6.147   4.406
 8665SOL     OW26893   0.516   3.053   6.110
 8665SOL    HW126894   0.464   3.087   6.032
 8665SOL    HW226895   0.486   3.100   6.194
 8666SOL     OW26896   4.290   0.011   2.749
 8666SOL    HW126897   4.193   0.011   2.725
 8666SOL    HW226898   4.301   7.003   2.844
 8667SOL     OW26899   4.445   2.218   1.788
 8667SOL    HW126900   4.445   2.306   1.835
 8667SOL    HW226901   4.402   2.228   1.698
 8668SOL     OW26902   3.453   1.851   3.440
 8668SOL    HW126903   3.367   1.822   3.399
 8668SOL    HW226904   3.526   1.844   3.373
 8669SOL     OW26905   0.347   5.997   6.073
 8669SOL    HW126906   0.395   5.955   6.150
 8669SOL    HW226907   0.317   6.089   6.098
 8670SOL     OW26908   6.931   4.770   5.058
 8670SOL    HW126909   6.881   4.693   5.098
 8670SOL    HW226910   0.007   4.746   5.051
 8671SOL     OW26911   6.849   3.746   3.103
 8671SOL    HW126912   6.857   3.656   3.061
 8671SOL    HW226913   6.813   3.736   3.196
 8672SOL     OW26914   6.723   1.058   2.223
 8672SOL    HW126915   6.665   1.035   2.301
 8672SOL    HW226916   6.808   1.100   2.256
 8673SOL     OW26917   0.262   0.739   1.915
 8673SOL    HW126918   0.311   0.660   1.879
 8673SOL    HW226919   0.165   0.716   1.924
 8674SOL     OW26920   0.508   2.650   4.217
 8674SOL    HW126921   0.475   2.613   4.303
 8674SOL    HW226922   0.453   2.613   4.141
 8675SOL     OW26923   5.610   2.276   4.913
 8675SOL    HW126924   5.520   2.256   4.873
 8675SOL    HW226925   5.675   2.207   4.882
 8676SOL     OW26926   5.135   2.809   1.022
 8676SOL    HW126927   5.222   2.825   0.976
 8676SOL    HW226928   5.138   2.849   1.114
 8677SOL     OW26929   3.161   1.413   6.935
 8677SOL    HW126930   3.110   1.333   6.904
 8677SOL    HW226931   3.172   1.477   6.860
 8678SOL     OW26932   2.538   1.903   0.260
 8678SOL    HW126933   2.483   1.887   0.342
 8678SOL    HW226934   2.564   1.815   0.220
 8679SOL     OW26935   2.096   2.092   6.660
 8679SOL    HW126936   2.144   2.143   6.589
 8679SOL    HW226937   2.147   2.009   6.681
 8680SOL     OW26938   0.041   0.023   1.161
 8680SOL    HW126939   6.969   0.026   1.200
 8680SOL    HW226940   0.088   0.109   1.179
 8681SOL     OW26941   5.514   5.799   1.048
 8681SOL    HW126942   5.546   5.705   1.041
 8681SOL    HW226943   5.555   5.843   1.128
 8682SOL     OW26944   1.679   2.019   1.668
 8682SOL    HW126945   1.580   2.021   1.685
 8682SOL    HW226946   1.722   2.097   1.712
 8683SOL     OW26947   2.462   5.061   4.500
 8683SOL    HW126948   2.405   5.021   4.428
 8683SOL    HW226949   2.507   5.143   4.466
 8684SOL     OW26950   2.196   4.170   3.716
 8684SOL    HW126951   2.167   4.266   3.714
 8684SOL    HW226952   2.251   4.150   3.635
 8685SOL     OW26953   4.602   3.095   5.371
 8685SOL    HW126954   4.525   3.046   5.331
 8685SOL    HW226955   4.673   3.030   5.398
 8686SOL     OW26956   0.742   5.066   2.200
 8686SOL    HW126957   0.807   5.047   2.274
 8686SOL    HW226958   0.649   5.057   2.234
 8687SOL     OW26959   5.654   3.052   5.514
 8687SOL    HW126960   5.574   3.080   5.462
 8687SOL    HW226961   5.647   2.954   5.536
 8688SOL     OW26962   1.372   3.249   4.345
 8688SOL    HW126963   1.410   3.290   4.262
 8688SOL    HW226964   1.343   3.155   4.326
 8689SOL     OW26965   5.001   3.657   1.286
 8689SOL    HW126966   5.041   3.566   1.277
 8689SOL    HW226967   5.074   3.725   1.287
 8690SOL     OW26968   0.956   2.563   2.348
 8690SOL    HW126969   1.009   2.580   2.265
 8690SOL    HW226970   1.016   2.569   2.428
 8691SOL     OW26971   3.784   1.382   0.257
 8691SOL    HW126972   3.846   1.383   0.179
 8691SOL    HW226973   3.752   1.288   0.274
 8692SOL     OW26974   5.520   2.157   4.578
 8692SOL    HW126975   5.460   2.100   4.522
 8692SOL    HW226976   5.466   2.227   4.624
 8693SOL     OW26977   0.979   0.277   5.055
 8693SOL    HW126978   0.918   0.197   5.058
 8693SOL    HW226979   1.025   0.280   4.966
 8694SOL     OW26980   3.477   3.631   6.301
 8694SOL    HW126981   3.552   3.651   6.238
 8694SOL    HW226982   3.482   3.694   6.379
 8695SOL     OW26983   3.887   4.235   1.064
 8695SOL    HW126984   3.951   4.170   1.024
 8695SOL    HW226985   3.800   4.189   1.083
 8696SOL     OW26986   2.587   4.039   6.388
 8696SOL    HW126987   2.635   3.972   6.332
 8696SOL    HW226988   2.652   4.083   6.450
 8697SOL     OW26989   0.994   3.063   4.325
 8697SOL    HW126990   1.057   3.109   4.387
 8697SOL    HW226991   0.966   2.975   4.365
 8698SOL     OW26992   5.426   4.644   6.573
 8698SOL    HW126993   5.380   4.731   6.556
 8698SOL    HW226994   5.487   4.653   6.651
 8699SOL     OW26995   2.285   2.217   1.526
 8699SOL    HW126996   2.221   2.150   1.563
 8699SOL    HW226997   2.360   2.230   1.590
 8700SOL     OW26998   0.416   2.742   4.931
 8700SOL    HW126999   0.442   2.788   4.846
 8700SOL    HW227000   0.345   2.796   4.977
 8701SOL     OW27001   2.676   3.186   0.228
 8701SOL    HW127002   2.728   3.110   0.189
 8701SOL    HW227003   2.648   3.162   0.321
 8702SOL     OW27004   5.264   4.462   0.788
 8702SOL    HW127005   5.211   4.509   0.718
 8702SOL    HW227006   5.333   4.524   0.825
 8703SOL     OW27007   2.394   5.428   1.002
 8703SOL    HW127008   2.449   5.510   0.985
 8703SOL    HW227009   2.301   5.455   1.026
 8704SOL     OW27010   6.664   1.328   3.695
 8704SOL    HW127011   6.645   1.400   3.628
 8704SOL    HW227012   6.716   1.366   3.771
 8705SOL     OW27013   3.481   2.427   0.363
 8705SOL    HW127014   3.503   2.430   0.460
 8705SOL    HW227015   3.391   2.385   0.350
 8706SOL     OW27016   4.928   2.777   5.169
 8706SOL    HW127017   4.833   2.747   5.161
 8706SOL    HW227018   4.988   2.708   5.127
 8707SOL     OW27019   1.962   0.595   3.712
 8707SOL    HW127020   2.003   0.614   3.623
 8707SOL    HW227021   2.034   0.570   3.777
 8708SOL     OW27022   5.600   2.033   0.720
 8708SOL    HW127023   5.574   2.125   0.693
 8708SOL    HW227024   5.549   1.966   0.665
 8709SOL     OW27025   5.974   5.957   4.128
 8709SOL    HW127026   5.937   6.027   4.067
 8709SOL    HW227027   6.071   5.945   4.111
 8710SOL     OW27028   2.393   2.606   3.685
 8710SOL    HW127029   2.434   2.544   3.618
 8710SOL    HW227030   2.435   2.591   3.774
 8711SOL     OW27031   1.005   2.263   2.302
 8711SOL    HW127032   0.926   2.203   2.283
 8711SOL    HW227033   0.979   2.358   2.286
 8712SOL     OW27034   1.208   3.980   4.059
 8712SOL    HW127035   1.195   4.079   4.050
 8712SOL    HW227036   1.135   3.942   4.116
 8713SOL     OW27037   0.514   4.680   4.285
 8713SOL    HW127038   0.555   4.697   4.375
 8713SOL    HW227039   0.416   4.661   4.296
 8714SOL     OW27040   1.412   3.736   6.593
 8714SOL    HW127041   1.449   3.826   6.613
 8714SOL    HW227042   1.339   3.714   6.658
 8715SOL     OW27043   2.095   4.824   1.135
 8715SOL    HW127044   2.138   4.739   1.164
 8715SOL    HW227045   2.100   4.891   1.208
 8716SOL     OW27046   4.965   6.798   3.018
 8716SOL    HW127047   4.955   6.787   2.919
 8716SOL    HW227048   5.044   6.744   3.049
 8717SOL     OW27049   4.332   2.108   6.913
 8717SOL    HW127050   4.320   2.175   6.986
 8717SOL    HW227051   4.338   2.154   6.825
 8718SOL     OW27052   2.327   5.520   5.807
 8718SOL    HW127053   2.295   5.576   5.884
 8718SOL    HW227054   2.331   5.575   5.724
 8719SOL     OW27055   3.227   2.078   4.653
 8719SOL    HW127056   3.145   2.132   4.635
 8719SOL    HW227057   3.282   2.071   4.570
 8720SOL     OW27058   0.081   6.975   5.078
 8720SOL    HW127059   0.003   0.016   5.091
 8720SOL    HW227060   0.165   0.007   5.073
 8721SOL     OW27061   0.503   0.339   1.992
 8721SOL    HW127062   0.516   0.243   2.016
 8721SOL    HW227063   0.494   0.393   2.075
 8722SOL     OW27064   3.793   1.104   0.254
 8722SOL    HW127065   3.777   1.012   0.290
 8722SOL    HW227066   3.880   1.138   0.288
 8723SOL     OW27067   3.387   6.451   2.980
 8723SOL    HW127068   3.394   6.548   2.955
 8723SOL    HW227069   3.297   6.417   2.955
 8724SOL     OW27070   5.869   0.269   5.346
 8724SOL    HW127071   5.848   0.358   5.388
 8724SOL    HW227072   5.842   0.196   5.409
 8725SOL     OW27073   6.966   0.831   2.517
 8725SOL    HW127074   6.996   0.918   2.478
 8725SOL    HW227075   6.898   0.848   2.589
 8726SOL     OW27076   6.965   0.359   0.985
 8726SOL    HW127077   6.987   0.279   0.928
 8726SOL    HW227078   7.012   0.439   0.948
 8727SOL     OW27079   5.159   5.194   5.867
 8727SOL    HW127080   5.169   5.197   5.768
 8727SOL    HW227081   5.223   5.128   5.906
 8728SOL     OW27082   5.009   6.724   4.015
 8728SOL    HW127083   5.071   6.673   3.955
 8728SOL    HW227084   5.059   6.755   4.095
 8729SOL     OW27085   5.786   5.923   5.911
 8729SOL    HW127086   5.774   5.830   5.947
 8729SOL    HW227087   5.731   5.986   5.965
 8730SOL     OW27088   4.011   4.866   1.755
 8730SOL    HW127089   4.067   4.913   1.686
 8730SOL    HW227090   4.070   4.829   1.826
 8731SOL     OW27091   0.095   2.724   4.424
 8731SOL    HW127092   0.101   2.699   4.327
 8731SOL    HW227093   0.086   2.824   4.432
 8732SOL     OW27094   5.119   6.572   5.724
 8732SOL    HW127095   5.137   6.563   5.626
 8732SOL    HW227096   5.184   6.517   5.775
 8733SOL     OW27097   5.760   3.988   1.936
 8733SOL    HW127098   5.754   3.969   1.838
 8733SOL    HW227099   5.765   4.087   1.951
 8734SOL     OW27100   0.146   6.381   1.526
 8734SOL    HW127101   0.230   6.356   1.477
 8734SOL    HW227102   0.067   6.357   1.470
 8735SOL     OW27103   1.631   1.988   0.166
 8735SOL    HW127104   1.693   2.055   0.126
 8735SOL    HW227105   1.681   1.932   0.233
 8736SOL     OW27106   0.416   6.201   3.781
 8736SOL    HW127107   0.380   6.108   3.773
 8736SOL    HW227108   0.374   6.247   3.859
 8737SOL     OW27109   0.865   5.730   6.328
 8737SOL    HW127110   0.888   5.648   6.379
 8737SOL    HW227111   0.799   5.784   6.380
 8738SOL     OW27112   1.709   2.048   2.322
 8738SOL    HW127113   1.769   1.981   2.280
 8738SOL    HW227114   1.759   2.133   2.338
 8739SOL     OW27115   4.324   5.092   3.400
 8739SOL    HW127116   4.292   5.106   3.493
 8739SOL    HW227117   4.381   5.010   3.397
 8740SOL     OW27118   1.792   0.750   3.507
 8740SOL    HW127119   1.872   0.691   3.520
 8740SOL    HW227120   1.783   0.811   3.585
 8741SOL     OW27121   1.839   2.742   3.016
 8741SOL    HW127122   1.918   2.681   3.029
 8741SOL    HW227123   1.870   2.837   3.020
 8742SOL     OW27124   1.823   3.266   0.493
 8742SOL    HW127125   1.835   3.361   0.522
 8742SOL    HW227126   1.755   3.221   0.550
 8743SOL     OW27127   2.234   2.893   0.350
 8743SOL    HW127128   2.327   2.921   0.375
 8743SOL    HW227129   2.173   2.973   0.356
 8744SOL     OW27130   3.068   3.844   5.695
 8744SOL    HW127131   3.156   3.844   5.647
 8744SOL    HW227132   3.068   3.771   5.763
 8745SOL     OW27133   5.306   0.961   6.767
 8745SOL    HW127134   5.366   0.881   6.774
 8745SOL    HW227135   5.330   1.028   6.837
 8746SOL     OW27136   4.315   4.768   4.109
 8746SOL    HW127137   4.367   4.794   4.191
 8746SOL    HW227138   4.218   4.765   4.132
 8747SOL     OW27139   6.967   6.677   1.354
 8747SOL    HW127140   7.017   6.698   1.438
 8747SOL    HW227141   6.872   6.706   1.363
 8748SOL     OW27142   5.896   1.892   5.036
 8748SOL    HW127143   5.916   1.794   5.035
 8748SOL    HW227144   5.967   1.940   5.086
 8749SOL     OW27145   1.982   1.770   4.223
 8749SOL    HW127146   2.002   1.695   4.160
 8749SOL    HW227147   2.067   1.820   4.243
 8750SOL     OW27148   4.066   3.791   2.264
 8750SOL    HW127149   4.160   3.765   2.243
 8750SOL    HW227150   4.040   3.755   2.353
 8751SOL     OW27151   1.955   6.492   6.865
 8751SOL    HW127152   1.935   6.575   6.812
 8751SOL    HW227153   1.873   6.436   6.872
 8752SOL     OW27154   1.575   2.602   6.647
 8752SOL    HW127155   1.533   2.556   6.726
 8752SOL    HW227156   1.672   2.581   6.645
 8753SOL     OW27157   2.282   1.919   0.915
 8753SOL    HW127158   2.269   1.902   1.013
 8753SOL    HW227159   2.318   2.011   0.901
 8754SOL     OW27160   1.714   6.292   6.820
 8754SOL    HW127161   1.634   6.296   6.760
 8754SOL    HW227162   1.690   6.246   6.905
 8755SOL     OW27163   6.828   1.336   2.045
 8755SOL    HW127164   6.735   1.336   2.009
 8755SOL    HW227165   6.892   1.311   1.973
 8756SOL     OW27166   1.802   1.306   2.323
 8756SOL    HW127167   1.778   1.228   2.264
 8756SOL    HW227168   1.734   1.315   2.395
 8757SOL     OW27169   5.457   5.332   5.707
 8757SOL    HW127170   5.466   5.377   5.796
 8757SOL    HW227171   5.365   5.348   5.671
 8758SOL     OW27172   3.645   4.912   5.989
 8758SOL    HW127173   3.655   4.906   5.890
 8758SOL    HW227174   3.722   4.962   6.028
 8759SOL     OW27175   6.498   0.816   1.487
 8759SOL    HW127176   6.509   0.915   1.493
 8759SOL    HW227177   6.507   0.787   1.392
 8760SOL     OW27178   1.490   2.428   4.405
 8760SOL    HW127179   1.429   2.494   4.360
 8760SOL    HW227180   1.498   2.451   4.502
 8761SOL     OW27181   5.115   2.653   4.129
 8761SOL    HW127182   5.068   2.615   4.209
 8761SOL    HW227183   5.133   2.750   4.144
 8762SOL     OW27184   3.794   6.219   2.214
 8762SOL    HW127185   3.892   6.238   2.210
 8762SOL    HW227186   3.746   6.301   2.245
 8763SOL     OW27187   0.221   2.075   5.221
 8763SOL    HW127188   0.269   2.033   5.299
 8763SOL    HW227189   0.265   2.046   5.136
 8764SOL     OW27190   1.922   5.614   5.886
 8764SOL    HW127191   1.837   5.646   5.927
 8764SOL    HW227192   1.906   5.529   5.836
 8765SOL     OW27193   4.667   0.456   3.713
 8765SOL    HW127194   4.639   0.535   3.659
 8765SOL    HW227195   4.656   0.373   3.658
 8766SOL     OW27196   6.716   0.535   4.961
 8766SOL    HW127197   6.715   0.619   5.015
 8766SOL    HW227198   6.630   0.486   4.973
 8767SOL     OW27199   1.924   1.092   5.038
 8767SOL    HW127200   1.889   1.120   5.127
 8767SOL    HW227201   1.876   1.010   5.007
 8768SOL     OW27202   0.176   2.333   0.900
 8768SOL    HW127203   0.132   2.398   0.838
 8768SOL    HW227204   0.223   2.263   0.846
 8769SOL     OW27205   7.017   0.103   0.304
 8769SOL    HW127206   0.062   0.169   0.339
 8769SOL    HW227207   6.959   0.146   0.235
 8770SOL     OW27208   4.572   1.937   0.562
 8770SOL    HW127209   4.533   1.849   0.536
 8770SOL    HW227210   4.531   2.010   0.508
 8771SOL     OW27211   1.097   2.271   6.700
 8771SOL    HW127212   1.136   2.333   6.768
 8771SOL    HW227213   1.103   2.177   6.733
 8772SOL     OW27214   0.068   6.883   3.661
 8772SOL    HW127215   0.057   6.981   3.678
 8772SOL    HW227216   0.159   6.865   3.624
 8773SOL     OW27217   6.372   1.542   4.240
 8773SOL    HW127218   6.295   1.480   4.254
 8773SOL    HW227219   6.338   1.628   4.202
 8774SOL     OW27220   0.631   2.149   6.535
 8774SOL    HW127221   0.649   2.187   6.444
 8774SOL    HW227222   0.536   2.169   6.561
 8775SOL     OW27223   4.266   1.918   2.360
 8775SOL    HW127224   4.172   1.926   2.327
 8775SOL    HW227225   4.278   1.831   2.407
 8776SOL     OW27226   5.952   3.055   1.247
 8776SOL    HW127227   5.905   3.024   1.330
 8776SOL    HW227228   5.914   3.006   1.168
 8777SOL     OW27229   6.471   2.157   4.077
 8777SOL    HW127230   6.382   2.132   4.039
 8777SOL    HW227231   6.516   2.075   4.111
 8778SOL     OW27232   1.756   4.829   5.825
 8778SOL    HW127233   1.761   4.783   5.736
 8778SOL    HW227234   1.666   4.870   5.836
 8779SOL     OW27235   3.425   6.485   3.678
 8779SOL    HW127236   3.349   6.485   3.743
 8779SOL    HW227237   3.399   6.434   3.597
 8780SOL     OW27238   1.092   3.382   4.186
 8780SOL    HW127239   1.158   3.307   4.186
 8780SOL    HW227240   1.137   3.466   4.156
 8781SOL     OW27241   3.910   1.104   2.318
 8781SOL    HW127242   3.824   1.053   2.326
 8781SOL    HW227243   3.891   1.198   2.291
 8782SOL     OW27244   0.466   2.678   0.067
 8782SOL    HW127245   0.407   2.678   7.007
 8782SOL    HW227246   0.554   2.638   0.044
 8783SOL     OW27247   3.461   4.291   6.497
 8783SOL    HW127248   3.538   4.246   6.542
 8783SOL    HW227249   3.468   4.277   6.398
 8784SOL     OW27250   4.224   1.886   5.922
 8784SOL    HW127251   4.210   1.790   5.946
 8784SOL    HW227252   4.281   1.930   5.991
 8785SOL     OW27253   6.416   0.150   6.069
 8785SOL    HW127254   6.465   0.088   6.131
 8785SOL    HW227255   6.355   0.209   6.122
 8786SOL     OW27256   4.825   2.287   2.802
 8786SOL    HW127257   4.796   2.268   2.708
 8786SOL    HW227258   4.776   2.367   2.836
 8787SOL     OW27259   2.998   5.611   2.432
 8787SOL    HW127260   3.018   5.609   2.530
 8787SOL    HW227261   3.040   5.692   2.391
 8788SOL     OW27262   0.012   0.133   3.737
 8788SOL    HW127263   0.027   0.192   3.817
 8788SOL    HW227264   6.981   0.183   3.668
 8789SOL     OW27265   2.306   3.878   0.406
 8789SOL    HW127266   2.390   3.929   0.385
 8789SOL    HW227267   2.227   3.936   0.390
 8790SOL     OW27268   5.187   3.169   5.238
 8790SOL    HW127269   5.170   3.216   5.152
 8790SOL    HW227270   5.211   3.073   5.220
 8791SOL     OW27271   3.969   6.815   5.368
 8791SOL    HW127272   3.969   6.846   5.463
 8791SOL    HW227273   4.038   6.866   5.316
 8792SOL     OW27274   5.256   4.200   0.882
 8792SOL    HW127275   5.161   4.173   0.872
 8792SOL    HW227276   5.271   4.286   0.834
 8793SOL     OW27277   6.431   0.691   5.034
 8793SOL    HW127278   6.343   0.710   4.989
 8793SOL    HW227279   6.460   0.772   5.084
 8794SOL     OW27280   1.192   3.218   3.000
 8794SOL    HW127281   1.261   3.289   2.987
 8794SOL    HW227282   1.107   3.260   3.032
 8795SOL     OW27283   2.072   0.522   6.310
 8795SOL    HW127284   1.983   0.478   6.295
 8795SOL    HW227285   2.058   0.608   6.358
 8796SOL     OW27286   6.169   4.896   3.732
 8796SOL    HW127287   6.184   4.808   3.686
 8796SOL    HW227288   6.073   4.903   3.760
 8797SOL     OW27289   5.841   5.396   5.870
 8797SOL    HW127290   5.807   5.318   5.922
 8797SOL    HW227291   5.779   5.473   5.881
 8798SOL     OW27292   2.163   5.312   6.935
 8798SOL    HW127293   2.221   5.377   6.984
 8798SOL    HW227294   2.100   5.362   6.875
 8799SOL     OW27295   1.046   6.069   2.376
 8799SOL    HW127296   1.015   6.091   2.468
 8799SOL    HW227297   1.033   6.148   2.316
 8800SOL     OW27298   6.895   6.503   4.656
 8800SOL    HW127299   6.981   6.452   4.662
 8800SOL    HW227300   6.867   6.509   4.560
 8801SOL     OW27301   5.556   2.951   6.256
 8801SOL    HW127302   5.572   3.044   6.289
 8801SOL    HW227303   5.626   2.890   6.293
 8802SOL     OW27304   1.127   6.954   6.767
 8802SOL    HW127305   1.065   7.017   6.720
 8802SOL    HW227306   1.219   6.961   6.727
 8803SOL     OW27307   4.526   5.222   5.362
 8803SOL    HW127308   4.466   5.223   5.282
 8803SOL    HW227309   4.562   5.314   5.377
 8804SOL     OW27310   2.275   6.236   1.351
 8804SOL    HW127311   2.237   6.215   1.441
 8804SOL    HW227312   2.333   6.317   1.358
 8805SOL     OW27313   5.369   5.298   1.118
 8805SOL    HW127314   5.292   5.234   1.118
 8805SOL    HW227315   5.376   5.341   1.028
 8806SOL     OW27316   1.703   1.348   1.914
 8806SOL    HW127317   1.758   1.364   1.832
 8806SOL    HW227318   1.689   1.434   1.963
 8807SOL     OW27319   5.212   1.167   1.819
 8807SOL    HW127320   5.295   1.142   1.869
 8807SOL    HW227321   5.207   1.266   1.810
 8808SOL     OW27322   1.725   1.538   0.982
 8808SOL    HW127323   1.798   1.563   1.046
 8808SOL    HW227324   1.637   1.549   1.027
 8809SOL     OW27325   1.349   3.428   2.878
 8809SOL    HW127326   1.331   3.453   2.783
 8809SOL    HW227327   1.438   3.465   2.906
 8810SOL     OW27328   6.583   2.620   3.361
 8810SOL    HW127329   6.569   2.660   3.452
 8810SOL    HW227330   6.516   2.658   3.297
 8811SOL     OW27331   3.475   6.071   2.458
 8811SOL    HW127332   3.458   6.166   2.428
 8811SOL    HW227333   3.568   6.044   2.432
 8812SOL     OW27334   5.712   0.876   0.369
 8812SOL    HW127335   5.658   0.818   0.309
 8812SOL    HW227336   5.652   0.918   0.438
 8813SOL     OW27337   1.817   2.765   1.176
 8813SOL    HW127338   1.904   2.779   1.129
 8813SOL    HW227339   1.746   2.820   1.132
 8814SOL     OW27340   5.711   0.062   4.968
 8814SOL    HW127341   5.739   7.013   4.901
 8814SOL    HW227342   5.785   0.128   4.979
 8815SOL     OW27343   4.538   0.719   1.174
 8815SOL    HW127344   4.534   0.747   1.078
 8815SOL    HW227345   4.514   0.796   1.233
 8816SOL     OW27346   0.498   1.367   2.412
 8816SOL    HW127347   0.551   1.329   2.336
 8816SOL    HW227348   0.400   1.356   2.393
 8817SOL     OW27349   1.006   2.552   4.315
 8817SOL    HW127350   0.934   2.597   4.262
 8817SOL    HW227351   0.964   2.490   4.382
 8818SOL     OW27352   1.427   5.654   6.575
 8818SOL    HW127353   1.390   5.710   6.648
 8818SOL    HW227354   1.368   5.661   6.494
 8819SOL     OW27355   5.934   6.317   6.923
 8819SOL    HW127356   5.981   6.337   6.837
 8819SOL    HW227357   5.888   6.400   6.955
 8820SOL     OW27358   3.507   6.650   5.792
 8820SOL    HW127359   3.486   6.715   5.865
 8820SOL    HW227360   3.559   6.696   5.720
 8821SOL     OW27361   1.660   5.361   5.287
 8821SOL    HW127362   1.737   5.424   5.298
 8821SOL    HW227363   1.624   5.368   5.195
 8822SOL     OW27364   0.332   0.788   5.279
 8822SOL    HW127365   0.255   0.752   5.332
 8822SOL    HW227366   0.297   0.839   5.201
 8823SOL     OW27367   4.466   2.431   3.285
 8823SOL    HW127368   4.497   2.514   3.239
 8823SOL    HW227369   4.469   2.445   3.384
 8824SOL     OW27370   1.159   0.739   3.641
 8824SOL    HW127371   1.142   0.803   3.567
 8824SOL    HW227372   1.075   0.726   3.694
 8825SOL     OW27373   1.397   6.442   0.126
 8825SOL    HW127374   1.434   6.407   0.212
 8825SOL    HW227375   1.311   6.490   0.144
 8826SOL     OW27376   0.902   2.670   6.705
 8826SOL    HW127377   0.860   2.687   6.795
 8826SOL    HW227378   0.830   2.649   6.639
 8827SOL     OW27379   5.311   5.826   4.173
 8827SOL    HW127380   5.381   5.898   4.168
 8827SOL    HW227381   5.224   5.862   4.141
 8828SOL     OW27382   5.167   2.555   5.768
 8828SOL    HW127383   5.089   2.604   5.808
 8828SOL    HW227384   5.152   2.456   5.777
 8829SOL     OW27385   6.203   0.929   3.121
 8829SOL    HW127386   6.275   0.958   3.184
 8829SOL    HW227387   6.156   1.009   3.085
 8830SOL     OW27388   2.171   2.058   3.198
 8830SOL    HW127389   2.197   2.139   3.145
 8830SOL    HW227390   2.241   2.040   3.267
 8831SOL     OW27391   0.717   2.625   2.513
 8831SOL    HW127392   0.747   2.622   2.417
 8831SOL    HW227393   0.782   2.678   2.567
 8832SOL     OW27394   6.378   0.138   5.256
 8832SOL    HW127395   6.293   0.100   5.219
 8832SOL    HW227396   6.456   0.085   5.222
 8833SOL     OW27397   5.090   2.596   1.342
 8833SOL    HW127398   5.066   2.612   1.438
 8833SOL    HW227399   5.188   2.578   1.334
 8834SOL     OW27400   6.178   3.985   5.651
 8834SOL    HW127401   6.169   4.038   5.736
 8834SOL    HW227402   6.090   3.943   5.629
 8835SOL     OW27403   6.597   1.249   5.145
 8835SOL    HW127404   6.587   1.345   5.168
 8835SOL    HW227405   6.507   1.205   5.141
 8836SOL     OW27406   4.336   1.515   0.139
 8836SOL    HW127407   4.301   1.586   0.200
 8836SOL    HW227408   4.363   1.435   0.193
 8837SOL     OW27409   6.168   5.374   0.555
 8837SOL    HW127410   6.263   5.368   0.587
 8837SOL    HW227411   6.145   5.293   0.501
 8838SOL     OW27412   0.789   3.325   1.719
 8838SOL    HW127413   0.868   3.264   1.710
 8838SOL    HW227414   0.706   3.270   1.731
 8839SOL     OW27415   4.691   4.676   1.727
 8839SOL    HW127416   4.710   4.604   1.794
 8839SOL    HW227417   4.629   4.744   1.768
 8840SOL     OW27418   0.115   6.868   1.485
 8840SOL    HW127419   0.109   6.875   1.385
 8840SOL    HW227420   0.165   6.946   1.521
 8841SOL     OW27421   4.977   2.004   0.403
 8841SOL    HW127422   5.064   1.965   0.374
 8841SOL    HW227423   4.904   1.938   0.390
 8842SOL     OW27424   3.457   2.912   3.698
 8842SOL    HW127425   3.494   2.934   3.789
 8842SOL    HW227426   3.363   2.880   3.708
 8843SOL     OW27427   2.413   6.302   5.019
 8843SOL    HW127428   2.365   6.256   5.094
 8843SOL    HW227429   2.416   6.400   5.037
 8844SOL     OW27430   4.028   2.768   5.321
 8844SOL    HW127431   4.070   2.708   5.252
 8844SOL    HW227432   4.043   2.863   5.295
 8845SOL     OW27433   0.408   3.829   2.521
 8845SOL    HW127434   0.342   3.837   2.447
 8845SOL    HW227435   0.473   3.756   2.500
 8846SOL     OW27436   5.765   5.311   4.067
 8846SOL    HW127437   5.760   5.227   4.121
 8846SOL    HW227438   5.812   5.291   3.981
 8847SOL     OW27439   1.114   3.214   3.480
 8847SOL    HW127440   1.210   3.215   3.453
 8847SOL    HW227441   1.104   3.257   3.570
 8848SOL     OW27442   6.114   2.549   1.388
 8848SOL    HW127443   6.078   2.547   1.295
 8848SOL    HW227444   6.049   2.505   1.450
 8849SOL     OW27445   3.596   5.412   4.579
 8849SOL    HW127446   3.544   5.428   4.662
 8849SOL    HW227447   3.589   5.492   4.519
 8850SOL     OW27448   4.827   1.848   1.057
 8850SOL    HW127449   4.816   1.751   1.078
 8850SOL    HW227450   4.749   1.880   1.004
 8851SOL     OW27451   6.468   4.847   3.174
 8851SOL    HW127452   6.560   4.809   3.161
 8851SOL    HW227453   6.408   4.813   3.102
 8852SOL     OW27454   5.579   4.303   4.928
 8852SOL    HW127455   5.660   4.361   4.917
 8852SOL    HW227456   5.502   4.358   4.961
 8853SOL     OW27457   4.650   1.747   4.026
 8853SOL    HW127458   4.717   1.739   4.099
 8853SOL    HW227459   4.657   1.837   3.983
 8854SOL     OW27460   2.771   0.500   6.824
 8854SOL    HW127461   2.780   0.402   6.809
 8854SOL    HW227462   2.708   0.516   6.900
 8855SOL     OW27463   6.774   4.195   5.998
 8855SOL    HW127464   6.755   4.116   6.056
 8855SOL    HW227465   6.716   4.271   6.025
 8856SOL     OW27466   5.160   1.736   5.617
 8856SOL    HW127467   5.169   1.652   5.563
 8856SOL    HW227468   5.249   1.765   5.650
 8857SOL     OW27469   1.562   3.293   4.649
 8857SOL    HW127470   1.559   3.234   4.569
 8857SOL    HW227471   1.527   3.243   4.729
 8858SOL     OW27472   1.382   3.330   5.380
 8858SOL    HW127473   1.457   3.376   5.428
 8858SOL    HW227474   1.300   3.331   5.437
 8859SOL     OW27475   2.941   5.332   4.762
 8859SOL    HW127476   2.952   5.387   4.845
 8859SOL    HW227477   3.029   5.290   4.738
 8860SOL     OW27478   2.184   0.854   1.895
 8860SOL    HW127479   2.177   0.767   1.845
 8860SOL    HW227480   2.250   0.914   1.849
 8861SOL     OW27481   2.323   1.255   0.098
 8861SOL    HW127482   2.302   1.157   0.098
 8861SOL    HW227483   2.290   1.296   0.183
 8862SOL     OW27484   0.206   3.753   3.875
 8862SOL    HW127485   0.303   3.774   3.861
 8862SOL    HW227486   0.175   3.691   3.802
 8863SOL     OW27487   1.705   5.772   5.165
 8863SOL    HW127488   1.768   5.848   5.149
 8863SOL    HW227489   1.620   5.807   5.205
 8864SOL     OW27490   2.106   4.080   5.179
 8864SOL    HW127491   2.073   4.015   5.248
 8864SOL    HW227492   2.169   4.034   5.117
 8865SOL     OW27493   3.425   1.954   6.000
 8865SOL    HW127494   3.438   1.892   5.923
 8865SOL    HW227495   3.467   2.042   5.979
 8866SOL     OW27496   5.595   0.399   5.407
 8866SOL    HW127497   5.600   0.400   5.507
 8866SOL    HW227498   5.649   0.474   5.370
 8867SOL     OW27499   5.399   0.853   2.641
 8867SOL    HW127500   5.429   0.841   2.736
 8867SOL    HW227501   5.334   0.782   2.618
 8868SOL     OW27502   6.087   2.956   0.314
 8868SOL    HW127503   6.150   2.885   0.346
 8868SOL    HW227504   6.036   2.921   0.235
 8869SOL     OW27505   1.663   1.537   3.934
 8869SOL    HW127506   1.712   1.489   4.008
 8869SOL    HW227507   1.729   1.566   3.865
 8870SOL     OW27508   3.657   6.457   1.575
 8870SOL    HW127509   3.729   6.516   1.612
 8870SOL    HW227510   3.690   6.363   1.571
 8871SOL     OW27511   0.954   2.350   3.808
 8871SOL    HW127512   0.966   2.368   3.905
 8871SOL    HW227513   0.932   2.435   3.760
 8872SOL     OW27514   1.119   1.143   2.720
 8872SOL    HW127515   1.144   1.127   2.624
 8872SOL    HW227516   1.043   1.208   2.724
 8873SOL     OW27517   0.334   5.770   4.836
 8873SOL    HW127518   0.250   5.803   4.794
 8873SOL    HW227519   0.347   5.673   4.812
 8874SOL     OW27520   1.109   0.903   5.636
 8874SOL    HW127521   1.135   0.995   5.664
 8874SOL    HW227522   1.190   0.846   5.627
 8875SOL     OW27523   1.135   1.018   3.957
 8875SOL    HW127524   1.218   1.069   3.934
 8875SOL    HW227525   1.159   0.933   4.004
 8876SOL     OW27526   2.997   1.377   4.529
 8876SOL    HW127527   2.977   1.474   4.547
 8876SOL    HW227528   2.912   1.330   4.506
 8877SOL     OW27529   2.527   6.529   5.611
 8877SOL    HW127530   2.499   6.567   5.699
 8877SOL    HW227531   2.489   6.437   5.601
 8878SOL     OW27532   5.439   4.232   5.650
 8878SOL    HW127533   5.346   4.226   5.614
 8878SOL    HW227534   5.493   4.156   5.615
 8879SOL     OW27535   6.110   5.733   4.535
 8879SOL    HW127536   6.163   5.706   4.616
 8879SOL    HW227537   6.164   5.796   4.480
 8880SOL     OW27538   1.163   6.934   4.957
 8880SOL    HW127539   1.072   6.927   5.000
 8880SOL    HW227540   1.182   0.008   4.936
 8881SOL     OW27541   6.637   1.634   2.147
 8881SOL    HW127542   6.582   1.578   2.085
 8881SOL    HW227543   6.728   1.647   2.108
 8882SOL     OW27544   5.298   1.601   0.283
 8882SOL    HW127545   5.346   1.607   0.370
 8882SOL    HW227546   5.199   1.606   0.298
 8883SOL     OW27547   5.729   1.257   5.243
 8883SOL    HW127548   5.754   1.262   5.340
 8883SOL    HW227549   5.650   1.317   5.226
 8884SOL     OW27550   0.621   1.492   6.636
 8884SOL    HW127551   0.599   1.563   6.569
 8884SOL    HW227552   0.584   1.404   6.605
 8885SOL     OW27553   5.876   4.032   1.676
 8885SOL    HW127554   5.921   4.122   1.676
 8885SOL    HW227555   5.945   3.961   1.663
 8886SOL     OW27556   3.088   6.030   6.025
 8886SOL    HW127557   3.102   6.124   5.991
 8886SOL    HW227558   3.170   6.000   6.073
 8887SOL     OW27559   1.468   1.004   0.558
 8887SOL    HW127560   1.470   0.913   0.516
 8887SOL    HW227561   1.524   1.003   0.641
 8888SOL     OW27562   1.997   2.286   3.027
 8888SOL    HW127563   1.974   2.329   3.115
 8888SOL    HW227564   1.940   2.205   3.014
 8889SOL     OW27565   3.125   0.926   5.648
 8889SOL    HW127566   3.037   0.881   5.636
 8889SOL    HW227567   3.181   0.875   5.714
 8890SOL     OW27568   6.121   5.468   3.675
 8890SOL    HW127569   6.058   5.450   3.600
 8890SOL    HW227570   6.149   5.564   3.673
 8891SOL     OW27571   3.513   2.026   6.253
 8891SOL    HW127572   3.449   2.091   6.295
 8891SOL    HW227573   3.472   1.987   6.171
 8892SOL     OW27574   0.963   0.510   3.087
 8892SOL    HW127575   1.033   0.470   3.145
 8892SOL    HW227576   0.971   0.610   3.089
 8893SOL     OW27577   0.118   0.528   0.867
 8893SOL    HW127578   0.103   0.495   0.775
 8893SOL    HW227579   0.215   0.547   0.880
 8894SOL     OW27580   5.202   2.558   5.490
 8894SOL    HW127581   5.202   2.470   5.443
 8894SOL    HW227582   5.175   2.544   5.585
 8895SOL     OW27583   1.338   1.308   3.385
 8895SOL    HW127584   1.272   1.347   3.449
 8895SOL    HW227585   1.384   1.230   3.427
 8896SOL     OW27586   1.391   3.888   4.406
 8896SOL    HW127587   1.404   3.973   4.355
 8896SOL    HW227588   1.300   3.851   4.385
 8897SOL     OW27589   1.085   2.463   1.841
 8897SOL    HW127590   1.097   2.552   1.797
 8897SOL    HW227591   0.991   2.454   1.873
 8898SOL     OW27592   0.510   2.361   5.385
 8898SOL    HW127593   0.540   2.456   5.372
 8898SOL    HW227594   0.412   2.354   5.365
 8899SOL     OW27595   4.133   6.760   3.434
 8899SOL    HW127596   4.201   6.830   3.414
 8899SOL    HW227597   4.060   6.764   3.365
 8900SOL     OW27598   6.489   1.720   3.591
 8900SOL    HW127599   6.421   1.697   3.660
 8900SOL    HW227600   6.554   1.645   3.581
 8901SOL     OW27601   0.804   6.965   2.238
 8901SOL    HW127602   0.803   6.965   2.138
 8901SOL    HW227603   0.714   6.938   2.273
 8902SOL     OW27604   4.166   6.665   5.909
 8902SOL    HW127605   4.140   6.600   5.837
 8902SOL    HW227606   4.088   6.684   5.967
 8903SOL     OW27607   6.552   1.193   3.244
 8903SOL    HW127608   6.467   1.238   3.216
 8903SOL    HW227609   6.630   1.245   3.211
 8904SOL     OW27610   2.191   4.117   3.994
 8904SOL    HW127611   2.155   4.101   3.902
 8904SOL    HW227612   2.256   4.193   3.991
 8905SOL     OW27613   2.159   4.430   4.929
 8905SOL    HW127614   2.216   4.478   4.862
 8905SOL    HW227615   2.149   4.334   4.902
 8906SOL     OW27616   1.672   5.039   3.984
 8906SOL    HW127617   1.750   4.999   4.032
 8906SOL    HW227618   1.610   4.967   3.953
 8907SOL     OW27619   3.790   3.000   6.497
 8907SOL    HW127620   3.716   3.067   6.504
 8907SOL    HW227621   3.831   2.987   6.587
 8908SOL     OW27622   0.499   3.560   3.129
 8908SOL    HW127623   0.520   3.595   3.038
 8908SOL    HW227624   0.492   3.637   3.193
 8909SOL     OW27625   3.579   6.681   4.937
 8909SOL    HW127626   3.495   6.735   4.932
 8909SOL    HW227627   3.658   6.741   4.939
 8910SOL     OW27628   4.441   2.685   6.750
 8910SOL    HW127629   4.380   2.760   6.775
 8910SOL    HW227630   4.391   2.618   6.696
 8911SOL     OW27631   5.449   3.437   4.348
 8911SOL    HW127632   5.451   3.467   4.443
 8911SOL    HW227633   5.397   3.503   4.293
 8912SOL     OW27634   3.936   0.709   0.536
 8912SOL    HW127635   3.981   0.698   0.625
 8912SOL    HW227636   3.899   0.622   0.506
 8913SOL     OW27637   4.246   3.871   1.293
 8913SOL    HW127638   4.296   3.869   1.380
 8913SOL    HW227639   4.311   3.873   1.217
 8914SOL     OW27640   5.390   3.940   3.474
 8914SOL    HW127641   5.306   3.994   3.467
 8914SOL    HW227642   5.468   4.002   3.489
 8915SOL     OW27643   1.556   5.374   1.951
 8915SOL    HW127644   1.534   5.397   2.046
 8915SOL    HW227645   1.655   5.374   1.939
 8916SOL     OW27646   5.579   3.061   1.388
 8916SOL    HW127647   5.638   2.981   1.392
 8916SOL    HW227648   5.511   3.049   1.315
 8917SOL     OW27649   5.702   4.191   6.182
 8917SOL    HW127650   5.648   4.247   6.244
 8917SOL    HW227651   5.669   4.202   6.088
 8918SOL     OW27652   5.156   4.272   5.569
 8918SOL    HW127653   5.057   4.280   5.585
 8918SOL    HW227654   5.190   4.357   5.529
 8919SOL     OW27655   1.893   3.100   1.108
 8919SOL    HW127656   1.887   3.057   1.198
 8919SOL    HW227657   1.810   3.152   1.090
 8920SOL     OW27658   5.970   5.862   5.717
 8920SOL    HW127659   5.950   5.764   5.712
 8920SOL    HW227660   5.909   5.905   5.783
 8921SOL     OW27661   0.485   5.480   3.277
 8921SOL    HW127662   0.570   5.460   3.326
 8921SOL    HW227663   0.476   5.579   3.264
 8922SOL     OW27664   0.411   2.471   0.326
 8922SOL    HW127665   0.413   2.371   0.320
 8922SOL    HW227666   0.480   2.510   0.264
 8923SOL     OW27667   2.049   5.307   3.848
 8923SOL    HW127668   2.073   5.239   3.917
 8923SOL    HW227669   1.988   5.375   3.887
 8924SOL     OW27670   2.175   6.458   4.475
 8924SOL    HW127671   2.100   6.445   4.539
 8924SOL    HW227672   2.245   6.388   4.490
 8925SOL     OW27673   4.592   5.625   0.952
 8925SOL    HW127674   4.635   5.710   0.981
 8925SOL    HW227675   4.553   5.578   1.031
 8926SOL     OW27676   5.326   6.734   0.500
 8926SOL    HW127677   5.369   6.738   0.410
 8926SOL    HW227678   5.285   6.823   0.521
 8927SOL     OW27679   3.039   1.997   5.104
 8927SOL    HW127680   2.950   1.955   5.087
 8927SOL    HW227681   3.072   2.040   5.020
 8928SOL     OW27682   2.059   0.249   5.255
 8928SOL    HW127683   2.074   0.314   5.329
 8928SOL    HW227684   2.105   0.281   5.172
 8929SOL     OW27685   4.954   4.655   3.174
 8929SOL    HW127686   4.940   4.616   3.265
 8929SOL    HW227687   5.048   4.689   3.166
 8930SOL     OW27688   0.448   5.608   5.389
 8930SOL    HW127689   0.545   5.622   5.407
 8930SOL    HW227690   0.433   5.516   5.353
 8931SOL     OW27691   5.223   0.640   1.914
 8931SOL    HW127692   5.235   0.728   1.869
 8931SOL    HW227693   5.164   0.651   1.994
 8932SOL     OW27694   4.110   0.781   6.619
 8932SOL    HW127695   4.161   0.823   6.544
 8932SOL    HW227696   4.029   0.835   6.640
 8933SOL     OW27697   1.916   0.345   5.545
 8933SOL    HW127698   1.876   0.432   5.573
 8933SOL    HW227699   1.843   0.282   5.518
 8934SOL     OW27700   2.869   6.411   3.661
 8934SOL    HW127701   2.914   6.377   3.744
 8934SOL    HW227702   2.864   6.338   3.593
 8935SOL     OW27703   5.476   2.153   2.178
 8935SOL    HW127704   5.456   2.196   2.090
 8935SOL    HW227705   5.423   2.198   2.249
 8936SOL     OW27706   0.718   3.833   2.566
 8936SOL    HW127707   0.658   3.891   2.623
 8936SOL    HW227708   0.800   3.811   2.618
 8937SOL     OW27709   4.021   5.921   5.447
 8937SOL    HW127710   4.018   6.018   5.473
 8937SOL    HW227711   3.931   5.893   5.412
 8938SOL     OW27712   4.897   6.310   2.395
 8938SOL    HW127713   4.975   6.257   2.427
 8938SOL    HW227714   4.832   6.323   2.470
 8939SOL     OW27715   6.825   2.870   5.642
 8939SOL    HW127716   6.899   2.838   5.701
 8939SOL    HW227717   6.746   2.811   5.654
 8940SOL     OW27718   6.445   3.673   2.577
 8940SOL    HW127719   6.402   3.752   2.620
 8940SOL    HW227720   6.394   3.590   2.601
 8941SOL     OW27721   5.782   2.354   3.511
 8941SOL    HW127722   5.870   2.363   3.558
 8941SOL    HW227723   5.796   2.310   3.422
 8942SOL     OW27724   5.120   6.021   4.368
 8942SOL    HW127725   5.131   6.006   4.270
 8942SOL    HW227726   5.209   6.036   4.410
 8943SOL     OW27727   4.477   3.642   0.324
 8943SOL    HW127728   4.530   3.577   0.379
 8943SOL    HW227729   4.512   3.641   0.230
 8944SOL     OW27730   4.727   5.838   5.568
 8944SOL    HW127731   4.646   5.815   5.514
 8944SOL    HW227732   4.702   5.844   5.665
 8945SOL     OW27733   6.652   4.289   2.200
 8945SOL    HW127734   6.624   4.199   2.167
 8945SOL    HW227735   6.747   4.306   2.174
 8946SOL     OW27736   3.723   2.129   3.559
 8946SOL    HW127737   3.657   2.187   3.511
 8946SOL    HW227738   3.675   2.056   3.607
 8947SOL     OW27739   3.368   5.196   0.822
 8947SOL    HW127740   3.276   5.156   0.819
 8947SOL    HW227741   3.392   5.216   0.917
 8948SOL     OW27742   5.893   6.987   3.066
 8948SOL    HW127743   5.919   6.913   3.004
 8948SOL    HW227744   5.814   0.015   3.027
 8949SOL     OW27745   4.116   6.521   0.856
 8949SOL    HW127746   4.161   6.436   0.884
 8949SOL    HW227747   4.047   6.501   0.787
 8950SOL     OW27748   3.523   3.658   3.839
 8950SOL    HW127749   3.451   3.599   3.801
 8950SOL    HW227750   3.610   3.609   3.841
 8951SOL     OW27751   1.094   1.348   3.519
 8951SOL    HW127752   1.052   1.437   3.536
 8951SOL    HW227753   1.061   1.282   3.586
 8952SOL     OW27754   1.596   4.172   4.199
 8952SOL    HW127755   1.670   4.114   4.232
 8952SOL    HW227756   1.521   4.170   4.265
 8953SOL     OW27757   1.728   5.644   0.284
 8953SOL    HW127758   1.769   5.717   0.340
 8953SOL    HW227759   1.798   5.578   0.259
 8954SOL     OW27760   2.197   4.215   5.499
 8954SOL    HW127761   2.123   4.283   5.489
 8954SOL    HW227762   2.247   4.233   5.584
 8955SOL     OW27763   6.385   2.596   6.133
 8955SOL    HW127764   6.328   2.545   6.068
 8955SOL    HW227765   6.446   2.533   6.180
 8956SOL     OW27766   0.918   6.325   1.104
 8956SOL    HW127767   1.014   6.310   1.126
 8956SOL    HW227768   0.906   6.416   1.063
 8957SOL     OW27769   0.281   0.465   3.845
 8957SOL    HW127770   0.296   0.489   3.941
 8957SOL    HW227771   0.291   0.547   3.789
 8958SOL     OW27772   6.851   2.656   4.506
 8958SOL    HW127773   6.806   2.745   4.519
 8958SOL    HW227774   6.950   2.670   4.502
 8959SOL     OW27775   5.597   1.176   3.694
 8959SOL    HW127776   5.529   1.249   3.705
 8959SOL    HW227777   5.610   1.157   3.596
 8960SOL     OW27778   3.927   5.833   1.921
 8960SOL    HW127779   3.949   5.835   2.018
 8960SOL    HW227780   3.832   5.862   1.908
 8961SOL     OW27781   2.537   2.586   5.281
 8961SOL    HW127782   2.561   2.542   5.368
 8961SOL    HW227783   2.441   2.566   5.259
 8962SOL     OW27784   6.367   6.022   0.856
 8962SOL    HW127785   6.351   6.043   0.759
 8962SOL    HW227786   6.440   5.955   0.864
 8963SOL     OW27787   2.479   5.275   5.803
 8963SOL    HW127788   2.449   5.370   5.797
 8963SOL    HW227789   2.427   5.220   5.737
 8964SOL     OW27790   0.918   3.512   3.987
 8964SOL    HW127791   0.924   3.412   3.978
 8964SOL    HW227792   1.003   3.547   4.027
 8965SOL     OW27793   3.187   6.667   6.405
 8965SOL    HW127794   3.117   6.654   6.475
 8965SOL    HW227795   3.233   6.581   6.387
 8966SOL     OW27796   4.631   6.692   5.340
 8966SOL    HW127797   4.644   6.724   5.246
 8966SOL    HW227798   4.536   6.664   5.353
 8967SOL     OW27799   1.825   0.247   2.815
 8967SOL    HW127800   1.818   0.164   2.871
 8967SOL    HW227801   1.734   0.289   2.807
 8968SOL     OW27802   2.395   5.849   2.496
 8968SOL    HW127803   2.420   5.763   2.539
 8968SOL    HW227804   2.295   5.860   2.499
 8969SOL     OW27805   6.598   1.186   1.121
 8969SOL    HW127806   6.541   1.245   1.065
 8969SOL    HW227807   6.544   1.107   1.152
 8970SOL     OW27808   2.471   2.279   4.924
 8970SOL    HW127809   2.428   2.327   5.001
 8970SOL    HW227810   2.541   2.338   4.884
 8971SOL     OW27811   3.170   5.857   1.130
 8971SOL    HW127812   3.158   5.880   1.227
 8971SOL    HW227813   3.263   5.881   1.102
 8972SOL     OW27814   6.724   3.832   6.487
 8972SOL    HW127815   6.805   3.890   6.502
 8972SOL    HW227816   6.670   3.828   6.571
 8973SOL     OW27817   2.764   1.998   3.403
 8973SOL    HW127818   2.775   1.999   3.304
 8973SOL    HW227819   2.694   1.932   3.429
 8974SOL     OW27820   0.821   5.077   5.749
 8974SOL    HW127821   0.781   4.993   5.712
 8974SOL    HW227822   0.887   5.114   5.685
 8975SOL     OW27823   0.999   3.859   6.556
 8975SOL    HW127824   1.052   3.821   6.631
 8975SOL    HW227825   1.061   3.897   6.487
 8976SOL     OW27826   5.500   6.743   1.490
 8976SOL    HW127827   5.452   6.675   1.434
 8976SOL    HW227828   5.436   6.790   1.550
 8977SOL     OW27829   0.704   5.279   6.342
 8977SOL    HW127830   0.720   5.196   6.397
 8977SOL    HW227831   0.667   5.351   6.401
 8978SOL     OW27832   6.868   4.985   4.931
 8978SOL    HW127833   6.772   4.978   4.905
 8978SOL    HW227834   6.896   4.902   4.980
 8979SOL     OW27835   1.986   4.636   2.943
 8979SOL    HW127836   1.965   4.600   2.852
 8979SOL    HW227837   2.063   4.699   2.937
 8980SOL     OW27838   5.207   0.999   0.160
 8980SOL    HW127839   5.143   1.026   0.088
 8980SOL    HW227840   5.157   0.961   0.237
 8981SOL     OW27841   3.719   2.276   6.864
 8981SOL    HW127842   3.637   2.297   6.811
 8981SOL    HW227843   3.789   2.238   6.804
 8982SOL     OW27844   0.524   0.555   3.301
 8982SOL    HW127845   0.564   0.598   3.382
 8982SOL    HW227846   0.557   0.461   3.293
 8983SOL     OW27847   1.430   6.374   2.154
 8983SOL    HW127848   1.364   6.365   2.229
 8983SOL    HW227849   1.523   6.362   2.189
 8984SOL     OW27850   5.857   1.020   3.707
 8984SOL    HW127851   5.807   1.090   3.758
 8984SOL    HW227852   5.912   0.966   3.771
 8985SOL     OW27853   5.110   1.113   0.570
 8985SOL    HW127854   5.044   1.090   0.499
 8985SOL    HW227855   5.074   1.084   0.659
 8986SOL     OW27856   1.123   0.341   6.315
 8986SOL    HW127857   1.146   0.283   6.237
 8986SOL    HW227858   1.198   0.405   6.332
 8987SOL     OW27859   3.324   6.696   2.935
 8987SOL    HW127860   3.348   6.790   2.913
 8987SOL    HW227861   3.226   6.690   2.953
 8988SOL     OW27862   2.084   6.615   1.040
 8988SOL    HW127863   2.087   6.517   1.060
 8988SOL    HW227864   2.013   6.634   0.972
 8989SOL     OW27865   6.344   1.497   2.586
 8989SOL    HW127866   6.403   1.537   2.656
 8989SOL    HW227867   6.328   1.564   2.514
 8990SOL     OW27868   3.908   1.793   2.925
 8990SOL    HW127869   3.875   1.700   2.944
 8990SOL    HW227870   3.974   1.821   2.994
 8991SOL     OW27871   1.867   1.952   0.992
 8991SOL    HW127872   1.915   2.010   0.926
 8991SOL    HW227873   1.864   1.858   0.957
 8992SOL     OW27874   1.016   5.666   5.446
 8992SOL    HW127875   0.979   5.577   5.419
 8992SOL    HW227876   0.993   5.735   5.377
 8993SOL     OW27877   5.481   4.268   3.771
 8993SOL    HW127878   5.390   4.302   3.749
 8993SOL    HW227879   5.474   4.178   3.814
 8994SOL     OW27880   1.443   6.231   2.529
 8994SOL    HW127881   1.447   6.272   2.619
 8994SOL    HW227882   1.384   6.285   2.469
 8995SOL     OW27883   1.731   3.934   3.835
 8995SOL    HW127884   1.749   3.946   3.738
 8995SOL    HW227885   1.817   3.944   3.886
 8996SOL     OW27886   2.701   4.010   1.671
 8996SOL    HW127887   2.780   4.024   1.731
 8996SOL    HW227888   2.716   3.927   1.617
 8997SOL     OW27889   3.852   1.396   4.409
 8997SOL    HW127890   3.879   1.303   4.432
 8997SOL    HW227891   3.783   1.428   4.474
 8998SOL     OW27892   1.236   1.250   6.294
 8998SOL    HW127893   1.269   1.180   6.357
 8998SOL    HW227894   1.296   1.329   6.298
 8999SOL     OW27895   6.161   2.913   5.347
 8999SOL    HW127896   6.230   2.868   5.403
 8999SOL    HW227897   6.183   3.010   5.338
 9000SOL     OW27898   4.215   4.960   1.385
 9000SOL    HW127899   4.197   4.896   1.310
 9000SOL    HW227900   4.234   5.051   1.348
 9001SOL     OW27901   0.621   3.417   3.989
 9001SOL    HW127902   0.716   3.445   3.974
 9001SOL    HW227903   0.584   3.463   4.069
 9002SOL     OW27904   4.745   2.857   6.331
 9002SOL    HW127905   4.721   2.879   6.236
 9002SOL    HW227906   4.735   2.758   6.345
 9003SOL     OW27907   0.578   3.901   0.049
 9003SOL    HW127908   0.595   3.898   0.147
 9003SOL    HW227909   0.480   3.890   0.032
 9004SOL     OW27910   4.950   5.650   0.312
 9004SOL    HW127911   4.980   5.676   0.220
 9004SOL    HW227912   4.948   5.731   0.371
 9005SOL     OW27913   4.635   4.277   4.014
 9005SOL    HW127914   4.588   4.335   4.080
 9005SOL    HW227915   4.697   4.215   4.062
 9006SOL     OW27916   3.435   6.302   2.372
 9006SOL    HW127917   3.379   6.351   2.304
 9006SOL    HW227918   3.520   6.352   2.388
 9007SOL     OW27919   1.874   0.023   5.332
 9007SOL    HW127920   1.947   0.089   5.317
 9007SOL    HW227921   1.851   6.999   5.245
 9008SOL     OW27922   6.864   4.636   1.505
 9008SOL    HW127923   6.939   4.603   1.448
 9008SOL    HW227924   6.872   4.735   1.516
 9009SOL     OW27925   3.772   0.108   0.006
 9009SOL    HW127926   3.847   0.172   7.012
 9009SOL    HW227927   3.777   0.072   0.099
 9010SOL     OW27928   6.883   6.391   5.008
 9010SOL    HW127929   6.963   6.402   5.066
 9010SOL    HW227930   6.827   6.316   5.041
 9011SOL     OW27931   4.648   2.577   2.379
 9011SOL    HW127932   4.567   2.535   2.337
 9011SOL    HW227933   4.683   2.649   2.318
 9012SOL     OW27934   3.809   4.950   2.141
 9012SOL    HW127935   3.743   4.949   2.216
 9012SOL    HW227936   3.865   4.867   2.145
 9013SOL     OW27937   3.564   6.554   1.115
 9013SOL    HW127938   3.650   6.540   1.066
 9013SOL    HW227939   3.504   6.613   1.060
 9014SOL     OW27940   2.018   1.769   2.109
 9014SOL    HW127941   2.022   1.754   2.208
 9014SOL    HW227942   1.949   1.708   2.070
 9015SOL     OW27943   6.229   2.139   4.728
 9015SOL    HW127944   6.228   2.227   4.775
 9015SOL    HW227945   6.305   2.137   4.663
 9016SOL     OW27946   0.262   4.763   6.834
 9016SOL    HW127947   0.192   4.747   6.904
 9016SOL    HW227948   0.353   4.759   6.876
 9017SOL     OW27949   6.163   2.630   2.269
 9017SOL    HW127950   6.149   2.533   2.247
 9017SOL    HW227951   6.138   2.686   2.190
 9018SOL     OW27952   5.307   2.096   6.622
 9018SOL    HW127953   5.262   2.090   6.711
 9018SOL    HW227954   5.239   2.084   6.549
 9019SOL     OW27955   1.770   5.973   0.405
 9019SOL    HW127956   1.842   5.922   0.452
 9019SOL    HW227957   1.797   5.990   0.310
 9020SOL     OW27958   0.926   5.125   4.495
 9020SOL    HW127959   1.021   5.135   4.524
 9020SOL    HW227960   0.875   5.207   4.521
 9021SOL     OW27961   0.074   5.077   4.787
 9021SOL    HW127962   0.002   5.053   4.853
 9021SOL    HW227963   0.032   5.103   4.700
 9022SOL     OW27964   1.007   6.985   5.889
 9022SOL    HW127965   0.956   6.964   5.972
 9022SOL    HW227966   1.098   6.942   5.894
 9023SOL     OW27967   3.839   3.875   3.976
 9023SOL    HW127968   3.894   3.794   3.953
 9023SOL    HW227969   3.751   3.846   4.012
 9024SOL     OW27970   1.260   7.020   0.418
 9024SOL    HW127971   1.237   0.081   0.364
 9024SOL    HW227972   1.313   0.027   0.498
 9025SOL     OW27973   0.353   2.505   1.017
 9025SOL    HW127974   0.331   2.597   1.051
 9025SOL    HW227975   0.272   2.466   0.972
 9026SOL     OW27976   2.635   4.445   5.979
 9026SOL    HW127977   2.627   4.544   5.971
 9026SOL    HW227978   2.595   4.415   6.065
 9027SOL     OW27979   0.865   3.403   2.149
 9027SOL    HW127980   0.954   3.368   2.176
 9027SOL    HW227981   0.876   3.488   2.098
 9028SOL     OW27982   1.424   4.006   4.835
 9028SOL    HW127983   1.335   4.052   4.830
 9028SOL    HW227984   1.487   4.062   4.888
 9029SOL     OW27985   5.261   5.168   3.039
 9029SOL    HW127986   5.214   5.111   3.106
 9029SOL    HW227987   5.259   5.123   2.950
 9030SOL     OW27988   4.812   2.617   2.578
 9030SOL    HW127989   4.797   2.715   2.592
 9030SOL    HW227990   4.737   2.579   2.524
 9031SOL     OW27991   2.581   1.058   2.428
 9031SOL    HW127992   2.633   0.994   2.371
 9031SOL    HW227993   2.503   1.093   2.376
 9032SOL     OW27994   0.206   4.066   2.847
 9032SOL    HW127995   0.248   4.084   2.758
 9032SOL    HW227996   0.203   3.967   2.863
 9033SOL     OW27997   0.932   2.750   2.689
 9033SOL    HW127998   1.000   2.738   2.762
 9033SOL    HW227999   0.973   2.801   2.614
 9034SOL     OW28000   0.936   6.864   0.316
 9034SOL    HW128001   0.850   6.891   0.359
 9034SOL    HW228002   1.002   6.840   0.388
 9035SOL     OW28003   6.097   1.448   4.627
 9035SOL    HW128004   6.173   1.390   4.597
 9035SOL    HW228005   6.106   1.539   4.586
 9036SOL     OW28006   0.360   1.421   4.169
 9036SOL    HW128007   0.453   1.417   4.204
 9036SOL    HW228008   0.295   1.417   4.245
 9037SOL     OW28009   2.523   4.340   6.245
 9037SOL    HW128010   2.530   4.267   6.313
 9037SOL    HW228011   2.481   4.303   6.161
 9038SOL     OW28012   3.754   6.076   5.617
 9038SOL    HW128013   3.806   6.018   5.680
 9038SOL    HW228014   3.659   6.046   5.614
 9039SOL     OW28015   2.455   4.989   0.414
 9039SOL    HW128016   2.410   4.956   0.331
 9039SOL    HW228017   2.424   4.935   0.492
 9040SOL     OW28018   3.540   1.629   2.467
 9040SOL    HW128019   3.581   1.696   2.405
 9040SOL    HW228020   3.440   1.638   2.465
 9041SOL     OW28021   2.280   2.843   5.234
 9041SOL    HW128022   2.326   2.850   5.323
 9041SOL    HW228023   2.309   2.918   5.176
 9042SOL     OW28024   1.590   4.961   2.713
 9042SOL    HW128025   1.620   4.887   2.773
 9042SOL    HW228026   1.596   5.048   2.761
 9043SOL     OW28027   0.103   1.793   0.125
 9043SOL    HW128028   0.027   1.738   0.158
 9043SOL    HW228029   0.189   1.743   0.137
 9044SOL     OW28030   0.765   4.228   1.066
 9044SOL    HW128031   0.749   4.174   1.148
 9044SOL    HW228032   0.861   4.218   1.037
 9045SOL     OW28033   1.790   4.689   4.595
 9045SOL    HW128034   1.869   4.648   4.640
 9045SOL    HW228035   1.714   4.695   4.661
 9046SOL     OW28036   3.984   4.198   5.909
 9046SOL    HW128037   3.934   4.186   5.823
 9046SOL    HW228038   3.931   4.257   5.970
 9047SOL     OW28039   0.880   5.146   3.967
 9047SOL    HW128040   0.802   5.200   3.998
 9047SOL    HW228041   0.931   5.111   4.046
 9048SOL     OW28042   1.058   1.918   5.873
 9048SOL    HW128043   1.105   2.005   5.890
 9048SOL    HW228044   0.960   1.935   5.863
 9049SOL     OW28045   4.136   5.534   5.806
 9049SOL    HW128046   4.056   5.585   5.776
 9049SOL    HW228047   4.215   5.594   5.808
 9050SOL     OW28048   0.152   3.648   6.790
 9050SOL    HW128049   0.230   3.626   6.848
 9050SOL    HW228050   0.115   3.738   6.816
 9051SOL     OW28051   0.356   5.622   6.108
 9051SOL    HW128052   0.416   5.565   6.052
 9051SOL    HW228053   0.407   5.701   6.142
 9052SOL     OW28054   2.167   5.037   4.633
 9052SOL    HW128055   2.252   5.005   4.677
 9052SOL    HW228056   2.176   5.134   4.610
 9053SOL     OW28057   1.189   0.064   2.686
 9053SOL    HW128058   1.191   6.993   2.646
 9053SOL    HW228059   1.154   0.129   2.619
 9054SOL     OW28060   1.420   6.809   2.110
 9054SOL    HW128061   1.412   6.878   2.038
 9054SOL    HW228062   1.454   6.724   2.070
 9055SOL     OW28063   1.493   2.788   5.406
 9055SOL    HW128064   1.491   2.888   5.409
 9055SOL    HW228065   1.570   2.757   5.351
 9056SOL     OW28066   5.275   2.319   1.687
 9056SOL    HW128067   5.300   2.404   1.642
 9056SOL    HW228068   5.177   2.320   1.707
 9057SOL     OW28069   3.720   6.832   5.884
 9057SOL    HW128070   3.737   6.905   5.818
 9057SOL    HW228071   3.747   6.863   5.975
 9058SOL     OW28072   2.185   3.010   3.999
 9058SOL    HW128073   2.154   2.988   3.907
 9058SOL    HW228074   2.260   2.948   4.025
 9059SOL     OW28075   0.408   0.686   2.409
 9059SOL    HW128076   0.325   0.669   2.462
 9059SOL    HW228077   0.485   0.701   2.472
 9060SOL     OW28078   0.403   5.095   7.013
 9060SOL    HW128079   0.472   5.104   0.063
 9060SOL    HW228080   0.439   5.042   6.937
 9061SOL     OW28081   3.571   4.886   2.564
 9061SOL    HW128082   3.660   4.881   2.519
 9061SOL    HW228083   3.498   4.875   2.497
 9062SOL     OW28084   0.155   6.320   2.741
 9062SOL    HW128085   0.203   6.368   2.815
 9062SOL    HW228086   0.204   6.334   2.655
 9063SOL     OW28087   6.299   6.370   1.014
 9063SOL    HW128088   6.231   6.322   1.069
 9063SOL    HW228089   6.262   6.389   0.923
 9064SOL     OW28090   1.265   5.773   2.992
 9064SOL    HW128091   1.329   5.761   3.069
 9064SOL    HW228092   1.207   5.853   3.010
 9065SOL     OW28093   3.384   4.122   6.763
 9065SOL    HW128094   3.379   4.126   6.862
 9065SOL    HW228095   3.389   4.215   6.726
 9066SOL     OW28096   5.504   5.084   3.156
 9066SOL    HW128097   5.582   5.145   3.143
 9066SOL    HW228098   5.424   5.123   3.111
 9067SOL     OW28099   1.765   0.183   3.855
 9067SOL    HW128100   1.753   0.084   3.851
 9067SOL    HW228101   1.676   0.227   3.840
 9068SOL     OW28102   5.743   0.505   5.186
 9068SOL    HW128103   5.733   0.411   5.154
 9068SOL    HW228104   5.723   0.568   5.111
 9069SOL     OW28105   4.338   2.348   1.536
 9069SOL    HW128106   4.330   2.255   1.500
 9069SOL    HW228107   4.423   2.390   1.503
 9070SOL     OW28108   0.983   1.022   6.539
 9070SOL    HW128109   0.918   0.969   6.592
 9070SOL    HW228110   0.972   1.119   6.560
 9071SOL     OW28111   5.908   2.756   0.172
 9071SOL    HW128112   5.905   2.842   0.121
 9071SOL    HW228113   5.837   2.694   0.137
 9072SOL     OW28114   6.063   0.969   1.976
 9072SOL    HW128115   6.127   1.025   2.029
 9072SOL    HW228116   6.061   1.003   1.881
 9073SOL     OW28117   4.905   2.455   6.105
 9073SOL    HW128118   4.818   2.436   6.150
 9073SOL    HW228119   4.963   2.374   6.107
 9074SOL     OW28120   2.018   0.477   3.235
 9074SOL    HW128121   1.925   0.507   3.215
 9074SOL    HW228122   2.016   0.383   3.269
 9075SOL     OW28123   5.006   5.732   1.235
 9075SOL    HW128124   5.009   5.702   1.139
 9075SOL    HW228125   5.099   5.747   1.268
 9076SOL     OW28126   1.016   6.642   2.670
 9076SOL    HW128127   0.938   6.704   2.663
 9076SOL    HW228128   0.992   6.565   2.729
 9077SOL     OW28129   6.464   1.068   6.540
 9077SOL    HW128130   6.386   1.009   6.522
 9077SOL    HW228131   6.548   1.024   6.508
 9078SOL     OW28132   5.296   6.595   6.670
 9078SOL    HW128133   5.378   6.598   6.728
 9078SOL    HW228134   5.260   6.688   6.659
 9079SOL     OW28135   2.538   1.659   6.488
 9079SOL    HW128136   2.595   1.662   6.406
 9079SOL    HW228137   2.460   1.720   6.477
 9080SOL     OW28138   6.589   4.951   0.379
 9080SOL    HW128139   6.570   4.912   0.469
 9080SOL    HW228140   6.516   4.926   0.315
 9081SOL     OW28141   4.739   1.375   6.398
 9081SOL    HW128142   4.679   1.295   6.398
 9081SOL    HW228143   4.784   1.382   6.309
 9082SOL     OW28144   3.009   4.447   6.619
 9082SOL    HW128145   3.009   4.347   6.625
 9082SOL    HW228146   2.994   4.474   6.524
 9083SOL     OW28147   3.854   0.353   1.084
 9083SOL    HW128148   3.922   0.411   1.040
 9083SOL    HW228149   3.868   0.258   1.055
 9084SOL     OW28150   6.830   4.499   4.902
 9084SOL    HW128151   6.858   4.561   4.829
 9084SOL    HW228152   6.754   4.539   4.953
 9085SOL     OW28153   3.297   4.771   1.795
 9085SOL    HW128154   3.392   4.743   1.810
 9085SOL    HW228155   3.241   4.689   1.780
 9086SOL     OW28156   6.962   1.415   0.393
 9086SOL    HW128157   6.925   1.376   0.477
 9086SOL    HW228158   0.040   1.400   0.390
 9087SOL     OW28159   5.054   1.314   0.257
 9087SOL    HW128160   5.048   1.390   0.322
 9087SOL    HW228161   5.147   1.309   0.220
 9088SOL     OW28162   5.097   6.577   0.525
 9088SOL    HW128163   5.055   6.620   0.605
 9088SOL    HW228164   5.196   6.572   0.538
 9089SOL     OW28165   4.799   5.584   3.131
 9089SOL    HW128166   4.751   5.657   3.180
 9089SOL    HW228167   4.880   5.622   3.086
 9090SOL     OW28168   6.592   4.978   4.896
 9090SOL    HW128169   6.548   4.913   4.959
 9090SOL    HW228170   6.538   4.985   4.812
 9091SOL     OW28171   1.945   2.045   1.836
 9091SOL    HW128172   1.973   2.115   1.902
 9091SOL    HW228173   2.014   2.040   1.763
 9092SOL     OW28174   3.226   1.761   5.463
 9092SOL    HW128175   3.247   1.681   5.408
 9092SOL    HW228176   3.201   1.838   5.404
 9093SOL     OW28177   1.654   4.006   0.644
 9093SOL    HW128178   1.652   4.041   0.738
 9093SOL    HW228179   1.641   3.907   0.645
 9094SOL     OW28180   0.271   2.519   6.450
 9094SOL    HW128181   0.339   2.593   6.453
 9094SOL    HW228182   0.180   2.559   6.444
 9095SOL     OW28183   2.636   2.303   0.614
 9095SOL    HW128184   2.674   2.226   0.563
 9095SOL    HW228185   2.575   2.355   0.553
 9096SOL     OW28186   0.001   3.981   2.634
 9096SOL    HW128187   6.980   3.911   2.692
 9096SOL    HW228188   0.061   4.038   2.690
 9097SOL     OW28189   6.642   6.008   5.846
 9097SOL    HW128190   6.643   5.954   5.762
 9097SOL    HW228191   6.735   6.015   5.883
 9098SOL     OW28192   3.682   3.550   5.442
 9098SOL    HW128193   3.748   3.521   5.511
 9098SOL    HW228194   3.620   3.474   5.421
 9099SOL     OW28195   2.325   2.334   6.448
 9099SOL    HW128196   2.243   2.362   6.399
 9099SOL    HW228197   2.404   2.383   6.411
 9100SOL     OW28198   1.498   2.379   0.970
 9100SOL    HW128199   1.584   2.418   1.004
 9100SOL    HW228200   1.513   2.285   0.940
 9101SOL     OW28201   2.814   2.314   0.266
 9101SOL    HW128202   2.853   2.230   0.305
 9101SOL    HW228203   2.727   2.293   0.221
 9102SOL     OW28204   4.576   5.909   2.465
 9102SOL    HW128205   4.622   5.821   2.460
 9102SOL    HW228206   4.598   5.954   2.552
 9103SOL     OW28207   1.798   4.255   6.343
 9103SOL    HW128208   1.892   4.221   6.344
 9103SOL    HW228209   1.797   4.350   6.311
 9104SOL     OW28210   4.342   6.575   3.406
 9104SOL    HW128211   4.275   6.518   3.358
 9104SOL    HW228212   4.295   6.634   3.471
 9105SOL     OW28213   3.205   2.237   6.023
 9105SOL    HW128214   3.276   2.172   5.994
 9105SOL    HW228215   3.198   2.311   5.956
 9106SOL     OW28216   6.800   5.442   1.210
 9106SOL    HW128217   6.769   5.357   1.251
 9106SOL    HW228218   6.900   5.448   1.217
 9107SOL     OW28219   4.503   6.684   6.686
 9107SOL    HW128220   4.531   6.779   6.672
 9107SOL    HW228221   4.559   6.624   6.629
 9108SOL     OW28222   3.533   5.728   0.894
 9108SOL    HW128223   3.443   5.695   0.869
 9108SOL    HW228224   3.592   5.731   0.813
 9109SOL     OW28225   3.307   1.630   4.635
 9109SOL    HW128226   3.288   1.543   4.680
 9109SOL    HW228227   3.294   1.705   4.699
 9110SOL     OW28228   0.028   4.273   3.605
 9110SOL    HW128229   6.996   4.286   3.522
 9110SOL    HW228230   7.004   4.321   3.681
 9111SOL     OW28231   3.495   4.202   1.636
 9111SOL    HW128232   3.575   4.168   1.686
 9111SOL    HW228233   3.482   4.299   1.656
 9112SOL     OW28234   1.159   6.718   2.188
 9112SOL    HW128235   1.103   6.792   2.225
 9112SOL    HW228236   1.254   6.749   2.181
 9113SOL     OW28237   2.450   6.213   0.804
 9113SOL    HW128238   2.370   6.233   0.860
 9113SOL    HW228239   2.429   6.230   0.708
 9114SOL     OW28240   2.985   3.806   1.633
 9114SOL    HW128241   3.050   3.807   1.557
 9114SOL    HW228242   3.018   3.867   1.706
 9115SOL     OW28243   1.341   4.585   4.012
 9115SOL    HW128244   1.413   4.538   3.962
 9115SOL    HW228245   1.252   4.548   3.984
 9116SOL     OW28246   3.480   2.349   6.703
 9116SOL    HW128247   3.485   2.323   6.606
 9116SOL    HW228248   3.406   2.415   6.716
 9117SOL     OW28249   0.962   2.441   6.949
 9117SOL    HW128250   1.052   2.458   6.907
 9117SOL    HW228251   0.893   2.434   6.877
 9118SOL     OW28252   0.742   6.694   1.593
 9118SOL    HW128253   0.736   6.793   1.607
 9118SOL    HW228254   0.801   6.654   1.664
 9119SOL     OW28255   5.780   0.089   0.783
 9119SOL    HW128256   5.736   0.177   0.766
 9119SOL    HW228257   5.863   0.104   0.837
 9120SOL     OW28258   6.166   0.331   6.962
 9120SOL    HW128259   6.116   0.280   0.011
 9120SOL    HW228260   6.258   0.292   6.952
 9121SOL     OW28261   1.722   0.988   6.229
 9121SOL    HW128262   1.680   1.028   6.148
 9121SOL    HW228263   1.660   1.001   6.307
 9122SOL     OW28264   0.484   3.426   1.361
 9122SOL    HW128265   0.432   3.357   1.412
 9122SOL    HW228266   0.580   3.400   1.360
 9123SOL     OW28267   1.539   6.950   6.082
 9123SOL    HW128268   1.612   6.974   6.145
 9123SOL    HW228269   1.532   6.851   6.075
 9124SOL     OW28270   0.281   3.974   4.803
 9124SOL    HW128271   0.223   4.001   4.880
 9124SOL    HW228272   0.317   3.882   4.817
 9125SOL     OW28273   4.952   6.157   1.301
 9125SOL    HW128274   5.045   6.163   1.265
 9125SOL    HW228275   4.917   6.249   1.317
 9126SOL     OW28276   5.446   0.668   3.465
 9126SOL    HW128277   5.362   0.697   3.511
 9126SOL    HW228278   5.476   0.580   3.503
 9127SOL     OW28279   6.171   5.003   6.038
 9127SOL    HW128280   6.188   5.059   5.957
 9127SOL    HW228281   6.241   5.022   6.107
 9128SOL     OW28282   4.653   2.756   5.194
 9128SOL    HW128283   4.601   2.672   5.207
 9128SOL    HW228284   4.671   2.799   5.283
 9129SOL     OW28285   3.110   1.074   0.698
 9129SOL    HW128286   3.122   1.140   0.625
 9129SOL    HW228287   3.012   1.056   0.712
 9130SOL     OW28288   5.796   5.518   1.134
 9130SOL    HW128289   5.725   5.493   1.199
 9130SOL    HW228290   5.755   5.537   1.045
 9131SOL     OW28291   0.785   5.192   3.570
 9131SOL    HW128292   0.696   5.151   3.590
 9131SOL    HW228293   0.850   5.169   3.642
 9132SOL     OW28294   1.337   2.940   4.252
 9132SOL    HW128295   1.273   2.891   4.193
 9132SOL    HW228296   1.384   2.874   4.311
 9133SOL     OW28297   1.339   5.221   1.003
 9133SOL    HW128298   1.245   5.192   1.021
 9133SOL    HW228299   1.339   5.313   0.963
 9134SOL     OW28300   3.077   4.854   6.081
 9134SOL    HW128301   3.018   4.926   6.048
 9134SOL    HW228302   3.079   4.779   6.015
 9135SOL     OW28303   1.074   6.973   2.956
 9135SOL    HW128304   1.125   7.016   2.882
 9135SOL    HW228305   1.126   6.981   3.041
 9136SOL     OW28306   3.570   4.944   5.143
 9136SOL    HW128307   3.599   4.941   5.239
 9136SOL    HW228308   3.470   4.950   5.139
 9137SOL     OW28309   3.504   0.291   2.719
 9137SOL    HW128310   3.457   0.359   2.776
 9137SOL    HW228311   3.539   0.218   2.778
 9138SOL     OW28312   3.249   4.637   1.060
 9138SOL    HW128313   3.305   4.715   1.032
 9138SOL    HW228314   3.172   4.627   0.997
 9139SOL     OW28315   4.217   0.568   5.612
 9139SOL    HW128316   4.135   0.622   5.595
 9139SOL    HW228317   4.241   0.574   5.709
 9140SOL     OW28318   6.473   2.267   3.572
 9140SOL    HW128319   6.547   2.227   3.517
 9140SOL    HW228320   6.467   2.220   3.660
 9141SOL     OW28321   5.112   1.095   5.231
 9141SOL    HW128322   5.180   1.040   5.183
 9141SOL    HW228323   5.025   1.046   5.234
 9142SOL     OW28324   2.259   3.096   6.978
 9142SOL    HW128325   2.177   3.144   7.011
 9142SOL    HW228326   2.281   3.127   6.886
 9143SOL     OW28327   6.692   4.177   0.459
 9143SOL    HW128328   6.750   4.125   0.522
 9143SOL    HW228329   6.729   4.170   0.367
 9144SOL     OW28330   1.118   5.765   4.077
 9144SOL    HW128331   1.105   5.720   4.165
 9144SOL    HW228332   1.037   5.750   4.019
 9145SOL     OW28333   1.934   2.918   6.885
 9145SOL    HW128334   1.973   2.900   6.976
 9145SOL    HW228335   1.931   3.016   6.869
 9146SOL     OW28336   1.087   2.225   1.685
 9146SOL    HW128337   0.990   2.215   1.704
 9146SOL    HW228338   1.121   2.308   1.728
 9147SOL     OW28339   3.856   5.390   6.350
 9147SOL    HW128340   3.923   5.330   6.394
 9147SOL    HW228341   3.766   5.347   6.351
 9148SOL     OW28342   3.458   4.905   2.830
 9148SOL    HW128343   3.383   4.962   2.797
 9148SOL    HW228344   3.495   4.852   2.754
 9149SOL     OW28345   6.127   3.354   5.340
 9149SOL    HW128346   6.173   3.265   5.345
 9149SOL    HW228347   6.172   3.411   5.272
 9150SOL     OW28348   3.812   1.382   2.713
 9150SOL    HW128349   3.827   1.327   2.795
 9150SOL    HW228350   3.748   1.335   2.652
 9151SOL     OW28351   6.069   2.791   2.035
 9151SOL    HW128352   6.100   2.868   1.979
 9151SOL    HW228353   5.974   2.768   2.010
 9152SOL     OW28354   2.099   4.768   2.462
 9152SOL    HW128355   2.057   4.723   2.540
 9152SOL    HW228356   2.108   4.866   2.481
 9153SOL     OW28357   2.329   2.660   0.529
 9153SOL    HW128358   2.363   2.728   0.594
 9153SOL    HW228359   2.291   2.707   0.449
 9154SOL     OW28360   0.975   4.947   0.525
 9154SOL    HW128361   1.000   5.033   0.569
 9154SOL    HW228362   1.023   4.872   0.570
 9155SOL     OW28363   1.833   4.906   0.055
 9155SOL    HW128364   1.791   4.981   0.106
 9155SOL    HW228365   1.763   4.859   0.001
 9156SOL     OW28366   4.934   2.590   1.947
 9156SOL    HW128367   4.856   2.644   1.977
 9156SOL    HW228368   5.016   2.646   1.948
 9157SOL     OW28369   5.487   3.666   5.502
 9157SOL    HW128370   5.449   3.693   5.413
 9157SOL    HW228371   5.462   3.735   5.570
 9158SOL     OW28372   0.654   4.362   3.713
 9158SOL    HW128373   0.564   4.321   3.703
 9158SOL    HW228374   0.704   4.356   3.626
 9159SOL     OW28375   0.075   5.695   1.525
 9159SOL    HW128376   0.132   5.760   1.474
 9159SOL    HW228377   0.081   5.715   1.622
 9160SOL     OW28378   1.033   6.573   0.961
 9160SOL    HW128379   1.099   6.618   1.021
 9160SOL    HW228380   1.048   6.602   0.866
 9161SOL     OW28381   5.336   3.352   2.162
 9161SOL    HW128382   5.298   3.314   2.246
 9161SOL    HW228383   5.305   3.447   2.151
 9162SOL     OW28384   5.665   2.573   3.638
 9162SOL    HW128385   5.652   2.503   3.568
 9162SOL    HW228386   5.757   2.565   3.677
 9163SOL     OW28387   3.619   0.549   4.910
 9163SOL    HW128388   3.628   0.538   4.811
 9163SOL    HW228389   3.686   0.616   4.943
 9164SOL     OW28390   2.851   0.935   0.937
 9164SOL    HW128391   2.928   0.893   0.984
 9164SOL    HW228392   2.766   0.889   0.963
 9165SOL     OW28393   5.241   6.019   1.055
 9165SOL    HW128394   5.214   6.083   1.128
 9165SOL    HW228395   5.241   5.926   1.091
 9166SOL     OW28396   3.208   4.938   1.244
 9166SOL    HW128397   3.245   4.857   1.290
 9166SOL    HW228398   3.177   5.004   1.313
 9167SOL     OW28399   0.355   3.722   4.723
 9167SOL    HW128400   0.323   3.765   4.639
 9167SOL    HW228401   0.454   3.733   4.730
 9168SOL     OW28402   4.230   0.715   0.527
 9168SOL    HW128403   4.249   0.620   0.555
 9168SOL    HW228404   4.152   0.749   0.578
 9169SOL     OW28405   0.602   6.833   3.678
 9169SOL    HW128406   0.573   6.884   3.759
 9169SOL    HW228407   0.633   6.742   3.706
 9170SOL     OW28408   6.327   5.811   0.043
 9170SOL    HW128409   6.388   5.888   0.063
 9170SOL    HW228410   6.240   5.846   0.010
 9171SOL     OW28411   4.166   5.680   4.514
 9171SOL    HW128412   4.072   5.713   4.518
 9171SOL    HW228413   4.169   5.593   4.466
 9172SOL     OW28414   2.213   1.996   4.136
 9172SOL    HW128415   2.272   2.051   4.077
 9172SOL    HW228416   2.131   2.048   4.158
 9173SOL     OW28417   6.991   5.059   5.209
 9173SOL    HW128418   6.943   5.023   5.129
 9173SOL    HW228419   0.018   4.985   5.256
 9174SOL     OW28420   0.121   5.491   6.154
 9174SOL    HW128421   0.202   5.544   6.126
 9174SOL    HW228422   0.040   5.531   6.112
 9175SOL     OW28423   2.068   6.227   6.320
 9175SOL    HW128424   2.140   6.241   6.253
 9175SOL    HW228425   2.084   6.142   6.369
 9176SOL     OW28426   1.445   2.608   5.969
 9176SOL    HW128427   1.544   2.592   5.964
 9176SOL    HW228428   1.399   2.552   5.900
 9177SOL     OW28429   1.713   3.999   2.984
 9177SOL    HW128430   1.658   3.916   2.994
 9177SOL    HW228431   1.714   4.027   2.888
 9178SOL     OW28432   1.725   4.174   0.185
 9178SOL    HW128433   1.690   4.267   0.172
 9178SOL    HW228434   1.761   4.164   0.278
 9179SOL     OW28435   3.052   4.387   5.339
 9179SOL    HW128436   3.106   4.448   5.396
 9179SOL    HW228437   3.006   4.441   5.268
 9180SOL     OW28438   4.975   1.245   1.998
 9180SOL    HW128439   5.036   1.240   2.077
 9180SOL    HW228440   5.028   1.251   1.914
 9181SOL     OW28441   3.607   1.264   2.565
 9181SOL    HW128442   3.639   1.177   2.602
 9181SOL    HW228443   3.532   1.248   2.501
 9182SOL     OW28444   2.366   6.946   1.300
 9182SOL    HW128445   2.371   6.907   1.208
 9182SOL    HW228446   2.408   0.015   1.301
 9183SOL     OW28447   5.310   4.810   5.667
 9183SOL    HW128448   5.349   4.798   5.575
 9183SOL    HW228449   5.212   4.831   5.659
 9184SOL     OW28450   4.823   0.053   0.279
 9184SOL    HW128451   4.733   0.042   0.237
 9184SOL    HW228452   4.882   0.107   0.218
 9185SOL     OW28453   5.318   1.269   4.849
 9185SOL    HW128454   5.331   1.324   4.766
 9185SOL    HW228455   5.233   1.296   4.894
 9186SOL     OW28456   4.783   0.867   6.097
 9186SOL    HW128457   4.799   0.773   6.067
 9186SOL    HW228458   4.867   0.920   6.087
 9187SOL     OW28459   2.110   6.333   3.212
 9187SOL    HW128460   2.080   6.267   3.282
 9187SOL    HW228461   2.208   6.350   3.223
 9188SOL     OW28462   3.105   5.138   0.802
 9188SOL    HW128463   3.011   5.173   0.792
 9188SOL    HW228464   3.104   5.058   0.862
 9189SOL     OW28465   5.295   4.570   2.046
 9189SOL    HW128466   5.250   4.482   2.030
 9189SOL    HW228467   5.230   4.644   2.030
 9190SOL     OW28468   1.413   5.985   6.696
 9190SOL    HW128469   1.382   5.975   6.602
 9190SOL    HW228470   1.373   6.067   6.736
 9191SOL     OW28471   6.601   0.766   6.325
 9191SOL    HW128472   6.556   0.677   6.316
 9191SOL    HW228473   6.686   0.766   6.272
 9192SOL     OW28474   1.067   3.621   5.011
 9192SOL    HW128475   1.142   3.582   4.958
 9192SOL    HW228476   1.096   3.634   5.106
 9193SOL     OW28477   4.114   4.095   0.614
 9193SOL    HW128478   4.025   4.049   0.617
 9193SOL    HW228479   4.179   4.045   0.670
 9194SOL     OW28480   2.970   0.665   4.504
 9194SOL    HW128481   2.916   0.735   4.550
 9194SOL    HW228482   3.016   0.705   4.425
 9195SOL     OW28483   1.818   1.283   3.761
 9195SOL    HW128484   1.902   1.257   3.712
 9195SOL    HW228485   1.830   1.264   3.859
 9196SOL     OW28486   4.936   1.116   5.841
 9196SOL    HW128487   4.980   1.089   5.927
 9196SOL    HW228488   5.004   1.151   5.778
 9197SOL     OW28489   2.722   3.934   0.546
 9197SOL    HW128490   2.804   3.937   0.489
 9197SOL    HW228491   2.675   3.847   0.533
 9198SOL     OW28492   1.057   4.192   5.097
 9198SOL    HW128493   0.981   4.209   5.160
 9198SOL    HW228494   1.122   4.129   5.140
 9199SOL     OW28495   6.433   4.779   5.062
 9199SOL    HW128496   6.474   4.853   5.116
 9199SOL    HW228497   6.363   4.733   5.117
 9200SOL     OW28498   3.299   6.728   0.406
 9200SOL    HW128499   3.225   6.795   0.411
 9200SOL    HW228500   3.336   6.726   0.313
 9201SOL     OW28501   2.178   4.580   0.902
 9201SOL    HW128502   2.127   4.559   0.985
 9201SOL    HW228503   2.137   4.659   0.856
 9202SOL     OW28504   2.746   1.013   3.722
 9202SOL    HW128505   2.753   1.070   3.641
 9202SOL    HW228506   2.667   1.041   3.777
 9203SOL     OW28507   0.065   6.216   1.134
 9203SOL    HW128508   0.136   6.285   1.147
 9203SOL    HW228509   0.009   6.209   1.216
 9204SOL     OW28510   5.864   0.532   5.435
 9204SOL    HW128511   5.823   0.559   5.348
 9204SOL    HW228512   5.885   0.613   5.488
 9205SOL     OW28513   7.020   5.147   2.526
 9205SOL    HW128514   0.087   5.183   2.494
 9205SOL    HW228515   6.946   5.181   2.468
 9206SOL     OW28516   4.048   0.347   0.325
 9206SOL    HW128517   4.033   0.251   0.352
 9206SOL    HW228518   4.081   0.399   0.404
 9207SOL     OW28519   5.416   5.633   6.086
 9207SOL    HW128520   5.481   5.631   6.162
 9207SOL    HW228521   5.397   5.728   6.061
 9208SOL     OW28522   1.170   3.531   2.233
 9208SOL    HW128523   1.112   3.579   2.166
 9208SOL    HW228524   1.175   3.434   2.208
 9209SOL     OW28525   2.467   6.027   6.678
 9209SOL    HW128526   2.483   6.091   6.603
 9209SOL    HW228527   2.480   6.074   6.766
 9210SOL     OW28528   6.559   0.198   4.490
 9210SOL    HW128529   6.614   0.183   4.407
 9210SOL    HW228530   6.553   0.296   4.508
 9211SOL     OW28531   0.912   1.434   2.985
 9211SOL    HW128532   0.883   1.374   3.059
 9211SOL    HW228533   0.998   1.478   3.010
 9212SOL     OW28534   4.497   5.077   4.730
 9212SOL    HW128535   4.460   5.170   4.727
 9212SOL    HW228536   4.549   5.064   4.814
 9213SOL     OW28537   6.053   3.830   0.403
 9213SOL    HW128538   6.022   3.873   0.488
 9213SOL    HW228539   6.025   3.734   0.402
 9214SOL     OW28540   6.929   5.530   0.555
 9214SOL    HW128541   6.956   5.475   0.475
 9214SOL    HW228542   7.004   5.532   0.621
 9215SOL     OW28543   0.995   1.428   0.695
 9215SOL    HW128544   0.973   1.489   0.772
 9215SOL    HW228545   1.079   1.378   0.716
 9216SOL     OW28546   1.729   6.930   4.123
 9216SOL    HW128547   1.640   6.926   4.078
 9216SOL    HW228548   1.730   6.869   4.202
 9217SOL     OW28549   0.547   2.069   0.946
 9217SOL    HW128550   0.642   2.044   0.966
 9217SOL    HW228551   0.541   2.104   0.853
 9218SOL     OW28552   2.419   1.068   1.304
 9218SOL    HW128553   2.507   1.082   1.348
 9218SOL    HW228554   2.396   1.147   1.247
 9219SOL     OW28555   6.209   1.378   0.739
 9219SOL    HW128556   6.212   1.472   0.774
 9219SOL    HW228557   6.136   1.370   0.672
 9220SOL     OW28558   3.604   6.387   0.275
 9220SOL    HW128559   3.528   6.429   0.326
 9220SOL    HW228560   3.685   6.446   0.282
 9221SOL     OW28561   2.635   4.811   4.911
 9221SOL    HW128562   2.726   4.780   4.941
 9221SOL    HW228563   2.565   4.754   4.953
 9222SOL     OW28564   3.234   2.301   0.261
 9222SOL    HW128565   3.257   2.308   0.164
 9222SOL    HW228566   3.194   2.387   0.292
 9223SOL     OW28567   2.762   3.119   5.331
 9223SOL    HW128568   2.831   3.059   5.292
 9223SOL    HW228569   2.675   3.105   5.285
 9224SOL     OW28570   2.222   4.632   5.167
 9224SOL    HW128571   2.239   4.538   5.196
 9224SOL    HW228572   2.241   4.640   5.069
 9225SOL     OW28573   1.614   6.380   6.521
 9225SOL    HW128574   1.593   6.438   6.442
 9225SOL    HW228575   1.528   6.355   6.567
 9226SOL     OW28576   4.773   6.197   0.960
 9226SOL    HW128577   4.823   6.116   0.932
 9226SOL    HW228578   4.735   6.184   1.051
 9227SOL     OW28579   1.273   6.184   1.661
 9227SOL    HW128580   1.263   6.221   1.753
 9227SOL    HW228581   1.262   6.085   1.663
 9228SOL     OW28582   0.712   6.122   6.316
 9228SOL    HW128583   0.697   6.102   6.219
 9228SOL    HW228584   0.659   6.060   6.372
 9229SOL     OW28585   0.893   6.119   4.973
 9229SOL    HW128586   0.948   6.125   4.890
 9229SOL    HW228587   0.855   6.027   4.982
 9230SOL     OW28588   4.828   1.457   3.239
 9230SOL    HW128589   4.834   1.421   3.146
 9230SOL    HW228590   4.845   1.556   3.238
 9231SOL     OW28591   2.141   3.001   3.448
 9231SOL    HW128592   2.214   2.936   3.469
 9231SOL    HW228593   2.167   3.092   3.481
 9232SOL     OW28594   4.070   5.353   1.244
 9232SOL    HW128595   4.081   5.412   1.324
 9232SOL    HW228596   4.031   5.406   1.169
 9233SOL     OW28597   6.150   4.184   0.344
 9233SOL    HW128598   6.111   4.276   0.337
 9233SOL    HW228599   6.192   4.173   0.434
 9234SOL     OW28600   1.561   5.816   3.791
 9234SOL    HW128601   1.598   5.723   3.786
 9234SOL    HW228602   1.607   5.874   3.725
 9235SOL     OW28603   1.223   2.955   3.400
 9235SOL    HW128604   1.252   2.952   3.304
 9235SOL    HW228605   1.161   3.031   3.414
 9236SOL     OW28606   3.471   2.737   6.445
 9236SOL    HW128607   3.378   2.742   6.408
 9236SOL    HW228608   3.475   2.786   6.532
 9237SOL     OW28609   1.696   3.730   2.837
 9237SOL    HW128610   1.677   3.794   2.763
 9237SOL    HW228611   1.685   3.636   2.803
 9238SOL     OW28612   4.430   3.849   6.783
 9238SOL    HW128613   4.361   3.887   6.722
 9238SOL    HW228614   4.444   3.911   6.861
 9239SOL     OW28615   2.259   3.216   6.355
 9239SOL    HW128616   2.303   3.296   6.396
 9239SOL    HW228617   2.211   3.243   6.272
 9240SOL     OW28618   4.516   0.845   2.297
 9240SOL    HW128619   4.564   0.932   2.306
 9240SOL    HW228620   4.534   0.788   2.377
 9241SOL     OW28621   0.595   5.594   5.078
 9241SOL    HW128622   0.669   5.558   5.134
 9241SOL    HW228623   0.544   5.662   5.131
 9242SOL     OW28624   4.985   6.916   1.922
 9242SOL    HW128625   4.897   6.934   1.880
 9242SOL    HW228626   4.972   6.861   2.005
 9243SOL     OW28627   5.425   0.033   5.014
 9243SOL    HW128628   5.506   0.018   4.958
 9243SOL    HW228629   5.343   0.020   4.958
 9244SOL     OW28630   3.740   6.492   0.669
 9244SOL    HW128631   3.698   6.402   0.675
 9244SOL    HW228632   3.790   6.500   0.583
 9245SOL     OW28633   0.382   6.808   1.575
 9245SOL    HW128634   0.347   6.765   1.658
 9245SOL    HW228635   0.307   6.820   1.510
 9246SOL     OW28636   6.315   5.310   3.827
 9246SOL    HW128637   6.384   5.378   3.801
 9246SOL    HW228638   6.287   5.326   3.922
 9247SOL     OW28639   0.993   0.745   2.794
 9247SOL    HW128640   1.010   0.651   2.823
 9247SOL    HW228641   1.057   0.769   2.721
 9248SOL     OW28642   4.490   1.590   6.236
 9248SOL    HW128643   4.436   1.506   6.239
 9248SOL    HW228644   4.431   1.666   6.209
 9249SOL     OW28645   3.972   6.343   4.054
 9249SOL    HW128646   3.948   6.400   3.975
 9249SOL    HW228647   3.998   6.252   4.023
 9250SOL     OW28648   4.792   3.890   3.182
 9250SOL    HW128649   4.774   3.814   3.119
 9250SOL    HW228650   4.888   3.887   3.211
 9251SOL     OW28651   4.025   1.978   2.203
 9251SOL    HW128652   4.051   2.003   2.110
 9251SOL    HW228653   3.970   2.051   2.243
 9252SOL     OW28654   1.316   6.871   4.578
 9252SOL    HW128655   1.325   6.829   4.669
 9252SOL    HW228656   1.373   6.953   4.574
 9253SOL     OW28657   1.271   0.040   6.341
 9253SOL    HW128658   1.296   7.004   6.263
 9253SOL    HW228659   1.229   0.125   6.309
 9254SOL     OW28660   4.658   2.446   0.746
 9254SOL    HW128661   4.681   2.543   0.760
 9254SOL    HW228662   4.727   2.405   0.687
 9255SOL     OW28663   0.055   5.141   0.337
 9255SOL    HW128664   0.071   5.104   0.246
 9255SOL    HW228665   0.022   5.068   0.397
 9256SOL     OW28666   4.139   5.359   2.654
 9256SOL    HW128667   4.148   5.421   2.732
 9256SOL    HW228668   4.149   5.265   2.686
 9257SOL     OW28669   0.602   3.555   0.676
 9257SOL    HW128670   0.577   3.611   0.597
 9257SOL    HW228671   0.582   3.459   0.657
 9258SOL     OW28672   3.143   3.062   4.659
 9258SOL    HW128673   3.192   3.133   4.709
 9258SOL    HW228674   3.080   3.015   4.721
 9259SOL     OW28675   1.953   2.147   0.552
 9259SOL    HW128676   1.949   2.125   0.455
 9259SOL    HW228677   1.896   2.226   0.571
 9260SOL     OW28678   6.696   3.607   0.244
 9260SOL    HW128679   6.627   3.538   0.224
 9260SOL    HW228680   6.774   3.564   0.291
 9261SOL     OW28681   2.477   6.623   5.873
 9261SOL    HW128682   2.531   6.569   5.937
 9261SOL    HW228683   2.518   6.714   5.864
 9262SOL     OW28684   6.359   0.081   6.679
 9262SOL    HW128685   6.404   7.017   6.652
 9262SOL    HW228686   6.263   0.061   6.702
 9263SOL     OW28687   5.555   3.695   2.810
 9263SOL    HW128688   5.600   3.705   2.899
 9263SOL    HW228689   5.466   3.740   2.813
 9264SOL     OW28690   5.587   2.207   0.316
 9264SOL    HW128691   5.641   2.183   0.236
 9264SOL    HW228692   5.517   2.138   0.332
 9265SOL     OW28693   1.698   1.602   5.303
 9265SOL    HW128694   1.627   1.657   5.347
 9265SOL    HW228695   1.741   1.654   5.230
 9266SOL     OW28696   3.072   6.750   2.660
 9266SOL    HW128697   3.125   6.730   2.578
 9266SOL    HW228698   3.013   6.672   2.682
 9267SOL     OW28699   2.552   4.952   5.893
 9267SOL    HW128700   2.485   4.909   5.832
 9267SOL    HW228701   2.532   5.050   5.899
 9268SOL     OW28702   1.104   1.229   3.024
 9268SOL    HW128703   1.134   1.141   2.985
 9268SOL    HW228704   1.053   1.211   3.109
 9269SOL     OW28705   4.007   1.605   5.202
 9269SOL    HW128706   3.994   1.563   5.291
 9269SOL    HW228707   4.087   1.564   5.158
 9270SOL     OW28708   2.179   0.418   5.441
 9270SOL    HW128709   2.250   0.463   5.495
 9270SOL    HW228710   2.116   0.370   5.501
 9271SOL     OW28711   0.410   5.367   5.242
 9271SOL    HW128712   0.394   5.323   5.331
 9271SOL    HW228713   0.324   5.373   5.192
 9272SOL     OW28714   2.309   5.388   6.613
 9272SOL    HW128715   2.380   5.362   6.679
 9272SOL    HW228716   2.283   5.308   6.559
 9273SOL     OW28717   3.405   5.393   6.118
 9273SOL    HW128718   3.474   5.434   6.059
 9273SOL    HW228719   3.371   5.462   6.183
 9274SOL     OW28720   4.983   1.623   1.780
 9274SOL    HW128721   4.962   1.651   1.874
 9274SOL    HW228722   4.907   1.650   1.721
 9275SOL     OW28723   6.721   0.440   6.058
 9275SOL    HW128724   6.627   0.473   6.064
 9275SOL    HW228725   6.732   0.361   6.120
 9276SOL     OW28726   4.755   0.204   4.315
 9276SOL    HW128727   4.788   0.228   4.406
 9276SOL    HW228728   4.832   0.173   4.259
 9277SOL     OW28729   5.106   2.415   6.686
 9277SOL    HW128730   5.155   2.489   6.642
 9277SOL    HW228731   5.023   2.451   6.730
 9278SOL     OW28732   1.389   2.840   1.297
 9278SOL    HW128733   1.332   2.766   1.261
 9278SOL    HW228734   1.374   2.849   1.395
 9279SOL     OW28735   2.223   0.075   0.394
 9279SOL    HW128736   2.226   7.016   0.454
 9279SOL    HW228737   2.144   0.132   0.418
 9280SOL     OW28738   1.855   0.623   2.199
 9280SOL    HW128739   1.814   0.650   2.286
 9280SOL    HW228740   1.893   0.704   2.154
 9281SOL     OW28741   2.058   2.494   0.110
 9281SOL    HW128742   2.054   2.480   0.209
 9281SOL    HW228743   2.153   2.487   0.079
 9282SOL     OW28744   3.997   1.076   6.326
 9282SOL    HW128745   3.900   1.069   6.346
 9282SOL    HW228746   4.013   1.155   6.267
 9283SOL     OW28747   5.756   2.572   3.123
 9283SOL    HW128748   5.671   2.526   3.098
 9283SOL    HW228749   5.768   2.568   3.222
 9284SOL     OW28750   3.941   3.869   1.715
 9284SOL    HW128751   3.953   3.866   1.814
 9284SOL    HW228752   4.025   3.839   1.670
 9285SOL     OW28753   6.300   2.578   6.679
 9285SOL    HW128754   6.209   2.615   6.700
 9285SOL    HW228755   6.294   2.479   6.668
 9286SOL     OW28756   5.775   5.550   4.192
 9286SOL    HW128757   5.782   5.613   4.115
 9286SOL    HW228758   5.787   5.456   4.160
 9287SOL     OW28759   3.349   0.015   2.570
 9287SOL    HW128760   3.414   0.090   2.581
 9287SOL    HW228761   3.260   0.052   2.544
 9288SOL     OW28762   4.422   2.194   6.647
 9288SOL    HW128763   4.493   2.263   6.636
 9288SOL    HW228764   4.459   2.104   6.622
 9289SOL     OW28765   5.321   3.606   3.121
 9289SOL    HW128766   5.229   3.645   3.131
 9289SOL    HW228767   5.389   3.673   3.149
 9290SOL     OW28768   4.243   2.206   4.300
 9290SOL    HW128769   4.161   2.232   4.250
 9290SOL    HW228770   4.249   2.106   4.306
 9291SOL     OW28771   1.123   2.992   4.913
 9291SOL    HW128772   1.217   3.001   4.879
 9291SOL    HW228773   1.121   2.923   4.985
 9292SOL     OW28774   0.946   4.068   0.064
 9292SOL    HW128775   0.910   3.992   0.011
 9292SOL    HW228776   0.870   4.117   0.108
 9293SOL     OW28777   5.401   3.674   6.506
 9293SOL    HW128778   5.442   3.731   6.578
 9293SOL    HW228779   5.462   3.671   6.427
 9294SOL     OW28780   5.562   5.893   6.626
 9294SOL    HW128781   5.560   5.802   6.585
 9294SOL    HW228782   5.648   5.939   6.602
 9295SOL     OW28783   4.756   2.941   3.285
 9295SOL    HW128784   4.833   3.004   3.287
 9295SOL    HW228785   4.727   2.922   3.379
 9296SOL     OW28786   5.976   0.553   4.939
 9296SOL    HW128787   6.044   0.520   5.005
 9296SOL    HW228788   5.904   0.484   4.928
 9297SOL     OW28789   0.331   0.240   1.777
 9297SOL    HW128790   0.316   0.167   1.844
 9297SOL    HW228791   0.369   0.321   1.823
 9298SOL     OW28792   0.465   6.522   4.532
 9298SOL    HW128793   0.369   6.512   4.509
 9298SOL    HW228794   0.495   6.443   4.585
 9299SOL     OW28795   1.716   2.394   4.673
 9299SOL    HW128796   1.646   2.466   4.670
 9299SOL    HW228797   1.776   2.409   4.752
 9300SOL     OW28798   5.861   4.648   3.773
 9300SOL    HW128799   5.778   4.632   3.720
 9300SOL    HW228800   5.941   4.634   3.715
 9301SOL     OW28801   6.756   5.241   1.548
 9301SOL    HW128802   6.761   5.332   1.588
 9301SOL    HW228803   6.734   5.175   1.620
 9302SOL     OW28804   1.455   2.187   2.255
 9302SOL    HW128805   1.532   2.139   2.295
 9302SOL    HW228806   1.369   2.145   2.285
 9303SOL     OW28807   4.966   4.173   0.502
 9303SOL    HW128808   4.939   4.118   0.580
 9303SOL    HW228809   4.904   4.156   0.425
 9304SOL     OW28810   4.918   3.944   0.688
 9304SOL    HW128811   4.992   3.882   0.715
 9304SOL    HW228812   4.830   3.900   0.702
 9305SOL     OW28813   4.514   4.260   1.598
 9305SOL    HW128814   4.602   4.306   1.604
 9305SOL    HW228815   4.474   4.254   1.689
 9306SOL     OW28816   7.002   5.840   3.020
 9306SOL    HW128817   6.957   5.918   2.976
 9306SOL    HW228818   0.079   5.843   3.002
 9307SOL     OW28819   2.248   0.715   6.154
 9307SOL    HW128820   2.338   0.745   6.187
 9307SOL    HW228821   2.195   0.679   6.231
 9308SOL     OW28822   0.430   2.385   0.595
 9308SOL    HW128823   0.355   2.320   0.583
 9308SOL    HW228824   0.434   2.445   0.515
 9309SOL     OW28825   4.919   2.947   6.713
 9309SOL    HW128826   4.862   3.012   6.663
 9309SOL    HW228827   4.928   2.863   6.659
 9310SOL     OW28828   3.755   6.838   1.167
 9310SOL    HW128829   3.771   6.756   1.222
 9310SOL    HW228830   3.819   6.910   1.196
 9311SOL     OW28831   0.198   3.332   1.260
 9311SOL    HW128832   0.262   3.322   1.336
 9311SOL    HW228833   0.123   3.268   1.271
 9312SOL     OW28834   1.795   4.194   4.621
 9312SOL    HW128835   1.795   4.094   4.631
 9312SOL    HW228836   1.701   4.227   4.623
 9313SOL     OW28837   6.496   0.536   2.949
 9313SOL    HW128838   6.577   0.502   2.996
 9313SOL    HW228839   6.416   0.482   2.977
 9314SOL     OW28840   0.086   3.746   0.267
 9314SOL    HW128841   0.075   3.790   0.356
 9314SOL    HW228842   0.102   3.648   0.280
 9315SOL     OW28843   0.581   5.513   5.985
 9315SOL    HW128844   0.588   5.413   5.981
 9315SOL    HW228845   0.662   5.550   6.030
 9316SOL     OW28846   2.938   5.034   4.473
 9316SOL    HW128847   2.888   4.956   4.435
 9316SOL    HW228848   2.922   5.038   4.572
 9317SOL     OW28849   4.228   3.917   5.669
 9317SOL    HW128850   4.130   3.903   5.655
 9317SOL    HW228851   4.278   3.888   5.587
 9318SOL     OW28852   6.937   6.761   6.116
 9318SOL    HW128853   6.985   6.694   6.172
 9318SOL    HW228854   6.973   6.759   6.023
 9319SOL     OW28855   6.010   3.843   4.402
 9319SOL    HW128856   6.069   3.851   4.322
 9319SOL    HW228857   6.065   3.821   4.483
 9320SOL     OW28858   4.192   3.115   5.561
 9320SOL    HW128859   4.115   3.052   5.568
 9320SOL    HW228860   4.165   3.204   5.597
 9321SOL     OW28861   5.222   0.067   4.554
 9321SOL    HW128862   5.298   0.128   4.577
 9321SOL    HW228863   5.204   0.071   4.455
 9322SOL     OW28864   1.155   6.050   1.229
 9322SOL    HW128865   1.205   6.000   1.157
 9322SOL    HW228866   1.071   6.002   1.251
 9323SOL     OW28867   0.808   1.030   5.906
 9323SOL    HW128868   0.732   1.071   5.957
 9323SOL    HW228869   0.871   0.987   5.970
 9324SOL     OW28870   1.152   5.311   6.951
 9324SOL    HW128871   1.124   5.397   6.908
 9324SOL    HW228872   1.252   5.310   6.961
 9325SOL     OW28873   0.759   2.665   6.960
 9325SOL    HW128874   0.698   2.645   6.883
 9325SOL    HW228875   0.776   2.581   7.012
 9326SOL     OW28876   2.206   5.942   1.737
 9326SOL    HW128877   2.147   5.971   1.812
 9326SOL    HW228878   2.301   5.946   1.766
 9327SOL     OW28879   1.829   1.964   4.682
 9327SOL    HW128880   1.848   2.017   4.599
 9327SOL    HW228881   1.765   1.891   4.661
 9328SOL     OW28882   2.126   1.363   1.943
 9328SOL    HW128883   2.183   1.436   1.904
 9328SOL    HW228884   2.036   1.400   1.965
 9329SOL     OW28885   1.167   3.833   1.445
 9329SOL    HW128886   1.230   3.909   1.430
 9329SOL    HW228887   1.135   3.798   1.357
 9330SOL     OW28888   5.259   6.250   6.697
 9330SOL    HW128889   5.204   6.287   6.622
 9330SOL    HW228890   5.354   6.279   6.686
 9331SOL     OW28891   1.085   1.153   0.481
 9331SOL    HW128892   1.045   1.108   0.560
 9331SOL    HW228893   1.163   1.209   0.510
 9332SOL     OW28894   3.621   4.110   5.202
 9332SOL    HW128895   3.627   4.141   5.107
 9332SOL    HW228896   3.584   4.183   5.259
 9333SOL     OW28897   5.430   6.579   1.213
 9333SOL    HW128898   5.474   6.580   1.123
 9333SOL    HW228899   5.343   6.627   1.208
 9334SOL     OW28900   2.305   6.673   4.856
 9334SOL    HW128901   2.208   6.651   4.871
 9334SOL    HW228902   2.361   6.620   4.920
 9335SOL     OW28903   0.602   1.829   2.457
 9335SOL    HW128904   0.605   1.757   2.526
 9335SOL    HW228905   0.561   1.793   2.373
 9336SOL     OW28906   3.075   0.092   5.117
 9336SOL    HW128907   3.009   0.163   5.143
 9336SOL    HW228908   3.149   0.089   5.184
 9337SOL     OW28909   4.533   6.395   3.288
 9337SOL    HW128910   4.613   6.405   3.347
 9337SOL    HW228911   4.470   6.471   3.304
 9338SOL     OW28912   2.266   6.625   2.267
 9338SOL    HW128913   2.316   6.585   2.343
 9338SOL    HW228914   2.180   6.665   2.300
 9339SOL     OW28915   3.581   5.418   1.759
 9339SOL    HW128916   3.666   5.470   1.754
 9339SOL    HW228917   3.519   5.448   1.686
 9340SOL     OW28918   6.750   2.712   7.021
 9340SOL    HW128919   6.794   2.636   0.047
 9340SOL    HW228920   6.734   2.686   6.925
 9341SOL     OW28921   0.783   4.235   5.997
 9341SOL    HW128922   0.835   4.157   6.031
 9341SOL    HW228923   0.808   4.317   6.049
 9342SOL     OW28924   1.520   0.486   6.970
 9342SOL    HW128925   1.481   0.541   6.896
 9342SOL    HW228926   1.571   0.545   0.011
 9343SOL     OW28927   6.385   6.121   3.178
 9343SOL    HW128928   6.294   6.116   3.220
 9343SOL    HW228929   6.421   6.213   3.188
 9344SOL     OW28930   5.027   6.211   0.689
 9344SOL    HW128931   4.979   6.294   0.715
 9344SOL    HW228932   5.014   6.193   0.591
 9345SOL     OW28933   0.664   2.217   0.691
 9345SOL    HW128934   0.759   2.248   0.681
 9345SOL    HW228935   0.602   2.295   0.688
 9346SOL     OW28936   6.082   0.052   0.855
 9346SOL    HW128937   6.182   0.045   0.854
 9346SOL    HW228938   6.055   0.130   0.910
 9347SOL     OW28939   1.948   6.206   2.284
 9347SOL    HW128940   1.862   6.256   2.292
 9347SOL    HW228941   2.020   6.257   2.331
 9348SOL     OW28942   2.873   4.978   0.154
 9348SOL    HW128943   2.778   4.950   0.144
 9348SOL    HW228944   2.932   4.910   0.110
 9349SOL     OW28945   1.165   6.307   2.741
 9349SOL    HW128946   1.135   6.230   2.684
 9349SOL    HW228947   1.147   6.393   2.693
 9350SOL     OW28948   0.395   3.224   5.550
 9350SOL    HW128949   0.334   3.268   5.484
 9350SOL    HW228950   0.347   3.147   5.593
 9351SOL     OW28951   2.911   6.506   0.191
 9351SOL    HW128952   2.948   6.415   0.174
 9351SOL    HW228953   2.932   6.566   0.114
 9352SOL     OW28954   2.753   4.943   5.654
 9352SOL    HW128955   2.660   4.924   5.622
 9352SOL    HW228956   2.818   4.882   5.608
 9353SOL     OW28957   6.641   0.428   0.795
 9353SOL    HW128958   6.634   0.527   0.786
 9353SOL    HW228959   6.716   0.395   0.737
 9354SOL     OW28960   1.166   1.164   5.669
 9354SOL    HW128961   1.110   1.194   5.591
 9354SOL    HW228962   1.209   1.243   5.712
 9355SOL     OW28963   0.854   1.542   5.556
 9355SOL    HW128964   0.911   1.462   5.537
 9355SOL    HW228965   0.912   1.623   5.562
 9356SOL     OW28966   3.430   0.502   3.914
 9356SOL    HW128967   3.411   0.467   3.822
 9356SOL    HW228968   3.517   0.550   3.914
 9357SOL     OW28969   2.141   2.489   0.694
 9357SOL    HW128970   2.204   2.550   0.645
 9357SOL    HW228971   2.171   2.395   0.684
 9358SOL     OW28972   1.208   2.155   0.597
 9358SOL    HW128973   1.294   2.130   0.553
 9358SOL    HW228974   1.201   2.110   0.686
 9359SOL     OW28975   0.706   0.767   5.751
 9359SOL    HW128976   0.659   0.787   5.837
 9359SOL    HW228977   0.756   0.848   5.720
 9360SOL     OW28978   6.767   6.904   5.763
 9360SOL    HW128979   6.851   6.936   5.718
 9360SOL    HW228980   6.711   6.983   5.788
 9361SOL     OW28981   2.123   5.531   4.267
 9361SOL    HW128982   2.061   5.602   4.236
 9361SOL    HW228983   2.073   5.463   4.321
 9362SOL     OW28984   2.002   0.449   2.439
 9362SOL    HW128985   2.084   0.505   2.449
 9362SOL    HW228986   2.011   0.367   2.497
 9363SOL     OW28987   1.744   2.510   2.208
 9363SOL    HW128988   1.803   2.557   2.143
 9363SOL    HW228989   1.651   2.546   2.203
 9364SOL     OW28990   0.398   1.845   6.752
 9364SOL    HW128991   0.402   1.868   6.655
 9364SOL    HW228992   0.412   1.746   6.763
 9365SOL     OW28993   2.627   1.237   4.991
 9365SOL    HW128994   2.616   1.329   5.027
 9365SOL    HW228995   2.551   1.216   4.929
 9366SOL     OW28996   3.288   6.354   2.156
 9366SOL    HW128997   3.219   6.410   2.111
 9366SOL    HW228998   3.272   6.258   2.135
 9367SOL     OW28999   6.819   6.841   1.584
 9367SOL    HW129000   6.795   6.897   1.663
 9367SOL    HW229001   6.919   6.833   1.579
 9368SOL     OW29002   2.311   0.814   3.441
 9368SOL    HW129003   2.372   0.755   3.388
 9368SOL    HW229004   2.365   0.877   3.495
 9369SOL     OW29005   3.847   5.123   0.893
 9369SOL    HW129006   3.842   5.219   0.867
 9369SOL    HW229007   3.943   5.096   0.902
 9370SOL     OW29008   4.577   2.467   5.306
 9370SOL    HW129009   4.648   2.479   5.376
 9370SOL    HW229010   4.620   2.441   5.220
 9371SOL     OW29011   4.064   5.107   0.476
 9371SOL    HW129012   4.138   5.075   0.417
 9371SOL    HW229013   4.102   5.163   0.550
 9372SOL     OW29014   5.270   6.786   0.871
 9372SOL    HW129015   5.176   6.770   0.842
 9372SOL    HW229016   5.272   6.803   0.969
 9373SOL     OW29017   0.539   1.645   1.506
 9373SOL    HW129018   0.515   1.592   1.424
 9373SOL    HW229019   0.477   1.723   1.514
 9374SOL     OW29020   6.625   4.929   6.116
 9374SOL    HW129021   6.693   4.994   6.151
 9374SOL    HW229022   6.544   4.930   6.175
 9375SOL     OW29023   1.731   1.486   6.798
 9375SOL    HW129024   1.745   1.521   6.891
 9375SOL    HW229025   1.633   1.489   6.777
 9376SOL     OW29026   3.408   3.984   0.416
 9376SOL    HW129027   3.427   3.937   0.330
 9376SOL    HW229028   3.309   3.989   0.430
 9377SOL     OW29029   0.970   1.194   3.284
 9377SOL    HW129030   0.879   1.226   3.259
 9377SOL    HW229031   1.003   1.245   3.364
 9378SOL     OW29032   4.094   1.255   5.379
 9378SOL    HW129033   4.071   1.174   5.433
 9378SOL    HW229034   4.047   1.335   5.416
 9379SOL     OW29035   3.654   6.967   4.940
 9379SOL    HW129036   3.608   0.025   4.898
 9379SOL    HW229037   3.672   6.987   5.037
 9380SOL     OW29038   5.112   6.433   1.215
 9380SOL    HW129039   5.020   6.433   1.256
 9380SOL    HW229040   5.137   6.526   1.190
 9381SOL     OW29041   4.430   1.415   4.855
 9381SOL    HW129042   4.377   1.430   4.772
 9381SOL    HW229043   4.410   1.488   4.921
 9382SOL     OW29044   2.961   5.556   6.372
 9382SOL    HW129045   2.873   5.597   6.394
 9382SOL    HW229046   2.950   5.457   6.358
 9383SOL     OW29047   5.708   4.029   1.239
 9383SOL    HW129048   5.682   3.951   1.182
 9383SOL    HW229049   5.788   4.074   1.200
 9384SOL     OW29050   4.284   0.206   0.982
 9384SOL    HW129051   4.283   0.106   0.978
 9384SOL    HW229052   4.377   0.239   0.963
 9385SOL     OW29053   4.284   2.163   3.986
 9385SOL    HW129054   4.300   2.142   3.890
 9385SOL    HW229055   4.352   2.230   4.017
 9386SOL     OW29056   5.757   0.389   1.152
 9386SOL    HW129057   5.720   0.467   1.204
 9386SOL    HW229058   5.845   0.363   1.190
 9387SOL     OW29059   3.072   2.437   6.562
 9387SOL    HW129060   3.017   2.379   6.622
 9387SOL    HW229061   3.117   2.380   6.493
 9388SOL     OW29062   2.055   6.438   5.193
 9388SOL    HW129063   2.139   6.383   5.201
 9388SOL    HW229064   2.058   6.491   5.108
 9389SOL     OW29065   2.091   3.637   1.936
 9389SOL    HW129066   2.001   3.594   1.933
 9389SOL    HW229067   2.161   3.568   1.915
 9390SOL     OW29068   6.033   5.413   4.212
 9390SOL    HW129069   5.942   5.414   4.254
 9390SOL    HW229070   6.024   5.421   4.113
 9391SOL     OW29071   0.311   4.954   3.948
 9391SOL    HW129072   0.340   4.903   4.029
 9391SOL    HW229073   0.246   5.026   3.975
 9392SOL     OW29074   3.069   5.306   2.555
 9392SOL    HW129075   3.159   5.304   2.511
 9392SOL    HW229076   3.052   5.397   2.592
 9393SOL     OW29077   2.252   5.221   0.230
 9393SOL    HW129078   2.298   5.136   0.204
 9393SOL    HW229079   2.279   5.294   0.168
 9394SOL     OW29080   4.697   0.307   6.931
 9394SOL    HW129081   4.664   0.364   7.007
 9394SOL    HW229082   4.734   0.222   6.967
 9395SOL     OW29083   0.606   1.228   1.184
 9395SOL    HW129084   0.624   1.298   1.115
 9395SOL    HW229085   0.685   1.166   1.190
 9396SOL     OW29086   1.319   1.092   6.497
 9396SOL    HW129087   1.281   1.010   6.540
 9396SOL    HW229088   1.328   1.164   6.565
 9397SOL     OW29089   3.476   1.512   5.984
 9397SOL    HW129090   3.443   1.430   6.030
 9397SOL    HW229091   3.538   1.562   6.044
 9398SOL     OW29092   6.888   2.886   6.781
 9398SOL    HW129093   6.915   2.951   6.852
 9398SOL    HW229094   6.885   2.794   6.820
 9399SOL     OW29095   1.360   2.681   4.985
 9399SOL    HW129096   1.460   2.681   4.973
 9399SOL    HW229097   1.323   2.594   4.951
 9400SOL     OW29098   5.615   1.274   1.054
 9400SOL    HW129099   5.689   1.329   1.016
 9400SOL    HW229100   5.578   1.320   1.135
 9401SOL     OW29101   6.846   1.982   3.677
 9401SOL    HW129102   6.763   1.981   3.621
 9401SOL    HW229103   6.924   2.012   3.622
 9402SOL     OW29104   3.770   5.903   5.388
 9402SOL    HW129105   3.731   5.812   5.398
 9402SOL    HW229106   3.741   5.961   5.465
 9403SOL     OW29107   5.735   2.078   1.054
 9403SOL    HW129108   5.713   2.164   1.101
 9403SOL    HW229109   5.650   2.037   1.019
 9404SOL     OW29110   2.757   2.851   0.787
 9404SOL    HW129111   2.769   2.830   0.690
 9404SOL    HW229112   2.665   2.823   0.815
 9405SOL     OW29113   6.008   5.407   5.113
 9405SOL    HW129114   5.957   5.376   5.192
 9405SOL    HW229115   6.106   5.396   5.131
 9406SOL     OW29116   1.582   1.042   0.783
 9406SOL    HW129117   1.682   1.047   0.776
 9406SOL    HW229118   1.557   1.002   0.871
 9407SOL     OW29119   1.937   4.501   4.727
 9407SOL    HW129120   1.972   4.481   4.818
 9407SOL    HW229121   1.965   4.429   4.664
 9408SOL     OW29122   5.683   5.139   3.545
 9408SOL    HW129123   5.609   5.205   3.531
 9408SOL    HW229124   5.660   5.053   3.500
 9409SOL     OW29125   5.779   4.826   1.587
 9409SOL    HW129126   5.814   4.915   1.556
 9409SOL    HW229127   5.823   4.753   1.534
 9410SOL     OW29128   4.435   0.333   0.715
 9410SOL    HW129129   4.402   0.405   0.777
 9410SOL    HW229130   4.532   0.347   0.697
 9411SOL     OW29131   3.840   3.915   4.837
 9411SOL    HW129132   3.849   3.997   4.782
 9411SOL    HW229133   3.754   3.870   4.815
 9412SOL     OW29134   3.978   6.857   1.654
 9412SOL    HW129135   3.902   6.907   1.695
 9412SOL    HW229136   4.053   6.848   1.720
 9413SOL     OW29137   3.861   5.151   3.084
 9413SOL    HW129138   3.818   5.083   3.025
 9413SOL    HW229139   3.892   5.106   3.168
 9414SOL     OW29140   2.277   0.914   2.687
 9414SOL    HW129141   2.319   0.831   2.723
 9414SOL    HW229142   2.346   0.986   2.679
 9415SOL     OW29143   5.005   1.029   0.849
 9415SOL    HW129144   5.034   1.100   0.913
 9415SOL    HW229145   4.922   0.986   0.883
 9416SOL     OW29146   6.574   4.537   5.868
 9416SOL    HW129147   6.505   4.596   5.910
 9416SOL    HW229148   6.542   4.443   5.868
 9417SOL     OW29149   4.040   6.215   3.198
 9417SOL    HW129150   4.068   6.126   3.234
 9417SOL    HW229151   4.081   6.229   3.108
 9418SOL     OW29152   2.579   2.059   5.019
 9418SOL    HW129153   2.545   2.129   4.956
 9418SOL    HW229154   2.508   2.036   5.086
 9419SOL     OW29155   2.933   2.660   5.866
 9419SOL    HW129156   2.882   2.716   5.800
 9419SOL    HW229157   2.887   2.573   5.879
 9420SOL     OW29158   5.128   3.629   6.029
 9420SOL    HW129159   5.218   3.671   6.015
 9420SOL    HW229160   5.087   3.609   5.940
 9421SOL     OW29161   3.844   6.549   0.188
 9421SOL    HW129162   3.886   6.486   0.253
 9421SOL    HW229163   3.873   6.526   0.095
 9422SOL     OW29164   1.961   6.322   6.027
 9422SOL    HW129165   2.011   6.240   6.001
 9422SOL    HW229166   1.916   6.308   6.116
 9423SOL     OW29167   5.171   4.846   0.808
 9423SOL    HW129168   5.175   4.822   0.905
 9423SOL    HW229169   5.098   4.794   0.764
 9424SOL     OW29170   6.150   6.637   3.837
 9424SOL    HW129171   6.051   6.631   3.850
 9424SOL    HW229172   6.181   6.560   3.782
 9425SOL     OW29173   0.155   5.757   1.183
 9425SOL    HW129174   0.244   5.712   1.178
 9425SOL    HW229175   0.153   5.818   1.263
 9426SOL     OW29176   4.853   1.553   5.885
 9426SOL    HW129177   4.826   1.589   5.975
 9426SOL    HW229178   4.835   1.455   5.881
 9427SOL     OW29179   2.916   5.851   1.845
 9427SOL    HW129180   2.968   5.788   1.787
 9427SOL    HW229181   2.978   5.917   1.886
 9428SOL     OW29182   0.123   6.411   4.684
 9428SOL    HW129183   0.174   6.477   4.739
 9428SOL    HW229184   0.156   6.415   4.589
 9429SOL     OW29185   3.175   2.130   4.264
 9429SOL    HW129186   3.141   2.178   4.184
 9429SOL    HW229187   3.233   2.191   4.318
 9430SOL     OW29188   1.246   0.082   3.644
 9430SOL    HW129189   1.160   0.106   3.599
 9430SOL    HW229190   1.271   7.009   3.621
 9431SOL     OW29191   1.335   5.167   5.088
 9431SOL    HW129192   1.291   5.099   5.147
 9431SOL    HW229193   1.424   5.133   5.058
 9432SOL     OW29194   6.621   1.975   2.862
 9432SOL    HW129195   6.652   1.949   2.954
 9432SOL    HW229196   6.598   2.072   2.861
 9433SOL     OW29197   4.255   5.449   1.736
 9433SOL    HW129198   4.213   5.523   1.788
 9433SOL    HW229199   4.342   5.481   1.698
 9434SOL     OW29200   5.180   5.936   4.878
 9434SOL    HW129201   5.239   5.877   4.823
 9434SOL    HW229202   5.191   6.031   4.849
 9435SOL     OW29203   6.875   3.713   6.819
 9435SOL    HW129204   6.811   3.661   6.761
 9435SOL    HW229205   6.825   3.752   6.896
 9436SOL     OW29206   2.914   2.177   2.697
 9436SOL    HW129207   2.859   2.146   2.620
 9436SOL    HW229208   3.008   2.193   2.666
 9437SOL     OW29209   4.306   1.368   3.952
 9437SOL    HW129210   4.218   1.333   3.984
 9437SOL    HW229211   4.324   1.457   3.994
 9438SOL     OW29212   4.678   0.253   3.247
 9438SOL    HW129213   4.772   0.224   3.232
 9438SOL    HW229214   4.646   0.303   3.166
 9439SOL     OW29215   1.336   4.926   1.134
 9439SOL    HW129216   1.270   4.997   1.107
 9439SOL    HW229217   1.338   4.854   1.065
 9440SOL     OW29218   1.771   5.363   4.212
 9440SOL    HW129219   1.734   5.288   4.268
 9440SOL    HW229220   1.821   5.427   4.271
 9441SOL     OW29221   6.592   6.208   4.730
 9441SOL    HW129222   6.663   6.139   4.722
 9441SOL    HW229223   6.538   6.191   4.812
 9442SOL     OW29224   6.992   2.927   0.921
 9442SOL    HW129225   6.964   2.887   0.834
 9442SOL    HW229226   6.918   2.916   0.988
 9443SOL     OW29227   1.330   4.765   1.365
 9443SOL    HW129228   1.316   4.843   1.304
 9443SOL    HW229229   1.265   4.770   1.441
 9444SOL     OW29230   2.265   6.051   5.656
 9444SOL    HW129231   2.210   6.072   5.575
 9444SOL    HW229232   2.217   6.079   5.738
 9445SOL     OW29233   1.129   1.563   3.910
 9445SOL    HW129234   1.088   1.562   4.001
 9445SOL    HW229235   1.226   1.537   3.916
 9446SOL     OW29236   5.038   5.344   3.445
 9446SOL    HW129237   5.027   5.312   3.539
 9446SOL    HW229238   4.948   5.360   3.405
 9447SOL     OW29239   5.836   5.081   2.259
 9447SOL    HW129240   5.801   5.006   2.315
 9447SOL    HW229241   5.809   5.168   2.300
 9448SOL     OW29242   5.165   2.832   0.083
 9448SOL    HW129243   5.103   2.896   0.038
 9448SOL    HW229244   5.155   2.741   0.042
 9449SOL     OW29245   4.035   0.328   3.374
 9449SOL    HW129246   3.947   0.284   3.362
 9449SOL    HW229247   4.063   0.321   3.470
 9450SOL     OW29248   0.643   0.113   2.050
 9450SOL    HW129249   0.739   0.142   2.054
 9450SOL    HW229250   0.638   0.018   2.018
 9451SOL     OW29251   4.538   5.128   0.373
 9451SOL    HW129252   4.543   5.201   0.304
 9451SOL    HW229253   4.573   5.163   0.460
 9452SOL     OW29254   5.814   2.294   6.184
 9452SOL    HW129255   5.853   2.369   6.237
 9452SOL    HW229256   5.851   2.207   6.216
 9453SOL     OW29257   6.531   4.782   2.901
 9453SOL    HW129258   6.562   4.782   2.806
 9453SOL    HW229259   6.563   4.699   2.947
 9454SOL     OW29260   5.955   5.496   0.727
 9454SOL    HW129261   5.862   5.481   0.694
 9454SOL    HW229262   6.020   5.468   0.657
 9455SOL     OW29263   4.546   1.214   1.648
 9455SOL    HW129264   4.617   1.267   1.695
 9455SOL    HW229265   4.587   1.168   1.568
 9456SOL     OW29266   6.804   2.879   2.177
 9456SOL    HW129267   6.743   2.906   2.103
 9456SOL    HW229268   6.770   2.795   2.220
 9457SOL     OW29269   6.370   6.275   4.548
 9457SOL    HW129270   6.360   6.367   4.587
 9457SOL    HW229271   6.432   6.221   4.606
 9458SOL     OW29272   0.174   4.281   0.181
 9458SOL    HW129273   0.087   4.232   0.177
 9458SOL    HW229274   0.239   4.236   0.120
 9459SOL     OW29275   6.159   4.683   5.133
 9459SOL    HW129276   6.074   4.660   5.181
 9459SOL    HW229277   6.226   4.611   5.148
 9460SOL     OW29278   2.136   3.354   3.018
 9460SOL    HW129279   2.137   3.261   3.055
 9460SOL    HW229280   2.135   3.420   3.093
 9461SOL     OW29281   1.549   1.684   1.261
 9461SOL    HW129282   1.640   1.679   1.300
 9461SOL    HW229283   1.481   1.663   1.332
 9462SOL     OW29284   7.013   1.039   5.557
 9462SOL    HW129285   0.079   1.081   5.581
 9462SOL    HW229286   6.985   0.977   5.630
 9463SOL     OW29287   0.496   4.934   0.628
 9463SOL    HW129288   0.568   5.003   0.640
 9463SOL    HW229289   0.469   4.931   0.532
 9464SOL     OW29290   1.184   0.757   2.011
 9464SOL    HW129291   1.227   0.680   1.964
 9464SOL    HW229292   1.145   0.820   1.944
 9465SOL     OW29293   0.952   5.791   7.008
 9465SOL    HW129294   1.019   5.730   6.965
 9465SOL    HW229295   0.907   5.742   0.062
 9466SOL     OW29296   3.863   4.130   5.658
 9466SOL    HW129297   3.772   4.087   5.661
 9466SOL    HW229298   3.909   4.103   5.574
 9467SOL     OW29299   1.767   4.095   1.494
 9467SOL    HW129300   1.735   4.013   1.542
 9467SOL    HW229301   1.714   4.106   1.410
 9468SOL     OW29302   6.478   1.892   1.219
 9468SOL    HW129303   6.574   1.892   1.248
 9468SOL    HW229304   6.450   1.985   1.197
 9469SOL     OW29305   6.149   6.377   2.285
 9469SOL    HW129306   6.124   6.472   2.307
 9469SOL    HW229307   6.148   6.323   2.369
 9470SOL     OW29308   3.612   3.761   0.847
 9470SOL    HW129309   3.657   3.840   0.804
 9470SOL    HW229310   3.555   3.714   0.779
 9471SOL     OW29311   6.690   3.078   4.749
 9471SOL    HW129312   6.741   3.158   4.782
 9471SOL    HW229313   6.738   2.995   4.774
 9472SOL     OW29314   1.932   4.322   5.756
 9472SOL    HW129315   1.910   4.235   5.713
 9472SOL    HW229316   1.985   4.378   5.692
 9473SOL     OW29317   2.910   3.492   1.677
 9473SOL    HW129318   2.917   3.566   1.745
 9473SOL    HW229319   2.814   3.464   1.669
 9474SOL     OW29320   6.230   4.169   0.983
 9474SOL    HW129321   6.234   4.110   1.064
 9474SOL    HW229322   6.216   4.113   0.901
 9475SOL     OW29323   6.345   3.384   6.629
 9475SOL    HW129324   6.385   3.327   6.700
 9475SOL    HW229325   6.282   3.330   6.574
 9476SOL     OW29326   4.081   3.683   1.154
 9476SOL    HW129327   4.106   3.754   1.219
 9476SOL    HW229328   4.049   3.602   1.203
 9477SOL     OW29329   1.168   5.437   1.023
 9477SOL    HW129330   1.136   5.530   1.006
 9477SOL    HW229331   1.113   5.396   1.095
 9478SOL     OW29332   0.219   3.336   5.388
 9478SOL    HW129333   0.169   3.419   5.415
 9478SOL    HW229334   0.287   3.360   5.319
 9479SOL     OW29335   4.025   0.830   2.164
 9479SOL    HW129336   4.082   0.833   2.246
 9479SOL    HW229337   3.968   0.912   2.161
 9480SOL     OW29338   5.436   0.757   0.947
 9480SOL    HW129339   5.354   0.783   0.896
 9480SOL    HW229340   5.413   0.685   1.013
 9481SOL     OW29341   4.956   0.272   4.080
 9481SOL    HW129342   5.009   0.239   4.002
 9481SOL    HW229343   4.987   0.363   4.106
 9482SOL     OW29344   5.445   4.450   6.115
 9482SOL    HW129345   5.511   4.414   6.182
 9482SOL    HW229346   5.449   4.550   6.116
 9483SOL     OW29347   5.500   5.138   0.350
 9483SOL    HW129348   5.518   5.187   0.265
 9483SOL    HW229349   5.531   5.043   0.341
 9484SOL     OW29350   1.582   5.568   3.838
 9484SOL    HW129351   1.619   5.489   3.790
 9484SOL    HW229352   1.551   5.541   3.929
 9485SOL     OW29353   6.619   1.570   5.531
 9485SOL    HW129354   6.552   1.598   5.462
 9485SOL    HW229355   6.584   1.492   5.583
 9486SOL     OW29356   6.550   5.345   6.115
 9486SOL    HW129357   6.631   5.285   6.120
 9486SOL    HW229358   6.499   5.325   6.031
 9487SOL     OW29359   2.997   3.388   4.033
 9487SOL    HW129360   3.050   3.314   4.074
 9487SOL    HW229361   2.947   3.437   4.104
 9488SOL     OW29362   1.148   0.851   2.614
 9488SOL    HW129363   1.122   0.928   2.555
 9488SOL    HW229364   1.246   0.833   2.603
 9489SOL     OW29365   0.095   4.382   6.895
 9489SOL    HW129366   0.165   4.330   6.945
 9489SOL    HW229367   0.011   4.329   6.891
 9490SOL     OW29368   5.637   4.070   4.792
 9490SOL    HW129369   5.573   4.144   4.811
 9490SOL    HW229370   5.587   3.990   4.758
 9491SOL     OW29371   4.990   0.030   2.445
 9491SOL    HW129372   4.943   7.003   2.520
 9491SOL    HW229373   5.037   0.111   2.481
 9492SOL     OW29374   4.996   3.033   3.904
 9492SOL    HW129375   4.950   3.039   3.815
 9492SOL    HW229376   5.095   3.026   3.890
 9493SOL     OW29377   2.770   6.680   2.948
 9493SOL    HW129378   2.678   6.717   2.938
 9493SOL    HW229379   2.766   6.581   2.957
 9494SOL     OW29380   4.896   2.386   2.417
 9494SOL    HW129381   4.907   2.441   2.500
 9494SOL    HW229382   4.893   2.446   2.337
 9495SOL     OW29383   5.993   2.512   0.753
 9495SOL    HW129384   6.004   2.458   0.669
 9495SOL    HW229385   6.025   2.459   0.831
 9496SOL     OW29386   6.530   3.126   0.281
 9496SOL    HW129387   6.556   3.195   0.214
 9496SOL    HW229388   6.586   3.136   0.363
 9497SOL     OW29389   5.893   4.688   4.847
 9497SOL    HW129390   5.968   4.750   4.868
 9497SOL    HW229391   5.929   4.596   4.832
 9498SOL     OW29392   1.036   6.256   5.840
 9498SOL    HW129393   0.977   6.259   5.920
 9498SOL    HW229394   0.981   6.262   5.757
 9499SOL     OW29395   5.806   6.374   3.360
 9499SOL    HW129396   5.730   6.416   3.410
 9499SOL    HW229397   5.774   6.291   3.314
 9500SOL     OW29398   2.694   1.809   0.558
 9500SOL    HW129399   2.674   1.907   0.565
 9500SOL    HW229400   2.792   1.795   0.551
 9501SOL     OW29401   1.514   3.514   4.884
 9501SOL    HW129402   1.498   3.551   4.976
 9501SOL    HW229403   1.517   3.414   4.889
 9502SOL     OW29404   5.578   4.537   3.844
 9502SOL    HW129405   5.510   4.604   3.814
 9502SOL    HW229406   5.597   4.472   3.770
 9503SOL     OW29407   6.656   0.566   0.171
 9503SOL    HW129408   6.575   0.583   0.227
 9503SOL    HW229409   6.701   0.652   0.149
 9504SOL     OW29410   6.268   4.787   2.927
 9504SOL    HW129411   6.366   4.805   2.914
 9504SOL    HW229412   6.254   4.689   2.944
 9505SOL     OW29413   5.110   2.850   0.348
 9505SOL    HW129414   5.118   2.823   0.252
 9505SOL    HW229415   5.189   2.816   0.399
 9506SOL     OW29416   3.902   1.233   1.523
 9506SOL    HW129417   3.944   1.210   1.611
 9506SOL    HW229418   3.968   1.286   1.468
 9507SOL     OW29419   0.165   5.929   1.401
 9507SOL    HW129420   0.095   6.001   1.400
 9507SOL    HW229421   0.254   5.970   1.420
 9508SOL     OW29422   5.162   1.498   2.469
 9508SOL    HW129423   5.158   1.491   2.569
 9508SOL    HW229424   5.226   1.571   2.444
 9509SOL     OW29425   5.704   1.512   4.115
 9509SOL    HW129426   5.694   1.413   4.122
 9509SOL    HW229427   5.679   1.554   4.202
 9510SOL     OW29428   1.431   3.421   2.243
 9510SOL    HW129429   1.409   3.324   2.236
 9510SOL    HW229430   1.346   3.474   2.241
 9511SOL     OW29431   0.813   1.248   0.630
 9511SOL    HW129432   0.874   1.169   0.633
 9511SOL    HW229433   0.865   1.331   0.652
 9512SOL     OW29434   6.374   2.527   1.417
 9512SOL    HW129435   6.274   2.533   1.413
 9512SOL    HW229436   6.412   2.616   1.441
 9513SOL     OW29437   5.013   3.732   4.717
 9513SOL    HW129438   4.947   3.688   4.779
 9513SOL    HW229439   5.007   3.689   4.627
 9514SOL     OW29440   3.740   2.894   1.297
 9514SOL    HW129441   3.652   2.939   1.285
 9514SOL    HW229442   3.809   2.941   1.241
 9515SOL     OW29443   6.468   6.438   2.852
 9515SOL    HW129444   6.474   6.519   2.794
 9515SOL    HW229445   6.440   6.360   2.796
 9516SOL     OW29446   1.509   2.518   6.899
 9516SOL    HW129447   1.552   2.605   6.925
 9516SOL    HW229448   1.488   2.466   6.981
 9517SOL     OW29449   0.410   6.720   1.946
 9517SOL    HW129450   0.359   6.806   1.954
 9517SOL    HW229451   0.397   6.666   2.029
 9518SOL     OW29452   6.479   6.751   1.303
 9518SOL    HW129453   6.420   6.746   1.222
 9518SOL    HW229454   6.423   6.774   1.383
 9519SOL     OW29455   1.282   2.465   5.776
 9519SOL    HW129456   1.295   2.492   5.681
 9519SOL    HW229457   1.187   2.483   5.802
 9520SOL     OW29458   4.205   6.572   2.228
 9520SOL    HW129459   4.234   6.606   2.318
 9520SOL    HW229460   4.278   6.587   2.162
 9521SOL     OW29461   5.796   4.932   2.956
 9521SOL    HW129462   5.767   4.837   2.962
 9521SOL    HW229463   5.885   4.938   2.911
 9522SOL     OW29464   3.604   4.958   5.415
 9522SOL    HW129465   3.699   4.979   5.435
 9522SOL    HW229466   3.582   4.867   5.450
 9523SOL     OW29467   1.012   6.954   4.460
 9523SOL    HW129468   1.011   6.913   4.368
 9523SOL    HW229469   1.091   6.920   4.511
 9524SOL     OW29470   6.036   3.576   0.442
 9524SOL    HW129471   6.086   3.512   0.383
 9524SOL    HW229472   5.938   3.571   0.421
 9525SOL     OW29473   4.363   0.249   4.607
 9525SOL    HW129474   4.292   0.180   4.597
 9525SOL    HW229475   4.395   0.251   4.701
 9526SOL     OW29476   4.838   5.168   0.488
 9526SOL    HW129477   4.900   5.226   0.540
 9526SOL    HW229478   4.750   5.162   0.536
 9527SOL     OW29479   7.006   0.980   0.317
 9527SOL    HW129480   0.063   0.918   0.326
 9527SOL    HW229481   6.989   1.025   0.404
 9528SOL     OW29482   5.389   0.935   2.227
 9528SOL    HW129483   5.303   0.937   2.177
 9528SOL    HW229484   5.411   0.841   2.254
 9529SOL     OW29485   1.452   2.533   5.527
 9529SOL    HW129486   1.547   2.525   5.559
 9529SOL    HW229487   1.436   2.625   5.492
 9530SOL     OW29488   2.536   1.360   3.573
 9530SOL    HW129489   2.455   1.323   3.529
 9530SOL    HW229490   2.522   1.364   3.672
 9531SOL     OW29491   2.635   6.497   3.754
 9531SOL    HW129492   2.729   6.473   3.730
 9531SOL    HW229493   2.632   6.530   3.848
 9532SOL     OW29494   3.662   1.414   1.308
 9532SOL    HW129495   3.646   1.394   1.211
 9532SOL    HW229496   3.760   1.422   1.324
 9533SOL     OW29497   0.340   1.330   3.914
 9533SOL    HW129498   0.345   1.367   4.007
 9533SOL    HW229499   0.359   1.232   3.916
 9534SOL     OW29500   5.213   1.144   4.018
 9534SOL    HW129501   5.113   1.132   4.017
 9534SOL    HW229502   5.256   1.056   4.038
 9535SOL     OW29503   2.966   1.388   4.964
 9535SOL    HW129504   2.939   1.331   4.886
 9535SOL    HW229505   2.888   1.443   4.994
 9536SOL     OW29506   2.126   5.745   6.939
 9536SOL    HW129507   2.213   5.738   6.890
 9536SOL    HW229508   2.131   5.820   7.005
 9537SOL     OW29509   2.283   0.693   0.227
 9537SOL    HW129510   2.239   0.754   0.292
 9537SOL    HW229511   2.274   0.598   0.258
 9538SOL     OW29512   5.933   4.082   3.326
 9538SOL    HW129513   5.918   4.168   3.276
 9538SOL    HW229514   6.023   4.084   3.369
 9539SOL     OW29515   1.360   2.875   0.097
 9539SOL    HW129516   1.298   2.799   0.076
 9539SOL    HW229517   1.384   2.873   0.194
 9540SOL     OW29518   5.836   3.296   5.265
 9540SOL    HW129519   5.894   3.335   5.337
 9540SOL    HW229520   5.867   3.203   5.245
 9541SOL     OW29521   6.294   2.028   2.901
 9541SOL    HW129522   6.295   1.965   2.824
 9541SOL    HW229523   6.218   2.092   2.891
 9542SOL     OW29524   4.922   3.381   4.365
 9542SOL    HW129525   4.859   3.354   4.293
 9542SOL    HW229526   4.980   3.304   4.390
 9543SOL     OW29527   3.942   2.147   0.215
 9543SOL    HW129528   3.963   2.234   0.260
 9543SOL    HW229529   3.997   2.074   0.256
 9544SOL     OW29530   4.763   6.912   1.420
 9544SOL    HW129531   4.714   6.828   1.440
 9544SOL    HW229532   4.796   6.910   1.326
 9545SOL     OW29533   1.101   0.376   3.989
 9545SOL    HW129534   1.067   0.364   3.895
 9545SOL    HW229535   1.196   0.347   3.995
 9546SOL     OW29536   3.048   4.218   1.715
 9546SOL    HW129537   3.051   4.185   1.621
 9546SOL    HW229538   2.987   4.297   1.721
 9547SOL     OW29539   5.669   6.612   2.307
 9547SOL    HW129540   5.730   6.608   2.387
 9547SOL    HW229541   5.723   6.629   2.225
 9548SOL     OW29542   6.434   6.860   1.870
 9548SOL    HW129543   6.462   6.854   1.774
 9548SOL    HW229544   6.506   6.824   1.929
 9549SOL     OW29545   1.891   6.007   0.161
 9549SOL    HW129546   1.930   6.098   0.173
 9549SOL    HW229547   1.869   5.992   0.064
 9550SOL     OW29548   1.765   0.819   0.446
 9550SOL    HW129549   1.783   0.810   0.544
 9550SOL    HW229550   1.690   0.757   0.420
 9551SOL     OW29551   1.403   5.744   4.545
 9551SOL    HW129552   1.395   5.706   4.452
 9551SOL    HW229553   1.430   5.672   4.608
 9552SOL     OW29554   6.572   5.294   2.582
 9552SOL    HW129555   6.520   5.366   2.536
 9552SOL    HW229556   6.622   5.334   2.659
 9553SOL     OW29557   5.425   4.913   6.498
 9553SOL    HW129558   5.425   4.962   6.411
 9553SOL    HW229559   5.360   4.956   6.561
 9554SOL     OW29560   1.756   2.662   1.675
 9554SOL    HW129561   1.703   2.655   1.590
 9554SOL    HW229562   1.719   2.598   1.742
 9555SOL     OW29563   0.343   2.230   6.518
 9555SOL    HW129564   0.265   2.185   6.562
 9555SOL    HW229565   0.335   2.329   6.529
 9556SOL     OW29566   5.987   1.026   1.720
 9556SOL    HW129567   5.923   0.960   1.680
 9556SOL    HW229568   5.951   1.119   1.708
 9557SOL     OW29569   4.884   1.929   1.327
 9557SOL    HW129570   4.872   1.901   1.232
 9557SOL    HW229571   4.967   1.887   1.364
 9558SOL     OW29572   6.914   4.439   1.719
 9558SOL    HW129573   6.878   4.466   1.630
 9558SOL    HW229574   6.907   4.339   1.729
 9559SOL     OW29575   0.395   4.893   3.326
 9559SOL    HW129576   0.321   4.856   3.271
 9559SOL    HW229577   0.414   4.987   3.297
 9560SOL     OW29578   3.704   2.345   5.694
 9560SOL    HW129579   3.682   2.382   5.603
 9560SOL    HW229580   3.744   2.418   5.750
 9561SOL     OW29581   3.284   4.852   6.460
 9561SOL    HW129582   3.331   4.929   6.504
 9561SOL    HW229583   3.186   4.860   6.478
 9562SOL     OW29584   6.073   5.182   3.749
 9562SOL    HW129585   6.128   5.266   3.756
 9562SOL    HW229586   6.107   5.114   3.814
 9563SOL     OW29587   0.825   1.271   5.774
 9563SOL    HW129588   0.834   1.183   5.822
 9563SOL    HW229589   0.913   1.297   5.735
 9564SOL     OW29590   0.191   0.325   5.774
 9564SOL    HW129591   0.135   0.263   5.830
 9564SOL    HW229592   0.131   0.381   5.717
 9565SOL     OW29593   2.746   5.555   5.137
 9565SOL    HW129594   2.740   5.482   5.205
 9565SOL    HW229595   2.735   5.644   5.181
 9566SOL     OW29596   2.238   5.844   4.980
 9566SOL    HW129597   2.229   5.864   5.078
 9566SOL    HW229598   2.153   5.804   4.946
 9567SOL     OW29599   5.630   5.738   3.297
 9567SOL    HW129600   5.655   5.676   3.371
 9567SOL    HW229601   5.699   5.811   3.291
 9568SOL     OW29602   6.362   3.381   4.714
 9568SOL    HW129603   6.362   3.361   4.812
 9568SOL    HW229604   6.383   3.478   4.700
 9569SOL     OW29605   5.396   0.470   1.116
 9569SOL    HW129606   5.319   0.460   1.052
 9569SOL    HW229607   5.473   0.416   1.083
 9570SOL     OW29608   0.255   3.706   6.159
 9570SOL    HW129609   0.173   3.733   6.209
 9570SOL    HW229610   0.229   3.650   6.081
 9571SOL     OW29611   3.172   1.688   0.942
 9571SOL    HW129612   3.171   1.735   1.031
 9571SOL    HW229613   3.259   1.708   0.896
 9572SOL     OW29614   0.785   3.230   0.507
 9572SOL    HW129615   0.688   3.243   0.528
 9572SOL    HW229616   0.794   3.176   0.423
 9573SOL     OW29617   4.658   2.021   1.778
 9573SOL    HW129618   4.648   1.986   1.685
 9573SOL    HW229619   4.574   2.066   1.806
 9574SOL     OW29620   2.138   1.344   3.799
 9574SOL    HW129621   2.115   1.249   3.818
 9574SOL    HW229622   2.085   1.376   3.720
 9575SOL     OW29623   3.277   1.728   2.474
 9575SOL    HW129624   3.309   1.821   2.494
 9575SOL    HW229625   3.183   1.718   2.506
 9576SOL     OW29626   4.585   2.922   6.122
 9576SOL    HW129627   4.530   2.902   6.042
 9576SOL    HW229628   4.583   3.021   6.140
 9577SOL     OW29629   0.497   5.767   3.511
 9577SOL    HW129630   0.548   5.710   3.576
 9577SOL    HW229631   0.428   5.711   3.465
 9578SOL     OW29632   6.461   4.437   1.368
 9578SOL    HW129633   6.538   4.501   1.377
 9578SOL    HW229634   6.392   4.477   1.308
 9579SOL     OW29635   1.495   4.517   2.473
 9579SOL    HW129636   1.416   4.457   2.458
 9579SOL    HW229637   1.498   4.585   2.400
 9580SOL     OW29638   4.079   3.770   4.840
 9580SOL    HW129639   4.113   3.792   4.748
 9580SOL    HW229640   3.998   3.826   4.859
 9581SOL     OW29641   0.798   0.083   6.883
 9581SOL    HW129642   0.743   0.000   6.893
 9581SOL    HW229643   0.744   0.163   6.910
 9582SOL     OW29644   4.253   5.587   3.008
 9582SOL    HW129645   4.195   5.612   2.931
 9582SOL    HW229646   4.233   5.647   3.086
 9583SOL     OW29647   1.497   4.537   2.768
 9583SOL    HW129648   1.478   4.522   2.671
 9583SOL    HW229649   1.416   4.573   2.812
 9584SOL     OW29650   5.173   5.096   0.087
 9584SOL    HW129651   5.251   5.131   0.035
 9584SOL    HW229652   5.127   5.024   0.034
 9585SOL     OW29653   5.780   1.065   2.579
 9585SOL    HW129654   5.864   1.106   2.543
 9585SOL    HW229655   5.729   1.022   2.505
 9586SOL     OW29656   3.839   4.918   2.469
 9586SOL    HW129657   3.873   4.971   2.547
 9586SOL    HW229658   3.916   4.872   2.424
 9587SOL     OW29659   4.340   6.683   1.648
 9587SOL    HW129660   4.347   6.778   1.679
 9587SOL    HW229661   4.246   6.651   1.663
 9588SOL     OW29662   6.050   1.387   3.509
 9588SOL    HW129663   5.998   1.393   3.595
 9588SOL    HW229664   6.037   1.470   3.456
 9589SOL     OW29665   4.110   2.071   4.868
 9589SOL    HW129666   4.092   1.988   4.922
 9589SOL    HW229667   4.024   2.111   4.839
 9590SOL     OW29668   0.123   4.876   5.329
 9590SOL    HW129669   0.114   4.802   5.263
 9590SOL    HW229670   0.220   4.901   5.339
 9591SOL     OW29671   0.024   4.738   2.380
 9591SOL    HW129672   6.967   4.686   2.345
 9591SOL    HW229673   0.039   4.819   2.322
 9592SOL     OW29674   4.284   5.411   0.924
 9592SOL    HW129675   4.351   5.337   0.916
 9592SOL    HW229676   4.306   5.466   1.005
 9593SOL     OW29677   2.054   2.851   3.772
 9593SOL    HW129678   1.966   2.828   3.729
 9593SOL    HW229679   2.118   2.776   3.758
 9594SOL     OW29680   5.690   0.386   0.775
 9594SOL    HW129681   5.689   0.473   0.824
 9594SOL    HW229682   5.746   0.396   0.692
 9595SOL     OW29683   2.097   4.899   5.212
 9595SOL    HW129684   2.052   4.900   5.301
 9595SOL    HW229685   2.145   4.811   5.200
 9596SOL     OW29686   5.152   4.811   2.256
 9596SOL    HW129687   5.141   4.797   2.158
 9596SOL    HW229688   5.155   4.908   2.277
 9597SOL     OW29689   1.621   3.958   2.179
 9597SOL    HW129690   1.555   3.963   2.104
 9597SOL    HW229691   1.685   4.035   2.172
 9598SOL     OW29692   0.449   6.148   5.402
 9598SOL    HW129693   0.418   6.054   5.416
 9598SOL    HW229694   0.454   6.195   5.490
 9599SOL     OW29695   4.173   2.122   5.759
 9599SOL    HW129696   4.219   2.076   5.835
 9599SOL    HW229697   4.116   2.057   5.709
 9600SOL     OW29698   1.489   5.655   6.877
 9600SOL    HW129699   1.526   5.711   6.951
 9600SOL    HW229700   1.559   5.592   6.844
 9601SOL     OW29701   0.892   0.151   4.619
 9601SOL    HW129702   0.920   0.070   4.568
 9601SOL    HW229703   0.877   0.227   4.556
 9602SOL     OW29704   1.179   5.860   5.952
 9602SOL    HW129705   1.161   5.838   5.856
 9602SOL    HW229706   1.189   5.775   6.004
 9603SOL     OW29707   1.746   5.065   1.739
 9603SOL    HW129708   1.678   5.128   1.702
 9603SOL    HW229709   1.798   5.024   1.665
 9604SOL     OW29710   6.200   0.396   6.045
 9604SOL    HW129711   6.185   0.486   6.006
 9604SOL    HW229712   6.212   0.329   5.972
 9605SOL     OW29713   3.535   4.716   0.414
 9605SOL    HW129714   3.530   4.650   0.339
 9605SOL    HW229715   3.532   4.809   0.377
 9606SOL     OW29716   6.819   1.691   4.151
 9606SOL    HW129717   6.911   1.729   4.161
 9606SOL    HW229718   6.807   1.616   4.217
 9607SOL     OW29719   6.626   2.966   3.325
 9607SOL    HW129720   6.593   2.973   3.230
 9607SOL    HW229721   6.548   2.947   3.385
 9608SOL     OW29722   6.099   0.875   1.496
 9608SOL    HW129723   6.014   0.826   1.477
 9608SOL    HW229724   6.077   0.962   1.540
 9609SOL     OW29725   0.993   2.388   3.387
 9609SOL    HW129726   0.923   2.444   3.342
 9609SOL    HW229727   1.081   2.400   3.341
 9610SOL     OW29728   5.100   1.356   6.017
 9610SOL    HW129729   5.039   1.416   5.967
 9610SOL    HW229730   5.131   1.282   5.957
 9611SOL     OW29731   5.274   5.511   1.557
 9611SOL    HW129732   5.243   5.421   1.589
 9611SOL    HW229733   5.212   5.582   1.591
 9612SOL     OW29734   4.842   3.803   3.476
 9612SOL    HW129735   4.889   3.874   3.528
 9612SOL    HW229736   4.776   3.844   3.414
 9613SOL     OW29737   4.398   1.647   4.519
 9613SOL    HW129738   4.356   1.737   4.522
 9613SOL    HW229739   4.348   1.585   4.579
 9614SOL     OW29740   3.699   2.630   0.346
 9614SOL    HW129741   3.699   2.632   0.246
 9614SOL    HW229742   3.659   2.544   0.377
 9615SOL     OW29743   6.484   5.878   3.630
 9615SOL    HW129744   6.430   5.957   3.600
 9615SOL    HW229745   6.574   5.909   3.659
 9616SOL     OW29746   0.466   2.262   1.120
 9616SOL    HW129747   0.419   2.341   1.081
 9616SOL    HW229748   0.491   2.198   1.047
 9617SOL     OW29749   0.887   3.624   3.680
 9617SOL    HW129750   0.870   3.633   3.779
 9617SOL    HW229751   0.810   3.664   3.630
 9618SOL     OW29752   5.448   4.181   1.976
 9618SOL    HW129753   5.387   4.102   1.969
 9618SOL    HW229754   5.398   4.264   1.950
 9619SOL     OW29755   1.469   1.509   1.051
 9619SOL    HW129756   1.428   1.558   0.975
 9619SOL    HW229757   1.458   1.563   1.135
 9620SOL     OW29758   3.367   1.272   6.094
 9620SOL    HW129759   3.371   1.176   6.066
 9620SOL    HW229760   3.407   1.282   6.185
 9621SOL     OW29761   6.820   0.333   0.593
 9621SOL    HW129762   6.783   0.243   0.616
 9621SOL    HW229763   6.817   0.347   0.494
 9622SOL     OW29764   6.799   0.446   4.713
 9622SOL    HW129765   6.760   0.491   4.793
 9622SOL    HW229766   6.802   0.511   4.636
 9623SOL     OW29767   2.147   5.636   6.051
 9623SOL    HW129768   2.104   5.618   6.140
 9623SOL    HW229769   2.081   5.618   5.978
 9624SOL     OW29770   3.984   4.972   6.169
 9624SOL    HW129771   3.896   5.006   6.203
 9624SOL    HW229772   4.021   4.906   6.233
 9625SOL     OW29773   5.219   4.036   6.296
 9625SOL    HW129774   5.198   3.940   6.313
 9625SOL    HW229775   5.311   4.043   6.258
 9626SOL     OW29776   3.029   2.715   6.841
 9626SOL    HW129777   2.958   2.666   6.891
 9626SOL    HW229778   3.060   2.793   6.896
 9627SOL     OW29779   0.056   5.421   0.366
 9627SOL    HW129780   0.047   5.322   0.365
 9627SOL    HW229781   0.123   5.450   0.297
 9628SOL     OW29782   6.228   1.413   5.414
 9628SOL    HW129783   6.218   1.492   5.354
 9628SOL    HW229784   6.167   1.422   5.492
 9629SOL     OW29785   0.559   5.928   3.966
 9629SOL    HW129786   0.560   6.023   3.998
 9629SOL    HW229787   0.592   5.924   3.872
 9630SOL     OW29788   6.113   0.475   5.604
 9630SOL    HW129789   6.169   0.446   5.526
 9630SOL    HW229790   6.076   0.566   5.586
 9631SOL     OW29791   4.247   6.258   0.189
 9631SOL    HW129792   4.211   6.349   0.207
 9631SOL    HW229793   4.302   6.260   0.105
 9632SOL     OW29794   2.716   5.573   2.771
 9632SOL    HW129795   2.783   5.621   2.827
 9632SOL    HW229796   2.758   5.493   2.730
 9633SOL     OW29797   1.994   3.111   5.722
 9633SOL    HW129798   1.966   3.083   5.814
 9633SOL    HW229799   2.021   3.030   5.669
 9634SOL     OW29800   5.864   4.710   3.238
 9634SOL    HW129801   5.895   4.797   3.275
 9634SOL    HW229802   5.838   4.722   3.142
 9635SOL     OW29803   1.218   5.422   4.062
 9635SOL    HW129804   1.157   5.410   4.140
 9635SOL    HW229805   1.307   5.455   4.095
 9636SOL     OW29806   4.910   3.559   3.632
 9636SOL    HW129807   4.857   3.556   3.717
 9636SOL    HW229808   4.933   3.654   3.611
 9637SOL     OW29809   3.517   2.456   6.407
 9637SOL    HW129810   3.581   2.462   6.330
 9637SOL    HW229811   3.481   2.547   6.427
 9638SOL     OW29812   1.308   4.278   6.449
 9638SOL    HW129813   1.271   4.335   6.523
 9638SOL    HW229814   1.388   4.228   6.482
 9639SOL     OW29815   5.806   2.835   1.399
 9639SOL    HW129816   5.892   2.840   1.449
 9639SOL    HW229817   5.774   2.741   1.396
 9640SOL     OW29818   3.010   6.385   3.308
 9640SOL    HW129819   2.920   6.421   3.336
 9640SOL    HW229820   3.018   6.391   3.209
 9641SOL     OW29821   1.189   2.537   4.579
 9641SOL    HW129822   1.090   2.551   4.577
 9641SOL    HW229823   1.235   2.619   4.543
 9642SOL     OW29824   0.815   3.200   4.472
 9642SOL    HW129825   0.876   3.140   4.419
 9642SOL    HW229826   0.731   3.215   4.421
 9643SOL     OW29827   6.590   5.508   4.650
 9643SOL    HW129828   6.539   5.582   4.606
 9643SOL    HW229829   6.676   5.544   4.686
 9644SOL     OW29830   1.092   4.616   3.592
 9644SOL    HW129831   1.028   4.656   3.527
 9644SOL    HW229832   1.170   4.678   3.604
 9645SOL     OW29833   0.359   5.198   0.424
 9645SOL    HW129834   0.264   5.224   0.413
 9645SOL    HW229835   0.375   5.110   0.379
 9646SOL     OW29836   2.360   5.359   0.554
 9646SOL    HW129837   2.281   5.302   0.572
 9646SOL    HW229838   2.336   5.455   0.568
 9647SOL     OW29839   5.000   0.050   2.758
 9647SOL    HW129840   5.003   0.149   2.777
 9647SOL    HW229841   5.089   0.010   2.778
 9648SOL     OW29842   3.821   2.248   0.625
 9648SOL    HW129843   3.888   2.251   0.552
 9648SOL    HW229844   3.843   2.173   0.687
 9649SOL     OW29845   0.235   5.521   0.178
 9649SOL    HW129846   0.316   5.469   0.153
 9649SOL    HW229847   0.251   5.618   0.162
 9650SOL     OW29848   0.058   5.389   5.390
 9650SOL    HW129849   0.087   5.389   5.294
 9650SOL    HW229850   7.020   5.310   5.406
 9651SOL     OW29851   3.873   1.003   0.786
 9651SOL    HW129852   3.793   1.059   0.763
 9651SOL    HW229853   3.928   1.050   0.855
 9652SOL     OW29854   0.317   4.143   7.008
 9652SOL    HW129855   0.288   4.049   0.005
 9652SOL    HW229856   0.416   4.146   6.998
 9653SOL     OW29857   5.884   3.679   4.717
 9653SOL    HW129858   5.923   3.587   4.708
 9653SOL    HW229859   5.955   3.743   4.745
 9654SOL     OW29860   3.858   3.446   4.399
 9654SOL    HW129861   3.905   3.486   4.477
 9654SOL    HW229862   3.788   3.509   4.366
 9655SOL     OW29863   4.510   0.781   0.543
 9655SOL    HW129864   4.410   0.779   0.547
 9655SOL    HW229865   4.544   0.855   0.602
 9656SOL     OW29866   5.146   4.945   4.942
 9656SOL    HW129867   5.137   4.969   5.038
 9656SOL    HW229868   5.195   5.018   4.894
 9657SOL     OW29869   5.010   5.231   2.495
 9657SOL    HW129870   4.997   5.235   2.594
 9657SOL    HW229871   4.923   5.209   2.451
 9658SOL     OW29872   5.046   1.214   2.726
 9658SOL    HW129873   5.076   1.154   2.652
 9658SOL    HW229874   4.969   1.172   2.775
 9659SOL     OW29875   4.023   3.474   0.379
 9659SOL    HW129876   4.086   3.552   0.380
 9659SOL    HW229877   4.062   3.400   0.434
 9660SOL     OW29878   2.727   0.163   1.908
 9660SOL    HW129879   2.736   0.262   1.907
 9660SOL    HW229880   2.638   0.137   1.869
 9661SOL     OW29881   3.632   3.958   2.253
 9661SOL    HW129882   3.717   3.944   2.202
 9661SOL    HW229883   3.571   4.017   2.201
 9662SOL     OW29884   3.927   0.630   4.772
 9662SOL    HW129885   4.022   0.605   4.786
 9662SOL    HW229886   3.888   0.663   4.858
 9663SOL     OW29887   1.117   5.478   2.077
 9663SOL    HW129888   1.176   5.542   2.126
 9663SOL    HW229889   1.046   5.443   2.138
 9664SOL     OW29890   1.769   4.570   2.500
 9664SOL    HW129891   1.673   4.550   2.479
 9664SOL    HW229892   1.785   4.668   2.495
 9665SOL     OW29893   6.039   3.826   6.656
 9665SOL    HW129894   6.063   3.858   6.748
 9665SOL    HW229895   6.088   3.741   6.636
 9666SOL     OW29896   5.280   4.076   1.379
 9666SOL    HW129897   5.202   4.108   1.325
 9666SOL    HW229898   5.362   4.127   1.353
 9667SOL     OW29899   6.030   6.222   0.427
 9667SOL    HW129900   5.934   6.242   0.446
 9667SOL    HW229901   6.041   6.125   0.407
 9668SOL     OW29902   2.360   0.421   0.759
 9668SOL    HW129903   2.321   0.404   0.668
 9668SOL    HW229904   2.390   0.516   0.766
 9669SOL     OW29905   3.512   0.265   0.930
 9669SOL    HW129906   3.535   0.177   0.889
 9669SOL    HW229907   3.485   0.329   0.858
 9670SOL     OW29908   0.617   0.356   2.492
 9670SOL    HW129909   0.636   0.367   2.589
 9670SOL    HW229910   0.618   0.445   2.447
 9671SOL     OW29911   0.972   6.132   6.416
 9671SOL    HW129912   0.877   6.142   6.388
 9671SOL    HW229913   1.024   6.089   6.342
 9672SOL     OW29914   0.210   4.195   4.622
 9672SOL    HW129915   0.263   4.144   4.690
 9672SOL    HW229916   0.122   4.222   4.662
 9673SOL     OW29917   2.006   2.873   5.556
 9673SOL    HW129918   1.931   2.808   5.549
 9673SOL    HW229919   2.005   2.935   5.478
 9674SOL     OW29920   1.537   0.361   3.780
 9674SOL    HW129921   1.479   0.419   3.836
 9674SOL    HW229922   1.603   0.418   3.730
 9675SOL     OW29923   6.725   3.964   6.160
 9675SOL    HW129924   6.809   3.926   6.122
 9675SOL    HW229925   6.740   3.992   6.254
 9676SOL     OW29926   0.758   2.848   6.398
 9676SOL    HW129927   0.758   2.944   6.374
 9676SOL    HW229928   0.844   2.805   6.368
 9677SOL     OW29929   0.689   4.913   2.963
 9677SOL    HW129930   0.623   4.893   2.891
 9677SOL    HW229931   0.692   4.836   3.027
 9678SOL     OW29932   4.880   3.356   6.696
 9678SOL    HW129933   4.944   3.369   6.772
 9678SOL    HW229934   4.925   3.383   6.610
 9679SOL     OW29935   1.409   1.415   4.459
 9679SOL    HW129936   1.366   1.496   4.499
 9679SOL    HW229937   1.496   1.441   4.417
 9680SOL     OW29938   4.374   6.218   2.716
 9680SOL    HW129939   4.398   6.312   2.689
 9680SOL    HW229940   4.431   6.191   2.793
 9681SOL     OW29941   0.740   2.468   1.013
 9681SOL    HW129942   0.728   2.385   1.069
 9681SOL    HW229943   0.657   2.485   0.960
 9682SOL     OW29944   4.074   6.563   5.626
 9682SOL    HW129945   4.066   6.543   5.529
 9682SOL    HW229946   4.008   6.507   5.677
 9683SOL     OW29947   3.099   5.900   3.651
 9683SOL    HW129948   3.059   5.894   3.743
 9683SOL    HW229949   3.027   5.896   3.582
 9684SOL     OW29950   1.408   2.464   6.257
 9684SOL    HW129951   1.421   2.562   6.244
 9684SOL    HW229952   1.496   2.417   6.255
 9685SOL     OW29953   3.631   4.585   1.528
 9685SOL    HW129954   3.568   4.585   1.606
 9685SOL    HW229955   3.722   4.611   1.559
 9686SOL     OW29956   0.807   2.030   6.135
 9686SOL    HW129957   0.717   2.039   6.178
 9686SOL    HW229958   0.865   2.106   6.162
 9687SOL     OW29959   5.955   0.282   4.190
 9687SOL    HW129960   5.919   0.340   4.264
 9687SOL    HW229961   5.947   0.186   4.216
 9688SOL     OW29962   0.948   5.227   2.426
 9688SOL    HW129963   0.940   5.236   2.327
 9688SOL    HW229964   1.031   5.274   2.457
 9689SOL     OW29965   1.968   5.831   1.069
 9689SOL    HW129966   1.944   5.787   1.155
 9689SOL    HW229967   1.970   5.930   1.082
 9690SOL     OW29968   5.924   4.485   3.980
 9690SOL    HW129969   5.903   4.555   3.912
 9690SOL    HW229970   5.940   4.398   3.934
 9691SOL     OW29971   4.105   3.841   1.971
 9691SOL    HW129972   4.129   3.746   1.992
 9691SOL    HW229973   4.048   3.878   2.044
 9692SOL     OW29974   6.450   5.567   6.978
 9692SOL    HW129975   6.385   5.627   0.004
 9692SOL    HW229976   6.532   5.619   6.954
 9693SOL     OW29977   4.585   3.693   6.589
 9693SOL    HW129978   4.532   3.757   6.645
 9693SOL    HW229979   4.538   3.679   6.502
 9694SOL     OW29980   2.610   6.208   1.390
 9694SOL    HW129981   2.706   6.179   1.397
 9694SOL    HW229982   2.551   6.141   1.434
 9695SOL     OW29983   1.855   2.920   3.477
 9695SOL    HW129984   1.955   2.923   3.474
 9695SOL    HW229985   1.826   2.862   3.553
 9696SOL     OW29986   4.591   4.345   3.374
 9696SOL    HW129987   4.678   4.295   3.370
 9696SOL    HW229988   4.536   4.308   3.449
 9697SOL     OW29989   6.909   6.949   2.739
 9697SOL    HW129990   6.822   6.973   2.782
 9697SOL    HW229991   6.924   6.850   2.747
 9698SOL     OW29992   0.080   2.514   1.358
 9698SOL    HW129993   0.147   2.440   1.349
 9698SOL    HW229994   0.066   2.557   1.270
 9699SOL     OW29995   1.956   0.100   2.299
 9699SOL    HW129996   1.864   0.075   2.269
 9699SOL    HW229997   1.983   0.043   2.377
 9700SOL     OW29998   6.182   0.675   5.984
 9700SOL    HW129999   6.242   0.643   5.910
 9700SOL    HW230000   6.125   0.750   5.951
 9701SOL     OW30001   5.858   4.032   6.562
 9701SOL    HW130002   5.910   3.961   6.609
 9701SOL    HW230003   5.818   3.994   6.478
 9702SOL     OW30004   2.816   3.676   1.845
 9702SOL    HW130005   2.846   3.655   1.938
 9702SOL    HW230006   2.836   3.771   1.824
 9703SOL     OW30007   6.642   4.454   3.375
 9703SOL    HW130008   6.704   4.507   3.319
 9703SOL    HW230009   6.601   4.513   3.445
 9704SOL     OW30010   1.326   4.751   2.181
 9704SOL    HW130011   1.419   4.715   2.189
 9704SOL    HW230012   1.328   4.838   2.132
 9705SOL     OW30013   0.021   3.904   5.500
 9705SOL    HW130014   6.967   3.952   5.453
 9705SOL    HW230015   7.014   3.884   5.594
 9706SOL     OW30016   0.233   0.204   2.488
 9706SOL    HW130017   0.159   0.271   2.487
 9706SOL    HW230018   0.321   0.252   2.480
 9707SOL     OW30019   0.907   4.748   1.395
 9707SOL    HW130020   0.910   4.745   1.296
 9707SOL    HW230021   0.883   4.658   1.430
 9708SOL     OW30022   2.842   0.738   2.085
 9708SOL    HW130023   2.869   0.653   2.040
 9708SOL    HW230024   2.914   0.807   2.072
 9709SOL     OW30025   3.693   1.763   2.027
 9709SOL    HW130026   3.677   1.766   2.125
 9709SOL    HW230027   3.648   1.841   1.983
 9710SOL     OW30028   5.164   4.645   4.282
 9710SOL    HW130029   5.159   4.668   4.379
 9710SOL    HW230030   5.259   4.633   4.255
 9711SOL     OW30031   3.264   0.364   6.677
 9711SOL    HW130032   3.239   0.433   6.745
 9711SOL    HW230033   3.360   0.340   6.688
 9712SOL     OW30034   4.409   0.005   5.814
 9712SOL    HW130035   4.370   6.963   5.746
 9712SOL    HW230036   4.388   0.099   5.789
 9713SOL     OW30037   0.479   0.775   3.117
 9713SOL    HW130038   0.551   0.784   3.048
 9713SOL    HW230039   0.500   0.698   3.178
 9714SOL     OW30040   2.341   2.792   4.086
 9714SOL    HW130041   2.407   2.753   4.150
 9714SOL    HW230042   2.276   2.721   4.058
 9715SOL     OW30043   0.386   1.826   6.434
 9715SOL    HW130044   0.453   1.751   6.430
 9715SOL    HW230045   0.346   1.839   6.343
 9716SOL     OW30046   1.316   5.912   0.992
 9716SOL    HW130047   1.414   5.927   0.981
 9716SOL    HW230048   1.265   5.981   0.940
 9717SOL     OW30049   4.603   1.873   6.298
 9717SOL    HW130050   4.543   1.931   6.352
 9717SOL    HW230051   4.583   1.777   6.317
 9718SOL     OW30052   2.832   2.602   6.278
 9718SOL    HW130053   2.748   2.640   6.239
 9718SOL    HW230054   2.825   2.603   6.378
 9719SOL     OW30055   4.771   0.454   6.208
 9719SOL    HW130056   4.688   0.402   6.227
 9719SOL    HW230057   4.825   0.464   6.292
 9720SOL     OW30058   2.471   2.600   1.646
 9720SOL    HW130059   2.440   2.505   1.654
 9720SOL    HW230060   2.430   2.641   1.565
 9721SOL     OW30061   0.625   2.058   1.304
 9721SOL    HW130062   0.595   2.082   1.396
 9721SOL    HW230063   0.560   2.094   1.237
 9722SOL     OW30064   3.449   2.848   5.866
 9722SOL    HW130065   3.548   2.841   5.867
 9722SOL    HW230066   3.410   2.791   5.938
 9723SOL     OW30067   5.817   1.349   4.633
 9723SOL    HW130068   5.841   1.258   4.668
 9723SOL    HW230069   5.900   1.402   4.621
 9724SOL     OW30070   1.585   5.293   1.655
 9724SOL    HW130071   1.579   5.308   1.754
 9724SOL    HW230072   1.575   5.380   1.608
 9725SOL     OW30073   5.425   5.404   4.906
 9725SOL    HW130074   5.414   5.441   4.998
 9725SOL    HW230075   5.381   5.465   4.840
 9726SOL     OW30076   6.695   6.879   3.399
 9726SOL    HW130077   6.626   6.856   3.331
 9726SOL    HW230078   6.785   6.853   3.365
 9727SOL     OW30079   6.698   3.087   0.813
 9727SOL    HW130080   6.761   3.154   0.852
 9727SOL    HW230081   6.750   3.014   0.768
 9728SOL     OW30082   4.954   2.031   5.245
 9728SOL    HW130083   4.939   2.125   5.275
 9728SOL    HW230084   5.019   1.986   5.307
 9729SOL     OW30085   6.721   3.606   2.592
 9729SOL    HW130086   6.631   3.641   2.566
 9729SOL    HW230087   6.717   3.506   2.597
 9730SOL     OW30088   0.469   6.021   3.265
 9730SOL    HW130089   0.569   6.030   3.270
 9730SOL    HW230090   0.427   6.109   3.283
 9731SOL     OW30091   6.502   1.118   1.546
 9731SOL    HW130092   6.593   1.121   1.506
 9731SOL    HW230093   6.488   1.200   1.601
 9732SOL     OW30094   6.762   2.937   2.793
 9732SOL    HW130095   6.826   3.014   2.791
 9732SOL    HW230096   6.723   2.923   2.702
 9733SOL     OW30097   5.030   5.740   0.074
 9733SOL    HW130098   4.967   5.797   0.020
 9733SOL    HW230099   5.116   5.729   0.024
 9734SOL     OW30100   3.957   3.692   0.182
 9734SOL    HW130101   3.977   3.597   0.210
 9734SOL    HW230102   4.040   3.733   0.144
 9735SOL     OW30103   1.172   1.570   0.211
 9735SOL    HW130104   1.247   1.586   0.147
 9735SOL    HW230105   1.188   1.484   0.260
 9736SOL     OW30106   5.641   2.657   6.342
 9736SOL    HW130107   5.544   2.633   6.331
 9736SOL    HW230108   5.678   2.687   6.255
 9737SOL     OW30109   5.176   3.474   5.150
 9737SOL    HW130110   5.184   3.570   5.123
 9737SOL    HW230111   5.252   3.422   5.112
 9738SOL     OW30112   2.567   6.362   1.662
 9738SOL    HW130113   2.609   6.299   1.598
 9738SOL    HW230114   2.602   6.346   1.754
 9739SOL     OW30115   5.249   6.216   1.250
 9739SOL    HW130116   5.348   6.228   1.256
 9739SOL    HW230117   5.205   6.305   1.240
 9740SOL     OW30118   6.792   0.081   0.661
 9740SOL    HW130119   6.766   7.019   0.710
 9740SOL    HW230120   6.848   0.057   0.582
 9741SOL     OW30121   2.388   2.635   2.870
 9741SOL    HW130122   2.459   2.605   2.805
 9741SOL    HW230123   2.368   2.562   2.934
 9742SOL     OW30124   5.062   0.053   6.736
 9742SOL    HW130125   5.153   0.014   6.742
 9742SOL    HW230126   5.068   0.149   6.711
 9743SOL     OW30127   5.844   3.432   4.304
 9743SOL    HW130128   5.893   3.356   4.348
 9743SOL    HW230129   5.769   3.395   4.249
 9744SOL     OW30130   1.362   3.068   1.841
 9744SOL    HW130131   1.340   3.142   1.777
 9744SOL    HW230132   1.447   3.023   1.812
 9745SOL     OW30133   1.347   0.117   5.975
 9745SOL    HW130134   1.416   0.054   6.011
 9745SOL    HW230135   1.388   0.173   5.902
 9746SOL     OW30136   3.273   5.752   5.855
 9746SOL    HW130137   3.234   5.833   5.811
 9746SOL    HW230138   3.236   5.743   5.948
 9747SOL     OW30139   4.367   1.637   3.631
 9747SOL    HW130140   4.457   1.642   3.675
 9747SOL    HW230141   4.357   1.712   3.566
 9748SOL     OW30142   0.686   1.900   1.847
 9748SOL    HW130143   0.619   1.826   1.852
 9748SOL    HW230144   0.732   1.909   1.936
 9749SOL     OW30145   6.568   0.161   1.754
 9749SOL    HW130146   6.592   0.257   1.740
 9749SOL    HW230147   6.508   0.131   1.680
 9750SOL     OW30148   5.566   2.748   4.593
 9750SOL    HW130149   5.661   2.724   4.572
 9750SOL    HW230150   5.514   2.754   4.507
 9751SOL     OW30151   2.953   4.808   0.657
 9751SOL    HW130152   2.918   4.818   0.564
 9751SOL    HW230153   2.892   4.855   0.721
 9752SOL     OW30154   4.468   4.200   0.778
 9752SOL    HW130155   4.489   4.209   0.875
 9752SOL    HW230156   4.406   4.123   0.764
 9753SOL     OW30157   5.986   6.177   2.784
 9753SOL    HW130158   6.039   6.093   2.772
 9753SOL    HW230159   5.964   6.189   2.881
 9754SOL     OW30160   3.765   1.129   1.934
 9754SOL    HW130161   3.706   1.159   2.009
 9754SOL    HW230162   3.858   1.163   1.949
 9755SOL     OW30163   3.665   4.464   1.045
 9755SOL    HW130164   3.648   4.420   1.133
 9755SOL    HW230165   3.590   4.444   0.982
 9756SOL     OW30166   4.573   0.029   0.185
 9756SOL    HW130167   4.510   6.990   0.134
 9756SOL    HW230168   4.523   0.109   0.218
 9757SOL     OW30169   5.088   4.273   3.939
 9757SOL    HW130170   5.034   4.353   3.962
 9757SOL    HW230171   5.181   4.283   3.976
 9758SOL     OW30172   3.397   1.047   1.137
 9758SOL    HW130173   3.389   0.965   1.193
 9758SOL    HW230174   3.407   1.127   1.196
 9759SOL     OW30175   6.405   1.369   0.522
 9759SOL    HW130176   6.455   1.340   0.604
 9759SOL    HW230177   6.307   1.375   0.542
 9760SOL     OW30178   4.987   0.958   5.470
 9760SOL    HW130179   4.894   0.962   5.432
 9760SOL    HW230180   4.985   0.985   5.567
 9761SOL     OW30181   0.733   2.655   1.660
 9761SOL    HW130182   0.812   2.707   1.629
 9761SOL    HW230183   0.667   2.646   1.586
 9762SOL     OW30184   3.464   1.173   5.610
 9762SOL    HW130185   3.402   1.223   5.550
 9762SOL    HW230186   3.510   1.101   5.559
 9763SOL     OW30187   6.104   2.354   0.948
 9763SOL    HW130188   6.071   2.352   1.042
 9763SOL    HW230189   6.079   2.269   0.902
 9764SOL     OW30190   0.089   2.726   3.337
 9764SOL    HW130191   0.030   2.766   3.267
 9764SOL    HW230192   0.042   2.647   3.378
 9765SOL     OW30193   6.754   2.200   0.891
 9765SOL    HW130194   6.715   2.109   0.908
 9765SOL    HW230195   6.809   2.227   0.970
 9766SOL     OW30196   0.665   3.371   2.947
 9766SOL    HW130197   0.667   3.444   2.879
 9766SOL    HW230198   0.679   3.283   2.902
 9767SOL     OW30199   4.063   1.722   4.662
 9767SOL    HW130200   3.968   1.748   4.674
 9767SOL    HW230201   4.111   1.794   4.612
 9768SOL     OW30202   4.630   3.509   6.769
 9768SOL    HW130203   4.597   3.569   6.696
 9768SOL    HW230204   4.703   3.451   6.734
 9769SOL     OW30205   3.290   0.739   5.778
 9769SOL    HW130206   3.389   0.741   5.768
 9769SOL    HW230207   3.266   0.698   5.866
 9770SOL     OW30208   1.879   3.605   4.934
 9770SOL    HW130209   1.860   3.528   4.873
 9770SOL    HW230210   1.964   3.649   4.905
 9771SOL     OW30211   3.759   0.574   1.651
 9771SOL    HW130212   3.749   0.664   1.609
 9771SOL    HW230213   3.732   0.580   1.748
 9772SOL     OW30214   0.619   0.942   1.598
 9772SOL    HW130215   0.704   0.939   1.652
 9772SOL    HW230216   0.612   0.861   1.540
 9773SOL     OW30217   4.275   6.300   2.450
 9773SOL    HW130218   4.337   6.240   2.399
 9773SOL    HW230219   4.276   6.275   2.547
 9774SOL     OW30220   1.144   5.352   5.159
 9774SOL    HW130221   1.186   5.275   5.111
 9774SOL    HW230222   1.214   5.420   5.180
 9775SOL     OW30223   1.640   1.374   3.344
 9775SOL    HW130224   1.569   1.421   3.293
 9775SOL    HW230225   1.644   1.411   3.437
 9776SOL     OW30226   0.985   5.553   1.517
 9776SOL    HW130227   1.042   5.493   1.573
 9776SOL    HW230228   0.968   5.510   1.429
 9777SOL     OW30229   4.690   2.388   5.069
 9777SOL    HW130230   4.769   2.401   5.010
 9777SOL    HW230231   4.655   2.295   5.058
 9778SOL     OW30232   1.673   3.269   2.781
 9778SOL    HW130233   1.757   3.223   2.755
 9778SOL    HW230234   1.660   3.263   2.880
 9779SOL     OW30235   2.121   1.145   2.769
 9779SOL    HW130236   2.201   1.175   2.717
 9779SOL    HW230237   2.106   1.047   2.755
 9780SOL     OW30238   1.745   2.010   1.202
 9780SOL    HW130239   1.778   1.984   1.111
 9780SOL    HW230240   1.649   2.037   1.196
 9781SOL     OW30241   1.509   1.132   1.995
 9781SOL    HW130242   1.428   1.181   1.963
 9781SOL    HW230243   1.591   1.180   1.963
 9782SOL     OW30244   0.557   2.301   6.957
 9782SOL    HW130245   0.642   2.296   6.905
 9782SOL    HW230246   0.512   2.211   6.957
 9783SOL     OW30247   5.135   0.956   2.128
 9783SOL    HW130248   5.062   0.930   2.065
 9783SOL    HW230249   5.096   0.977   2.218
 9784SOL     OW30250   2.395   1.248   0.607
 9784SOL    HW130251   2.477   1.197   0.579
 9784SOL    HW230252   2.330   1.250   0.531
 9785SOL     OW30253   1.649   3.805   4.413
 9785SOL    HW130254   1.557   3.843   4.419
 9785SOL    HW230255   1.650   3.714   4.453
 9786SOL     OW30256   3.131   4.106   0.095
 9786SOL    HW130257   3.069   4.098   0.173
 9786SOL    HW230258   3.147   4.016   0.055
 9787SOL     OW30259   2.764   3.508   1.215
 9787SOL    HW130260   2.818   3.592   1.217
 9787SOL    HW230261   2.668   3.530   1.235
 9788SOL     OW30262   2.537   0.055   3.571
 9788SOL    HW130263   2.605   0.125   3.549
 9788SOL    HW230264   2.527   7.014   3.493
 9789SOL     OW30265   4.142   1.891   6.861
 9789SOL    HW130266   4.213   1.943   6.909
 9789SOL    HW230267   4.173   1.797   6.846
 9790SOL     OW30268   4.462   5.777   5.393
 9790SOL    HW130269   4.366   5.792   5.373
 9790SOL    HW230270   4.518   5.834   5.333
 9791SOL     OW30271   0.413   1.024   0.970
 9791SOL    HW130272   0.446   0.972   1.049
 9791SOL    HW230273   0.489   1.047   0.911
 9792SOL     OW30274   3.287   3.325   0.213
 9792SOL    HW130275   3.241   3.239   0.232
 9792SOL    HW230276   3.319   3.365   0.298
 9793SOL     OW30277   5.427   0.779   1.696
 9793SOL    HW130278   5.428   0.683   1.666
 9793SOL    HW230279   5.333   0.813   1.695
 9794SOL     OW30280   4.536   5.989   5.227
 9794SOL    HW130281   4.619   6.034   5.195
 9794SOL    HW230282   4.465   6.057   5.244
 9795SOL     OW30283   1.876   4.042   3.315
 9795SOL    HW130284   1.881   4.097   3.232
 9795SOL    HW230285   1.889   4.101   3.395
 9796SOL     OW30286   4.057   3.498   4.853
 9796SOL    HW130287   4.117   3.475   4.776
 9796SOL    HW230288   4.059   3.597   4.869
 9797SOL     OW30289   3.813   5.173   0.360
 9797SOL    HW130290   3.907   5.158   0.393
 9797SOL    HW230291   3.771   5.247   0.412
 9798SOL     OW30292   0.781   3.962   6.194
 9798SOL    HW130293   0.724   3.884   6.170
 9798SOL    HW230294   0.730   4.026   6.251
 9799SOL     OW30295   3.425   0.126   6.305
 9799SOL    HW130296   3.442   0.138   6.207
 9799SOL    HW230297   3.381   0.037   6.320
 9800SOL     OW30298   6.994   4.265   4.726
 9800SOL    HW130299   6.940   4.265   4.810
 9800SOL    HW230300   6.938   4.301   4.651
 9801SOL     OW30301   3.920   0.048   1.288
 9801SOL    HW130302   3.950   0.093   1.204
 9801SOL    HW230303   3.999   0.036   1.349
 9802SOL     OW30304   4.135   2.547   0.465
 9802SOL    HW130305   4.140   2.614   0.391
 9802SOL    HW230306   4.228   2.516   0.488
 9803SOL     OW30307   2.515   4.066   0.405
 9803SOL    HW130308   2.466   4.142   0.447
 9803SOL    HW230309   2.599   4.047   0.456
 9804SOL     OW30310   0.959   4.065   2.995
 9804SOL    HW130311   1.014   4.100   2.919
 9804SOL    HW230312   1.008   3.990   3.039
 9805SOL     OW30313   6.962   4.501   5.332
 9805SOL    HW130314   6.968   4.551   5.419
 9805SOL    HW230315   6.870   4.513   5.293
 9806SOL     OW30316   3.427   1.436   0.335
 9806SOL    HW130317   3.338   1.472   0.310
 9806SOL    HW230318   3.499   1.495   0.298
 9807SOL     OW30319   3.471   3.476   4.692
 9807SOL    HW130320   3.431   3.555   4.739
 9807SOL    HW230321   3.415   3.451   4.613
 9808SOL     OW30322   2.497   6.339   2.696
 9808SOL    HW130323   2.405   6.304   2.714
 9808SOL    HW230324   2.492   6.414   2.630
 9809SOL     OW30325   6.855   3.300   0.787
 9809SOL    HW130326   6.937   3.344   0.824
 9809SOL    HW230327   6.869   3.279   0.690
 9810SOL     OW30328   4.096   2.697   1.161
 9810SOL    HW130329   4.195   2.696   1.151
 9810SOL    HW230330   4.059   2.782   1.122
 9811SOL     OW30331   4.997   3.521   4.072
 9811SOL    HW130332   4.952   3.433   4.054
 9811SOL    HW230333   5.015   3.531   4.169
 9812SOL     OW30334   3.196   5.310   6.577
 9812SOL    HW130335   3.208   5.228   6.633
 9812SOL    HW230336   3.115   5.300   6.520
 9813SOL     OW30337   4.611   0.679   1.978
 9813SOL    HW130338   4.682   0.657   1.911
 9813SOL    HW230339   4.592   0.597   2.033
 9814SOL     OW30340   6.708   1.540   6.521
 9814SOL    HW130341   6.680   1.610   6.456
 9814SOL    HW230342   6.649   1.460   6.511
 9815SOL     OW30343   5.243   2.482   4.521
 9815SOL    HW130344   5.220   2.386   4.502
 9815SOL    HW230345   5.256   2.494   4.619
 9816SOL     OW30346   3.933   0.794   0.185
 9816SOL    HW130347   3.868   0.809   0.259
 9816SOL    HW230348   3.973   0.703   0.194
 9817SOL     OW30349   6.292   0.074   1.356
 9817SOL    HW130350   6.206   0.038   1.319
 9817SOL    HW230351   6.305   0.041   1.449
 9818SOL     OW30352   3.977   2.173   5.126
 9818SOL    HW130353   4.020   2.105   5.067
 9818SOL    HW230354   4.031   2.257   5.125
 9819SOL     OW30355   2.474   0.532   1.949
 9819SOL    HW130356   2.405   0.476   1.903
 9819SOL    HW230357   2.505   0.485   2.032
 9820SOL     OW30358   4.159   2.877   0.051
 9820SOL    HW130359   4.066   2.840   0.053
 9820SOL    HW230360   4.190   2.883   6.977
 9821SOL     OW30361   0.964   6.421   6.344
 9821SOL    HW130362   0.957   6.355   6.269
 9821SOL    HW230363   0.878   6.423   6.395
 9822SOL     OW30364   0.015   1.505   2.591
 9822SOL    HW130365   6.964   1.575   2.590
 9822SOL    HW230366   0.066   1.508   2.505
 9823SOL     OW30367   3.288   6.598   2.427
 9823SOL    HW130368   3.291   6.556   2.337
 9823SOL    HW230369   3.331   6.688   2.424
 9824SOL     OW30370   2.257   3.975   5.404
 9824SOL    HW130371   2.222   4.068   5.416
 9824SOL    HW230372   2.312   3.970   5.321
 9825SOL     OW30373   4.331   4.674   5.322
 9825SOL    HW130374   4.320   4.703   5.417
 9825SOL    HW230375   4.245   4.635   5.289
 9826SOL     OW30376   6.127   0.466   5.193
 9826SOL    HW130377   6.219   0.443   5.224
 9826SOL    HW230378   6.069   0.384   5.197
 9827SOL     OW30379   0.996   5.524   4.579
 9827SOL    HW130380   0.968   5.620   4.586
 9827SOL    HW230381   0.919   5.469   4.549
 9828SOL     OW30382   2.514   1.389   0.332
 9828SOL    HW130383   2.520   1.458   0.260
 9828SOL    HW230384   2.418   1.375   0.357
 9829SOL     OW30385   3.099   4.151   1.477
 9829SOL    HW130386   3.130   4.057   1.482
 9829SOL    HW230387   3.022   4.158   1.413
 9830SOL     OW30388   5.908   1.212   1.336
 9830SOL    HW130389   5.857   1.296   1.354
 9830SOL    HW230390   6.001   1.235   1.306
 9831SOL     OW30391   6.754   5.710   1.275
 9831SOL    HW130392   6.751   5.614   1.248
 9831SOL    HW230393   6.776   5.717   1.373
 9832SOL     OW30394   2.936   3.746   1.236
 9832SOL    HW130395   2.875   3.822   1.212
 9832SOL    HW230396   3.028   3.766   1.203
 9833SOL     OW30397   5.007   4.440   0.580
 9833SOL    HW130398   5.001   4.345   0.547
 9833SOL    HW230399   5.097   4.477   0.557
 9834SOL     OW30400   1.696   3.140   4.190
 9834SOL    HW130401   1.781   3.131   4.138
 9834SOL    HW230402   1.685   3.235   4.220
 9835SOL     OW30403   4.940   2.192   4.679
 9835SOL    HW130404   4.963   2.163   4.772
 9835SOL    HW230405   4.917   2.289   4.679
 9836SOL     OW30406   5.780   5.094   1.404
 9836SOL    HW130407   5.811   5.131   1.492
 9836SOL    HW230408   5.719   5.159   1.360
 9837SOL     OW30409   2.449   5.365   5.399
 9837SOL    HW130410   2.402   5.356   5.311
 9837SOL    HW230411   2.547   5.351   5.386
 9838SOL     OW30412   6.991   6.679   4.895
 9838SOL    HW130413   0.040   6.749   4.882
 9838SOL    HW230414   0.007   6.604   4.951
 9839SOL     OW30415   5.811   3.119   3.283
 9839SOL    HW130416   5.910   3.130   3.270
 9839SOL    HW230417   5.764   3.203   3.258
 9840SOL     OW30418   5.800   6.886   0.566
 9840SOL    HW130419   5.893   6.904   0.534
 9840SOL    HW230420   5.772   6.959   0.628
 9841SOL     OW30421   1.954   2.974   4.145
 9841SOL    HW130422   1.954   2.876   4.164
 9841SOL    HW230423   2.022   2.995   4.075
 9842SOL     OW30424   3.099   3.137   4.233
 9842SOL    HW130425   3.138   3.224   4.264
 9842SOL    HW230426   3.116   3.067   4.302
 9843SOL     OW30427   6.038   4.462   3.256
 9843SOL    HW130428   5.973   4.538   3.252
 9843SOL    HW230429   5.988   4.376   3.249
 9844SOL     OW30430   4.308   0.206   2.001
 9844SOL    HW130431   4.359   0.285   2.036
 9844SOL    HW230432   4.271   0.227   1.911
 9845SOL     OW30433   1.322   1.867   4.143
 9845SOL    HW130434   1.393   1.841   4.078
 9845SOL    HW230435   1.315   1.966   4.148
 9846SOL     OW30436   2.959   3.540   4.272
 9846SOL    HW130437   2.904   3.567   4.352
 9846SOL    HW230438   3.048   3.507   4.303
 9847SOL     OW30439   2.423   4.522   4.188
 9847SOL    HW130440   2.456   4.544   4.280
 9847SOL    HW230441   2.338   4.571   4.170
 9848SOL     OW30442   6.773   4.409   7.020
 9848SOL    HW130443   6.835   4.481   6.987
 9848SOL    HW230444   6.823   4.348   0.061
 9849SOL     OW30445   6.813   6.132   5.090
 9849SOL    HW130446   6.866   6.069   5.033
 9849SOL    HW230447   6.811   6.098   5.184
 9850SOL     OW30448   5.168   0.063   3.605
 9850SOL    HW130449   5.142   7.006   3.662
 9850SOL    HW230450   5.085   0.113   3.578
 9851SOL     OW30451   5.124   2.609   5.103
 9851SOL    HW130452   5.156   2.521   5.139
 9851SOL    HW230453   5.195   2.678   5.117
 9852SOL     OW30454   5.307   2.009   3.866
 9852SOL    HW130455   5.226   2.068   3.865
 9852SOL    HW230456   5.285   1.920   3.826
 9853SOL     OW30457   0.048   5.139   0.998
 9853SOL    HW130458   0.086   5.137   0.905
 9853SOL    HW230459   6.996   5.207   1.002
 9854SOL     OW30460   3.248   6.602   4.366
 9854SOL    HW130461   3.187   6.586   4.288
 9854SOL    HW230462   3.239   6.696   4.396
 9855SOL     OW30463   2.358   4.489   0.648
 9855SOL    HW130464   2.374   4.532   0.737
 9855SOL    HW230465   2.265   4.510   0.617
 9856SOL     OW30466   3.647   3.521   1.025
 9856SOL    HW130467   3.634   3.548   1.120
 9856SOL    HW230468   3.674   3.601   0.971
 9857SOL     OW30469   6.247   4.532   3.091
 9857SOL    HW130470   6.216   4.494   3.179
 9857SOL    HW230471   6.345   4.550   3.096
 9858SOL     OW30472   3.450   1.457   1.492
 9858SOL    HW130473   3.395   1.531   1.455
 9858SOL    HW230474   3.520   1.431   1.426
 9859SOL     OW30475   0.383   6.608   1.298
 9859SOL    HW130476   0.378   6.633   1.395
 9859SOL    HW230477   0.415   6.687   1.245
 9860SOL     OW30478   1.195   1.000   2.927
 9860SOL    HW130479   1.138   1.003   2.844
 9860SOL    HW230480   1.281   0.954   2.906
 9861SOL     OW30481   2.249   6.216   3.440
 9861SOL    HW130482   2.259   6.303   3.488
 9861SOL    HW230483   2.335   6.194   3.393
 9862SOL     OW30484   0.285   1.824   0.732
 9862SOL    HW130485   0.316   1.794   0.642
 9862SOL    HW230486   0.292   1.923   0.739
 9863SOL     OW30487   4.726   0.550   0.659
 9863SOL    HW130488   4.660   0.606   0.608
 9863SOL    HW230489   4.754   0.472   0.604
 9864SOL     OW30490   3.535   5.763   3.565
 9864SOL    HW130491   3.497   5.671   3.563
 9864SOL    HW230492   3.635   5.758   3.557
 9865SOL     OW30493   1.810   3.407   4.025
 9865SOL    HW130494   1.908   3.428   4.024
 9865SOL    HW230495   1.768   3.452   4.104
 9866SOL     OW30496   2.843   4.744   3.331
 9866SOL    HW130497   2.917   4.721   3.268
 9866SOL    HW230498   2.811   4.837   3.312
 9867SOL     OW30499   3.513   6.376   5.855
 9867SOL    HW130500   3.449   6.388   5.930
 9867SOL    HW230501   3.518   6.461   5.801
 9868SOL     OW30502   1.273   5.202   5.833
 9868SOL    HW130503   1.234   5.120   5.790
 9868SOL    HW230504   1.208   5.277   5.827
 9869SOL     OW30505   0.992   4.917   2.696
 9869SOL    HW130506   1.086   4.908   2.663
 9869SOL    HW230507   0.985   4.881   2.789
 9870SOL     OW30508   4.508   5.539   1.695
 9870SOL    HW130509   4.525   5.592   1.778
 9870SOL    HW230510   4.552   5.583   1.617
 9871SOL     OW30511   2.358   2.536   5.802
 9871SOL    HW130512   2.295   2.586   5.743
 9871SOL    HW230513   2.382   2.593   5.881
 9872SOL     OW30514   1.386   3.774   2.826
 9872SOL    HW130515   1.444   3.752   2.747
 9872SOL    HW230516   1.444   3.799   2.904
 9873SOL     OW30517   2.131   2.201   1.288
 9873SOL    HW130518   2.193   2.215   1.365
 9873SOL    HW230519   2.184   2.202   1.203
 9874SOL     OW30520   1.072   4.088   4.363
 9874SOL    HW130521   1.083   4.142   4.279
 9874SOL    HW230522   1.133   4.125   4.433
 9875SOL     OW30523   1.431   1.471   3.206
 9875SOL    HW130524   1.362   1.481   3.134
 9875SOL    HW230525   1.401   1.401   3.271
 9876SOL     OW30526   6.616   5.871   2.304
 9876SOL    HW130527   6.660   5.782   2.321
 9876SOL    HW230528   6.557   5.863   2.223
 9877SOL     OW30529   4.045   0.533   1.299
 9877SOL    HW130530   3.975   0.482   1.348
 9877SOL    HW230531   4.108   0.576   1.364
 9878SOL     OW30532   6.512   1.583   5.093
 9878SOL    HW130533   6.587   1.646   5.073
 9878SOL    HW230534   6.472   1.550   5.008
 9879SOL     OW30535   5.154   5.227   5.297
 9879SOL    HW130536   5.155   5.241   5.198
 9879SOL    HW230537   5.106   5.303   5.341
 9880SOL     OW30538   1.325   2.633   3.796
 9880SOL    HW130539   1.379   2.567   3.743
 9880SOL    HW230540   1.262   2.681   3.736
 9881SOL     OW30541   0.434   1.406   5.918
 9881SOL    HW130542   0.419   1.308   5.911
 9881SOL    HW230543   0.452   1.443   5.827
 9882SOL     OW30544   1.788   2.621   3.479
 9882SOL    HW130545   1.880   2.654   3.460
 9882SOL    HW230546   1.723   2.696   3.465
 9883SOL     OW30547   2.679   1.706   2.403
 9883SOL    HW130548   2.600   1.658   2.441
 9883SOL    HW230549   2.741   1.640   2.361
 9884SOL     OW30550   3.051   0.691   3.851
 9884SOL    HW130551   3.032   0.756   3.776
 9884SOL    HW230552   3.090   0.607   3.813
 9885SOL     OW30553   6.516   2.863   5.123
 9885SOL    HW130554   6.560   2.952   5.112
 9885SOL    HW230555   6.476   2.834   5.036
 9886SOL     OW30556   6.945   2.880   1.798
 9886SOL    HW130557   6.984   2.908   1.886
 9886SOL    HW230558   7.004   2.811   1.756
 9887SOL     OW30559   4.573   6.130   5.778
 9887SOL    HW130560   4.641   6.158   5.709
 9887SOL    HW230561   4.504   6.202   5.787
 9888SOL     OW30562   6.466   4.953   5.257
 9888SOL    HW130563   6.367   4.948   5.270
 9888SOL    HW230564   6.500   5.038   5.297
 9889SOL     OW30565   0.640   5.757   0.808
 9889SOL    HW130566   0.567   5.742   0.876
 9889SOL    HW230567   0.727   5.728   0.847
 9890SOL     OW30568   0.769   2.748   1.107
 9890SOL    HW130569   0.785   2.649   1.107
 9890SOL    HW230570   0.730   2.775   1.019
 9891SOL     OW30571   4.972   1.050   2.317
 9891SOL    HW130572   4.873   1.044   2.319
 9891SOL    HW230573   4.999   1.146   2.305
 9892SOL     OW30574   0.984   0.360   6.531
 9892SOL    HW130575   0.896   0.405   6.512
 9892SOL    HW230576   1.041   0.364   6.449
 9893SOL     OW30577   2.237   1.359   0.401
 9893SOL    HW130578   2.199   1.450   0.419
 9893SOL    HW230579   2.166   1.300   0.364
 9894SOL     OW30580   1.898   0.657   1.815
 9894SOL    HW130581   1.803   0.669   1.785
 9894SOL    HW230582   1.922   0.731   1.878
 9895SOL     OW30583   4.382   2.710   5.578
 9895SOL    HW130584   4.403   2.693   5.481
 9895SOL    HW230585   4.457   2.760   5.620
 9896SOL     OW30586   6.386   6.861   5.743
 9896SOL    HW130587   6.302   6.824   5.782
 9896SOL    HW230588   6.461   6.796   5.755
 9897SOL     OW30589   5.659   5.013   5.054
 9897SOL    HW130590   5.585   4.991   4.991
 9897SOL    HW230591   5.683   5.109   5.045
 9898SOL     OW30592   2.536   6.888   6.679
 9898SOL    HW130593   2.611   6.947   6.647
 9898SOL    HW230594   2.452   6.942   6.685
 9899SOL     OW30595   0.098   4.935   0.054
 9899SOL    HW130596   0.043   4.913   6.994
 9899SOL    HW230597   0.140   5.025   0.042
 9900SOL     OW30598   2.355   4.848   3.517
 9900SOL    HW130599   2.388   4.778   3.580
 9900SOL    HW230600   2.316   4.805   3.436
 9901SOL     OW30601   2.141   3.435   5.292
 9901SOL    HW130602   2.168   3.506   5.228
 9901SOL    HW230603   2.138   3.347   5.245
 9902SOL     OW30604   2.808   4.378   1.143
 9902SOL    HW130605   2.805   4.478   1.149
 9902SOL    HW230606   2.728   4.346   1.092
 9903SOL     OW30607   5.494   1.356   5.134
 9903SOL    HW130608   5.412   1.298   5.141
 9903SOL    HW230609   5.552   1.323   5.060
 9904SOL     OW30610   6.243   1.742   0.333
 9904SOL    HW130611   6.170   1.810   0.335
 9904SOL    HW230612   6.282   1.733   0.425
 9905SOL     OW30613   5.151   0.052   0.295
 9905SOL    HW130614   5.083   0.025   0.363
 9905SOL    HW230615   5.240   0.062   0.339
 9906SOL     OW30616   3.064   3.368   5.184
 9906SOL    HW130617   2.970   3.403   5.178
 9906SOL    HW230618   3.061   3.272   5.213
 9907SOL     OW30619   1.508   6.562   1.696
 9907SOL    HW130620   1.421   6.527   1.662
 9907SOL    HW230621   1.582   6.502   1.667
 9908SOL     OW30622   5.330   3.587   2.001
 9908SOL    HW130623   5.237   3.625   1.997
 9908SOL    HW230624   5.366   3.578   1.908
 9909SOL     OW30625   1.643   0.292   4.441
 9909SOL    HW130626   1.570   0.294   4.373
 9909SOL    HW230627   1.605   0.267   4.530
 9910SOL     OW30628   0.288   4.585   4.373
 9910SOL    HW130629   0.256   4.495   4.345
 9910SOL    HW230630   0.237   4.614   4.455
 9911SOL     OW30631   2.432   6.483   2.433
 9911SOL    HW130632   2.457   6.390   2.408
 9911SOL    HW230633   2.504   6.546   2.402
 9912SOL     OW30634   4.733   0.655   5.567
 9912SOL    HW130635   4.713   0.619   5.658
 9912SOL    HW230636   4.767   0.749   5.575
 9913SOL     OW30637   5.276   2.867   0.642
 9913SOL    HW130638   5.343   2.831   0.707
 9913SOL    HW230639   5.306   2.958   0.610
 9914SOL     OW30640   0.005   3.296   4.604
 9914SOL    HW130641   0.068   3.369   4.632
 9914SOL    HW230642   0.033   3.260   4.515
 9915SOL     OW30643   4.400   1.354   3.687
 9915SOL    HW130644   4.401   1.451   3.661
 9915SOL    HW230645   4.375   1.345   3.783
 9916SOL     OW30646   1.388   2.943   1.557
 9916SOL    HW130647   1.301   2.990   1.541
 9916SOL    HW230648   1.463   3.009   1.548
 9917SOL     OW30649   6.315   4.723   5.769
 9917SOL    HW130650   6.341   4.733   5.865
 9917SOL    HW230651   6.216   4.724   5.761
 9918SOL     OW30652   4.804   2.991   2.512
 9918SOL    HW130653   4.894   2.961   2.544
 9918SOL    HW230654   4.798   3.091   2.519
 9919SOL     OW30655   5.272   5.788   0.301
 9919SOL    HW130656   5.200   5.729   0.263
 9919SOL    HW230657   5.261   5.794   0.401
 9920SOL     OW30658   4.543   1.060   2.508
 9920SOL    HW130659   4.457   1.022   2.545
 9920SOL    HW230660   4.620   1.020   2.558
 9921SOL     OW30661   4.065   4.877   5.927
 9921SOL    HW130662   4.039   4.780   5.926
 9921SOL    HW230663   4.030   4.920   6.010
 9922SOL     OW30664   0.362   6.057   1.254
 9922SOL    HW130665   0.328   6.030   1.164
 9922SOL    HW230666   0.368   6.156   1.259
 9923SOL     OW30667   6.428   4.267   0.280
 9923SOL    HW130668   6.502   4.211   0.316
 9923SOL    HW230669   6.341   4.233   0.313
 9924SOL     OW30670   1.564   4.505   4.550
 9924SOL    HW130671   1.477   4.497   4.501
 9924SOL    HW230672   1.639   4.506   4.484
 9925SOL     OW30673   4.880   2.398   4.119
 9925SOL    HW130674   4.855   2.494   4.107
 9925SOL    HW230675   4.980   2.391   4.130
 9926SOL     OW30676   3.775   5.024   1.532
 9926SOL    HW130677   3.758   5.033   1.631
 9926SOL    HW230678   3.763   5.114   1.489
 9927SOL     OW30679   5.409   0.308   4.326
 9927SOL    HW130680   5.381   0.282   4.234
 9927SOL    HW230681   5.490   0.366   4.320
 9928SOL     OW30682   5.073   4.185   2.462
 9928SOL    HW130683   5.129   4.199   2.380
 9928SOL    HW230684   5.127   4.135   2.530
 9929SOL     OW30685   0.773   4.016   3.231
 9929SOL    HW130686   0.786   4.113   3.208
 9929SOL    HW230687   0.860   3.978   3.263
 9930SOL     OW30688   5.466   0.739   2.899
 9930SOL    HW130689   5.528   0.746   2.977
 9930SOL    HW230690   5.392   0.676   2.922
 9931SOL     OW30691   1.433   5.692   5.547
 9931SOL    HW130692   1.346   5.648   5.570
 9931SOL    HW230693   1.507   5.625   5.552
 9932SOL     OW30694   0.288   5.599   4.241
 9932SOL    HW130695   0.246   5.677   4.288
 9932SOL    HW230696   0.346   5.632   4.167
 9933SOL     OW30697   6.742   6.545   2.787
 9933SOL    HW130698   6.703   6.567   2.876
 9933SOL    HW230699   6.672   6.506   2.728
 9934SOL     OW30700   6.979   2.501   4.707
 9934SOL    HW130701   0.004   2.557   4.775
 9934SOL    HW230702   6.910   2.556   4.659
 9935SOL     OW30703   2.097   0.388   5.837
 9935SOL    HW130704   2.031   0.420   5.769
 9935SOL    HW230705   2.051   0.328   5.902
 9936SOL     OW30706   1.854   4.359   3.953
 9936SOL    HW130707   1.804   4.393   4.032
 9936SOL    HW230708   1.948   4.392   3.956
 9937SOL     OW30709   6.305   2.416   5.946
 9937SOL    HW130710   6.208   2.438   5.944
 9937SOL    HW230711   6.317   2.319   5.970
 9938SOL     OW30712   6.799   6.001   2.641
 9938SOL    HW130713   6.829   6.089   2.605
 9938SOL    HW230714   6.743   6.016   2.724
 9939SOL     OW30715   3.276   3.090   4.001
 9939SOL    HW130716   3.194   3.068   4.052
 9939SOL    HW230717   3.355   3.042   4.042
 9940SOL     OW30718   0.204   0.897   0.860
 9940SOL    HW130719   0.269   0.952   0.912
 9940SOL    HW230720   0.230   0.801   0.865
 9941SOL     OW30721   3.351   5.725   4.973
 9941SOL    HW130722   3.392   5.683   4.892
 9941SOL    HW230723   3.418   5.786   5.016
 9942SOL     OW30724   2.895   6.092   3.899
 9942SOL    HW130725   2.806   6.087   3.944
 9942SOL    HW230726   2.915   6.187   3.877
 9943SOL     OW30727   0.604   6.700   4.834
 9943SOL    HW130728   0.703   6.697   4.851
 9943SOL    HW230729   0.587   6.695   4.735
 9944SOL     OW30730   1.814   4.509   6.229
 9944SOL    HW130731   1.912   4.520   6.240
 9944SOL    HW230732   1.790   4.519   6.132
 9945SOL     OW30733   0.224   5.641   6.403
 9945SOL    HW130734   0.198   5.591   6.321
 9945SOL    HW230735   0.145   5.650   6.464
 9946SOL     OW30736   5.427   0.221   4.072
 9946SOL    HW130737   5.450   0.125   4.085
 9946SOL    HW230738   5.496   0.265   4.014
 9947SOL     OW30739   6.149   4.234   4.169
 9947SOL    HW130740   6.092   4.263   4.245
 9947SOL    HW230741   6.191   4.314   4.126
 9948SOL     OW30742   5.374   4.020   3.812
 9948SOL    HW130743   5.375   4.041   3.910
 9948SOL    HW230744   5.417   3.931   3.797
 9949SOL     OW30745   6.273   4.870   2.062
 9949SOL    HW130746   6.311   4.779   2.041
 9949SOL    HW230747   6.257   4.920   1.977
 9950SOL     OW30748   4.059   6.061   0.194
 9950SOL    HW130749   3.979   6.112   0.224
 9950SOL    HW230750   4.142   6.114   0.212
 9951SOL     OW30751   5.841   3.072   2.647
 9951SOL    HW130752   5.839   3.156   2.593
 9951SOL    HW230753   5.836   3.095   2.745
 9952SOL     OW30754   0.725   4.638   6.408
 9952SOL    HW130755   0.745   4.598   6.498
 9952SOL    HW230756   0.667   4.575   6.356
 9953SOL     OW30757   5.559   3.099   3.701
 9953SOL    HW130758   5.606   3.064   3.782
 9953SOL    HW230759   5.509   3.182   3.725
 9954SOL     OW30760   5.030   0.880   4.841
 9954SOL    HW130761   5.094   0.850   4.769
 9954SOL    HW230762   4.973   0.954   4.805
 9955SOL     OW30763   0.797   4.874   4.658
 9955SOL    HW130764   0.855   4.805   4.704
 9955SOL    HW230765   0.855   4.948   4.625
 9956SOL     OW30766   0.688   6.018   0.205
 9956SOL    HW130767   0.635   5.971   0.275
 9956SOL    HW230768   0.738   6.095   0.246
 9957SOL     OW30769   5.632   5.573   2.312
 9957SOL    HW130770   5.595   5.578   2.219
 9957SOL    HW230771   5.729   5.598   2.310
 9958SOL     OW30772   3.129   4.572   0.623
 9958SOL    HW130773   3.221   4.590   0.658
 9958SOL    HW230774   3.077   4.657   0.617
 9959SOL     OW30775   3.623   4.136   1.103
 9959SOL    HW130776   3.587   4.054   1.058
 9959SOL    HW230777   3.586   4.141   1.196
 9960SOL     OW30778   0.774   0.907   2.117
 9960SOL    HW130779   0.688   0.873   2.078
 9960SOL    HW230780   0.825   0.830   2.156
 9961SOL     OW30781   2.220   4.040   4.500
 9961SOL    HW130782   2.226   4.021   4.402
 9961SOL    HW230783   2.191   3.957   4.548
 9962SOL     OW30784   5.925   6.308   4.684
 9962SOL    HW130785   5.951   6.395   4.725
 9962SOL    HW230786   6.007   6.254   4.666
 9963SOL     OW30787   3.048   2.392   0.564
 9963SOL    HW130788   3.147   2.379   0.573
 9963SOL    HW230789   3.008   2.312   0.519
 9964SOL     OW30790   5.566   6.395   4.772
 9964SOL    HW130791   5.663   6.416   4.769
 9964SOL    HW230792   5.531   6.405   4.865
 9965SOL     OW30793   4.732   0.199   1.889
 9965SOL    HW130794   4.728   0.214   1.790
 9965SOL    HW230795   4.731   0.101   1.908
 9966SOL     OW30796   6.798   1.221   2.662
 9966SOL    HW130797   6.728   1.263   2.602
 9966SOL    HW230798   6.768   1.130   2.688
 9967SOL     OW30799   0.932   5.401   0.258
 9967SOL    HW130800   0.848   5.371   0.304
 9967SOL    HW230801   0.985   5.321   0.231
 9968SOL     OW30802   3.585   2.993   3.219
 9968SOL    HW130803   3.574   2.955   3.310
 9968SOL    HW230804   3.660   2.946   3.171
 9969SOL     OW30805   1.657   3.428   0.799
 9969SOL    HW130806   1.570   3.478   0.800
 9969SOL    HW230807   1.711   3.458   0.721
 9970SOL     OW30808   6.839   4.136   2.518
 9970SOL    HW130809   6.910   4.096   2.576
 9970SOL    HW230810   6.779   4.064   2.484
 9971SOL     OW30811   2.666   6.762   6.928
 9971SOL    HW130812   2.636   6.723   7.015
 9971SOL    HW230813   2.590   6.813   6.887
 9972SOL     OW30814   6.706   4.985   1.707
 9972SOL    HW130815   6.697   4.887   1.725
 9972SOL    HW230816   6.677   5.037   1.787
 9973SOL     OW30817   5.037   6.403   3.789
 9973SOL    HW130818   4.940   6.412   3.810
 9973SOL    HW230819   5.072   6.490   3.753
 9974SOL     OW30820   2.615   1.099   4.236
 9974SOL    HW130821   2.517   1.087   4.222
 9974SOL    HW230822   2.666   1.036   4.177
 9975SOL     OW30823   6.522   3.952   1.195
 9975SOL    HW130824   6.564   4.031   1.150
 9975SOL    HW230825   6.424   3.965   1.204
 9976SOL     OW30826   2.909   6.379   4.415
 9976SOL    HW130827   2.841   6.341   4.478
 9976SOL    HW230828   2.864   6.408   4.331
 9977SOL     OW30829   6.724   4.960   3.904
 9977SOL    HW130830   6.715   5.027   3.978
 9977SOL    HW230831   6.698   4.870   3.938
 9978SOL     OW30832   6.905   3.146   4.242
 9978SOL    HW130833   6.898   3.097   4.155
 9978SOL    HW230834   7.001   3.169   4.259
 9979SOL     OW30835   1.360   3.538   5.160
 9979SOL    HW130836   1.393   3.475   5.230
 9979SOL    HW230837   1.374   3.632   5.190
 9980SOL     OW30838   2.980   6.537   5.798
 9980SOL    HW130839   3.068   6.563   5.758
 9980SOL    HW230840   2.908   6.547   5.729
 9981SOL     OW30841   3.681   1.908   3.248
 9981SOL    HW130842   3.749   1.978   3.272
 9981SOL    HW230843   3.650   1.923   3.154
 9982SOL     OW30844   6.218   6.875   2.915
 9982SOL    HW130845   6.215   6.960   2.966
 9982SOL    HW230846   6.178   6.889   2.824
 9983SOL     OW30847   6.606   0.804   1.234
 9983SOL    HW130848   6.535   0.850   1.181
 9983SOL    HW230849   6.612   0.708   1.207
 9984SOL     OW30850   3.180   0.503   6.892
 9984SOL    HW130851   3.248   0.547   6.950
 9984SOL    HW230852   3.115   0.572   6.860
 9985SOL     OW30853   1.578   1.900   0.759
 9985SOL    HW130854   1.513   1.857   0.696
 9985SOL    HW230855   1.666   1.854   0.754
 9986SOL     OW30856   5.128   4.119   4.748
 9986SOL    HW130857   5.160   4.074   4.831
 9986SOL    HW230858   5.051   4.068   4.709
 9987SOL     OW30859   0.220   4.103   5.132
 9987SOL    HW130860   0.304   4.050   5.144
 9987SOL    HW230861   0.201   4.154   5.216
 9988SOL     OW30862   6.505   1.159   4.081
 9988SOL    HW130863   6.407   1.164   4.061
 9988SOL    HW230864   6.553   1.229   4.029
 9989SOL     OW30865   1.850   2.411   4.916
 9989SOL    HW130866   1.944   2.440   4.935
 9989SOL    HW230867   1.824   2.339   4.980
 9990SOL     OW30868   1.034   4.483   1.121
 9990SOL    HW130869   0.963   4.553   1.116
 9990SOL    HW230870   1.095   4.492   1.042
 9991SOL     OW30871   3.949   2.097   3.352
 9991SOL    HW130872   4.002   2.181   3.355
 9991SOL    HW230873   3.881   2.097   3.425
 9992SOL     OW30874   6.342   4.931   6.590
 9992SOL    HW130875   6.373   4.952   6.683
 9992SOL    HW230876   6.412   4.878   6.543
 9993SOL     OW30877   1.130   0.908   1.791
 9993SOL    HW130878   1.198   0.922   1.719
 9993SOL    HW230879   1.093   0.996   1.820
 9994SOL     OW30880   5.829   4.296   3.523
 9994SOL    HW130881   5.765   4.363   3.485
 9994SOL    HW230882   5.843   4.222   3.457
 9995SOL     OW30883   5.204   1.902   4.238
 9995SOL    HW130884   5.275   1.848   4.193
 9995SOL    HW230885   5.148   1.948   4.169
 9996SOL     OW30886   3.082   3.083   1.018
 9996SOL    HW130887   3.158   3.037   1.063
 9996SOL    HW230888   3.116   3.165   0.971
 9997SOL     OW30889   2.619   0.809   4.442
 9997SOL    HW130890   2.597   0.863   4.361
 9997SOL    HW230891   2.697   0.850   4.490
 9998SOL     OW30892   6.113   5.972   5.270
 9998SOL    HW130893   6.074   6.012   5.187
 9998SOL    HW230894   6.053   5.991   5.347
 9999SOL     OW30895   0.455   0.610   5.108
 9999SOL    HW130896   0.398   0.530   5.088
 9999SOL    HW230897   0.411   0.665   5.179
10000SOL     OW30898   6.567   4.950   0.655
10000SOL    HW130899   6.506   5.030   0.652
10000SOL    HW230900   6.537   4.888   0.728
10001SOL     OW30901   3.512   0.713   3.383
10001SOL    HW130902   3.418   0.710   3.415
10001SOL    HW230903   3.569   0.654   3.441
10002SOL     OW30904   1.335   2.317   1.882
10002SOL    HW130905   1.288   2.397   1.843
10002SOL    HW230906   1.278   2.277   1.954
10003SOL     OW30907   5.221   3.814   1.358
10003SOL    HW130908   5.264   3.740   1.409
10003SOL    HW230909   5.232   3.900   1.408
10004SOL     OW30910   5.811   3.657   4.112
10004SOL    HW130911   5.875   3.596   4.066
10004SOL    HW230912   5.809   3.637   4.210
10005SOL     OW30913   4.493   6.875   3.277
10005SOL    HW130914   4.423   6.939   3.308
10005SOL    HW230915   4.548   6.918   3.205
10006SOL     OW30916   5.373   2.650   4.363
10006SOL    HW130917   5.327   2.728   4.404
10006SOL    HW230918   5.350   2.567   4.414
10007SOL     OW30919   4.752   5.226   3.835
10007SOL    HW130920   4.753   5.256   3.931
10007SOL    HW230921   4.832   5.263   3.788
10008SOL     OW30922   2.389   6.677   4.139
10008SOL    HW130923   2.448   6.744   4.093
10008SOL    HW230924   2.406   6.679   4.237
10009SOL     OW30925   2.330   4.256   1.820
10009SOL    HW130926   2.378   4.172   1.795
10009SOL    HW230927   2.396   4.330   1.833
10010SOL     OW30928   5.203   0.768   5.443
10010SOL    HW130929   5.180   0.694   5.506
10010SOL    HW230930   5.127   0.832   5.436
10011SOL     OW30931   6.332   6.820   3.875
10011SOL    HW130932   6.284   6.734   3.863
10011SOL    HW230933   6.368   6.826   3.968
10012SOL     OW30934   4.779   1.694   4.901
10012SOL    HW130935   4.725   1.679   4.984
10012SOL    HW230936   4.743   1.637   4.827
10013SOL     OW30937   1.665   0.544   1.331
10013SOL    HW130938   1.625   0.489   1.258
10013SOL    HW230939   1.600   0.552   1.407
10014SOL     OW30940   1.573   5.010   5.802
10014SOL    HW130941   1.475   5.004   5.820
10014SOL    HW230942   1.607   5.099   5.834
10015SOL     OW30943   2.574   5.840   6.269
10015SOL    HW130944   2.584   5.857   6.171
10015SOL    HW230945   2.503   5.900   6.306
10016SOL     OW30946   2.278   1.449   4.988
10016SOL    HW130947   2.247   1.396   4.910
10016SOL    HW230948   2.208   1.447   5.060
10017SOL     OW30949   6.321   1.904   3.159
10017SOL    HW130950   6.306   1.954   3.074
10017SOL    HW230951   6.311   1.806   3.143
10018SOL     OW30952   4.183   6.832   6.133
10018SOL    HW130953   4.183   6.739   6.169
10018SOL    HW230954   4.206   6.830   6.036
10019SOL     OW30955   0.735   0.765   3.533
10019SOL    HW130956   0.749   0.836   3.601
10019SOL    HW230957   0.782   0.790   3.448
10020SOL     OW30958   1.172   3.991   0.486
10020SOL    HW130959   1.150   3.938   0.404
10020SOL    HW230960   1.096   4.053   0.507
10021SOL     OW30961   4.870   2.888   1.535
10021SOL    HW130962   4.961   2.858   1.567
10021SOL    HW230963   4.804   2.880   1.610
10022SOL     OW30964   2.523   1.143   5.938
10022SOL    HW130965   2.505   1.133   6.036
10022SOL    HW230966   2.446   1.191   5.894
10023SOL     OW30967   0.582   3.086   0.154
10023SOL    HW130968   0.583   3.090   0.054
10023SOL    HW230969   0.538   3.000   0.183
10024SOL     OW30970   0.574   3.612   2.428
10024SOL    HW130971   0.652   3.675   2.419
10024SOL    HW230972   0.553   3.573   2.339
10025SOL     OW30973   1.311   1.577   0.821
10025SOL    HW130974   1.332   1.623   0.735
10025SOL    HW230975   1.245   1.503   0.805
10026SOL     OW30976   6.084   0.818   4.517
10026SOL    HW130977   6.132   0.752   4.574
10026SOL    HW230978   6.148   0.862   4.454
10027SOL     OW30979   6.002   2.728   5.925
10027SOL    HW130980   5.977   2.776   5.840
10027SOL    HW230981   6.081   2.774   5.966
10028SOL     OW30982   1.407   2.066   1.403
10028SOL    HW130983   1.437   2.042   1.311
10028SOL    HW230984   1.438   1.997   1.468
10029SOL     OW30985   3.634   1.237   4.750
10029SOL    HW130986   3.581   1.177   4.690
10029SOL    HW230987   3.723   1.195   4.769
10030SOL     OW30988   0.454   1.190   1.543
10030SOL    HW130989   0.506   1.107   1.564
10030SOL    HW230990   0.383   1.168   1.476
10031SOL     OW30991   0.300   5.237   2.958
10031SOL    HW130992   0.223   5.232   3.021
10031SOL    HW230993   0.318   5.332   2.935
10032SOL     OW30994   3.714   2.084   5.170
10032SOL    HW130995   3.804   2.112   5.136
10032SOL    HW230996   3.655   2.060   5.092
10033SOL     OW30997   6.225   2.841   4.259
10033SOL    HW130998   6.258   2.869   4.350
10033SOL    HW230999   6.125   2.848   4.256
10034SOL     OW31000   3.842   6.425   6.147
10034SOL    HW131001   3.821   6.358   6.076
10034SOL    HW231002   3.888   6.380   6.223
10035SOL     OW31003   0.365   6.194   4.370
10035SOL    HW131004   0.305   6.134   4.317
10035SOL    HW231005   0.426   6.139   4.427
10036SOL     OW31006   6.045   0.110   0.263
10036SOL    HW131007   6.015   0.028   0.214
10036SOL    HW231008   6.017   0.103   0.359
10037SOL     OW31009   6.899   0.143   1.407
10037SOL    HW131010   6.930   0.178   1.495
10037SOL    HW231011   6.800   0.152   1.400
10038SOL     OW31012   5.696   6.834   1.664
10038SOL    HW131013   5.775   6.781   1.633
10038SOL    HW231014   5.619   6.818   1.603
10039SOL     OW31015   3.753   0.979   2.955
10039SOL    HW131016   3.820   0.913   2.989
10039SOL    HW231017   3.709   1.025   3.033
10040SOL     OW31018   0.881   1.535   0.448
10040SOL    HW131019   0.956   1.596   0.423
10040SOL    HW231020   0.905   1.483   0.529
10041SOL     OW31021   0.718   6.623   0.078
10041SOL    HW131022   0.669   6.549   0.125
10041SOL    HW231023   0.673   6.710   0.099
10042SOL     OW31024   6.450   1.780   4.002
10042SOL    HW131025   6.540   1.756   4.040
10042SOL    HW231026   6.396   1.828   4.072
10043SOL     OW31027   2.452   3.295   5.332
10043SOL    HW131028   2.353   3.298   5.348
10043SOL    HW231029   2.474   3.214   5.278
10044SOL     OW31030   3.919   0.774   6.267
10044SOL    HW131031   3.939   0.870   6.282
10044SOL    HW231032   3.861   0.740   6.341
10045SOL     OW31033   2.741   0.132   1.488
10045SOL    HW131034   2.747   0.033   1.477
10045SOL    HW231035   2.764   0.177   1.402
10046SOL     OW31036   0.790   6.561   6.841
10046SOL    HW131037   0.790   6.649   6.792
10046SOL    HW231038   0.767   6.577   6.937
10047SOL     OW31039   1.664   4.199   1.244
10047SOL    HW131040   1.617   4.285   1.266
10047SOL    HW231041   1.603   4.142   1.189
10048SOL     OW31042   6.545   3.124   1.045
10048SOL    HW131043   6.588   3.089   0.962
10048SOL    HW231044   6.446   3.113   1.039
10049SOL     OW31045   6.589   1.884   4.455
10049SOL    HW131046   6.583   1.897   4.356
10049SOL    HW231047   6.678   1.847   4.478
10050SOL     OW31048   0.410   2.064   5.682
10050SOL    HW131049   0.414   1.998   5.757
10050SOL    HW231050   0.493   2.120   5.682
10051SOL     OW31051   1.589   0.443   2.350
10051SOL    HW131052   1.620   0.425   2.443
10051SOL    HW231053   1.653   0.402   2.284
10052SOL     OW31054   0.691   7.016   4.349
10052SOL    HW131055   0.767   0.059   4.338
10052SOL    HW231056   0.608   0.035   4.311
10053SOL     OW31057   5.936   5.314   2.048
10053SOL    HW131058   5.936   5.244   2.118
10053SOL    HW231059   6.004   5.384   2.070
10054SOL     OW31060   4.868   4.547   3.693
10054SOL    HW131061   4.812   4.517   3.771
10054SOL    HW231062   4.965   4.539   3.717
10055SOL     OW31063   1.954   1.905   6.864
10055SOL    HW131064   1.911   1.995   6.853
10055SOL    HW231065   1.932   1.849   6.784
10056SOL     OW31066   4.778   2.939   4.626
10056SOL    HW131067   4.778   2.921   4.527
10056SOL    HW231068   4.725   2.867   4.672
10057SOL     OW31069   5.886   4.173   4.807
10057SOL    HW131070   5.799   4.125   4.816
10057SOL    HW231071   5.935   4.138   4.728
10058SOL     OW31072   5.762   3.951   4.157
10058SOL    HW131073   5.675   3.960   4.205
10058SOL    HW231074   5.796   3.857   4.165
10059SOL     OW31075   5.389   6.246   6.190
10059SOL    HW131076   5.407   6.263   6.287
10059SOL    HW231077   5.470   6.205   6.148
10060SOL     OW31078   3.322   1.074   1.833
10060SOL    HW131079   3.293   1.135   1.907
10060SOL    HW231080   3.381   1.123   1.770
10061SOL     OW31081   3.976   0.283   3.011
10061SOL    HW131082   3.941   0.306   2.920
10061SOL    HW231083   3.907   0.306   3.080
10062SOL     OW31084   6.422   6.992   4.487
10062SOL    HW131085   6.357   7.003   4.413
10062SOL    HW231086   6.469   0.057   4.504
10063SOL     OW31087   4.214   2.251   2.848
10063SOL    HW131088   4.175   2.294   2.766
10063SOL    HW231089   4.285   2.310   2.886
10064SOL     OW31090   2.133   6.357   2.395
10064SOL    HW131091   2.218   6.406   2.379
10064SOL    HW231092   2.083   6.402   2.470
10065SOL     OW31093   6.574   1.700   1.509
10065SOL    HW131094   6.657   1.755   1.499
10065SOL    HW231095   6.532   1.686   1.420
10066SOL     OW31096   5.905   4.269   3.791
10066SOL    HW131097   5.843   4.274   3.713
10066SOL    HW231098   5.946   4.178   3.795
10067SOL     OW31099   5.467   3.460   5.250
10067SOL    HW131100   5.498   3.438   5.343
10067SOL    HW231101   5.378   3.506   5.255
10068SOL     OW31102   2.128   4.422   3.068
10068SOL    HW131103   2.098   4.334   3.031
10068SOL    HW231104   2.076   4.496   3.025
10069SOL     OW31105   3.120   5.358   1.051
10069SOL    HW131106   3.061   5.288   1.011
10069SOL    HW231107   3.214   5.344   1.018
10070SOL     OW31108   5.267   0.268   6.857
10070SOL    HW131109   5.188   0.329   6.851
10070SOL    HW231110   5.301   0.265   6.951
10071SOL     OW31111   5.345   1.548   4.662
10071SOL    HW131112   5.312   1.642   4.666
10071SOL    HW231113   5.332   1.513   4.569
10072SOL     OW31114   5.744   3.137   1.753
10072SOL    HW131115   5.760   3.117   1.850
10072SOL    HW231116   5.736   3.236   1.741
10073SOL     OW31117   5.652   5.549   5.618
10073SOL    HW131118   5.581   5.487   5.652
10073SOL    HW231119   5.644   5.557   5.519
10074SOL     OW31120   2.083   4.482   1.163
10074SOL    HW131121   2.064   4.540   1.243
10074SOL    HW231122   2.006   4.419   1.149
10075SOL     OW31123   0.448   3.599   1.701
10075SOL    HW131124   0.416   3.509   1.729
10075SOL    HW231125   0.545   3.609   1.726
10076SOL     OW31126   6.309   4.801   3.971
10076SOL    HW131127   6.282   4.838   3.883
10076SOL    HW231128   6.263   4.852   4.044
10077SOL     OW31129   4.262   3.840   0.102
10077SOL    HW131130   4.302   3.914   0.048
10077SOL    HW231131   4.250   3.870   0.196
10078SOL     OW31132   5.915   6.131   3.518
10078SOL    HW131133   5.825   6.095   3.544
10078SOL    HW231134   5.904   6.202   3.449
10079SOL     OW31135   6.099   4.894   3.155
10079SOL    HW131136   6.139   4.859   3.240
10079SOL    HW231137   6.166   4.890   3.082
10080SOL     OW31138   5.141   2.880   4.649
10080SOL    HW131139   5.099   2.800   4.691
10080SOL    HW231140   5.095   2.963   4.679
10081SOL     OW31141   1.560   5.043   0.825
10081SOL    HW131142   1.514   5.062   0.911
10081SOL    HW231143   1.525   5.104   0.754
10082SOL     OW31144   6.679   4.447   1.928
10082SOL    HW131145   6.608   4.469   1.861
10082SOL    HW231146   6.769   4.449   1.885
10083SOL     OW31147   3.153   5.727   2.740
10083SOL    HW131148   3.159   5.628   2.748
10083SOL    HW231149   3.243   5.764   2.715
10084SOL     OW31150   1.811   3.929   4.642
10084SOL    HW131151   1.732   3.890   4.595
10084SOL    HW231152   1.882   3.859   4.651
10085SOL     OW31153   3.562   6.861   1.906
10085SOL    HW131154   3.624   6.880   1.982
10085SOL    HW231155   3.615   6.832   1.827
10086SOL     OW31156   2.546   1.037   3.071
10086SOL    HW131157   2.532   0.950   3.024
10086SOL    HW231158   2.462   1.065   3.117
10087SOL     OW31159   1.098   5.564   6.852
10087SOL    HW131160   1.049   5.543   6.768
10087SOL    HW231161   1.155   5.645   6.839
10088SOL     OW31162   5.323   1.730   1.000
10088SOL    HW131163   5.409   1.769   0.968
10088SOL    HW231164   5.330   1.631   1.003
10089SOL     OW31165   3.665   6.816   3.269
10089SOL    HW131166   3.704   6.779   3.353
10089SOL    HW231167   3.588   6.760   3.240
10090SOL     OW31168   3.581   6.052   2.797
10090SOL    HW131169   3.680   6.057   2.798
10090SOL    HW231170   3.548   6.060   2.703
10091SOL     OW31171   4.532   6.060   3.533
10091SOL    HW131172   4.513   6.106   3.619
10091SOL    HW231173   4.477   5.977   3.526
10092SOL     OW31174   6.475   1.324   2.253
10092SOL    HW131175   6.485   1.392   2.180
10092SOL    HW231176   6.464   1.233   2.212
10093SOL     OW31177   4.459   4.106   6.363
10093SOL    HW131178   4.426   4.035   6.301
10093SOL    HW231179   4.436   4.196   6.325
10094SOL     OW31180   4.609   3.142   0.082
10094SOL    HW131181   4.677   3.126   0.010
10094SOL    HW231182   4.547   3.215   0.053
10095SOL     OW31183   4.382   2.661   5.300
10095SOL    HW131184   4.301   2.629   5.249
10095SOL    HW231185   4.454   2.591   5.295
10096SOL     OW31186   6.188   4.637   1.451
10096SOL    HW131187   6.089   4.648   1.464
10096SOL    HW231188   6.217   4.687   1.370
10097SOL     OW31189   0.459   0.690   1.082
10097SOL    HW131190   0.382   0.690   1.147
10097SOL    HW231191   0.425   0.713   0.991
10098SOL     OW31192   3.916   4.866   0.452
10098SOL    HW131193   3.842   4.890   0.515
10098SOL    HW231194   3.975   4.945   0.438
10099SOL     OW31195   0.243   6.210   3.044
10099SOL    HW131196   0.190   6.165   2.971
10099SOL    HW231197   0.338   6.179   3.039
10100SOL     OW31198   5.538   5.710   3.957
10100SOL    HW131199   5.599   5.774   4.005
10100SOL    HW231200   5.453   5.757   3.933
10101SOL     OW31201   6.894   2.298   6.174
10101SOL    HW131202   6.925   2.206   6.197
10101SOL    HW231203   6.823   2.327   6.237
10102SOL     OW31204   6.889   5.188   3.719
10102SOL    HW131205   6.939   5.115   3.766
10102SOL    HW231206   6.798   5.155   3.694
10103SOL     OW31207   0.552   0.749   6.571
10103SOL    HW131208   0.643   0.780   6.543
10103SOL    HW231209   0.550   0.649   6.572
10104SOL     OW31210   2.963   1.656   4.573
10104SOL    HW131211   2.947   1.668   4.671
10104SOL    HW231212   3.042   1.712   4.546
10105SOL     OW31213   3.568   1.587   4.539
10105SOL    HW131214   3.557   1.505   4.483
10105SOL    HW231215   3.479   1.627   4.559
10106SOL     OW31216   6.972   3.627   1.617
10106SOL    HW131217   6.973   3.586   1.526
10106SOL    HW231218   7.012   3.719   1.614
10107SOL     OW31219   4.634   5.486   5.375
10107SOL    HW131220   4.561   5.547   5.343
10107SOL    HW231221   4.710   5.489   5.310
10108SOL     OW31222   3.201   1.782   4.822
10108SOL    HW131223   3.105   1.806   4.838
10108SOL    HW231224   3.259   1.856   4.856
10109SOL     OW31225   1.616   3.151   0.669
10109SOL    HW131226   1.604   3.232   0.725
10109SOL    HW231227   1.679   3.088   0.714
10110SOL     OW31228   6.379   6.071   1.874
10110SOL    HW131229   6.401   6.051   1.778
10110SOL    HW231230   6.452   6.128   1.913
10111SOL     OW31231   6.380   2.300   1.552
10111SOL    HW131232   6.374   2.389   1.507
10111SOL    HW231233   6.297   2.248   1.536
10112SOL     OW31234   0.166   3.044   3.800
10112SOL    HW131235   0.076   3.004   3.782
10112SOL    HW231236   0.154   3.136   3.836
10113SOL     OW31237   7.001   6.758   5.864
10113SOL    HW131238   6.916   6.799   5.830
10113SOL    HW231239   0.046   6.751   5.789
10114SOL     OW31240   6.030   4.468   1.198
10114SOL    HW131241   6.129   4.473   1.184
10114SOL    HW231242   5.998   4.556   1.234
10115SOL     OW31243   2.620   1.735   6.735
10115SOL    HW131244   2.580   1.694   6.654
10115SOL    HW231245   2.558   1.806   6.770
10116SOL     OW31246   1.128   0.150   6.122
10116SOL    HW131247   1.040   0.108   6.105
10116SOL    HW231248   1.192   0.127   6.049
10117SOL     OW31249   0.846   4.558   0.787
10117SOL    HW131250   0.835   4.657   0.800
10117SOL    HW231251   0.780   4.526   0.719
10118SOL     OW31252   3.819   5.424   3.148
10118SOL    HW131253   3.807   5.494   3.078
10118SOL    HW231254   3.847   5.338   3.106
10119SOL     OW31255   5.917   5.638   6.693
10119SOL    HW131256   5.922   5.539   6.705
10119SOL    HW231257   5.860   5.678   6.765
10120SOL     OW31258   2.309   2.275   2.371
10120SOL    HW131259   2.212   2.285   2.351
10120SOL    HW231260   2.355   2.231   2.294
10121SOL     OW31261   6.443   5.865   2.067
10121SOL    HW131262   6.404   5.940   2.015
10121SOL    HW231263   6.369   5.811   2.109
10122SOL     OW31264   2.032   6.937   3.827
10122SOL    HW131265   2.035   7.007   3.755
10122SOL    HW231266   2.035   6.981   3.917
10123SOL     OW31267   6.040   6.377   6.680
10123SOL    HW131268   6.127   6.381   6.729
10123SOL    HW231269   6.027   6.460   6.626
10124SOL     OW31270   0.516   4.514   3.423
10124SOL    HW131271   0.454   4.496   3.347
10124SOL    HW231272   0.469   4.568   3.493
10125SOL     OW31273   2.286   2.431   4.184
10125SOL    HW131274   2.260   2.490   4.108
10125SOL    HW231275   2.206   2.381   4.216
10126SOL     OW31276   0.015   6.154   4.668
10126SOL    HW131277   6.953   6.148   4.723
10126SOL    HW231278   0.064   6.238   4.690
10127SOL     OW31279   2.660   0.613   4.848
10127SOL    HW131280   2.616   0.642   4.763
10127SOL    HW231281   2.643   0.515   4.863
10128SOL     OW31282   3.182   0.753   0.634
10128SOL    HW131283   3.138   0.836   0.670
10128SOL    HW231284   3.245   0.716   0.703
10129SOL     OW31285   6.824   2.064   5.780
10129SOL    HW131286   6.899   2.105   5.729
10129SOL    HW231287   6.754   2.133   5.797
10130SOL     OW31288   0.780   2.999   3.441
10130SOL    HW131289   0.861   3.050   3.471
10130SOL    HW231290   0.801   2.901   3.442
10131SOL     OW31291   2.475   0.701   4.647
10131SOL    HW131292   2.520   0.740   4.566
10131SOL    HW231293   2.387   0.662   4.620
10132SOL     OW31294   5.755   0.741   2.018
10132SOL    HW131295   5.813   0.752   2.098
10132SOL    HW231296   5.810   0.708   1.941
10133SOL     OW31297   4.841   5.463   1.195
10133SOL    HW131298   4.883   5.549   1.225
10133SOL    HW231299   4.851   5.454   1.096
10134SOL     OW31300   6.444   1.161   2.680
10134SOL    HW131301   6.438   1.238   2.744
10134SOL    HW231302   6.425   1.193   2.587
10135SOL     OW31303   6.189   6.589   3.041
10135SOL    HW131304   6.237   6.575   3.128
10135SOL    HW231305   6.196   6.686   3.015
10136SOL     OW31306   5.466   0.223   3.086
10136SOL    HW131307   5.428   0.303   3.131
10136SOL    HW231308   5.419   0.208   2.999
10137SOL     OW31309   5.938   5.579   2.312
10137SOL    HW131310   5.994   5.498   2.301
10137SOL    HW231311   5.961   5.625   2.398
10138SOL     OW31312   0.303   1.425   1.621
10138SOL    HW131313   0.325   1.329   1.606
10138SOL    HW231314   0.268   1.465   1.536
10139SOL     OW31315   4.301   2.297   0.576
10139SOL    HW131316   4.295   2.289   0.676
10139SOL    HW231317   4.387   2.341   0.551
10140SOL     OW31318   6.134   6.109   3.333
10140SOL    HW131319   6.056   6.100   3.394
10140SOL    HW231320   6.106   6.089   3.239
10141SOL     OW31321   1.016   1.746   5.601
10141SOL    HW131322   1.070   1.758   5.517
10141SOL    HW231323   0.948   1.819   5.607
10142SOL     OW31324   3.957   6.116   1.805
10142SOL    HW131325   3.858   6.129   1.792
10142SOL    HW231326   3.973   6.025   1.844
10143SOL     OW31327   0.631   3.344   6.573
10143SOL    HW131328   0.706   3.409   6.575
10143SOL    HW231329   0.587   3.341   6.663
10144SOL     OW31330   4.681   0.204   2.896
10144SOL    HW131331   4.711   0.286   2.846
10144SOL    HW231332   4.750   0.179   2.963
10145SOL     OW31333   6.322   1.213   5.225
10145SOL    HW131334   6.283   1.276   5.292
10145SOL    HW231335   6.315   1.254   5.134
10146SOL     OW31336   1.630   1.245   5.176
10146SOL    HW131337   1.586   1.272   5.091
10146SOL    HW231338   1.570   1.267   5.253
10147SOL     OW31339   4.302   4.571   6.965
10147SOL    HW131340   4.361   4.652   6.952
10147SOL    HW231341   4.302   4.546   0.040
10148SOL     OW31342   6.572   5.916   6.446
10148SOL    HW131343   6.559   5.885   6.352
10148SOL    HW231344   6.519   5.998   6.463
10149SOL     OW31345   3.681   2.951   4.422
10149SOL    HW131346   3.620   2.893   4.476
10149SOL    HW231347   3.744   3.000   4.482
10150SOL     OW31348   6.695   4.001   6.779
10150SOL    HW131349   6.647   4.068   6.722
10150SOL    HW231350   6.677   3.909   6.744
10151SOL     OW31351   0.208   0.347   0.025
10151SOL    HW131352   0.232   0.382   6.955
10151SOL    HW231353   0.169   0.421   0.080
10152SOL     OW31354   3.309   6.963   4.161
10152SOL    HW131355   3.276   6.954   4.255
10152SOL    HW231356   3.249   6.910   4.100
10153SOL     OW31357   4.201   4.605   0.450
10153SOL    HW131358   4.251   4.640   0.529
10153SOL    HW231359   4.106   4.585   0.477
10154SOL     OW31360   4.587   4.941   6.304
10154SOL    HW131361   4.555   5.024   6.350
10154SOL    HW231362   4.649   4.966   6.230
10155SOL     OW31363   4.898   2.460   4.700
10155SOL    HW131364   4.821   2.488   4.643
10155SOL    HW231365   4.951   2.540   4.728
10156SOL     OW31366   3.064   1.958   6.585
10156SOL    HW131367   3.058   1.880   6.522
10156SOL    HW231368   3.059   1.925   6.679
10157SOL     OW31369   0.245   5.788   2.312
10157SOL    HW131370   0.301   5.779   2.230
10157SOL    HW231371   0.261   5.710   2.372
10158SOL     OW31372   0.458   4.581   6.051
10158SOL    HW131373   0.449   4.489   6.089
10158SOL    HW231374   0.378   4.601   5.995
10159SOL     OW31375   4.136   3.004   1.835
10159SOL    HW131376   4.149   2.977   1.739
10159SOL    HW231377   4.069   2.944   1.878
10160SOL     OW31378   6.890   4.576   2.720
10160SOL    HW131379   6.797   4.553   2.692
10160SOL    HW231380   6.902   4.675   2.720
10161SOL     OW31381   6.713   2.707   0.265
10161SOL    HW131382   6.709   2.608   0.279
10161SOL    HW231383   6.717   2.727   0.167
10162SOL     OW31384   2.160   1.990   2.290
10162SOL    HW131385   2.124   1.897   2.300
10162SOL    HW231386   2.205   2.018   2.375
10163SOL     OW31387   4.086   5.391   4.620
10163SOL    HW131388   4.143   5.343   4.553
10163SOL    HW231389   3.990   5.387   4.592
10164SOL     OW31390   0.012   1.781   3.486
10164SOL    HW131391   0.095   1.749   3.439
10164SOL    HW231392   7.006   1.870   3.449
10165SOL     OW31393   2.047   3.110   3.740
10165SOL    HW131394   2.056   3.011   3.731
10165SOL    HW231395   2.065   3.153   3.651
10166SOL     OW31396   3.507   6.352   3.988
10166SOL    HW131397   3.518   6.275   3.925
10166SOL    HW231398   3.413   6.355   4.021
10167SOL     OW31399   3.618   1.984   0.270
10167SOL    HW131400   3.654   2.037   0.193
10167SOL    HW231401   3.527   1.950   0.247
10168SOL     OW31402   0.283   1.130   6.669
10168SOL    HW131403   0.193   1.155   6.635
10168SOL    HW231404   0.285   1.139   6.768
10169SOL     OW31405   4.616   4.929   2.569
10169SOL    HW131406   4.652   4.859   2.631
10169SOL    HW231407   4.573   5.002   2.622
10170SOL     OW31408   4.482   6.762   0.051
10170SOL    HW131409   4.565   6.775   7.017
10170SOL    HW231410   4.413   6.830   0.023
10171SOL     OW31411   1.336   4.806   3.102
10171SOL    HW131412   1.393   4.742   3.155
10171SOL    HW231413   1.327   4.772   3.008
10172SOL     OW31414   0.293   0.235   3.101
10172SOL    HW131415   0.281   0.290   3.184
10172SOL    HW231416   0.270   0.291   3.021
10173SOL     OW31417   4.500   2.506   3.990
10173SOL    HW131418   4.546   2.418   4.005
10173SOL    HW231419   4.526   2.570   4.063
10174SOL     OW31420   3.888   5.795   1.120
10174SOL    HW131421   3.948   5.868   1.089
10174SOL    HW231422   3.838   5.824   1.201
10175SOL     OW31423   6.764   6.830   4.519
10175SOL    HW131424   6.718   6.884   4.589
10175SOL    HW231425   6.851   6.796   4.555
10176SOL     OW31426   0.081   1.707   4.662
10176SOL    HW131427   7.012   1.721   4.620
10176SOL    HW231428   0.069   1.691   4.760
10177SOL     OW31429   3.066   0.492   4.887
10177SOL    HW131430   3.079   0.394   4.873
10177SOL    HW231431   3.151   0.532   4.923
10178SOL     OW31432   5.900   1.497   2.097
10178SOL    HW131433   5.802   1.517   2.101
10178SOL    HW231434   5.927   1.445   2.178
10179SOL     OW31435   6.920   6.099   0.924
10179SOL    HW131436   6.890   6.048   1.005
10179SOL    HW231437   7.003   6.150   0.945
10180SOL     OW31438   2.316   0.315   6.174
10180SOL    HW131439   2.364   0.345   6.256
10180SOL    HW231440   2.336   0.378   6.099
10181SOL     OW31441   0.170   4.227   2.408
10181SOL    HW131442   0.108   4.192   2.479
10181SOL    HW231443   0.181   4.326   2.420
10182SOL     OW31444   2.719   6.841   6.369
10182SOL    HW131445   2.631   6.862   6.326
10182SOL    HW231446   2.705   6.771   6.440
10183SOL     OW31447   3.684   6.127   6.721
10183SOL    HW131448   3.724   6.081   6.801
10183SOL    HW231449   3.605   6.076   6.689
10184SOL     OW31450   5.233   2.900   4.194
10184SOL    HW131451   5.258   2.903   4.291
10184SOL    HW231452   5.312   2.871   4.140
10185SOL     OW31453   2.807   4.813   1.809
10185SOL    HW131454   2.816   4.746   1.883
10185SOL    HW231455   2.885   4.876   1.812
10186SOL     OW31456   3.375   3.443   1.981
10186SOL    HW131457   3.303   3.432   1.912
10186SOL    HW231458   3.340   3.413   2.070
10187SOL     OW31459   1.275   3.582   4.766
10187SOL    HW131460   1.367   3.569   4.804
10187SOL    HW231461   1.262   3.679   4.745
10188SOL     OW31462   2.514   6.693   0.150
10188SOL    HW131463   2.449   6.746   0.095
10188SOL    HW231464   2.565   6.755   0.210
10189SOL     OW31465   1.537   1.389   5.378
10189SOL    HW131466   1.621   1.440   5.362
10189SOL    HW231467   1.460   1.453   5.380
10190SOL     OW31468   2.591   4.291   0.993
10190SOL    HW131469   2.517   4.347   1.030
10190SOL    HW231470   2.553   4.205   0.958
10191SOL     OW31471   6.526   0.497   6.857
10191SOL    HW131472   6.529   0.403   6.825
10191SOL    HW231473   6.478   0.501   6.945
10192SOL     OW31474   3.212   0.969   3.965
10192SOL    HW131475   3.115   0.964   3.943
10192SOL    HW231476   3.249   0.876   3.972
10193SOL     OW31477   3.965   3.248   4.013
10193SOL    HW131478   3.878   3.242   4.062
10193SOL    HW231479   4.039   3.270   4.077
10194SOL     OW31480   3.173   5.955   3.175
10194SOL    HW131481   3.221   5.894   3.112
10194SOL    HW231482   3.231   6.033   3.198
10195SOL     OW31483   5.337   6.502   1.744
10195SOL    HW131484   5.425   6.534   1.778
10195SOL    HW231485   5.347   6.470   1.650
10196SOL     OW31486   4.766   4.656   4.067
10196SOL    HW131487   4.794   4.724   4.136
10196SOL    HW231488   4.667   4.663   4.053
10197SOL     OW31489   5.739   1.989   2.587
10197SOL    HW131490   5.656   2.044   2.589
10197SOL    HW231491   5.734   1.918   2.657
10198SOL     OW31492   3.273   1.251   2.038
10198SOL    HW131493   3.293   1.340   2.079
10198SOL    HW231494   3.305   1.178   2.099
10199SOL     OW31495   1.470   2.010   6.954
10199SOL    HW131496   1.516   2.009   0.022
10199SOL    HW231497   1.529   2.052   6.886
10200SOL     OW31498   4.087   6.870   4.081
10200SOL    HW131499   4.162   6.895   4.021
10200SOL    HW231500   4.063   6.774   4.066
10201SOL     OW31501   0.554   5.071   2.576
10201SOL    HW131502   0.499   5.149   2.607
10201SOL    HW231503   0.648   5.081   2.609
10202SOL     OW31504   1.451   3.154   3.826
10202SOL    HW131505   1.471   3.103   3.909
10202SOL    HW231506   1.518   3.129   3.755
10203SOL     OW31507   6.575   2.381   1.279
10203SOL    HW131508   6.652   2.370   1.341
10203SOL    HW231509   6.517   2.456   1.311
10204SOL     OW31510   1.387   5.767   4.005
10204SOL    HW131511   1.412   5.798   3.913
10204SOL    HW231512   1.288   5.765   4.014
10205SOL     OW31513   3.642   6.795   1.595
10205SOL    HW131514   3.674   6.880   1.554
10205SOL    HW231515   3.605   6.735   1.523
10206SOL     OW31516   6.189   5.778   6.688
10206SOL    HW131517   6.153   5.843   6.755
10206SOL    HW231518   6.115   5.722   6.652
10207SOL     OW31519   3.348   1.500   2.123
10207SOL    HW131520   3.351   1.585   2.176
10207SOL    HW231521   3.349   1.521   2.026
10208SOL     OW31522   0.891   2.265   6.257
10208SOL    HW131523   0.949   2.328   6.205
10208SOL    HW231524   0.938   2.238   6.341
10209SOL     OW31525   4.123   6.325   0.509
10209SOL    HW131526   4.070   6.267   0.571
10209SOL    HW231527   4.219   6.327   0.538
10210SOL     OW31528   4.120   6.474   6.554
10210SOL    HW131529   4.130   6.448   6.650
10210SOL    HW231530   4.135   6.572   6.544
10211SOL     OW31531   3.891   4.948   4.462
10211SOL    HW131532   3.987   4.938   4.489
10211SOL    HW231533   3.835   4.959   4.545
10212SOL     OW31534   6.599   5.924   5.556
10212SOL    HW131535   6.688   5.924   5.511
10212SOL    HW231536   6.530   5.961   5.494
10213SOL     OW31537   3.365   0.060   4.684
10213SOL    HW131538   3.450   0.027   4.642
10213SOL    HW231539   3.345   0.152   4.651
10214SOL     OW31540   6.929   6.953   0.482
10214SOL    HW131541   6.957   7.007   0.402
10214SOL    HW231542   6.998   6.882   0.500
10215SOL     OW31543   4.654   2.447   6.969
10215SOL    HW131544   4.626   2.541   6.988
10215SOL    HW231545   4.622   2.388   0.022
10216SOL     OW31546   4.926   0.219   3.104
10216SOL    HW131547   4.972   0.307   3.092
10216SOL    HW231548   4.993   0.145   3.102
10217SOL     OW31549   2.551   1.591   6.037
10217SOL    HW131550   2.571   1.614   5.942
10217SOL    HW231551   2.454   1.571   6.048
10218SOL     OW31552   3.564   0.696   5.787
10218SOL    HW131553   3.557   0.602   5.821
10218SOL    HW231554   3.628   0.748   5.845
10219SOL     OW31555   6.692   5.431   0.938
10219SOL    HW131556   6.741   5.505   0.891
10219SOL    HW231557   6.714   5.432   1.035
10220SOL     OW31558   4.298   2.483   6.343
10220SOL    HW131559   4.291   2.575   6.303
10220SOL    HW231560   4.294   2.489   6.442
10221SOL     OW31561   1.880   0.111   4.473
10221SOL    HW131562   1.953   0.112   4.404
10221SOL    HW231563   1.818   0.188   4.456
10222SOL     OW31564   2.628   5.013   5.170
10222SOL    HW131565   2.693   5.082   5.138
10222SOL    HW231566   2.662   4.922   5.149
10223SOL     OW31567   2.596   5.889   5.616
10223SOL    HW131568   2.523   5.958   5.610
10223SOL    HW231569   2.639   5.894   5.706
10224SOL     OW31570   4.197   5.769   5.583
10224SOL    HW131571   4.126   5.814   5.528
10224SOL    HW231572   4.259   5.838   5.621
10225SOL     OW31573   4.763   0.927   5.166
10225SOL    HW131574   4.736   0.909   5.260
10225SOL    HW231575   4.786   1.024   5.155
10226SOL     OW31576   6.467   2.424   6.408
10226SOL    HW131577   6.523   2.500   6.440
10226SOL    HW231578   6.372   2.453   6.399
10227SOL     OW31579   4.586   4.755   5.278
10227SOL    HW131580   4.604   4.847   5.242
10227SOL    HW231581   4.491   4.751   5.309
10228SOL     OW31582   0.976   2.992   1.433
10228SOL    HW131583   0.967   2.906   1.483
10228SOL    HW231584   0.889   3.040   1.433
10229SOL     OW31585   2.709   0.421   1.833
10229SOL    HW131586   2.717   0.439   1.735
10229SOL    HW231587   2.626   0.465   1.868
10230SOL     OW31588   5.371   0.043   3.355
10230SOL    HW131589   5.409   0.085   3.437
10230SOL    HW231590   5.341   0.114   3.292
10231SOL     OW31591   5.152   0.086   4.939
10231SOL    HW131592   5.114   0.069   5.030
10231SOL    HW231593   5.089   0.142   4.886
10232SOL     OW31594   4.118   2.017   2.624
10232SOL    HW131595   4.183   2.078   2.669
10232SOL    HW231596   4.156   1.987   2.537
10233SOL     OW31597   5.073   6.994   5.189
10233SOL    HW131598   5.144   6.948   5.243
10233SOL    HW231599   5.028   0.043   5.245
10234SOL     OW31600   3.920   3.921   0.940
10234SOL    HW131601   4.002   3.863   0.947
10234SOL    HW231602   3.846   3.879   0.992
10235SOL     OW31603   5.037   6.580   6.978
10235SOL    HW131604   4.973   6.578   6.901
10235SOL    HW231605   5.090   6.495   6.980
10236SOL     OW31606   1.046   5.108   1.418
10236SOL    HW131607   0.977   5.151   1.476
10236SOL    HW231608   1.074   5.021   1.458
10237SOL     OW31609   5.700   2.256   2.327
10237SOL    HW131610   5.607   2.220   2.323
10237SOL    HW231611   5.761   2.195   2.277
10238SOL     OW31612   4.979   4.699   6.128
10238SOL    HW131613   5.063   4.677   6.178
10238SOL    HW231614   4.903   4.706   6.193
10239SOL     OW31615   5.641   4.344   4.035
10239SOL    HW131616   5.644   4.417   3.967
10239SOL    HW231617   5.734   4.320   4.062
10240SOL     OW31618   5.345   3.840   2.411
10240SOL    HW131619   5.340   3.811   2.507
10240SOL    HW231620   5.363   3.761   2.353
10241SOL     OW31621   1.254   2.303   2.749
10241SOL    HW131622   1.275   2.205   2.756
10241SOL    HW231623   1.286   2.338   2.661
10242SOL     OW31624   1.184   5.741   6.245
10242SOL    HW131625   1.090   5.773   6.256
10242SOL    HW231626   1.245   5.795   6.303
10243SOL     OW31627   6.763   5.984   3.620
10243SOL    HW131628   6.860   5.997   3.638
10243SOL    HW231629   6.721   6.071   3.595
10244SOL     OW31630   2.638   6.146   0.188
10244SOL    HW131631   2.639   6.238   0.147
10244SOL    HW231632   2.720   6.133   0.243
10245SOL     OW31633   4.034   3.309   0.930
10245SOL    HW131634   4.127   3.312   0.965
10245SOL    HW231635   3.970   3.335   1.003
10246SOL     OW31636   3.572   3.831   4.774
10246SOL    HW131637   3.530   3.877   4.852
10246SOL    HW231638   3.538   3.871   4.689
10247SOL     OW31639   0.968   5.490   6.432
10247SOL    HW131640   0.964   5.400   6.387
10247SOL    HW231641   1.062   5.510   6.459
10248SOL     OW31642   5.959   6.709   3.535
10248SOL    HW131643   6.020   6.785   3.512
10248SOL    HW231644   6.013   6.625   3.548
10249SOL     OW31645   4.388   1.577   5.952
10249SOL    HW131646   4.437   1.498   5.915
10249SOL    HW231647   4.446   1.658   5.948
10250SOL     OW31648   4.713   5.418   0.793
10250SOL    HW131649   4.660   5.494   0.830
10250SOL    HW231650   4.788   5.396   0.854
10251SOL     OW31651   4.122   4.427   1.075
10251SOL    HW131652   4.182   4.507   1.080
10251SOL    HW231653   4.135   4.382   0.986
10252SOL     OW31654   0.078   4.580   0.510
10252SOL    HW131655   0.122   4.564   0.422
10252SOL    HW231656   7.015   4.632   0.496
10253SOL     OW31657   5.650   3.931   0.562
10253SOL    HW131658   5.600   3.909   0.478
10253SOL    HW231659   5.609   4.011   0.605
10254SOL     OW31660   3.706   2.067   5.672
10254SOL    HW131661   3.722   2.164   5.690
10254SOL    HW231662   3.616   2.056   5.628
10255SOL     OW31663   2.907   4.773   3.995
10255SOL    HW131664   2.959   4.854   3.970
10255SOL    HW231665   2.909   4.708   3.919
10256SOL     OW31666   5.556   4.523   0.060
10256SOL    HW131667   5.645   4.553   0.025
10256SOL    HW231668   5.539   4.566   0.148
10257SOL     OW31669   1.613   4.370   4.791
10257SOL    HW131670   1.708   4.400   4.783
10257SOL    HW231671   1.560   4.406   4.714
10258SOL     OW31672   3.673   1.491   2.164
10258SOL    HW131673   3.657   1.587   2.142
10258SOL    HW231674   3.755   1.483   2.221
10259SOL     OW31675   5.492   3.118   3.424
10259SOL    HW131676   5.551   3.072   3.358
10259SOL    HW231677   5.546   3.143   3.505
10260SOL     OW31678   7.003   5.826   2.375
10260SOL    HW131679   0.072   5.813   2.334
10260SOL    HW231680   6.940   5.758   2.336
10261SOL     OW31681   1.635   0.120   2.528
10261SOL    HW131682   1.623   0.033   2.577
10261SOL    HW231683   1.603   0.110   2.434
10262SOL     OW31684   6.595   6.232   3.589
10262SOL    HW131685   6.497   6.252   3.586
10262SOL    HW231686   6.635   6.269   3.673
10263SOL     OW31687   6.622   3.850   4.953
10263SOL    HW131688   6.712   3.806   4.952
10263SOL    HW231689   6.632   3.945   4.983
10264SOL     OW31690   0.574   0.241   1.001
10264SOL    HW131691   0.481   0.206   1.013
10264SOL    HW231692   0.639   0.172   1.032
10265SOL     OW31693   5.156   2.230   4.518
10265SOL    HW131694   5.081   2.204   4.578
10265SOL    HW231695   5.210   2.149   4.495
10266SOL     OW31696   2.957   3.850   0.396
10266SOL    HW131697   2.936   3.760   0.356
10266SOL    HW231698   3.055   3.857   0.412
10267SOL     OW31699   6.774   0.742   6.127
10267SOL    HW131700   6.849   0.680   6.103
10267SOL    HW231701   6.691   0.714   6.079
10268SOL     OW31702   6.839   4.714   0.153
10268SOL    HW131703   6.921   4.710   0.096
10268SOL    HW231704   6.801   4.622   0.165
10269SOL     OW31705   3.961   1.707   5.686
10269SOL    HW131706   3.984   1.610   5.697
10269SOL    HW231707   4.012   1.745   5.609
10270SOL     OW31708   3.487   6.133   3.526
10270SOL    HW131709   3.471   6.206   3.460
10270SOL    HW231710   3.433   6.053   3.500
10271SOL     OW31711   1.080   4.968   0.849
10271SOL    HW131712   1.154   4.919   0.895
10271SOL    HW231713   1.018   4.903   0.806
10272SOL     OW31714   1.153   3.633   4.080
10272SOL    HW131715   1.137   3.691   4.160
10272SOL    HW231716   1.228   3.671   4.026
10273SOL     OW31717   4.733   0.516   4.237
10273SOL    HW131718   4.665   0.560   4.296
10273SOL    HW231719   4.729   0.417   4.249
10274SOL     OW31720   1.619   4.669   6.711
10274SOL    HW131721   1.609   4.572   6.735
10274SOL    HW231722   1.606   4.681   6.613
10275SOL     OW31723   6.981   5.766   1.803
10275SOL    HW131724   6.975   5.865   1.807
10275SOL    HW231725   6.930   5.725   1.879
10276SOL     OW31726   3.118   6.930   0.365
10276SOL    HW131727   3.031   6.881   0.365
10276SOL    HW231728   3.118   6.999   0.293
10277SOL     OW31729   5.886   5.722   2.025
10277SOL    HW131730   5.789   5.701   2.014
10277SOL    HW231731   5.916   5.694   2.116
10278SOL     OW31732   6.468   1.021   4.686
10278SOL    HW131733   6.391   1.008   4.749
10278SOL    HW231734   6.508   0.932   4.663
10279SOL     OW31735   3.891   6.999   4.218
10279SOL    HW131736   3.816   6.945   4.256
10279SOL    HW231737   3.953   6.939   4.168
10280SOL     OW31738   2.786   2.332   6.789
10280SOL    HW131739   2.839   2.336   6.874
10280SOL    HW231740   2.829   2.267   6.726
10281SOL     OW31741   4.019   1.108   4.216
10281SOL    HW131742   3.921   1.100   4.194
10281SOL    HW231743   4.030   1.151   4.305
10282SOL     OW31744   1.562   3.469   3.879
10282SOL    HW131745   1.555   3.449   3.781
10282SOL    HW231746   1.656   3.453   3.909
10283SOL     OW31747   1.848   5.954   6.933
10283SOL    HW131748   1.798   5.959   6.846
10283SOL    HW231749   1.944   5.931   6.915
10284SOL     OW31750   5.644   2.496   0.345
10284SOL    HW131751   5.627   2.398   0.352
10284SOL    HW231752   5.563   2.546   0.375
10285SOL     OW31753   5.050   1.366   0.583
10285SOL    HW131754   5.082   1.272   0.570
10285SOL    HW231755   5.121   1.418   0.631
10286SOL     OW31756   2.951   6.675   3.536
10286SOL    HW131757   2.976   6.583   3.565
10286SOL    HW231758   2.918   6.726   3.615
10287SOL     OW31759   2.026   4.108   2.533
10287SOL    HW131760   1.992   4.200   2.511
10287SOL    HW231761   2.118   4.096   2.495
10288SOL     OW31762   4.887   0.052   4.631
10288SOL    HW131763   4.882   6.973   4.641
10288SOL    HW231764   4.967   0.076   4.576
10289SOL     OW31765   2.479   1.735   2.731
10289SOL    HW131766   2.533   1.818   2.714
10289SOL    HW231767   2.495   1.670   2.656
10290SOL     OW31768   3.474   3.639   2.954
10290SOL    HW131769   3.398   3.607   3.011
10290SOL    HW231770   3.450   3.629   2.858
10291SOL     OW31771   3.995   0.632   3.348
10291SOL    HW131772   3.975   0.534   3.357
10291SOL    HW231773   4.042   0.649   3.262
10292SOL     OW31774   6.797   2.965   4.448
10292SOL    HW131775   6.858   3.007   4.381
10292SOL    HW231776   6.765   3.035   4.512
10293SOL     OW31777   1.717   5.189   3.372
10293SOL    HW131778   1.629   5.177   3.417
10293SOL    HW231779   1.788   5.202   3.441
10294SOL     OW31780   5.979   0.718   3.243
10294SOL    HW131781   6.031   0.765   3.313
10294SOL    HW231782   5.991   0.764   3.155
10295SOL     OW31783   1.537   4.217   3.543
10295SOL    HW131784   1.604   4.261   3.603
10295SOL    HW231785   1.555   4.119   3.539
10296SOL     OW31786   7.020   3.142   1.240
10296SOL    HW131787   0.025   3.052   1.204
10296SOL    HW231788   6.921   3.147   1.249
10297SOL     OW31789   3.751   4.355   5.950
10297SOL    HW131790   3.690   4.287   5.910
10297SOL    HW231791   3.704   4.443   5.956
10298SOL     OW31792   5.893   3.188   2.935
10298SOL    HW131793   5.921   3.159   3.026
10298SOL    HW231794   5.917   3.284   2.922
10299SOL     OW31795   4.003   5.001   2.721
10299SOL    HW131796   4.075   5.068   2.742
10299SOL    HW231797   4.045   4.918   2.684
10300SOL     OW31798   0.346   5.889   2.709
10300SOL    HW131799   0.383   5.798   2.725
10300SOL    HW231800   0.283   5.886   2.632
10301SOL     OW31801   4.444   0.876   1.856
10301SOL    HW131802   4.462   0.782   1.886
10301SOL    HW231803   4.459   0.939   1.932
10302SOL     OW31804   6.850   4.274   3.396
10302SOL    HW131805   6.872   4.224   3.312
10302SOL    HW231806   6.764   4.323   3.383
10303SOL     OW31807   4.809   3.405   0.888
10303SOL    HW131808   4.802   3.336   0.960
10303SOL    HW231809   4.905   3.430   0.874
10304SOL     OW31810   5.660   6.181   4.242
10304SOL    HW131811   5.560   6.176   4.237
10304SOL    HW231812   5.687   6.208   4.334
10305SOL     OW31813   1.099   5.150   1.160
10305SOL    HW131814   1.016   5.157   1.103
10305SOL    HW231815   1.073   5.130   1.254
10306SOL     OW31816   4.845   3.684   6.496
10306SOL    HW131817   4.750   3.696   6.524
10306SOL    HW231818   4.880   3.770   6.458
10307SOL     OW31819   2.863   2.404   6.002
10307SOL    HW131820   2.877   2.306   6.017
10307SOL    HW231821   2.834   2.447   6.088
10308SOL     OW31822   3.110   4.883   4.184
10308SOL    HW131823   3.032   4.821   4.180
10308SOL    HW231824   3.078   4.976   4.202
10309SOL     OW31825   6.453   6.198   4.128
10309SOL    HW131826   6.376   6.261   4.127
10309SOL    HW231827   6.536   6.247   4.157
10310SOL     OW31828   3.882   3.965   4.386
10310SOL    HW131829   3.842   3.911   4.460
10310SOL    HW231830   3.931   3.904   4.323
10311SOL     OW31831   1.864   0.633   0.686
10311SOL    HW131832   1.915   0.559   0.642
10311SOL    HW231833   1.766   0.616   0.675
10312SOL     OW31834   3.415   4.418   0.478
10312SOL    HW131835   3.405   4.486   0.551
10312SOL    HW231836   3.446   4.332   0.516
10313SOL     OW31837   6.621   5.666   3.092
10313SOL    HW131838   6.538   5.721   3.088
10313SOL    HW231839   6.610   5.593   3.160
10314SOL     OW31840   6.577   5.473   5.071
10314SOL    HW131841   6.618   5.382   5.067
10314SOL    HW231842   6.538   5.488   5.162
10315SOL     OW31843   4.237   5.365   5.462
10315SOL    HW131844   4.168   5.400   5.526
10315SOL    HW231845   4.200   5.368   5.369
10316SOL     OW31846   0.193   2.701   4.156
10316SOL    HW131847   0.275   2.720   4.210
10316SOL    HW231848   0.209   2.621   4.099
10317SOL     OW31849   6.210   4.069   6.066
10317SOL    HW131850   6.301   4.067   6.025
10317SOL    HW231851   6.170   3.977   6.061
10318SOL     OW31852   4.918   4.704   2.344
10318SOL    HW131853   4.857   4.782   2.358
10318SOL    HW231854   5.011   4.730   2.370
10319SOL     OW31855   6.141   6.410   3.680
10319SOL    HW131856   6.106   6.436   3.589
10319SOL    HW231857   6.239   6.392   3.674
10320SOL     OW31858   3.304   6.617   1.577
10320SOL    HW131859   3.320   6.556   1.654
10320SOL    HW231860   3.377   6.606   1.509
10321SOL     OW31861   4.803   6.792   5.511
10321SOL    HW131862   4.740   6.753   5.444
10321SOL    HW231863   4.874   6.844   5.463
10322SOL     OW31864   0.203   1.579   6.045
10322SOL    HW131865   0.202   1.675   6.016
10322SOL    HW231866   0.284   1.534   6.008
10323SOL     OW31867   6.974   2.088   5.339
10323SOL    HW131868   6.929   2.000   5.356
10323SOL    HW231869   0.040   2.072   5.292
10324SOL     OW31870   3.014   3.730   5.252
10324SOL    HW131871   2.979   3.704   5.162
10324SOL    HW231872   2.975   3.818   5.278
10325SOL     OW31873   0.576   3.157   4.042
10325SOL    HW131874   0.494   3.112   4.004
10325SOL    HW231875   0.575   3.253   4.016
10326SOL     OW31876   6.231   0.894   0.885
10326SOL    HW131877   6.255   0.814   0.830
10326SOL    HW231878   6.132   0.908   0.883
10327SOL     OW31879   6.222   2.063   3.999
10327SOL    HW131880   6.168   2.146   3.985
10327SOL    HW231881   6.198   1.995   3.930
10328SOL     OW31882   0.100   3.121   1.591
10328SOL    HW131883   0.019   3.157   1.545
10328SOL    HW231884   0.097   3.021   1.592
10329SOL     OW31885   1.905   5.951   2.385
10329SOL    HW131886   1.825   5.936   2.444
10329SOL    HW231887   1.909   6.047   2.358
10330SOL     OW31888   4.227   3.292   0.532
10330SOL    HW131889   4.136   3.250   0.533
10330SOL    HW231890   4.260   3.296   0.437
10331SOL     OW31891   4.986   1.977   4.033
10331SOL    HW131892   4.898   2.020   4.012
10331SOL    HW231893   4.973   1.879   4.047
10332SOL     OW31894   1.988   3.074   6.547
10332SOL    HW131895   2.044   3.088   6.465
10332SOL    HW231896   2.017   2.989   6.593
10333SOL     OW31897   6.643   4.252   5.494
10333SOL    HW131898   6.638   4.342   5.537
10333SOL    HW231899   6.568   4.243   5.428
10334SOL     OW31900   0.482   5.055   5.964
10334SOL    HW131901   0.455   5.115   6.039
10334SOL    HW231902   0.537   4.980   5.999
10335SOL     OW31903   2.717   5.218   2.754
10335SOL    HW131904   2.679   5.127   2.774
10335SOL    HW231905   2.791   5.238   2.817
10336SOL     OW31906   4.077   0.603   3.078
10336SOL    HW131907   4.069   0.580   2.981
10336SOL    HW231908   4.108   0.522   3.129
10337SOL     OW31909   1.558   3.039   5.869
10337SOL    HW131910   1.595   3.101   5.800
10337SOL    HW231911   1.471   3.001   5.835
10338SOL     OW31912   2.257   4.097   3.132
10338SOL    HW131913   2.235   4.080   3.036
10338SOL    HW231914   2.313   4.021   3.167
10339SOL     OW31915   3.372   6.668   6.639
10339SOL    HW131916   3.402   6.614   6.718
10339SOL    HW231917   3.405   6.626   6.555
10340SOL     OW31918   2.020   5.757   0.822
10340SOL    HW131919   2.106   5.804   0.799
10340SOL    HW231920   2.001   5.769   0.919
10341SOL     OW31921   0.134   2.628   1.975
10341SOL    HW131922   0.163   2.701   2.036
10341SOL    HW231923   0.213   2.594   1.924
10342SOL     OW31924   3.232   5.023   3.900
10342SOL    HW131925   3.332   5.019   3.895
10342SOL    HW231926   3.199   4.963   3.973
10343SOL     OW31927   2.982   2.177   4.627
10343SOL    HW131928   2.999   2.205   4.722
10343SOL    HW231929   2.891   2.207   4.599
10344SOL     OW31930   4.951   4.417   1.090
10344SOL    HW131931   4.948   4.512   1.059
10344SOL    HW231932   4.865   4.393   1.136
10345SOL     OW31933   2.695   1.875   6.085
10345SOL    HW131934   2.693   1.798   6.149
10345SOL    HW231935   2.627   1.861   6.014
10346SOL     OW31936   6.685   4.786   6.502
10346SOL    HW131937   6.734   4.837   6.573
10346SOL    HW231938   6.749   4.765   6.427
10347SOL     OW31939   3.669   6.453   2.308
10347SOL    HW131940   3.699   6.504   2.388
10347SOL    HW231941   3.645   6.517   2.234
10348SOL     OW31942   0.517   2.911   4.405
10348SOL    HW131943   0.545   2.874   4.316
10348SOL    HW231944   0.534   3.010   4.407
10349SOL     OW31945   6.281   1.586   0.108
10349SOL    HW131946   6.292   1.638   0.023
10349SOL    HW231947   6.288   1.648   0.186
10350SOL     OW31948   1.935   5.564   3.880
10350SOL    HW131949   1.864   5.599   3.941
10350SOL    HW231950   2.013   5.627   3.881
10351SOL     OW31951   4.030   5.551   5.516
10351SOL    HW131952   4.109   5.611   5.529
10351SOL    HW231953   3.995   5.561   5.422
10352SOL     OW31954   0.743   1.463   1.882
10352SOL    HW131955   0.733   1.558   1.913
10352SOL    HW231956   0.678   1.445   1.808
10353SOL     OW31957   5.314   2.903   3.456
10353SOL    HW131958   5.344   2.837   3.524
10353SOL    HW231959   5.364   2.989   3.468
10354SOL     OW31960   6.947   2.400   2.210
10354SOL    HW131961   6.962   2.324   2.147
10354SOL    HW231962   0.015   2.438   2.237
10355SOL     OW31963   6.649   1.793   0.637
10355SOL    HW131964   6.705   1.746   0.568
10355SOL    HW231965   6.604   1.872   0.595
10356SOL     OW31966   6.190   2.439   6.328
10356SOL    HW131967   6.138   2.354   6.329
10356SOL    HW231968   6.130   2.515   6.355
10357SOL     OW31969   0.486   6.533   6.501
10357SOL    HW131970   0.529   6.622   6.516
10357SOL    HW231971   0.550   6.471   6.457
10358SOL     OW31972   0.190   3.635   4.134
10358SOL    HW131973   0.201   3.673   4.043
10358SOL    HW231974   0.224   3.541   4.136
10359SOL     OW31975   0.704   2.657   2.205
10359SOL    HW131976   0.667   2.565   2.218
10359SOL    HW231977   0.801   2.651   2.182
10360SOL     OW31978   5.671   4.573   1.300
10360SOL    HW131979   5.692   4.478   1.326
10360SOL    HW231980   5.664   4.580   1.201
10361SOL     OW31981   5.739   2.233   4.152
10361SOL    HW131982   5.652   2.256   4.194
10361SOL    HW231983   5.755   2.291   4.073
10362SOL     OW31984   6.879   6.539   2.250
10362SOL    HW131985   6.834   6.569   2.166
10362SOL    HW231986   6.927   6.453   2.234
10363SOL     OW31987   4.451   5.183   6.375
10363SOL    HW131988   4.508   5.251   6.328
10363SOL    HW231989   4.355   5.209   6.366
10364SOL     OW31990   6.542   5.226   1.352
10364SOL    HW131991   6.616   5.251   1.414
10364SOL    HW231992   6.480   5.303   1.342
10365SOL     OW31993   6.432   6.173   6.733
10365SOL    HW131994   6.518   6.135   6.767
10365SOL    HW231995   6.398   6.117   6.658
10366SOL     OW31996   2.323   0.393   3.353
10366SOL    HW131997   2.378   0.476   3.348
10366SOL    HW231998   2.271   0.381   3.268
10367SOL     OW31999   3.886   6.090   2.593
10367SOL    HW132000   3.963   6.030   2.570
10367SOL    HW232001   3.859   6.075   2.688
10368SOL     OW32002   1.269   5.682   2.133
10368SOL    HW132003   1.266   5.724   2.042
10368SOL    HW232004   1.292   5.752   2.201
10369SOL     OW32005   2.889   0.932   5.351
10369SOL    HW132006   2.845   1.008   5.398
10369SOL    HW232007   2.843   0.914   5.264
10370SOL     OW32008   2.458   1.970   6.780
10370SOL    HW132009   2.365   1.941   6.801
10370SOL    HW232010   2.457   2.027   6.697
10371SOL     OW32011   3.661   5.385   2.530
10371SOL    HW132012   3.626   5.328   2.604
10371SOL    HW232013   3.744   5.343   2.492
10372SOL     OW32014   1.222   6.339   1.224
10372SOL    HW132015   1.271   6.356   1.139
10372SOL    HW232016   1.207   6.241   1.234
10373SOL     OW32017   6.649   0.921   5.387
10373SOL    HW132018   6.680   0.963   5.302
10373SOL    HW232019   6.724   0.920   5.453
10374SOL     OW32020   2.069   5.545   2.121
10374SOL    HW132021   2.020   5.520   2.205
10374SOL    HW232022   2.143   5.479   2.106
10375SOL     OW32023   2.344   5.645   6.486
10375SOL    HW132024   2.332   5.561   6.539
10375SOL    HW232025   2.355   5.622   6.390
10376SOL     OW32026   2.035   4.946   3.472
10376SOL    HW132027   1.988   4.863   3.502
10376SOL    HW232028   2.134   4.934   3.482
10377SOL     OW32029   3.143   1.234   3.784
10377SOL    HW132030   3.193   1.175   3.847
10377SOL    HW232031   3.154   1.330   3.812
10378SOL     OW32032   6.721   6.925   5.401
10378SOL    HW132033   6.633   6.887   5.432
10378SOL    HW232034   6.796   6.878   5.447
10379SOL     OW32035   0.207   5.452   3.218
10379SOL    HW132036   0.166   5.507   3.145
10379SOL    HW232037   0.305   5.470   3.223
10380SOL     OW32038   3.150   1.490   3.882
10380SOL    HW132039   3.074   1.527   3.937
10380SOL    HW232040   3.227   1.470   3.942
10381SOL     OW32041   1.945   6.676   3.891
10381SOL    HW132042   1.950   6.669   3.991
10381SOL    HW232043   1.945   6.772   3.864
10382SOL     OW32044   3.391   5.789   2.505
10382SOL    HW132045   3.428   5.710   2.457
10382SOL    HW232046   3.410   5.872   2.452
10383SOL     OW32047   0.599   6.897   0.072
10383SOL    HW132048   0.585   6.901   6.994
10383SOL    HW232049   0.623   6.989   0.106
10384SOL     OW32050   5.612   5.151   1.119
10384SOL    HW132051   5.538   5.217   1.124
10384SOL    HW232052   5.666   5.167   1.036
10385SOL     OW32053   3.744   4.318   6.694
10385SOL    HW132054   3.775   4.225   6.714
10385SOL    HW232055   3.824   4.378   6.686
10386SOL     OW32056   0.030   0.392   1.990
10386SOL    HW132057   6.966   0.345   1.964
10386SOL    HW232058   0.103   0.366   1.927
10387SOL     OW32059   5.314   0.463   2.331
10387SOL    HW132060   5.403   0.493   2.296
10387SOL    HW232061   5.321   0.369   2.363
10388SOL     OW32062   0.849   6.738   4.910
10388SOL    HW132063   0.918   6.665   4.915
10388SOL    HW232064   0.871   6.809   4.976
10389SOL     OW32065   0.514   4.117   0.926
10389SOL    HW132066   0.582   4.170   0.875
10389SOL    HW232067   0.539   4.113   1.022
10390SOL     OW32068   1.384   2.454   2.208
10390SOL    HW132069   1.421   2.361   2.216
10390SOL    HW232070   1.437   2.504   2.140
10391SOL     OW32071   6.099   0.236   3.437
10391SOL    HW132072   6.099   0.284   3.524
10391SOL    HW232073   6.107   0.301   3.362
10392SOL     OW32074   5.746   3.116   4.302
10392SOL    HW132075   5.705   3.055   4.369
10392SOL    HW232076   5.841   3.136   4.328
10393SOL     OW32077   1.681   2.493   1.314
10393SOL    HW132078   1.750   2.425   1.290
10393SOL    HW232079   1.611   2.451   1.372
10394SOL     OW32080   2.704   5.458   4.063
10394SOL    HW132081   2.779   5.422   4.119
10394SOL    HW232082   2.737   5.537   4.011
10395SOL     OW32083   0.600   1.464   1.018
10395SOL    HW132084   0.557   1.541   1.066
10395SOL    HW232085   0.558   1.453   0.928
10396SOL     OW32086   3.441   1.811   5.211
10396SOL    HW132087   3.539   1.832   5.212
10396SOL    HW232088   3.389   1.894   5.188
10397SOL     OW32089   4.665   0.974   3.979
10397SOL    HW132090   4.632   1.068   3.992
10397SOL    HW232091   4.589   0.916   3.950
10398SOL     OW32092   4.662   2.501   2.816
10398SOL    HW132093   4.593   2.471   2.750
10398SOL    HW232094   4.710   2.580   2.780
10399SOL     OW32095   0.697   2.883   1.820
10399SOL    HW132096   0.797   2.881   1.822
10399SOL    HW232097   0.663   2.794   1.791
10400SOL     OW32098   1.653   6.551   0.398
10400SOL    HW132099   1.573   6.491   0.394
10400SOL    HW232100   1.630   6.641   0.363
10401SOL     OW32101   6.439   0.952   5.129
10401SOL    HW132102   6.377   0.920   5.201
10401SOL    HW232103   6.394   1.024   5.076
10402SOL     OW32104   6.435   4.580   5.579
10402SOL    HW132105   6.403   4.632   5.658
10402SOL    HW232106   6.495   4.507   5.610
10403SOL     OW32107   3.574   0.190   1.643
10403SOL    HW132108   3.555   0.282   1.611
10403SOL    HW232109   3.521   0.124   1.590
10404SOL     OW32110   0.778   5.479   5.694
10404SOL    HW132111   0.820   5.412   5.755
10404SOL    HW232112   0.707   5.434   5.639
10405SOL     OW32113   0.101   1.158   0.133
10405SOL    HW132114   0.091   1.089   0.204
10405SOL    HW232115   0.018   1.214   0.127
10406SOL     OW32116   1.853   5.285   1.358
10406SOL    HW132117   1.816   5.325   1.442
10406SOL    HW232118   1.793   5.309   1.281
10407SOL     OW32119   2.021   6.199   0.465
10407SOL    HW132120   1.925   6.221   0.483
10407SOL    HW232121   2.079   6.273   0.500
10408SOL     OW32122   4.579   0.684   6.957
10408SOL    HW132123   4.657   0.732   6.916
10408SOL    HW232124   4.611   0.601   7.001
10409SOL     OW32125   6.535   3.757   0.424
10409SOL    HW132126   6.573   3.746   0.516
10409SOL    HW232127   6.601   3.726   0.356
10410SOL     OW32128   3.996   6.880   0.641
10410SOL    HW132129   3.997   6.856   0.738
10410SOL    HW232130   4.086   6.865   0.601
10411SOL     OW32131   1.771   5.294   3.955
10411SOL    HW132132   1.735   5.200   3.961
10411SOL    HW232133   1.782   5.331   4.047
10412SOL     OW32134   4.881   0.554   2.079
10412SOL    HW132135   4.803   0.495   2.099
10412SOL    HW232136   4.919   0.530   1.990
10413SOL     OW32137   6.250   3.478   1.882
10413SOL    HW132138   6.152   3.480   1.902
10413SOL    HW232139   6.268   3.530   1.798
10414SOL     OW32140   4.864   3.801   3.789
10414SOL    HW132141   4.795   3.815   3.719
10414SOL    HW232142   4.943   3.859   3.770
10415SOL     OW32143   0.820   0.706   6.855
10415SOL    HW132144   0.723   0.727   6.843
10415SOL    HW232145   0.867   0.786   6.893
10416SOL     OW32146   4.943   2.667   2.899
10416SOL    HW132147   4.919   2.684   2.803
10416SOL    HW232148   5.021   2.725   2.924
10417SOL     OW32149   1.758   3.815   2.414
10417SOL    HW132150   1.805   3.846   2.497
10417SOL    HW232151   1.735   3.894   2.357
10418SOL     OW32152   1.479   5.825   5.866
10418SOL    HW132153   1.384   5.857   5.869
10418SOL    HW232154   1.528   5.874   5.794
10419SOL     OW32155   1.164   0.879   6.023
10419SOL    HW132156   1.221   0.955   5.993
10419SOL    HW232157   1.110   0.845   5.946
10420SOL     OW32158   0.548   3.271   2.389
10420SOL    HW132159   0.539   3.349   2.327
10420SOL    HW232160   0.627   3.286   2.450
10421SOL     OW32161   0.986   2.155   3.023
10421SOL    HW132162   1.072   2.147   2.972
10421SOL    HW232163   0.925   2.218   2.975
10422SOL     OW32164   5.932   1.912   0.127
10422SOL    HW132165   5.983   1.902   0.212
10422SOL    HW232166   5.857   1.977   0.141
10423SOL     OW32167   4.501   5.352   2.564
10423SOL    HW132168   4.434   5.304   2.508
10423SOL    HW232169   4.453   5.413   2.628
10424SOL     OW32170   4.286   1.419   6.277
10424SOL    HW132171   4.275   1.341   6.216
10424SOL    HW232172   4.227   1.494   6.248
10425SOL     OW32173   2.213   6.628   1.974
10425SOL    HW132174   2.183   6.555   2.035
10425SOL    HW232175   2.298   6.600   1.929
10426SOL     OW32176   6.405   3.947   6.391
10426SOL    HW132177   6.417   4.045   6.373
10426SOL    HW232178   6.349   3.935   6.472
10427SOL     OW32179   4.848   0.972   0.424
10427SOL    HW132180   4.816   1.027   0.346
10427SOL    HW232181   4.771   0.955   0.486
10428SOL     OW32182   4.647   2.491   3.559
10428SOL    HW132183   4.665   2.533   3.648
10428SOL    HW232184   4.711   2.528   3.492
10429SOL     OW32185   5.755   5.336   2.378
10429SOL    HW132186   5.847   5.370   2.399
10429SOL    HW232187   5.689   5.411   2.384
10430SOL     OW32188   3.837   6.045   2.883
10430SOL    HW132189   3.929   6.005   2.885
10430SOL    HW232190   3.825   6.105   2.962
10431SOL     OW32191   3.222   1.916   5.688
10431SOL    HW132192   3.288   1.894   5.759
10431SOL    HW232193   3.242   1.862   5.606
10432SOL     OW32194   4.282   0.520   4.649
10432SOL    HW132195   4.332   0.434   4.633
10432SOL    HW232196   4.302   0.554   4.740
10433SOL     OW32197   2.251   5.972   1.244
10433SOL    HW132198   2.269   6.067   1.268
10433SOL    HW232199   2.208   5.926   1.321
10434SOL     OW32200   3.586   2.222   5.369
10434SOL    HW132201   3.630   2.167   5.298
10434SOL    HW232202   3.488   2.227   5.352
10435SOL     OW32203   5.953   5.213   6.656
10435SOL    HW132204   5.969   5.206   6.557
10435SOL    HW232205   5.856   5.229   6.673
10436SOL     OW32206   0.391   1.737   2.683
10436SOL    HW132207   0.384   1.638   2.665
10436SOL    HW232208   0.484   1.760   2.710
10437SOL     OW32209   1.389   2.841   0.426
10437SOL    HW132210   1.459   2.789   0.475
10437SOL    HW232211   1.302   2.791   0.431
10438SOL     OW32212   2.953   7.013   5.878
10438SOL    HW132213   2.985   6.919   5.885
10438SOL    HW232214   3.032   0.054   5.873
10439SOL     OW32215   3.374   0.336   5.561
10439SOL    HW132216   3.314   0.264   5.524
10439SOL    HW232217   3.389   0.319   5.659
10440SOL     OW32218   1.010   5.936   0.567
10440SOL    HW132219   0.954   5.979   0.638
10440SOL    HW232220   1.011   5.837   0.581
10441SOL     OW32221   4.735   6.618   1.186
10441SOL    HW132222   4.644   6.631   1.224
10441SOL    HW232223   4.771   6.707   1.156
10442SOL     OW32224   3.550   6.452   6.524
10442SOL    HW132225   3.643   6.484   6.506
10442SOL    HW232226   3.544   6.419   6.618
10443SOL     OW32227   0.019   2.772   4.792
10443SOL    HW132228   0.055   2.782   4.884
10443SOL    HW232229   0.094   2.782   4.726
10444SOL     OW32230   3.904   4.811   5.254
10444SOL    HW132231   3.819   4.836   5.209
10444SOL    HW232232   3.959   4.892   5.271
10445SOL     OW32233   6.557   6.243   1.955
10445SOL    HW132234   6.633   6.261   2.018
10445SOL    HW232235   6.581   6.278   1.864
10446SOL     OW32236   1.251   6.878   5.844
10446SOL    HW132237   1.335   6.933   5.845
10446SOL    HW232238   1.249   6.823   5.760
10447SOL     OW32239   5.426   2.339   6.554
10447SOL    HW132240   5.391   2.253   6.593
10447SOL    HW232241   5.351   2.389   6.511
10448SOL     OW32242   3.715   3.686   2.574
10448SOL    HW132243   3.658   3.762   2.544
10448SOL    HW232244   3.812   3.712   2.567
10449SOL     OW32245   1.171   5.508   4.770
10449SOL    HW132246   1.113   5.497   4.689
10449SOL    HW232247   1.125   5.566   4.837
10450SOL     OW32248   0.749   3.434   0.077
10450SOL    HW132249   0.719   3.475   0.163
10450SOL    HW232250   0.790   3.344   0.095
10451SOL     OW32251   2.246   4.127   2.394
10451SOL    HW132252   2.248   4.144   2.296
10451SOL    HW232253   2.295   4.200   2.442
10452SOL     OW32254   2.012   3.559   6.138
10452SOL    HW132255   1.992   3.543   6.235
10452SOL    HW232256   2.053   3.649   6.128
10453SOL     OW32257   4.938   0.570   2.392
10453SOL    HW132258   4.953   0.579   2.294
10453SOL    HW232259   4.951   0.659   2.436
10454SOL     OW32260   3.365   5.375   2.635
10454SOL    HW132261   3.392   5.414   2.547
10454SOL    HW232262   3.405   5.284   2.645
10455SOL     OW32263   1.191   5.045   3.603
10455SOL    HW132264   1.122   5.070   3.535
10455SOL    HW232265   1.264   5.113   3.603
10456SOL     OW32266   3.508   6.953   1.084
10456SOL    HW132267   3.600   6.936   1.120
10456SOL    HW232268   3.460   7.016   1.144
10457SOL     OW32269   3.802   3.029   3.696
10457SOL    HW132270   3.742   2.965   3.743
10457SOL    HW232271   3.748   3.104   3.658
10458SOL     OW32272   6.479   6.026   2.510
10458SOL    HW132273   6.470   6.092   2.436
10458SOL    HW232274   6.546   5.956   2.485
10459SOL     OW32275   7.011   5.354   1.860
10459SOL    HW132276   6.922   5.399   1.853
10459SOL    HW232277   0.060   5.422   1.884
10460SOL     OW32278   1.393   4.180   1.230
10460SOL    HW132279   1.351   4.222   1.151
10460SOL    HW232280   1.325   4.168   1.302
10461SOL     OW32281   4.048   0.342   6.461
10461SOL    HW132282   4.131   0.350   6.516
10461SOL    HW232283   3.972   0.311   6.519
10462SOL     OW32284   5.190   6.708   1.194
10462SOL    HW132285   5.122   6.752   1.134
10462SOL    HW232286   5.210   6.769   1.270
10463SOL     OW32287   4.587   3.224   0.400
10463SOL    HW132288   4.641   3.222   0.316
10463SOL    HW232289   4.505   3.280   0.385
10464SOL     OW32290   5.632   6.810   1.944
10464SOL    HW132291   5.667   6.831   1.853
10464SOL    HW232292   5.532   6.816   1.944
10465SOL     OW32293   0.152   4.638   5.750
10465SOL    HW132294   0.188   4.731   5.749
10465SOL    HW232295   0.102   4.622   5.835
10466SOL     OW32296   3.884   5.309   5.566
10466SOL    HW132297   3.938   5.393   5.574
10466SOL    HW232298   3.846   5.303   5.474
10467SOL     OW32299   4.302   1.614   4.076
10467SOL    HW132300   4.229   1.605   4.144
10467SOL    HW232301   4.328   1.710   4.067
10468SOL     OW32302   2.677   5.251   3.168
10468SOL    HW132303   2.695   5.322   3.235
10468SOL    HW232304   2.591   5.271   3.119
10469SOL     OW32305   1.308   4.887   5.979
10469SOL    HW132306   1.255   4.829   5.917
10469SOL    HW232307   1.307   4.847   6.071
10470SOL     OW32308   2.696   2.233   4.592
10470SOL    HW132309   2.636   2.306   4.623
10470SOL    HW232310   2.673   2.210   4.497
10471SOL     OW32311   4.763   3.967   6.751
10471SOL    HW132312   4.781   3.870   6.737
10471SOL    HW232313   4.751   4.012   6.662
10472SOL     OW32314   4.026   1.897   3.811
10472SOL    HW132315   3.945   1.894   3.870
10472SOL    HW232316   4.072   1.809   3.813
10473SOL     OW32317   4.650   4.546   6.999
10473SOL    HW132318   4.656   4.485   6.920
10473SOL    HW232319   4.682   4.498   0.059
10474SOL     OW32320   4.294   1.089   4.157
10474SOL    HW132321   4.308   1.002   4.109
10474SOL    HW232322   4.197   1.097   4.182
10475SOL     OW32323   4.015   6.662   1.070
10475SOL    HW132324   4.066   6.622   0.994
10475SOL    HW232325   4.079   6.709   1.132
10476SOL     OW32326   0.497   4.770   6.992
10476SOL    HW132327   0.565   4.827   6.946
10476SOL    HW232328   0.462   4.819   0.051
10477SOL     OW32329   4.787   4.700   4.498
10477SOL    HW132330   4.712   4.635   4.510
10477SOL    HW232331   4.872   4.661   4.532
10478SOL     OW32332   0.814   0.080   2.733
10478SOL    HW132333   0.871   0.135   2.794
10478SOL    HW232334   0.837   0.101   2.638
10479SOL     OW32335   0.723   3.983   2.865
10479SOL    HW132336   0.649   3.949   2.925
10479SOL    HW232337   0.805   3.998   2.920
10480SOL     OW32338   4.697   1.268   6.960
10480SOL    HW132339   4.709   1.185   7.014
10480SOL    HW232340   4.670   1.244   6.867
10481SOL     OW32341   3.683   1.601   3.522
10481SOL    HW132342   3.641   1.551   3.598
10481SOL    HW232343   3.752   1.664   3.557
10482SOL     OW32344   0.588   6.364   6.038
10482SOL    HW132345   0.645   6.333   5.962
10482SOL    HW232346   0.631   6.444   6.081
10483SOL     OW32347   0.834   6.203   0.864
10483SOL    HW132348   0.879   6.236   0.948
10483SOL    HW232349   0.760   6.265   0.840
10484SOL     OW32350   6.997   1.488   1.611
10484SOL    HW132351   0.037   1.431   1.666
10484SOL    HW232352   6.903   1.475   1.642
10485SOL     OW32353   3.441   4.175   4.850
10485SOL    HW132354   3.392   4.201   4.934
10485SOL    HW232355   3.379   4.124   4.790
10486SOL     OW32356   6.050   4.725   5.751
10486SOL    HW132357   5.986   4.683   5.686
10486SOL    HW232358   6.007   4.806   5.791
10487SOL     OW32359   5.347   3.869   2.820
10487SOL    HW132360   5.293   3.937   2.769
10487SOL    HW232361   5.329   3.879   2.918
10488SOL     OW32362   0.835   2.086   5.416
10488SOL    HW132363   0.843   2.005   5.358
10488SOL    HW232364   0.781   2.063   5.497
10489SOL     OW32365   6.070   4.923   2.760
10489SOL    HW132366   6.064   4.829   2.726
10489SOL    HW232367   6.162   4.938   2.798
10490SOL     OW32368   5.439   6.302   6.445
10490SOL    HW132369   5.347   6.341   6.442
10490SOL    HW232370   5.475   6.308   6.539
10491SOL     OW32371   2.162   1.982   5.652
10491SOL    HW132372   2.180   1.898   5.705
10491SOL    HW232373   2.129   1.957   5.561
10492SOL     OW32374   3.458   6.538   6.876
10492SOL    HW132375   3.429   6.576   6.964
10492SOL    HW232376   3.531   6.471   6.892
10493SOL     OW32377   3.923   6.496   0.464
10493SOL    HW132378   4.016   6.475   0.496
10493SOL    HW232379   3.907   6.594   0.469
10494SOL     OW32380   6.753   5.831   3.368
10494SOL    HW132381   6.708   5.743   3.386
10494SOL    HW232382   6.771   5.878   3.454
10495SOL     OW32383   6.283   6.572   0.486
10495SOL    HW132384   6.327   6.576   0.575
10495SOL    HW232385   6.295   6.659   0.438
10496SOL     OW32386   1.153   3.991   6.356
10496SOL    HW132387   1.069   4.043   6.375
10496SOL    HW232388   1.232   4.043   6.388
10497SOL     OW32389   4.078   6.941   0.108
10497SOL    HW132390   4.020   6.934   0.027
10497SOL    HW232391   4.045   7.015   0.167
10498SOL     OW32392   3.350   3.868   0.157
10498SOL    HW132393   3.385   3.781   0.122
10498SOL    HW232394   3.380   3.942   0.096
10499SOL     OW32395   4.006   4.818   3.709
10499SOL    HW132396   4.045   4.840   3.620
10499SOL    HW232397   4.080   4.794   3.772
10500SOL     OW32398   1.975   2.547   5.220
10500SOL    HW132399   1.945   2.578   5.130
10500SOL    HW232400   1.900   2.556   5.285
10501SOL     OW32401   3.810   4.861   3.157
10501SOL    HW132402   3.774   4.867   3.064
10501SOL    HW232403   3.738   4.884   3.223
10502SOL     OW32404   3.638   3.398   3.196
10502SOL    HW132405   3.580   3.335   3.144
10502SOL    HW232406   3.582   3.445   3.265
10503SOL     OW32407   0.145   6.351   0.672
10503SOL    HW132408   0.141   6.251   0.669
10503SOL    HW232409   0.052   6.388   0.663
10504SOL     OW32410   1.763   2.726   5.570
10504SOL    HW132411   1.756   2.636   5.529
10504SOL    HW232412   1.748   2.719   5.669
10505SOL     OW32413   5.144   6.622   1.502
10505SOL    HW132414   5.174   6.718   1.502
10505SOL    HW232415   5.215   6.566   1.459
10506SOL     OW32416   0.452   5.183   6.217
10506SOL    HW132417   0.505   5.236   6.283
10506SOL    HW232418   0.355   5.190   6.239
10507SOL     OW32419   1.968   6.664   5.861
10507SOL    HW132420   1.982   6.754   5.819
10507SOL    HW232421   2.057   6.623   5.881
10508SOL     OW32422   2.098   6.350   1.169
10508SOL    HW132423   2.046   6.414   1.225
10508SOL    HW232424   2.168   6.306   1.225
10509SOL     OW32425   4.884   3.743   1.975
10509SOL    HW132426   4.865   3.665   1.915
10509SOL    HW232427   4.873   3.828   1.923
10510SOL     OW32428   5.184   6.594   1.981
10510SOL    HW132429   5.197   6.553   1.890
10510SOL    HW232430   5.166   6.522   2.047
10511SOL     OW32431   3.769   1.749   0.791
10511SOL    HW132432   3.698   1.813   0.763
10511SOL    HW232433   3.781   1.751   0.890
10512SOL     OW32434   3.692   6.905   5.238
10512SOL    HW132435   3.788   6.881   5.251
10512SOL    HW232436   3.638   6.821   5.229
10513SOL     OW32437   3.981   3.476   0.737
10513SOL    HW132438   4.061   3.535   0.740
10513SOL    HW232439   3.993   3.398   0.799
10514SOL     OW32440   1.142   4.788   1.553
10514SOL    HW132441   1.127   4.752   1.646
10514SOL    HW232442   1.066   4.760   1.494
10515SOL     OW32443   2.138   3.357   4.936
10515SOL    HW132444   2.146   3.434   4.999
10515SOL    HW232445   2.115   3.390   4.845
10516SOL     OW32446   5.666   2.078   1.460
10516SOL    HW132447   5.644   2.013   1.388
10516SOL    HW232448   5.595   2.077   1.530
10517SOL     OW32449   6.755   2.058   2.167
10517SOL    HW132450   6.714   2.095   2.084
10517SOL    HW232451   6.818   1.984   2.143
10518SOL     OW32452   0.162   5.623   2.841
10518SOL    HW132453   0.105   5.674   2.777
10518SOL    HW232454   0.105   5.560   2.893
10519SOL     OW32455   1.785   6.345   0.547
10519SOL    HW132456   1.760   6.436   0.514
10519SOL    HW232457   1.703   6.289   0.556
10520SOL     OW32458   3.307   2.708   6.065
10520SOL    HW132459   3.309   2.609   6.079
10520SOL    HW232460   3.213   2.736   6.046
10521SOL     OW32461   5.809   1.875   2.325
10521SOL    HW132462   5.859   1.944   2.273
10521SOL    HW232463   5.763   1.918   2.402
10522SOL     OW32464   5.063   1.230   3.069
10522SOL    HW132465   5.015   1.286   3.002
10522SOL    HW232466   5.161   1.249   3.064
10523SOL     OW32467   0.564   3.994   1.466
10523SOL    HW132468   0.597   4.081   1.502
10523SOL    HW232469   0.631   3.922   1.484
10524SOL     OW32470   5.791   6.518   4.967
10524SOL    HW132471   5.762   6.446   5.031
10524SOL    HW232472   5.879   6.492   4.927
10525SOL     OW32473   5.106   2.164   3.368
10525SOL    HW132474   5.015   2.196   3.394
10525SOL    HW232475   5.113   2.159   3.269
10526SOL     OW32476   1.765   6.502   6.267
10526SOL    HW132477   1.783   6.502   6.169
10526SOL    HW232478   1.674   6.540   6.284
10527SOL     OW32479   0.771   6.593   5.774
10527SOL    HW132480   0.847   6.583   5.709
10527SOL    HW232481   0.794   6.546   5.859
10528SOL     OW32482   2.755   6.132   5.247
10528SOL    HW132483   2.726   6.077   5.168
10528SOL    HW232484   2.677   6.146   5.308
10529SOL     OW32485   6.821   5.189   6.152
10529SOL    HW132486   6.917   5.164   6.154
10529SOL    HW232487   6.807   5.274   6.203
10530SOL     OW32488   5.455   0.520   1.627
10530SOL    HW132489   5.426   0.471   1.709
10530SOL    HW232490   5.538   0.478   1.590
10531SOL     OW32491   3.653   0.905   6.537
10531SOL    HW132492   3.673   0.979   6.600
10531SOL    HW232493   3.667   0.936   6.443
10532SOL     OW32494   4.473   5.595   5.618
10532SOL    HW132495   4.415   5.658   5.566
10532SOL    HW232496   4.523   5.536   5.555
10533SOL     OW32497   4.072   6.102   3.997
10533SOL    HW132498   4.148   6.090   3.934
10533SOL    HW232499   3.989   6.063   3.957
10534SOL     OW32500   0.498   5.835   4.566
10534SOL    HW132501   0.569   5.777   4.526
10534SOL    HW232502   0.472   5.799   4.656
10535SOL     OW32503   3.899   1.745   2.295
10535SOL    HW132504   3.883   1.759   2.392
10535SOL    HW232505   3.931   1.830   2.253
10536SOL     OW32506   5.989   3.219   4.351
10536SOL    HW132507   6.005   3.204   4.253
10536SOL    HW232508   6.074   3.246   4.395
10537SOL     OW32509   2.544   1.509   2.520
10537SOL    HW132510   2.607   1.432   2.526
10537SOL    HW232511   2.453   1.477   2.492
10538SOL     OW32512   6.516   2.742   3.595
10538SOL    HW132513   6.471   2.831   3.595
10538SOL    HW232514   6.471   2.683   3.663
10539SOL     OW32515   6.714   0.467   1.972
10539SOL    HW132516   6.648   0.486   2.045
10539SOL    HW232517   6.668   0.469   1.883
10540SOL     OW32518   1.689   2.656   6.135
10540SOL    HW132519   1.648   2.747   6.140
10540SOL    HW232520   1.723   2.630   6.226
10541SOL     OW32521   3.766   2.564   6.814
10541SOL    HW132522   3.708   2.492   6.776
10541SOL    HW232523   3.859   2.529   6.828
10542SOL     OW32524   3.638   6.465   2.808
10542SOL    HW132525   3.606   6.456   2.902
10542SOL    HW232526   3.563   6.496   2.750
10543SOL     OW32527   1.089   2.975   4.094
10543SOL    HW132528   1.005   2.921   4.083
10543SOL    HW232529   1.092   3.012   4.187
10544SOL     OW32530   2.708   2.246   2.210
10544SOL    HW132531   2.629   2.199   2.171
10544SOL    HW232532   2.769   2.276   2.135
10545SOL     OW32533   0.781   3.462   1.463
10545SOL    HW132534   0.779   3.396   1.539
10545SOL    HW232535   0.783   3.413   1.376
10546SOL     OW32536   1.974   0.356   4.794
10546SOL    HW132537   1.935   0.291   4.860
10546SOL    HW232538   2.005   0.438   4.842
10547SOL     OW32539   3.139   5.936   6.298
10547SOL    HW132540   3.129   5.875   6.377
10547SOL    HW232541   3.059   5.995   6.292
10548SOL     OW32542   1.350   5.073   3.206
10548SOL    HW132543   1.341   4.975   3.189
10548SOL    HW232544   1.410   5.088   3.284
10549SOL     OW32545   0.062   1.549   2.908
10549SOL    HW132546   0.083   1.582   2.815
10549SOL    HW232547   0.141   1.565   2.967
10550SOL     OW32548   0.020   4.377   2.656
10550SOL    HW132549   6.967   4.443   2.668
10550SOL    HW232550   0.087   4.413   2.590
10551SOL     OW32551   4.546   0.610   4.437
10551SOL    HW132552   4.475   0.592   4.369
10551SOL    HW232553   4.555   0.708   4.451
10552SOL     OW32554   2.420   6.906   3.767
10552SOL    HW132555   2.441   6.978   3.701
10552SOL    HW232556   2.330   6.924   3.807
10553SOL     OW32557   5.993   5.348   1.320
10553SOL    HW132558   5.964   5.299   1.403
10553SOL    HW232559   5.912   5.381   1.272
10554SOL     OW32560   5.506   5.586   1.663
10554SOL    HW132561   5.413   5.561   1.635
10554SOL    HW232562   5.565   5.505   1.660
10555SOL     OW32563   3.027   3.123   2.234
10555SOL    HW132564   3.119   3.159   2.247
10555SOL    HW232565   3.030   3.042   2.176
10556SOL     OW32566   2.227   1.928   2.029
10556SOL    HW132567   2.231   2.005   2.092
10556SOL    HW232568   2.150   1.869   2.052
10557SOL     OW32569   1.207   4.216   3.180
10557SOL    HW132570   1.114   4.192   3.150
10557SOL    HW232571   1.250   4.137   3.223
10558SOL     OW32572   5.323   5.273   4.114
10558SOL    HW132573   5.375   5.324   4.046
10558SOL    HW232574   5.380   5.255   4.194
10559SOL     OW32575   3.813   5.588   1.745
10559SOL    HW132576   3.866   5.605   1.663
10559SOL    HW232577   3.787   5.675   1.788
10560SOL     OW32578   5.852   6.605   3.884
10560SOL    HW132579   5.786   6.668   3.924
10560SOL    HW232580   5.811   6.557   3.807
10561SOL     OW32581   0.617   5.922   5.626
10561SOL    HW132582   0.679   5.945   5.701
10561SOL    HW232583   0.638   5.979   5.547
10562SOL     OW32584   2.812   1.416   2.720
10562SOL    HW132585   2.734   1.411   2.782
10562SOL    HW232586   2.804   1.346   2.650
10563SOL     OW32587   1.667   4.981   2.264
10563SOL    HW132588   1.635   5.068   2.301
10563SOL    HW232589   1.707   4.995   2.174
10564SOL     OW32590   5.368   5.763   3.382
10564SOL    HW132591   5.462   5.751   3.351
10564SOL    HW232592   5.338   5.856   3.363
10565SOL     OW32593   0.195   1.061   4.513
10565SOL    HW132594   0.172   1.133   4.579
10565SOL    HW232595   0.254   1.098   4.442
10566SOL     OW32596   3.326   1.312   0.883
10566SOL    HW132597   3.336   1.213   0.872
10566SOL    HW232598   3.410   1.350   0.920
10567SOL     OW32599   3.103   1.389   6.428
10567SOL    HW132600   3.126   1.363   6.335
10567SOL    HW232601   3.180   1.435   6.471
10568SOL     OW32602   6.242   1.590   6.642
10568SOL    HW132603   6.296   1.645   6.578
10568SOL    HW232604   6.146   1.614   6.633
10569SOL     OW32605   4.111   0.529   1.745
10569SOL    HW132606   4.128   0.565   1.654
10569SOL    HW232607   4.086   0.604   1.806
10570SOL     OW32608   1.177   3.813   3.053
10570SOL    HW132609   1.209   3.805   2.959
10570SOL    HW232610   1.110   3.741   3.072
10571SOL     OW32611   0.790   3.872   5.040
10571SOL    HW132612   0.713   3.901   4.982
10571SOL    HW232613   0.873   3.866   4.985
10572SOL     OW32614   6.778   5.644   0.764
10572SOL    HW132615   6.840   5.636   0.843
10572SOL    HW232616   6.825   5.612   0.682
10573SOL     OW32617   5.875   2.195   2.996
10573SOL    HW132618   5.789   2.211   2.949
10573SOL    HW232619   5.866   2.115   3.055
10574SOL     OW32620   5.481   2.541   2.982
10574SOL    HW132621   5.481   2.466   2.916
10574SOL    HW232622   5.448   2.624   2.937
10575SOL     OW32623   4.711   6.957   3.147
10575SOL    HW132624   4.778   6.902   3.097
10575SOL    HW232625   4.753   6.994   3.230
10576SOL     OW32626   1.246   3.312   5.023
10576SOL    HW132627   1.164   3.316   5.081
10576SOL    HW232628   1.313   3.380   5.056
10577SOL     OW32629   4.336   4.823   6.249
10577SOL    HW132630   4.332   4.816   6.149
10577SOL    HW232631   4.431   4.836   6.278
10578SOL     OW32632   1.421   3.139   2.201
10578SOL    HW132633   1.333   3.093   2.212
10578SOL    HW232634   1.488   3.099   2.264
10579SOL     OW32635   0.319   3.078   0.347
10579SOL    HW132636   0.373   2.996   0.327
10579SOL    HW232637   0.368   3.159   0.318
10580SOL     OW32638   4.453   6.212   6.080
10580SOL    HW132639   4.506   6.284   6.124
10580SOL    HW232640   4.371   6.251   6.040
10581SOL     OW32641   3.873   0.504   2.473
10581SOL    HW132642   3.910   0.549   2.554
10581SOL    HW232643   3.775   0.525   2.465
10582SOL     OW32644   0.384   3.683   0.334
10582SOL    HW132645   0.324   3.604   0.318
10582SOL    HW232646   0.329   3.766   0.340
10583SOL     OW32647   3.770   1.803   6.064
10583SOL    HW132648   3.860   1.794   6.106
10583SOL    HW232649   3.780   1.829   5.968
10584SOL     OW32650   6.751   0.278   4.029
10584SOL    HW132651   6.802   0.345   4.082
10584SOL    HW232652   6.709   0.324   3.950
10585SOL     OW32653   1.894   0.961   4.677
10585SOL    HW132654   1.828   1.028   4.641
10585SOL    HW232655   1.894   0.880   4.618
10586SOL     OW32656   4.663   3.541   6.210
10586SOL    HW132657   4.711   3.586   6.135
10586SOL    HW232658   4.730   3.495   6.269
10587SOL     OW32659   2.185   5.110   6.048
10587SOL    HW132660   2.195   5.189   5.988
10587SOL    HW232661   2.095   5.068   6.033
10588SOL     OW32662   1.269   4.674   4.549
10588SOL    HW132663   1.342   4.735   4.580
10588SOL    HW232664   1.257   4.684   4.451
10589SOL     OW32665   6.272   0.524   3.519
10589SOL    HW132666   6.195   0.587   3.526
10589SOL    HW232667   6.276   0.466   3.600
10590SOL     OW32668   6.713   6.281   2.156
10590SOL    HW132669   6.723   6.330   2.243
10590SOL    HW232670   6.784   6.211   2.150
10591SOL     OW32671   6.310   4.404   2.762
10591SOL    HW132672   6.230   4.449   2.801
10591SOL    HW232673   6.285   4.361   2.675
10592SOL     OW32674   6.088   3.887   5.272
10592SOL    HW132675   6.174   3.860   5.315
10592SOL    HW232676   6.016   3.824   5.300
10593SOL     OW32677   3.432   5.811   2.787
10593SOL    HW132678   3.500   5.873   2.826
10593SOL    HW232679   3.448   5.802   2.689
10594SOL     OW32680   3.739   6.019   3.344
10594SOL    HW132681   3.643   6.002   3.323
10594SOL    HW232682   3.796   5.947   3.306
10595SOL     OW32683   6.310   5.749   0.634
10595SOL    HW132684   6.281   5.832   0.586
10595SOL    HW232685   6.343   5.682   0.567
10596SOL     OW32686   6.234   3.392   0.927
10596SOL    HW132687   6.259   3.297   0.950
10596SOL    HW232688   6.291   3.424   0.852
10597SOL     OW32689   1.294   6.649   5.168
10597SOL    HW132690   1.244   6.734   5.186
10597SOL    HW232691   1.384   6.671   5.131
10598SOL     OW32692   2.868   1.600   1.138
10598SOL    HW132693   2.914   1.568   1.055
10598SOL    HW232694   2.884   1.698   1.148
10599SOL     OW32695   0.864   1.768   0.997
10599SOL    HW132696   0.887   1.705   0.923
10599SOL    HW232697   0.863   1.718   1.084
10600SOL     OW32698   4.501   1.336   2.020
10600SOL    HW132699   4.593   1.362   2.047
10600SOL    HW232700   4.464   1.404   1.957
10601SOL     OW32701   1.548   1.757   5.462
10601SOL    HW132702   1.545   1.699   5.543
10601SOL    HW232703   1.455   1.773   5.428
10602SOL     OW32704   6.886   6.564   0.913
10602SOL    HW132705   6.843   6.528   0.997
10602SOL    HW232706   6.970   6.612   0.936
10603SOL     OW32707   5.695   0.123   2.959
10603SOL    HW132708   5.629   0.156   3.027
10603SOL    HW232709   5.708   0.193   2.888
10604SOL     OW32710   5.551   1.967   4.826
10604SOL    HW132711   5.569   2.040   4.761
10604SOL    HW232712   5.468   1.988   4.878
10605SOL     OW32713   4.828   1.582   1.142
10605SOL    HW132714   4.781   1.541   1.219
10605SOL    HW232715   4.927   1.583   1.159
10606SOL     OW32716   5.722   1.664   0.878
10606SOL    HW132717   5.807   1.636   0.922
10606SOL    HW232718   5.689   1.591   0.818
10607SOL     OW32719   1.848   5.025   1.475
10607SOL    HW132720   1.856   5.111   1.423
10607SOL    HW232721   1.936   4.978   1.475
10608SOL     OW32722   5.443   4.049   2.260
10608SOL    HW132723   5.408   4.068   2.168
10608SOL    HW232724   5.381   3.985   2.306
10609SOL     OW32725   5.691   6.192   6.888
10609SOL    HW132726   5.782   6.227   6.864
10609SOL    HW232727   5.686   6.179   6.986
10610SOL     OW32728   0.304   2.429   3.102
10610SOL    HW132729   0.212   2.391   3.105
10610SOL    HW232730   0.371   2.354   3.096
10611SOL     OW32731   3.952   5.639   6.340
10611SOL    HW132732   3.904   5.551   6.339
10611SOL    HW232733   3.980   5.663   6.247
10612SOL     OW32734   5.647   2.456   3.937
10612SOL    HW132735   5.682   2.541   3.977
10612SOL    HW232736   5.724   2.400   3.907
10613SOL     OW32737   5.193   4.955   5.923
10613SOL    HW132738   5.124   4.919   5.860
10613SOL    HW232739   5.148   5.002   5.999
10614SOL     OW32740   4.259   1.999   0.258
10614SOL    HW132741   4.315   1.924   0.223
10614SOL    HW232742   4.253   2.071   0.189
10615SOL     OW32743   3.859   2.922   5.981
10615SOL    HW132744   3.949   2.879   5.990
10615SOL    HW232745   3.791   2.869   6.031
10616SOL     OW32746   1.529   5.431   0.224
10616SOL    HW132747   1.598   5.389   0.166
10616SOL    HW232748   1.555   5.525   0.244
10617SOL     OW32749   2.274   3.497   0.019
10617SOL    HW132750   2.176   3.478   0.013
10617SOL    HW232751   2.297   3.525   0.112
10618SOL     OW32752   0.181   4.707   5.110
10618SOL    HW132753   0.181   4.608   5.125
10618SOL    HW232754   0.257   4.731   5.048
10619SOL     OW32755   1.360   2.451   1.175
10619SOL    HW132756   1.293   2.522   1.154
10619SOL    HW232757   1.405   2.420   1.091
10620SOL     OW32758   4.090   1.250   5.705
10620SOL    HW132759   4.000   1.292   5.717
10620SOL    HW232760   4.087   1.155   5.735
10621SOL     OW32761   0.771   5.360   4.487
10621SOL    HW132762   0.772   5.321   4.395
10621SOL    HW232763   0.679   5.394   4.508
10622SOL     OW32764   4.149   2.217   6.266
10622SOL    HW132765   4.155   2.315   6.285
10622SOL    HW232766   4.126   2.203   6.170
10623SOL     OW32767   5.360   4.755   4.992
10623SOL    HW132768   5.277   4.711   4.959
10623SOL    HW232769   5.404   4.803   4.915
10624SOL     OW32770   0.062   1.488   5.615
10624SOL    HW132771   0.040   1.468   5.710
10624SOL    HW232772   0.079   1.402   5.566
10625SOL     OW32773   6.393   5.044   6.823
10625SOL    HW132774   6.456   5.000   6.887
10625SOL    HW232775   6.383   5.140   6.848
10626SOL     OW32776   5.590   3.930   1.680
10626SOL    HW132777   5.631   3.994   1.615
10626SOL    HW232778   5.494   3.955   1.694
10627SOL     OW32779   4.983   5.429   5.361
10627SOL    HW132780   4.940   5.483   5.288
10627SOL    HW232781   5.070   5.471   5.386
10628SOL     OW32782   2.756   6.208   2.146
10628SOL    HW132783   2.705   6.142   2.091
10628SOL    HW232784   2.765   6.175   2.239
10629SOL     OW32785   4.284   5.770   4.270
10629SOL    HW132786   4.219   5.803   4.338
10629SOL    HW232787   4.309   5.845   4.209
10630SOL     OW32788   4.296   1.077   1.728
10630SOL    HW132789   4.366   1.135   1.685
10630SOL    HW232790   4.341   1.009   1.785
10631SOL     OW32791   3.644   5.865   1.829
10631SOL    HW132792   3.646   5.964   1.843
10631SOL    HW232793   3.568   5.825   1.881
10632SOL     OW32794   5.791   0.819   4.646
10632SOL    HW132795   5.870   0.762   4.623
10632SOL    HW232796   5.723   0.765   4.694
10633SOL     OW32797   2.863   3.639   0.246
10633SOL    HW132798   2.777   3.589   0.256
10633SOL    HW232799   2.855   3.704   0.170
10634SOL     OW32800   0.953   4.273   0.819
10634SOL    HW132801   0.927   4.368   0.805
10634SOL    HW232802   1.051   4.262   0.800
10635SOL     OW32803   3.246   4.562   0.267
10635SOL    HW132804   3.159   4.596   0.302
10635SOL    HW232805   3.304   4.533   0.344
10636SOL     OW32806   0.796   2.636   0.677
10636SOL    HW132807   0.765   2.654   0.770
10636SOL    HW232808   0.745   2.694   0.613
10637SOL     OW32809   1.558   6.710   5.393
10637SOL    HW132810   1.493   6.711   5.469
10637SOL    HW232811   1.551   6.795   5.341
10638SOL     OW32812   6.081   4.114   6.843
10638SOL    HW132813   6.012   4.151   6.780
10638SOL    HW232814   6.107   4.184   6.909
10639SOL     OW32815   6.822   4.988   6.639
10639SOL    HW132816   6.857   5.028   6.554
10639SOL    HW232817   6.750   5.046   6.676
10640SOL     OW32818   4.482   5.579   4.932
10640SOL    HW132819   4.527   5.523   5.002
10640SOL    HW232820   4.458   5.668   4.971
10641SOL     OW32821   1.377   1.615   3.472
10641SOL    HW132822   1.385   1.539   3.537
10641SOL    HW232823   1.390   1.580   3.379
10642SOL     OW32824   6.582   2.194   5.810
10642SOL    HW132825   6.517   2.177   5.736
10642SOL    HW232826   6.556   2.141   5.890
10643SOL     OW32827   3.443   5.552   4.792
10643SOL    HW132828   3.391   5.478   4.748
10643SOL    HW232829   3.467   5.524   4.885
10644SOL     OW32830   1.771   3.739   3.570
10644SOL    HW132831   1.697   3.713   3.631
10644SOL    HW232832   1.853   3.688   3.593
10645SOL     OW32833   1.823   3.290   3.777
10645SOL    HW132834   1.814   3.312   3.874
10645SOL    HW232835   1.899   3.226   3.765
10646SOL     OW32836   5.561   1.258   3.207
10646SOL    HW132837   5.641   1.252   3.268
10646SOL    HW232838   5.531   1.165   3.185
10647SOL     OW32839   4.891   6.055   4.746
10647SOL    HW132840   4.805   6.107   4.737
10647SOL    HW232841   4.952   6.077   4.670
10648SOL     OW32842   4.729   3.265   5.947
10648SOL    HW132843   4.722   3.259   6.046
10648SOL    HW232844   4.640   3.290   5.908
10649SOL     OW32845   6.075   3.181   3.223
10649SOL    HW132846   6.159   3.129   3.207
10649SOL    HW232847   6.091   3.277   3.199
10650SOL     OW32848   0.576   0.711   2.637
10650SOL    HW132849   0.517   0.780   2.679
10650SOL    HW232850   0.665   0.751   2.617
10651SOL     OW32851   2.435   5.710   4.824
10651SOL    HW132852   2.384   5.755   4.897
10651SOL    HW232853   2.482   5.630   4.861
10652SOL     OW32854   3.563   0.374   0.432
10652SOL    HW132855   3.500   0.452   0.421
10652SOL    HW232856   3.510   0.289   0.436
10653SOL     OW32857   6.171   5.999   4.837
10653SOL    HW132858   6.086   5.949   4.853
10653SOL    HW232859   6.249   5.943   4.865
10654SOL     OW32860   0.168   1.509   3.642
10654SOL    HW132861   0.231   1.440   3.606
10654SOL    HW232862   0.079   1.500   3.596
10655SOL     OW32863   6.326   5.168   0.260
10655SOL    HW132864   6.312   5.073   0.233
10655SOL    HW232865   6.265   5.190   0.336
10656SOL     OW32866   5.675   0.826   5.719
10656SOL    HW132867   5.595   0.778   5.683
10656SOL    HW232868   5.746   0.760   5.740
10657SOL     OW32869   4.564   0.384   5.605
10657SOL    HW132870   4.529   0.419   5.518
10657SOL    HW232871   4.615   0.299   5.589
10658SOL     OW32872   1.315   0.870   5.000
10658SOL    HW132873   1.240   0.895   5.062
10658SOL    HW232874   1.366   0.953   4.975
10659SOL     OW32875   0.816   5.529   6.838
10659SOL    HW132876   0.755   5.589   6.786
10659SOL    HW232877   0.808   5.550   6.936
10660SOL     OW32878   6.396   2.172   6.271
10660SOL    HW132879   6.395   2.264   6.311
10660SOL    HW232880   6.435   2.108   6.336
10661SOL     OW32881   3.843   5.681   5.693
10661SOL    HW132882   3.771   5.632   5.743
10661SOL    HW232883   3.882   5.621   5.623
10662SOL     OW32884   3.246   1.836   1.180
10662SOL    HW132885   3.246   1.925   1.133
10662SOL    HW232886   3.340   1.810   1.202
10663SOL     OW32887   6.490   3.281   3.769
10663SOL    HW132888   6.432   3.344   3.820
10663SOL    HW232889   6.563   3.332   3.723
10664SOL     OW32890   0.560   6.104   4.540
10664SOL    HW132891   0.636   6.102   4.475
10664SOL    HW232892   0.538   6.010   4.568
10665SOL     OW32893   4.466   3.662   0.747
10665SOL    HW132894   4.495   3.643   0.841
10665SOL    HW232895   4.396   3.596   0.720
10666SOL     OW32896   5.133   3.622   1.741
10666SOL    HW132897   5.041   3.583   1.750
10666SOL    HW232898   5.175   3.588   1.657
10667SOL     OW32899   5.460   2.760   4.113
10667SOL    HW132900   5.538   2.731   4.058
10667SOL    HW232901   5.456   2.705   4.197
10668SOL     OW32902   3.088   3.114   5.883
10668SOL    HW132903   3.052   3.059   5.958
10668SOL    HW232904   3.186   3.126   5.894
10669SOL     OW32905   6.484   2.857   1.957
10669SOL    HW132906   6.554   2.920   1.924
10669SOL    HW232907   6.441   2.812   1.879
10670SOL     OW32908   4.806   4.824   4.279
10670SOL    HW132909   4.885   4.886   4.277
10670SOL    HW232910   4.796   4.786   4.371
10671SOL     OW32911   1.954   3.117   4.359
10671SOL    HW132912   2.050   3.089   4.353
10671SOL    HW232913   1.906   3.089   4.275
10672SOL     OW32914   6.508   4.922   1.423
10672SOL    HW132915   6.580   4.961   1.366
10672SOL    HW232916   6.544   4.904   1.515
10673SOL     OW32917   3.084   0.982   1.680
10673SOL    HW132918   3.097   0.902   1.622
10673SOL    HW232919   3.166   0.996   1.736
10674SOL     OW32920   3.889   2.996   3.439
10674SOL    HW132921   3.864   3.001   3.536
10674SOL    HW232922   3.865   3.082   3.395
10675SOL     OW32923   3.777   6.265   5.943
10675SOL    HW132924   3.849   6.223   5.888
10675SOL    HW232925   3.710   6.309   5.882
10676SOL     OW32926   1.114   1.504   4.420
10676SOL    HW132927   1.168   1.578   4.460
10676SOL    HW232928   1.042   1.542   4.362
10677SOL     OW32929   0.211   1.214   6.915
10677SOL    HW132930   0.227   1.313   6.907
10677SOL    HW232931   0.179   1.193   7.007
10678SOL     OW32932   3.331   4.960   2.448
10678SOL    HW132933   3.235   4.945   2.423
10678SOL    HW232934   3.363   5.045   2.405
10679SOL     OW32935   5.361   3.884   0.197
10679SOL    HW132936   5.387   3.884   0.100
10679SOL    HW232937   5.266   3.913   0.206
10680SOL     OW32938   4.045   1.870   5.047
10680SOL    HW132939   3.972   1.811   5.011
10680SOL    HW232940   4.074   1.837   5.137
10681SOL     OW32941   2.723   3.456   5.636
10681SOL    HW132942   2.644   3.465   5.696
10681SOL    HW232943   2.694   3.459   5.540
10682SOL     OW32944   5.299   3.197   6.211
10682SOL    HW132945   5.251   3.226   6.128
10682SOL    HW232946   5.295   3.098   6.219
10683SOL     OW32947   1.573   0.056   3.235
10683SOL    HW132948   1.643   0.076   3.304
10683SOL    HW232949   1.617   0.049   3.145
10684SOL     OW32950   4.926   4.117   1.311
10684SOL    HW132951   4.976   4.093   1.228
10684SOL    HW232952   4.949   4.211   1.338
10685SOL     OW32953   0.806   0.864   2.624
10685SOL    HW132954   0.832   0.843   2.530
10685SOL    HW232955   0.874   0.826   2.687
10686SOL     OW32956   2.905   1.845   6.813
10686SOL    HW132957   2.854   1.818   6.895
10686SOL    HW232958   2.844   1.847   6.735
10687SOL     OW32959   0.562   3.138   3.522
10687SOL    HW132960   0.648   3.093   3.498
10687SOL    HW232961   0.547   3.217   3.462
10688SOL     OW32962   4.687   1.353   3.697
10688SOL    HW132963   4.708   1.310   3.609
10688SOL    HW232964   4.593   1.387   3.696
10689SOL     OW32965   1.670   1.402   2.839
10689SOL    HW132966   1.575   1.378   2.816
10689SOL    HW232967   1.683   1.394   2.938
10690SOL     OW32968   1.051   6.440   4.751
10690SOL    HW132969   1.098   6.355   4.727
10690SOL    HW232970   0.958   6.420   4.781
10691SOL     OW32971   3.547   6.644   1.380
10691SOL    HW132972   3.606   6.583   1.433
10691SOL    HW232973   3.554   6.621   1.283
10692SOL     OW32974   3.030   1.966   4.440
10692SOL    HW132975   3.071   2.022   4.368
10692SOL    HW232976   3.019   2.022   4.522
10693SOL     OW32977   1.407   4.359   7.011
10693SOL    HW132978   1.365   4.447   6.991
10693SOL    HW232979   1.336   4.288   7.014
10694SOL     OW32980   5.357   2.305   5.601
10694SOL    HW132981   5.347   2.357   5.517
10694SOL    HW232982   5.268   2.292   5.644
10695SOL     OW32983   4.786   4.944   1.574
10695SOL    HW132984   4.786   4.944   1.674
10695SOL    HW232985   4.742   4.860   1.541
10696SOL     OW32986   6.879   5.119   4.319
10696SOL    HW132987   6.947   5.060   4.276
10696SOL    HW232988   6.796   5.120   4.263
10697SOL     OW32989   2.920   5.009   4.780
10697SOL    HW132990   2.822   5.014   4.762
10697SOL    HW232991   2.935   4.971   4.872
10698SOL     OW32992   4.073   4.688   6.846
10698SOL    HW132993   4.013   4.610   6.866
10698SOL    HW232994   4.159   4.677   6.896
10699SOL     OW32995   4.373   3.944   1.539
10699SOL    HW132996   4.319   3.979   1.616
10699SOL    HW232997   4.462   3.913   1.573
10700SOL     OW32998   4.994   0.022   1.512
10700SOL    HW132999   4.966   0.096   1.450
10700SOL    HW233000   4.923   6.973   1.514
10701SOL     OW33001   3.236   6.584   5.685
10701SOL    HW133002   3.233   6.661   5.622
10701SOL    HW233003   3.327   6.579   5.727
10702SOL     OW33004   5.681   2.842   2.236
10702SOL    HW133005   5.721   2.875   2.322
10702SOL    HW233006   5.638   2.753   2.251
10703SOL     OW33007   0.806   1.917   5.651
10703SOL    HW133008   0.843   1.953   5.737
10703SOL    HW233009   0.713   1.883   5.667
10704SOL     OW33010   5.338   6.816   1.955
10704SOL    HW133011   5.293   6.729   1.972
10704SOL    HW233012   5.274   6.891   1.974
10705SOL     OW33013   4.678   3.670   1.687
10705SOL    HW133014   4.663   3.768   1.676
10705SOL    HW233015   4.685   3.627   1.597
10706SOL     OW33016   3.042   0.937   2.080
10706SOL    HW133017   3.037   0.951   2.179
10706SOL    HW233018   3.006   1.017   2.032
10707SOL     OW33019   3.908   7.012   3.354
10707SOL    HW133020   3.834   6.949   3.335
10707SOL    HW233021   3.968   7.019   3.274
10708SOL     OW33022   4.391   1.331   1.394
10708SOL    HW133023   4.340   1.250   1.366
10708SOL    HW233024   4.439   1.313   1.480
10709SOL     OW33025   5.626   4.141   2.942
10709SOL    HW133026   5.548   4.144   3.005
10709SOL    HW233027   5.594   4.126   2.849
10710SOL     OW33028   4.750   1.262   3.413
10710SOL    HW133029   4.774   1.339   3.354
10710SOL    HW233030   4.671   1.214   3.375
10711SOL     OW33031   2.351   6.430   3.281
10711SOL    HW133032   2.341   6.440   3.380
10711SOL    HW233033   2.423   6.363   3.261
10712SOL     OW33034   5.234   0.723   3.609
10712SOL    HW133035   5.215   0.782   3.689
10712SOL    HW233036   5.150   0.713   3.556
10713SOL     OW33037   1.076   3.776   1.203
10713SOL    HW133038   1.060   3.813   1.112
10713SOL    HW233039   1.056   3.678   1.203
10714SOL     OW33040   3.197   3.960   4.909
10714SOL    HW133041   3.165   4.017   4.985
10714SOL    HW233042   3.291   3.932   4.926
10715SOL     OW33043   6.462   1.086   2.151
10715SOL    HW133044   6.434   1.074   2.055
10715SOL    HW233045   6.559   1.066   2.160
10716SOL     OW33046   5.113   1.015   3.255
10716SOL    HW133047   5.135   1.106   3.219
10716SOL    HW233048   5.151   1.006   3.347
10717SOL     OW33049   3.561   3.262   0.668
10717SOL    HW133050   3.501   3.184   0.685
10717SOL    HW233051   3.656   3.230   0.659
10718SOL     OW33052   1.833   5.377   6.341
10718SOL    HW133053   1.770   5.422   6.277
10718SOL    HW233054   1.790   5.370   6.431
10719SOL     OW33055   6.939   4.632   5.581
10719SOL    HW133056   6.928   4.728   5.556
10719SOL    HW233057   7.012   4.623   5.648
10720SOL     OW33058   6.900   5.510   2.675
10720SOL    HW133059   6.903   5.530   2.773
10720SOL    HW233060   6.835   5.572   2.630
10721SOL     OW33061   4.983   2.897   6.448
10721SOL    HW133062   5.020   2.988   6.432
10721SOL    HW233063   4.891   2.892   6.410
10722SOL     OW33064   0.247   3.821   5.382
10722SOL    HW133065   0.330   3.876   5.371
10722SOL    HW233066   0.179   3.874   5.433
10723SOL     OW33067   5.766   6.081   0.723
10723SOL    HW133068   5.681   6.107   0.677
10723SOL    HW233069   5.791   5.988   0.698
10724SOL     OW33070   0.323   6.264   6.110
10724SOL    HW133071   0.410   6.258   6.060
10724SOL    HW233072   0.271   6.342   6.076
10725SOL     OW33073   2.655   6.603   6.135
10725SOL    HW133074   2.751   6.621   6.118
10725SOL    HW233075   2.612   6.684   6.176
10726SOL     OW33076   3.731   0.789   4.211
10726SOL    HW133077   3.637   0.790   4.177
10726SOL    HW233078   3.747   0.704   4.261
10727SOL     OW33079   2.511   6.080   6.946
10727SOL    HW133080   2.433   6.128   6.987
10727SOL    HW233081   2.592   6.137   6.950
10728SOL     OW33082   5.241   6.052   1.913
10728SOL    HW133083   5.221   6.143   1.875
10728SOL    HW233084   5.197   5.982   1.858
10729SOL     OW33085   6.509   2.034   0.533
10729SOL    HW133086   6.433   2.031   0.468
10729SOL    HW233087   6.479   2.078   0.618
10730SOL     OW33088   4.476   0.530   3.252
10730SOL    HW133089   4.502   0.464   3.323
10730SOL    HW233090   4.401   0.492   3.197
10731SOL     OW33091   3.199   0.368   0.937
10731SOL    HW133092   3.277   0.361   1.000
10731SOL    HW233093   3.232   0.381   0.844
10732SOL     OW33094   0.583   3.307   5.934
10732SOL    HW133095   0.632   3.241   5.991
10732SOL    HW233096   0.499   3.265   5.898
10733SOL     OW33097   6.044   0.538   0.095
10733SOL    HW133098   6.086   0.478   0.027
10733SOL    HW233099   6.114   0.594   0.139
10734SOL     OW33100   5.677   2.852   1.703
10734SOL    HW133101   5.701   2.949   1.716
10734SOL    HW233102   5.726   2.817   1.623
10735SOL     OW33103   0.049   5.469   2.458
10735SOL    HW133104   0.089   5.378   2.460
10735SOL    HW233105   7.011   5.482   2.538
10736SOL     OW33106   1.896   1.556   4.754
10736SOL    HW133107   1.906   1.457   4.760
10736SOL    HW233108   1.956   1.601   4.820
10737SOL     OW33109   6.983   2.032   6.245
10737SOL    HW133110   6.950   1.988   6.161
10737SOL    HW233111   6.933   1.994   6.323
10738SOL     OW33112   4.141   0.446   4.407
10738SOL    HW133113   4.178   0.476   4.494
10738SOL    HW233114   4.207   0.387   4.360
10739SOL     OW33115   1.908   1.479   2.080
10739SOL    HW133116   1.846   1.410   2.115
10739SOL    HW233117   1.858   1.563   2.060
10740SOL     OW33118   4.032   6.016   3.681
10740SOL    HW133119   4.044   5.917   3.695
10740SOL    HW233120   3.939   6.035   3.652
10741SOL     OW33121   2.456   0.635   3.285
10741SOL    HW133122   2.536   0.619   3.343
10741SOL    HW233123   2.470   0.592   3.196
10742SOL     OW33124   6.813   5.878   0.017
10742SOL    HW133125   6.798   5.965   0.062
10742SOL    HW233126   6.776   5.804   0.074
10743SOL     OW33127   3.154   1.295   5.149
10743SOL    HW133128   3.230   1.232   5.137
10743SOL    HW233129   3.113   1.316   5.061
10744SOL     OW33130   6.026   1.371   0.541
10744SOL    HW133131   6.038   1.290   0.484
10744SOL    HW233132   5.930   1.399   0.540
10745SOL     OW33133   0.022   5.795   5.841
10745SOL    HW133134   0.114   5.831   5.858
10745SOL    HW233135   0.011   5.776   5.744
10746SOL     OW33136   1.915   4.523   5.039
10746SOL    HW133137   1.910   4.623   5.048
10746SOL    HW233138   2.000   4.498   4.993
10747SOL     OW33139   2.986   2.197   4.888
10747SOL    HW133140   3.054   2.245   4.943
10747SOL    HW233141   2.896   2.210   4.928
10748SOL     OW33142   5.724   1.786   2.786
10748SOL    HW133143   5.780   1.726   2.728
10748SOL    HW233144   5.660   1.730   2.839
10749SOL     OW33145   3.398   0.140   0.410
10749SOL    HW133146   3.433   0.047   0.408
10749SOL    HW233147   3.315   0.146   0.355
10750SOL     OW33148   4.496   6.279   6.539
10750SOL    HW133149   4.436   6.271   6.460
10750SOL    HW233150   4.455   6.344   6.605
10751SOL     OW33151   2.614   5.862   3.041
10751SOL    HW133152   2.670   5.781   3.058
10751SOL    HW233153   2.604   5.876   2.943
10752SOL     OW33154   5.130   5.184   3.907
10752SOL    HW133155   5.178   5.097   3.919
10752SOL    HW233156   5.134   5.237   3.992
10753SOL     OW33157   5.547   4.112   4.447
10753SOL    HW133158   5.549   4.013   4.456
10753SOL    HW233159   5.490   4.152   4.519
10754SOL     OW33160   1.195   6.860   2.556
10754SOL    HW133161   1.173   6.905   2.470
10754SOL    HW233162   1.115   6.809   2.588
10755SOL     OW33163   6.160   5.570   1.415
10755SOL    HW133164   6.127   5.653   1.460
10755SOL    HW233165   6.083   5.523   1.372
10756SOL     OW33166   0.536   6.966   5.081
10756SOL    HW133167   0.568   6.958   5.175
10756SOL    HW233168   0.549   6.878   5.034
10757SOL     OW33169   3.025   2.902   1.682
10757SOL    HW133170   2.931   2.869   1.678
10757SOL    HW233171   3.088   2.825   1.682
10758SOL     OW33172   0.216   5.239   4.490
10758SOL    HW133173   0.281   5.166   4.510
10758SOL    HW233174   0.159   5.256   4.571
10759SOL     OW33175   6.883   0.934   0.065
10759SOL    HW133176   6.785   0.914   0.067
10759SOL    HW233177   6.915   0.962   0.155
10760SOL     OW33178   5.725   1.764   4.726
10760SOL    HW133179   5.739   1.788   4.630
10760SOL    HW233180   5.653   1.822   4.765
10761SOL     OW33181   3.229   5.166   5.508
10761SOL    HW133182   3.149   5.210   5.468
10761SOL    HW233183   3.203   5.079   5.549
10762SOL     OW33184   3.275   1.116   6.432
10762SOL    HW133185   3.304   1.027   6.397
10762SOL    HW233186   3.355   1.175   6.445
10763SOL     OW33187   4.772   5.617   4.207
10763SOL    HW133188   4.683   5.574   4.227
10763SOL    HW233189   4.836   5.594   4.280
10764SOL     OW33190   4.363   0.241   4.869
10764SOL    HW133191   4.416   0.235   4.953
10764SOL    HW233192   4.267   0.259   4.891
10765SOL     OW33193   6.920   3.445   0.016
10765SOL    HW133194   6.897   3.522   6.978
10765SOL    HW233195   6.886   3.462   0.109
10766SOL     OW33196   3.186   3.516   1.773
10766SOL    HW133197   3.111   3.488   1.713
10766SOL    HW233198   3.269   3.531   1.718
10767SOL     OW33199   4.854   1.978   1.957
10767SOL    HW133200   4.825   2.046   2.024
10767SOL    HW233201   4.781   1.965   1.890
10768SOL     OW33202   5.710   4.594   6.346
10768SOL    HW133203   5.657   4.661   6.295
10768SOL    HW233204   5.805   4.624   6.353
10769SOL     OW33205   1.629   3.678   4.679
10769SOL    HW133206   1.547   3.735   4.672
10769SOL    HW233207   1.625   3.625   4.763
10770SOL     OW33208   4.132   5.745   3.716
10770SOL    HW133209   4.220   5.738   3.763
10770SOL    HW233210   4.067   5.680   3.756
10771SOL     OW33211   2.757   1.849   4.447
10771SOL    HW133212   2.854   1.869   4.460
10771SOL    HW233213   2.711   1.850   4.536
10772SOL     OW33214   5.097   5.990   4.094
10772SOL    HW133215   5.102   6.060   4.022
10772SOL    HW233216   5.054   5.908   4.057
10773SOL     OW33217   5.638   5.227   2.776
10773SOL    HW133218   5.737   5.242   2.776
10773SOL    HW233219   5.617   5.146   2.721
10774SOL     OW33220   6.931   6.790   3.262
10774SOL    HW133221   6.904   6.827   3.174
10774SOL    HW233222   6.885   6.703   3.277
10775SOL     OW33223   0.589   3.089   0.998
10775SOL    HW133224   0.559   3.002   0.958
10775SOL    HW233225   0.512   3.152   1.001
10776SOL     OW33226   1.809   0.568   5.701
10776SOL    HW133227   1.744   0.640   5.676
10776SOL    HW233228   1.773   0.516   5.778
10777SOL     OW33229   3.111   5.868   1.386
10777SOL    HW133230   3.032   5.900   1.439
10777SOL    HW233231   3.103   5.769   1.371
10778SOL     OW33232   5.902   6.022   1.971
10778SOL    HW133233   5.874   5.931   2.001
10778SOL    HW233234   5.947   6.070   2.046
10779SOL     OW33235   5.102   3.029   3.565
10779SOL    HW133236   5.162   2.981   3.500
10779SOL    HW233237   5.151   3.042   3.652
10780SOL     OW33238   6.838   0.489   2.219
10780SOL    HW133239   6.891   0.417   2.265
10780SOL    HW233240   6.857   0.486   2.121
10781SOL     OW33241   3.200   0.192   4.029
10781SOL    HW133242   3.156   0.142   3.955
10781SOL    HW233243   3.253   0.129   4.086
10782SOL     OW33244   6.748   5.553   3.526
10782SOL    HW133245   6.800   5.623   3.576
10782SOL    HW233246   6.685   5.507   3.589
10783SOL     OW33247   6.576   2.617   2.583
10783SOL    HW133248   6.585   2.541   2.648
10783SOL    HW233249   6.529   2.584   2.501
10784SOL     OW33250   1.576   1.879   4.991
10784SOL    HW133251   1.650   1.843   5.048
10784SOL    HW233252   1.600   1.970   4.959
10785SOL     OW33253   1.295   3.043   6.052
10785SOL    HW133254   1.322   2.965   6.108
10785SOL    HW233255   1.273   3.012   5.959
10786SOL     OW33256   6.439   4.472   4.740
10786SOL    HW133257   6.345   4.474   4.708
10786SOL    HW233258   6.496   4.422   4.675
10787SOL     OW33259   2.127   2.359   5.980
10787SOL    HW133260   2.123   2.297   5.902
10787SOL    HW233261   2.131   2.306   6.065
10788SOL     OW33262   5.828   3.779   6.084
10788SOL    HW133263   5.743   3.818   6.047
10788SOL    HW233264   5.805   3.704   6.147
10789SOL     OW33265   4.767   0.891   6.819
10789SOL    HW133266   4.707   0.942   6.757
10789SOL    HW233267   4.863   0.911   6.797
10790SOL     OW33268   5.728   6.549   2.728
10790SOL    HW133269   5.659   6.616   2.700
10790SOL    HW233270   5.720   6.532   2.826
10791SOL     OW33271   0.661   6.268   2.322
10791SOL    HW133272   0.652   6.175   2.286
10791SOL    HW233273   0.596   6.281   2.396
10792SOL     OW33274   3.697   4.667   6.341
10792SOL    HW133275   3.676   4.655   6.439
10792SOL    HW233276   3.670   4.758   6.312
10793SOL     OW33277   5.373   4.201   4.652
10793SOL    HW133278   5.388   4.295   4.684
10793SOL    HW233279   5.280   4.173   4.676
10794SOL     OW33280   3.326   3.669   4.849
10794SOL    HW133281   3.353   3.719   4.931
10794SOL    HW233282   3.260   3.598   4.873
10795SOL     OW33283   0.076   4.804   2.967
10795SOL    HW133284   6.998   4.811   2.951
10795SOL    HW233285   0.092   4.772   3.060
10796SOL     OW33286   0.912   6.548   5.534
10796SOL    HW133287   1.004   6.538   5.497
10796SOL    HW233288   0.862   6.616   5.480
10797SOL     OW33289   4.126   2.927   0.457
10797SOL    HW133290   4.170   3.003   0.410
10797SOL    HW233291   4.030   2.922   0.431
10798SOL     OW33292   5.881   1.388   0.986
10798SOL    HW133293   5.960   1.362   0.930
10798SOL    HW233294   5.907   1.391   1.082
10799SOL     OW33295   5.156   1.357   1.218
10799SOL    HW133296   5.136   1.347   1.315
10799SOL    HW233297   5.132   1.272   1.170
10800SOL     OW33298   6.793   6.424   1.110
10800SOL    HW133299   6.857   6.349   1.097
10800SOL    HW233300   6.712   6.410   1.053
10801SOL     OW33301   2.283   0.613   1.225
10801SOL    HW133302   2.279   0.667   1.141
10801SOL    HW233303   2.226   0.656   1.295
10802SOL     OW33304   5.671   1.510   3.635
10802SOL    HW133305   5.693   1.573   3.709
10802SOL    HW233306   5.600   1.446   3.665
10803SOL     OW33307   2.390   5.112   5.091
10803SOL    HW133308   2.477   5.076   5.125
10803SOL    HW233309   2.320   5.102   5.163
10804SOL     OW33310   6.005   3.525   3.962
10804SOL    HW133311   5.998   3.498   3.865
10804SOL    HW233312   5.986   3.446   4.020
10805SOL     OW33313   0.112   6.859   6.813
10805SOL    HW133314   0.096   6.951   6.778
10805SOL    HW233315   0.134   6.865   6.911
10806SOL     OW33316   1.665   5.378   1.187
10806SOL    HW133317   1.636   5.409   1.096
10806SOL    HW233318   1.600   5.311   1.222
10807SOL     OW33319   3.320   5.354   4.674
10807SOL    HW133320   3.262   5.273   4.670
10807SOL    HW233321   3.287   5.422   4.609
10808SOL     OW33322   1.681   3.248   0.235
10808SOL    HW133323   1.720   3.246   0.327
10808SOL    HW233324   1.687   3.157   0.194
10809SOL     OW33325   1.355   0.738   4.769
10809SOL    HW133326   1.434   0.774   4.720
10809SOL    HW233327   1.348   0.783   4.858
10810SOL     OW33328   6.131   0.628   3.808
10810SOL    HW133329   6.130   0.528   3.819
10810SOL    HW233330   6.076   0.653   3.728
10811SOL     OW33331   5.453   5.496   5.163
10811SOL    HW133332   5.386   5.566   5.187
10811SOL    HW233333   5.544   5.536   5.162
10812SOL     OW33334   0.823   3.087   0.796
10812SOL    HW133335   0.857   3.138   0.717
10812SOL    HW233336   0.750   3.139   0.841
10813SOL     OW33337   1.006   3.623   6.928
10813SOL    HW133338   0.956   3.703   6.963
10813SOL    HW233339   0.943   3.546   6.919
10814SOL     OW33340   3.090   1.856   1.876
10814SOL    HW133341   3.121   1.792   1.946
10814SOL    HW233342   3.036   1.929   1.919
10815SOL     OW33343   5.378   1.018   4.722
10815SOL    HW133344   5.300   1.061   4.768
10815SOL    HW233345   5.412   1.079   4.650
10816SOL     OW33346   3.382   3.146   5.528
10816SOL    HW133347   3.288   3.180   5.532
10816SOL    HW233348   3.385   3.052   5.563
10817SOL     OW33349   1.345   6.399   4.537
10817SOL    HW133350   1.412   6.346   4.486
10817SOL    HW233351   1.340   6.492   4.500
10818SOL     OW33352   4.677   3.805   0.027
10818SOL    HW133353   4.676   3.904   0.032
10818SOL    HW233354   4.610   3.774   6.981
10819SOL     OW33355   6.363   5.701   5.367
10819SOL    HW133356   6.454   5.725   5.332
10819SOL    HW233357   6.340   5.760   5.444
10820SOL     OW33358   1.570   4.905   6.292
10820SOL    HW133359   1.528   4.990   6.260
10820SOL    HW233360   1.582   4.842   6.216
10821SOL     OW33361   4.109   5.640   4.057
10821SOL    HW133362   4.018   5.680   4.048
10821SOL    HW233363   4.152   5.674   4.140
10822SOL     OW33364   5.519   0.535   2.569
10822SOL    HW133365   5.442   0.594   2.595
10822SOL    HW233366   5.499   0.440   2.592
10823SOL     OW33367   5.501   6.683   2.633
10823SOL    HW133368   5.433   6.745   2.673
10823SOL    HW233369   5.531   6.720   2.545
10824SOL     OW33370   1.655   2.529   2.933
10824SOL    HW133371   1.697   2.612   2.969
10824SOL    HW233372   1.557   2.531   2.950
10825SOL     OW33373   6.813   1.531   0.769
10825SOL    HW133374   6.861   1.614   0.741
10825SOL    HW233375   6.873   1.475   0.827
10826SOL     OW33376   6.722   3.264   2.442
10826SOL    HW133377   6.735   3.355   2.403
10826SOL    HW233378   6.769   3.197   2.386
10827SOL     OW33379   6.880   3.009   4.014
10827SOL    HW133380   6.860   2.915   4.042
10827SOL    HW233381   6.898   3.011   3.916
10828SOL     OW33382   7.008   4.006   5.021
10828SOL    HW133383   6.964   4.086   4.980
10828SOL    HW233384   0.067   4.037   5.074
10829SOL     OW33385   4.196   3.136   5.279
10829SOL    HW133386   4.209   3.126   5.377
10829SOL    HW233387   4.098   3.131   5.258
10830SOL     OW33388   5.217   1.947   3.479
10830SOL    HW133389   5.315   1.963   3.490
10830SOL    HW233390   5.173   2.030   3.446
10831SOL     OW33391   4.198   0.374   3.176
10831SOL    HW133392   4.160   0.324   3.098
10831SOL    HW233393   4.151   0.346   3.260
10832SOL     OW33394   6.632   3.182   6.615
10832SOL    HW133395   6.625   3.227   6.704
10832SOL    HW233396   6.713   3.216   6.567
10833SOL     OW33397   0.778   1.234   6.699
10833SOL    HW133398   0.719   1.291   6.756
10833SOL    HW233399   0.798   1.283   6.614
10834SOL     OW33400   7.006   6.311   1.904
10834SOL    HW133401   6.915   6.331   1.867
10834SOL    HW233402   0.031   6.244   1.845
10835SOL     OW33403   6.627   2.729   5.777
10835SOL    HW133404   6.602   2.638   5.809
10835SOL    HW233405   6.572   2.798   5.825
10836SOL     OW33406   6.921   1.558   3.620
10836SOL    HW133407   6.955   1.642   3.577
10836SOL    HW233408   6.881   1.580   3.709
10837SOL     OW33409   6.924   3.001   3.704
10837SOL    HW133410   6.850   2.935   3.713
10837SOL    HW233411   6.911   3.054   3.621
10838SOL     OW33412   0.432   6.725   2.537
10838SOL    HW133413   0.482   6.793   2.592
10838SOL    HW233414   0.337   6.722   2.567
10839SOL     OW33415   4.536   2.687   7.013
10839SOL    HW133416   4.598   2.764   0.008
10839SOL    HW233417   4.510   2.685   6.917
10840SOL     OW33418   2.759   0.592   2.441
10840SOL    HW133419   2.754   0.493   2.423
10840SOL    HW233420   2.668   0.631   2.436
10841SOL     OW33421   2.018   5.303   4.840
10841SOL    HW133422   2.033   5.206   4.861
10841SOL    HW233423   1.996   5.312   4.743
10842SOL     OW33424   6.743   4.715   1.746
10842SOL    HW133425   6.804   4.736   1.823
10842SOL    HW233426   6.792   4.663   1.677
10843SOL     OW33427   3.086   1.368   1.492
10843SOL    HW133428   3.101   1.396   1.586
10843SOL    HW233429   3.029   1.436   1.445
10844SOL     OW33430   1.938   5.206   4.569
10844SOL    HW133431   1.968   5.234   4.478
10844SOL    HW233432   1.861   5.143   4.561
10845SOL     OW33433   3.757   1.036   4.162
10845SOL    HW133434   3.756   1.029   4.063
10845SOL    HW233435   3.744   0.945   4.202
10846SOL     OW33436   5.635   6.576   6.294
10846SOL    HW133437   5.699   6.527   6.235
10846SOL    HW233438   5.637   6.536   6.385
10847SOL     OW33439   3.370   6.911   0.026
10847SOL    HW133440   3.433   6.843   0.064
10847SOL    HW233441   3.275   6.881   0.042
10848SOL     OW33442   1.769   3.119   2.231
10848SOL    HW133443   1.747   3.212   2.258
10848SOL    HW233444   1.868   3.110   2.216
10849SOL     OW33445   1.203   6.314   3.465
10849SOL    HW133446   1.286   6.262   3.486
10849SOL    HW233447   1.149   6.265   3.397
10850SOL     OW33448   4.748   4.411   0.185
10850SOL    HW133449   4.847   4.399   0.179
10850SOL    HW233450   4.719   4.408   0.281
10851SOL     OW33451   1.376   4.772   0.618
10851SOL    HW133452   1.460   4.738   0.661
10851SOL    HW233453   1.399   4.847   0.555
10852SOL     OW33454   3.150   0.738   1.548
10852SOL    HW133455   3.050   0.737   1.538
10852SOL    HW233456   3.190   0.674   1.482
10853SOL     OW33457   3.430   0.998   6.047
10853SOL    HW133458   3.521   0.957   6.033
10853SOL    HW233459   3.391   1.022   5.959
10854SOL     OW33460   2.850   5.902   6.068
10854SOL    HW133461   2.867   5.805   6.085
10854SOL    HW233462   2.936   5.949   6.047
10855SOL     OW33463   4.186   1.126   6.752
10855SOL    HW133464   4.274   1.094   6.785
10855SOL    HW233465   4.187   1.225   6.745
10856SOL     OW33466   0.479   0.399   0.771
10856SOL    HW133467   0.515   0.370   0.860
10856SOL    HW233468   0.543   0.462   0.728
10857SOL     OW33469   6.862   1.813   2.034
10857SOL    HW133470   6.925   1.865   1.976
10857SOL    HW233471   6.768   1.831   2.005
10858SOL     OW33472   2.088   6.173   1.946
10858SOL    HW133473   2.057   6.178   1.851
10858SOL    HW233474   2.054   6.252   1.997
10859SOL     OW33475   1.797   5.050   3.636
10859SOL    HW133476   1.844   5.000   3.708
10859SOL    HW233477   1.854   5.127   3.607
10860SOL     OW33478   0.199   3.806   2.878
10860SOL    HW133479   0.270   3.736   2.884
10860SOL    HW233480   0.119   3.768   2.831
10861SOL     OW33481   4.630   3.350   5.488
10861SOL    HW133482   4.629   3.266   5.435
10861SOL    HW233483   4.612   3.329   5.584
10862SOL     OW33484   1.339   0.784   5.587
10862SOL    HW133485   1.383   0.703   5.625
10862SOL    HW233486   1.408   0.853   5.565
10863SOL     OW33487   1.848   6.717   4.365
10863SOL    HW133488   1.771   6.662   4.397
10863SOL    HW233489   1.913   6.658   4.318
10864SOL     OW33490   3.297   6.988   3.630
10864SOL    HW133491   3.383   0.016   3.646
10864SOL    HW233492   3.304   6.895   3.664
10865SOL     OW33493   6.627   1.084   5.970
10865SOL    HW133494   6.542   1.064   6.018
10865SOL    HW233495   6.691   1.009   5.982
10866SOL     OW33496   6.091   5.013   6.931
10866SOL    HW133497   6.106   5.030   6.834
10866SOL    HW233498   6.027   4.937   6.942
10867SOL     OW33499   3.162   2.039   6.922
10867SOL    HW133500   3.099   1.967   6.953
10867SOL    HW233501   3.249   1.997   6.894
10868SOL     OW33502   1.436   2.485   3.378
10868SOL    HW133503   1.457   2.579   3.350
10868SOL    HW233504   1.514   2.426   3.355
10869NA      NA33505   6.596   2.365   5.225
10870NA      NA33506   4.484   4.568   5.169
10871NA      NA33507   2.107   3.287   1.849
10872NA      NA33508   5.021   3.413   4.986
10873NA      NA33509   4.075   2.404   5.337
10874NA      NA33510   3.632   5.009   1.988
10875NA      NA33511   6.783   6.559   4.865
10876NA      NA33512   3.833   3.427   4.894
10877NA      NA33513   4.596   6.045   5.995
10878NA      NA33514   2.679   6.906   4.955
10879NA      NA33515   0.312   4.800   2.885
10880NA      NA33516   1.966   0.413   2.190
10881NA      NA33517   3.906   4.448   1.164
10882NA      NA33518   3.877   3.763   3.148
   7.02096   7.02096   7.02096
