PRODRG COORDS
  600
    1CHX    CAA    1   5.459   4.519   0.463
    1CHX    CAB    2   5.544   4.635   0.513
    1CHX    CAD    3   5.468   4.767   0.503
    1CHX    CAF    4   5.338   4.758   0.584
    1CHX    CAE    5   5.251   4.643   0.534
    1CHX    CAC    6   5.329   4.511   0.543
    2CHX    CAA    7   6.865   5.961   7.027
    2CHX    CAB    8   6.968   5.880   6.948
    2CHX    CAD    9   6.923   5.735   6.934
    2CHX    CAF   10   6.787   5.729   6.864
    2CHX    CAE   11   6.683   5.808   6.943
    2CHX    CAC   12   6.729   5.954   6.957
    3CHX    CAA   13   4.413   5.335   3.966
    3CHX    CAB   14   4.335   5.361   4.095
    3CHX    CAD   15   4.185   5.359   4.067
    3CHX    CAF   16   4.144   5.225   4.007
    3CHX    CAE   17   4.220   5.198   3.878
    3CHX    CAC   18   4.371   5.201   3.905
    4CHX    CAA   19   5.407   4.684   6.091
    4CHX    CAB   20   5.555   4.705   6.062
    4CHX    CAD   21   5.641   4.630   6.165
    4CHX    CAF   22   5.608   4.481   6.162
    4CHX    CAE   23   5.460   4.458   6.191
    4CHX    CAC   24   5.374   4.534   6.089
    5CHX    CAA   25   6.740   1.904   1.632
    5CHX    CAB   26   6.721   1.871   1.484
    5CHX    CAD   27   6.740   1.996   1.398
    5CHX    CAF   28   6.879   2.055   1.422
    5CHX    CAE   29   6.898   2.090   1.569
    5CHX    CAC   30   6.878   1.964   1.655
    6CHX    CAA   31   4.029   0.439   4.064
    6CHX    CAB   32   3.987   0.310   3.993
    6CHX    CAD   33   3.936   0.341   3.852
    6CHX    CAF   34   4.044   0.413   3.771
    6CHX    CAE   35   4.087   0.542   3.841
    6CHX    CAC   36   4.137   0.510   3.983
    7CHX    CAA   37   2.796   1.854   3.255
    7CHX    CAB   38   2.909   1.756   3.225
    7CHX    CAD   39   3.034   1.793   3.304
    7CHX    CAF   40   3.003   1.793   3.454
    7CHX    CAE   41   2.891   1.890   3.486
    7CHX    CAC   42   2.765   1.854   3.405
    8CHX    CAA   43   2.935   6.174   3.471
    8CHX    CAB   44   3.010   6.073   3.384
    8CHX    CAD   45   3.024   6.126   3.241
    8CHX    CAF   46   3.098   6.260   3.242
    8CHX    CAE   47   3.024   6.362   3.328
    8CHX    CAC   48   3.009   6.308   3.471
    9CHX    CAA   49   2.164   5.037   6.357
    9CHX    CAB   50   2.239   5.026   6.489
    9CHX    CAD   51   2.385   5.067   6.472
    9CHX    CAF   52   2.393   5.211   6.419
    9CHX    CAE   53   2.319   5.223   6.286
    9CHX    CAC   54   2.173   5.180   6.304
   10CHX    CAA   55   3.719   6.070   5.569
   10CHX    CAB   56   3.621   5.993   5.657
   10CHX    CAD   57   3.483   5.989   5.592
   10CHX    CAF   58   3.491   5.924   5.453
   10CHX    CAE   59   3.589   6.001   5.364
   10CHX    CAC   60   3.727   6.006   5.430
   11CHX    CAA   61   3.310   5.306   1.664
   11CHX    CAB   62   3.349   5.158   1.652
   11CHX    CAD   63   3.339   5.112   1.507
   11CHX    CAF   64   3.429   5.198   1.418
   11CHX    CAE   65   3.390   5.345   1.428
   11CHX    CAC   66   3.400   5.391   1.575
   12CHX    CAA   67  -0.077   3.949   5.605
   12CHX    CAB   68   0.063   3.924   5.661
   12CHX    CAD   69   0.164   4.021   5.599
   12CHX    CAF   70   0.121   4.165   5.626
   12CHX    CAE   71  -0.018   4.192   5.570
   12CHX    CAC   72  -0.119   4.094   5.632
   13CHX    CAA   73   4.342   1.555   3.718
   13CHX    CAB   74   4.488   1.598   3.701
   13CHX    CAD   75   4.542   1.656   3.832
   13CHX    CAF   76   4.530   1.553   3.944
   13CHX    CAE   77   4.385   1.509   3.962
   13CHX    CAC   78   4.331   1.452   3.830
   14CHX    CAA   79   2.787   5.934   1.921
   14CHX    CAB   80   2.918   5.936   2.000
   14CHX    CAD   81   2.904   5.856   2.129
   14CHX    CAF   82   2.864   5.711   2.097
   14CHX    CAE   83   2.733   5.708   2.019
   14CHX    CAC   84   2.748   5.790   1.890
   15CHX    CAA   85   0.217   6.860   2.029
   15CHX    CAB   86   0.272   6.792   2.154
   15CHX    CAD   87   0.323   6.652   2.122
   15CHX    CAF   88   0.431   6.659   2.013
   15CHX    CAE   89   0.377   6.725   1.887
   15CHX    CAC   90   0.325   6.866   1.921
   16CHX    CAA   91   6.081   5.353   2.460
   16CHX    CAB   92   5.982   5.271   2.377
   16CHX    CAD   93   5.839   5.311   2.411
   16CHX    CAF   94   5.818   5.460   2.384
   16CHX    CAE   95   5.916   5.543   2.467
   16CHX    CAC   96   6.060   5.502   2.434
   17CHX    CAA   97   2.514   1.900   6.024
   17CHX    CAB   98   2.526   2.004   6.136
   17CHX    CAD   99   2.606   2.125   6.087
   17CHX    CAF  100   2.538   2.187   5.964
   17CHX    CAE  101   2.527   2.084   5.852
   17CHX    CAC  102   2.447   1.962   5.902
   18CHX    CAA  103   4.109   2.499   5.651
   18CHX    CAB  104   4.251   2.444   5.664
   18CHX    CAD  105   4.282   2.348   5.549
   18CHX    CAF  106   4.265   2.420   5.415
   18CHX    CAE  107   4.123   2.474   5.401
   18CHX    CAC  108   4.093   2.570   5.517
   19CHX    CAA  109   6.269   2.942   5.230
   19CHX    CAB  110   6.135   2.993   5.282
   19CHX    CAD  111   6.144   3.025   5.432
   19CHX    CAF  112   6.253   3.130   5.456
   19CHX    CAE  113   6.387   3.080   5.406
   19CHX    CAC  114   6.378   3.047   5.256
   20CHX    CAA  115   6.614   4.762   0.486
   20CHX    CAB  116   6.495   4.822   0.561
   20CHX    CAD  117   6.447   4.950   0.494
   20CHX    CAF  118   6.408   4.922   0.349
   20CHX    CAE  119   6.526   4.863   0.272
   20CHX    CAC  120   6.575   4.735   0.340
   21CHX    CAA  121   2.520   3.058   1.916
   21CHX    CAB  122   2.517   3.117   1.775
   21CHX    CAD  123   2.572   3.259   1.775
   21CHX    CAF  124   2.716   3.260   1.829
   21CHX    CAE  125   2.721   3.202   1.970
   21CHX    CAC  126   2.664   3.059   1.969
   22CHX    CAA  127   0.704   4.932   4.729
   22CHX    CAB  128   0.653   4.790   4.705
   22CHX    CAD  129   0.511   4.774   4.760
   22CHX    CAF  130   0.418   4.876   4.694
   22CHX    CAE  131   0.467   5.018   4.718
   22CHX    CAC  132   0.610   5.033   4.664
   23CHX    CAA  133   1.706   6.690   1.023
   23CHX    CAB  134   1.825   6.666   1.118
   23CHX    CAD  135   1.837   6.517   1.151
   23CHX    CAF  136   1.855   6.436   1.023
   23CHX    CAE  137   1.737   6.458   0.928
   23CHX    CAC  138   1.724   6.608   0.896
   24CHX    CAA  139   3.641   5.039   3.329
   24CHX    CAB  140   3.648   5.032   3.176
   24CHX    CAD  141   3.546   5.126   3.113
   24CHX    CAF  142   3.571   5.270   3.160
   24CHX    CAE  143   3.564   5.279   3.313
   24CHX    CAC  144   3.666   5.183   3.375
   25CHX    CAA  145   1.560   5.786   0.298
   25CHX    CAB  146   1.560   5.939   0.297
   25CHX    CAD  147   1.540   5.991   0.155
   25CHX    CAF  148   1.408   5.938   0.099
   25CHX    CAE  149   1.407   5.786   0.098
   25CHX    CAC  150   1.428   5.734   0.241
   26CHX    CAA  151   0.372   0.950   0.972
   26CHX    CAB  152   0.513   0.975   0.918
   26CHX    CAD  153   0.603   1.034   1.027
   26CHX    CAF  154   0.608   0.939   1.147
   26CHX    CAE  155   0.468   0.915   1.202
   26CHX    CAC  156   0.378   0.857   1.092
   27CHX    CAA  157   5.043   0.252   1.320
   27CHX    CAB  158   5.146   0.246   1.206
   27CHX    CAD  159   5.232   0.373   1.206
   27CHX    CAF  160   5.303   0.388   1.340
   27CHX    CAE  161   5.202   0.395   1.454
   27CHX    CAC  162   5.115   0.269   1.454
   28CHX    CAA  163   1.549   5.278   2.888
   28CHX    CAB  164   1.553   5.131   2.845
   28CHX    CAD  165   1.556   5.039   2.967
   28CHX    CAF  166   1.434   5.065   3.055
   28CHX    CAE  167   1.430   5.211   3.100
   28CHX    CAC  168   1.427   5.303   2.977
   29CHX    CAA  169   6.504   5.298   1.261
   29CHX    CAB  170   6.477   5.293   1.110
   29CHX    CAD  171   6.600   5.340   1.032
   29CHX    CAF  172   6.721   5.253   1.067
   29CHX    CAE  173   6.749   5.258   1.217
   29CHX    CAC  174   6.625   5.212   1.295
   30CHX    CAA  175   4.878   5.033   6.450
   30CHX    CAB  176   4.962   4.922   6.512
   30CHX    CAD  177   5.092   4.903   6.434
   30CHX    CAF  178   5.171   5.034   6.430
   30CHX    CAE  179   5.088   5.145   6.368
   30CHX    CAC  180   4.958   5.164   6.447
   31CHX    CAA  181   2.089   6.296   6.071
   31CHX    CAB  182   2.155   6.382   5.963
   31CHX    CAD  183   2.212   6.294   5.852
   31CHX    CAF  184   2.101   6.209   5.790
   31CHX    CAE  185   2.034   6.122   5.896
   31CHX    CAC  186   1.978   6.210   6.008
   32CHX    CAA  187   0.838   4.510   4.661
   32CHX    CAB  188   0.885   4.514   4.806
   32CHX    CAD  189   0.905   4.373   4.860
   32CHX    CAF  190   1.007   4.298   4.774
   32CHX    CAE  191   0.961   4.292   4.629
   32CHX    CAC  192   0.940   4.435   4.575
   33CHX    CAA  193   3.341   3.091   3.839
   33CHX    CAB  194   3.402   2.968   3.772
   33CHX    CAD  195   3.512   2.908   3.860
   33CHX    CAF  196   3.455   2.871   3.997
   33CHX    CAE  197   3.395   2.993   4.065
   33CHX    CAC  198   3.286   3.054   3.977
   34CHX    CAA  199   5.964   1.915   4.172
   34CHX    CAB  200   6.049   1.997   4.269
   34CHX    CAD  201   6.173   2.051   4.197
   34CHX    CAF  202   6.132   2.137   4.077
   34CHX    CAE  203   6.047   2.055   3.980
   34CHX    CAC  204   5.923   2.000   4.052
   35CHX    CAA  205   2.770   0.607   3.504
   35CHX    CAB  206   2.668   0.682   3.417
   35CHX    CAD  207   2.528   0.670   3.477
   35CHX    CAF  208   2.527   0.725   3.620
   35CHX    CAE  209   2.627   0.650   3.707
   35CHX    CAC  210   2.768   0.662   3.646
   36CHX    CAA  211   4.874   2.647   2.046
   36CHX    CAB  212   4.937   2.778   2.094
   36CHX    CAD  213   4.944   2.880   1.979
   36CHX    CAF  214   4.803   2.906   1.924
   36CHX    CAE  215   4.740   2.776   1.875
   36CHX    CAC  216   4.734   2.674   1.990
   37CHX    CAA  217   4.270   5.566   4.873
   37CHX    CAB  218   4.253   5.681   4.773
   37CHX    CAD  219   4.106   5.696   4.734
   37CHX    CAF  220   4.021   5.722   4.859
   37CHX    CAE  221   4.037   5.608   4.959
   37CHX    CAC  222   4.185   5.592   4.997
   38CHX    CAA  223   3.078   6.041   2.776
   38CHX    CAB  224   2.963   6.012   2.873
   38CHX    CAD  225   2.829   6.031   2.803
   38CHX    CAF  226   2.819   5.940   2.680
   38CHX    CAE  227   2.933   5.969   2.583
   38CHX    CAC  228   3.068   5.950   2.654
   39CHX    CAA  229   5.333   0.285   2.568
   39CHX    CAB  230   5.190   0.308   2.617
   39CHX    CAD  231   5.120   0.175   2.642
   39CHX    CAF  232   5.198   0.093   2.745
   39CHX    CAE  233   5.340   0.068   2.697
   39CHX    CAC  234   5.410   0.203   2.670
   40CHX    CAA  235   4.731   6.779   2.145
   40CHX    CAB  236   4.742   6.803   1.994
   40CHX    CAD  237   4.839   6.916   1.964
   40CHX    CAF  238   4.977   6.884   2.022
   40CHX    CAE  239   4.968   6.862   2.173
   40CHX    CAC  240   4.869   6.748   2.203
   41CHX    CAA  241   2.609   4.151   1.340
   41CHX    CAB  242   2.642   4.079   1.471
   41CHX    CAD  243   2.522   4.084   1.566
   41CHX    CAF  244   2.400   4.019   1.500
   41CHX    CAE  245   2.366   4.091   1.369
   41CHX    CAC  246   2.487   4.087   1.275
   42CHX    CAA  247   5.668   2.442   3.707
   42CHX    CAB  248   5.607   2.562   3.635
   42CHX    CAD  249   5.717   2.650   3.575
   42CHX    CAF  250   5.801   2.568   3.477
   42CHX    CAE  251   5.864   2.448   3.547
   42CHX    CAC  252   5.753   2.361   3.609
   43CHX    CAA  253   6.721   5.536   6.313
   43CHX    CAB  254   6.684   5.553   6.460
   43CHX    CAD  255   6.807   5.597   6.541
   43CHX    CAF  256   6.863   5.728   6.484
   43CHX    CAE  257   6.900   5.711   6.337
   43CHX    CAC  258   6.777   5.667   6.257
   44CHX    CAA  259   1.719   4.213   3.520
   44CHX    CAB  260   1.737   4.062   3.534
   44CHX    CAD  261   1.854   4.014   3.448
   44CHX    CAF  262   1.983   4.086   3.490
   44CHX    CAE  263   1.967   4.237   3.475
   44CHX    CAC  264   1.848   4.285   3.560
   45CHX    CAA  265   3.491   4.339   5.192
   45CHX    CAB  266   3.458   4.463   5.110
   45CHX    CAD  267   3.327   4.526   5.157
   45CHX    CAF  268   3.337   4.562   5.305
   45CHX    CAE  269   3.369   4.439   5.389
   45CHX    CAC  270   3.500   4.375   5.340
   46CHX    CAA  271   3.223   3.063   6.194
   46CHX    CAB  272   3.141   2.990   6.301
   46CHX    CAD  273   3.068   2.870   6.240
   46CHX    CAF  274   3.169   2.774   6.177
   46CHX    CAE  275   3.251   2.845   6.069
   46CHX    CAC  276   3.323   2.966   6.130
   47CHX    CAA  277   6.256   1.795   4.766
   47CHX    CAB  278   6.327   1.866   4.882
   47CHX    CAD  279   6.281   1.808   5.016
   47CHX    CAF  280   6.309   1.658   5.021
   47CHX    CAE  281   6.239   1.586   4.907
   47CHX    CAC  282   6.284   1.645   4.772
   48CHX    CAA  283   5.179   4.700   4.913
   48CHX    CAB  284   5.058   4.633   4.847
   48CHX    CAD  285   5.045   4.488   4.895
   48CHX    CAF  286   5.031   4.485   5.047
   48CHX    CAE  287   5.151   4.550   5.114
   48CHX    CAC  288   5.165   4.695   5.065
   49CHX    CAA  289   4.354   3.185   2.225
   49CHX    CAB  290   4.261   3.299   2.184
   49CHX    CAD  291   4.271   3.415   2.283
   49CHX    CAF  292   4.416   3.464   2.291
   49CHX    CAE  293   4.509   3.351   2.333
   49CHX    CAC  294   4.498   3.235   2.234
   50CHX    CAA  295   3.897   1.234   3.651
   50CHX    CAB  296   3.819   1.105   3.680
   50CHX    CAD  297   3.668   1.132   3.674
   50CHX    CAF  298   3.630   1.186   3.537
   50CHX    CAE  299   3.707   1.314   3.506
   50CHX    CAC  300   3.858   1.288   3.514
   51CHX    CAA  301   1.975   4.785   0.887
   51CHX    CAB  302   1.948   4.935   0.873
   51CHX    CAD  303   1.847   4.981   0.977
   51CHX    CAF  304   1.897   4.949   1.118
   51CHX    CAE  305   1.923   4.800   1.134
   51CHX    CAC  306   2.025   4.754   1.028
   52CHX    CAA  307   6.864   6.145   1.791
   52CHX    CAB  308   7.010   6.186   1.812
   52CHX    CAD  309   7.098   6.062   1.827
   52CHX    CAF  310   7.086   5.974   1.702
   52CHX    CAE  311   6.941   5.932   1.681
   52CHX    CAC  312   6.852   6.056   1.667
   53CHX    CAA  313   1.807   3.589   3.155
   53CHX    CAB  314   1.877   3.498   3.256
   53CHX    CAD  315   2.020   3.470   3.213
   53CHX    CAF  316   2.098   3.601   3.199
   53CHX    CAE  317   2.030   3.693   3.097
   53CHX    CAC  318   1.885   3.720   3.141
   54CHX    CAA  319   5.203   1.987   3.523
   54CHX    CAB  320   5.335   1.934   3.580
   54CHX    CAD  321   5.421   2.050   3.631
   54CHX    CAF  322   5.345   2.128   3.738
   54CHX    CAE  323   5.214   2.182   3.683
   54CHX    CAC  324   5.128   2.066   3.631
   55CHX    CAA  325   1.802   5.359   3.322
   55CHX    CAB  326   1.850   5.214   3.316
   55CHX    CAD  327   1.965   5.191   3.412
   55CHX    CAF  328   1.922   5.226   3.555
   55CHX    CAE  329   1.876   5.371   3.563
   55CHX    CAC  330   1.760   5.394   3.465
   56CHX    CAA  331   1.964   5.218   5.918
   56CHX    CAB  332   1.928   5.280   6.053
   56CHX    CAD  333   1.783   5.250   6.089
   56CHX    CAF  334   1.760   5.099   6.093
   56CHX    CAE  335   1.794   5.036   5.959
   56CHX    CAC  336   1.940   5.067   5.922
   57CHX    CAA  337   1.445   2.436   6.780
   57CHX    CAB  338   1.575   2.465   6.705
   57CHX    CAD  339   1.599   2.615   6.696
   57CHX    CAF  340   1.604   2.676   6.836
   57CHX    CAE  341   1.475   2.649   6.912
   57CHX    CAC  342   1.450   2.498   6.920
   58CHX    CAA  343   6.116   4.336   4.638
   58CHX    CAB  344   6.239   4.293   4.719
   58CHX    CAD  345   6.218   4.323   4.867
   58CHX    CAF  346   6.093   4.249   4.918
   58CHX    CAE  347   5.970   4.291   4.839
   58CHX    CAC  348   5.992   4.263   4.690
   59CHX    CAA  349   2.031   3.861   5.467
   59CHX    CAB  350   1.971   3.722   5.448
   59CHX    CAD  351   1.905   3.711   5.310
   59CHX    CAF  352   2.008   3.740   5.200
   59CHX    CAE  353   2.068   3.879   5.218
   59CHX    CAC  354   2.133   3.890   5.357
   60CHX    CAA  355   1.354   4.761   1.136
   60CHX    CAB  356   1.428   4.707   1.259
   60CHX    CAD  357   1.570   4.762   1.265
   60CHX    CAF  358   1.567   4.915   1.269
   60CHX    CAE  359   1.494   4.971   1.147
   60CHX    CAC  360   1.352   4.914   1.141
   61CHX    CAA  361   2.344   4.313   2.287
   61CHX    CAB  362   2.414   4.351   2.417
   61CHX    CAD  363   2.443   4.227   2.501
   61CHX    CAF  364   2.529   4.129   2.421
   61CHX    CAE  365   2.460   4.089   2.291
   61CHX    CAC  366   2.430   4.215   2.208
   62CHX    CAA  367   0.701   0.400   0.298
   62CHX    CAB  368   0.760   0.331   0.421
   62CHX    CAD  369   0.659   0.332   0.536
   62CHX    CAF  370   0.530   0.263   0.493
   62CHX    CAE  371   0.470   0.331   0.371
   62CHX    CAC  372   0.572   0.331   0.256
   63CHX    CAA  373   3.216   6.239   4.121
   63CHX    CAB  374   3.228   6.118   4.214
   63CHX    CAD  375   3.193   5.989   4.139
   63CHX    CAF  376   3.287   5.972   4.019
   63CHX    CAE  377   3.276   6.091   3.925
   63CHX    CAC  378   3.309   6.221   4.001
   64CHX    CAA  379   3.962   0.570   3.362
   64CHX    CAB  380   4.067   0.589   3.253
   64CHX    CAD  381   4.208   0.571   3.311
   64CHX    CAF  382   4.221   0.432   3.373
   64CHX    CAE  383   4.117   0.412   3.483
   64CHX    CAC  384   3.976   0.432   3.425
   65CHX    CAA  385   2.257   0.750   1.550
   65CHX    CAB  386   2.336   0.834   1.449
   65CHX    CAD  387   2.245   0.879   1.334
   65CHX    CAF  388   2.127   0.959   1.389
   65CHX    CAE  389   2.047   0.876   1.489
   65CHX    CAC  390   2.139   0.831   1.603
   66CHX    CAA  391   2.392   5.260   2.276
   66CHX    CAB  392   2.415   5.127   2.204
   66CHX    CAD  393   2.476   5.025   2.300
   66CHX    CAF  394   2.383   5.005   2.421
   66CHX    CAE  395   2.360   5.137   2.493
   66CHX    CAC  396   2.300   5.239   2.396
   67CHX    CAA  397   6.290   1.010   2.751
   67CHX    CAB  398   6.369   1.064   2.631
   67CHX    CAD  399   6.335   0.983   2.506
   67CHX    CAF  400   6.185   0.990   2.477
   67CHX    CAE  401   6.106   0.936   2.596
   67CHX    CAC  402   6.140   1.016   2.722
   68CHX    CAA  403   4.584   3.255   1.807
   68CHX    CAB  404   4.633   3.113   1.831
   68CHX    CAD  405   4.614   3.073   1.978
   68CHX    CAF  406   4.466   3.085   2.016
   68CHX    CAE  407   4.416   3.227   1.993
   68CHX    CAC  408   4.436   3.266   1.846
   69CHX    CAA  409   5.491   6.791   6.182
   69CHX    CAB  410   5.635   6.745   6.205
   69CHX    CAD  411   5.712   6.740   6.073
   69CHX    CAF  412   5.711   6.879   6.007
   69CHX    CAE  413   5.568   6.926   5.983
   69CHX    CAC  414   5.491   6.929   6.116
   70CHX    CAA  415   2.472   1.870   2.054
   70CHX    CAB  416   2.578   1.840   1.948
   70CHX    CAD  417   2.519   1.754   1.837
   70CHX    CAF  418   2.399   1.825   1.773
   70CHX    CAE  419   2.292   1.854   1.878
   70CHX    CAC  420   2.352   1.940   1.991
   71CHX    CAA  421   3.413   3.254   0.250
   71CHX    CAB  422   3.411   3.337   0.122
   71CHX    CAD  423   3.523   3.441   0.123
   71CHX    CAF  424   3.658   3.371   0.138
   71CHX    CAE  425   3.663   3.288   0.265
   71CHX    CAC  426   3.549   3.185   0.264
   72CHX    CAA  427   5.404   5.985   4.086
   72CHX    CAB  428   5.539   6.049   4.116
   72CHX    CAD  429   5.568   6.163   4.018
   72CHX    CAF  430   5.457   6.268   4.026
   72CHX    CAE  431   5.321   6.205   3.994
   72CHX    CAC  432   5.293   6.090   4.092
   73CHX    CAA  433   2.552   6.012   0.602
   73CHX    CAB  434   2.492   5.959   0.733
   73CHX    CAD  435   2.378   5.862   0.703
   73CHX    CAF  436   2.428   5.746   0.618
   73CHX    CAE  437   2.487   5.797   0.487
   73CHX    CAC  438   2.602   5.895   0.517
   74CHX    CAA  439   4.774   5.123   2.592
   74CHX    CAB  440   4.629   5.173   2.586
   74CHX    CAD  441   4.533   5.068   2.641
   74CHX    CAF  442   4.571   5.032   2.785
   74CHX    CAE  443   4.714   4.981   2.792
   74CHX    CAC  444   4.811   5.087   2.736
   75CHX    CAA  445   5.688   3.013   6.835
   75CHX    CAB  446   5.567   3.085   6.773
   75CHX    CAD  447   5.601   3.134   6.632
   75CHX    CAF  448   5.643   3.017   6.544
   75CHX    CAE  449   5.764   2.945   6.604
   75CHX    CAC  450   5.730   2.896   6.746
   76CHX    CAA  451   3.787   1.256   0.849
   76CHX    CAB  452   3.744   1.182   0.722
   76CHX    CAD  453   3.790   1.036   0.726
   76CHX    CAF  454   3.732   0.967   0.850
   76CHX    CAE  455   3.776   1.039   0.977
   76CHX    CAC  456   3.730   1.186   0.972
   77CHX    CAA  457   4.527   6.174   4.759
   77CHX    CAB  458   4.385   6.150   4.809
   77CHX    CAD  459   4.284   6.167   4.695
   77CHX    CAF  460   4.317   6.070   4.581
   77CHX    CAE  461   4.459   6.094   4.530
   77CHX    CAC  462   4.559   6.078   4.645
   78CHX    CAA  463   3.342   1.138   1.900
   78CHX    CAB  464   3.334   1.167   1.750
   78CHX    CAD  465   3.244   1.288   1.723
   78CHX    CAF  466   3.297   1.410   1.798
   78CHX    CAE  467   3.304   1.383   1.948
   78CHX    CAC  468   3.394   1.261   1.974
   79CHX    CAA  469   2.077   6.668   0.228
   79CHX    CAB  470   2.212   6.641   0.294
   79CHX    CAD  471   2.270   6.770   0.352
   79CHX    CAF  472   2.173   6.829   0.454
   79CHX    CAE  473   2.037   6.858   0.390
   79CHX    CAC  474   1.980   6.728   0.330
   80CHX    CAA  475   6.010   3.607   5.480
   80CHX    CAB  476   5.860   3.628   5.461
   80CHX    CAD  477   5.818   3.764   5.517
   80CHX    CAF  478   5.896   3.876   5.448
   80CHX    CAE  479   6.046   3.856   5.468
   80CHX    CAC  480   6.088   3.719   5.412
   81CHX    CAA  481   1.220   6.168   0.302
   81CHX    CAB  482   1.284   6.030   0.296
   81CHX    CAD  483   1.179   5.921   0.321
   81CHX    CAF  484   1.068   5.932   0.216
   81CHX    CAE  485   1.002   6.069   0.221
   81CHX    CAC  486   1.108   6.178   0.198
   82CHX    CAA  487   2.048   5.418   1.709
   82CHX    CAB  488   1.983   5.541   1.646
   82CHX    CAD  489   1.918   5.629   1.752
   82CHX    CAF  490   2.022   5.672   1.856
   82CHX    CAE  491   2.087   5.550   1.921
   82CHX    CAC  492   2.151   5.461   1.813
   83CHX    CAA  493   1.624   1.451   2.347
   83CHX    CAB  494   1.537   1.543   2.261
   83CHX    CAD  495   1.389   1.516   2.286
   83CHX    CAF  496   1.356   1.535   2.435
   83CHX    CAE  497   1.442   1.443   2.521
   83CHX    CAC  498   1.591   1.471   2.494
   84CHX    CAA  499   2.914   5.099   0.132
   84CHX    CAB  500   2.981   5.085   0.269
   84CHX    CAD  501   3.133   5.083   0.254
   84CHX    CAF  502   3.180   5.212   0.185
   84CHX    CAE  503   3.115   5.227   0.048
   84CHX    CAC  504   2.962   5.227   0.063
   85CHX    CAA  505   0.349   6.821   4.675
   85CHX    CAB  506   0.337   6.853   4.526
   85CHX    CAD  507   0.298   6.727   4.447
   85CHX    CAF  508   0.166   6.671   4.500
   85CHX    CAE  509   0.177   6.638   4.648
   85CHX    CAC  510   0.217   6.764   4.727
   86CHX    CAA  511   3.041   1.298   3.114
   86CHX    CAB  512   3.009   1.413   3.210
   86CHX    CAD  513   2.987   1.543   3.132
   86CHX    CAF  514   2.873   1.525   3.031
   86CHX    CAE  515   2.904   1.412   2.935
   86CHX    CAC  516   2.927   1.282   3.013
   87CHX    CAA  517   3.601   6.175   5.756
   87CHX    CAB  518   3.509   6.222   5.643
   87CHX    CAD  519   3.390   6.298   5.699
   87CHX    CAF  520   3.438   6.418   5.781
   87CHX    CAE  521   3.529   6.373   5.895
   87CHX    CAC  522   3.648   6.295   5.838
   88CHX    CAA  523   2.484   4.215   5.053
   88CHX    CAB  524   2.570   4.174   5.172
   88CHX    CAD  525   2.718   4.170   5.133
   88CHX    CAF  526   2.762   4.306   5.081
   88CHX    CAE  527   2.678   4.348   4.961
   88CHX    CAC  528   2.529   4.351   5.001
   89CHX    CAA  529   6.578   0.739   0.940
   89CHX    CAB  530   6.727   0.766   0.961
   89CHX    CAD  531   6.775   0.701   1.090
   89CHX    CAF  532   6.750   0.550   1.086
   89CHX    CAE  533   6.601   0.522   1.066
   89CHX    CAC  534   6.553   0.588   0.936
   90CHX    CAA  535   2.751   5.332   4.345
   90CHX    CAB  536   2.834   5.308   4.219
   90CHX    CAD  537   2.983   5.319   4.250
   90CHX    CAF  538   3.022   5.218   4.358
   90CHX    CAE  539   2.941   5.242   4.485
   90CHX    CAC  540   2.791   5.232   4.453
   91CHX    CAA  541   2.506   6.690   3.460
   91CHX    CAB  542   2.446   6.613   3.578
   91CHX    CAD  543   2.501   6.471   3.583
   91CHX    CAF  544   2.654   6.475   3.595
   91CHX    CAE  545   2.715   6.551   3.478
   91CHX    CAC  546   2.658   6.693   3.472
   92CHX    CAA  547   6.023   6.266   1.647
   92CHX    CAB  548   6.136   6.283   1.748
   92CHX    CAD  549   6.271   6.285   1.677
   92CHX    CAF  550   6.275   6.398   1.574
   92CHX    CAE  551   6.163   6.382   1.472
   92CHX    CAC  552   6.027   6.379   1.543
   93CHX    CAA  553   5.733   1.874   5.127
   93CHX    CAB  554   5.653   2.004   5.132
   93CHX    CAD  555   5.684   2.090   5.009
   93CHX    CAF  556   5.650   2.013   4.881
   93CHX    CAE  557   5.730   1.883   4.875
   93CHX    CAC  558   5.700   1.797   4.999
   94CHX    CAA  559   1.134   0.714   1.367
   94CHX    CAB  560   1.069   0.657   1.241
   94CHX    CAD  561   1.090   0.506   1.233
   94CHX    CAF  562   1.032   0.438   1.357
   94CHX    CAE  563   1.097   0.493   1.484
   94CHX    CAC  564   1.076   0.645   1.491
   95CHX    CAA  565   0.679   3.257   6.266
   95CHX    CAB  566   0.746   3.176   6.377
   95CHX    CAD  567   0.771   3.264   6.499
   95CHX    CAF  568   0.639   3.323   6.549
   95CHX    CAE  569   0.572   3.405   6.439
   95CHX    CAC  570   0.548   3.317   6.316
   96CHX    CAA  571   6.121   0.670   3.632
   96CHX    CAB  572   6.147   0.727   3.492
   96CHX    CAD  573   6.016   0.752   3.419
   96CHX    CAF  574   5.928   0.848   3.499
   96CHX    CAE  575   5.900   0.792   3.638
   96CHX    CAC  576   6.032   0.766   3.711
   97CHX    CAA  577   5.320   3.588   0.672
   97CHX    CAB  578   5.343   3.437   0.681
   97CHX    CAD  579   5.361   3.377   0.542
   97CHX    CAF  580   5.479   3.444   0.471
   97CHX    CAE  581   5.457   3.594   0.460
   97CHX    CAC  582   5.438   3.654   0.600
   98CHX    CAA  583   0.205   3.255   5.694
   98CHX    CAB  584   0.264   3.247   5.834
   98CHX    CAD  585   0.382   3.149   5.837
   98CHX    CAF  586   0.489   3.193   5.737
   98CHX    CAE  587   0.431   3.201   5.596
   98CHX    CAC  588   0.313   3.298   5.594
   99CHX    CAA  589   5.004   5.439   2.334
   99CHX    CAB  590   4.867   5.434   2.266
   99CHX    CAD  591   4.878   5.476   2.120
   99CHX    CAF  592   4.977   5.384   2.046
   99CHX    CAE  593   5.114   5.390   2.112
   99CHX    CAC  594   5.103   5.349   2.260
  100CHX    CAA  595   0.674   2.773   1.619
  100CHX    CAB  596   0.738   2.698   1.736
  100CHX    CAD  597   0.887   2.675   1.711
  100CHX    CAF  598   0.958   2.809   1.689
  100CHX    CAE  599   0.896   2.884   1.572
  100CHX    CAC  600   0.746   2.906   1.597
   7.00000   7.00000   7.00000
