PRODRG COORDS
 2058
    1CHX    CAA    1  -0.086   0.815  -0.018  0.0000  0.0000  0.0000
    1CHX    CAB    2   0.009   0.913   0.051  0.0000  0.0000  0.0000
    1CHX    CAD    3  -0.066   1.039   0.094  0.0000  0.0000  0.0000
    1CHX    CAF    4  -0.181   1.002   0.188  0.0000  0.0000  0.0000
    1CHX    CAE    5  -0.277   0.905   0.120  0.0000  0.0000  0.0000
    1CHX    CAC    6  -0.201   0.779   0.076  0.0000  0.0000  0.0000
    2CHX    CAA    7  -0.086   0.815   0.418  0.0000  0.0000  0.0000
    2CHX    CAB    8   0.009   0.913   0.487  0.0000  0.0000  0.0000
    2CHX    CAD    9  -0.066   1.039   0.530  0.0000  0.0000  0.0000
    2CHX    CAF   10  -0.181   1.002   0.624  0.0000  0.0000  0.0000
    2CHX    CAE   11  -0.277   0.905   0.556  0.0000  0.0000  0.0000
    2CHX    CAC   12  -0.201   0.779   0.512  0.0000  0.0000  0.0000
    3CHX    CAA   13  -0.086   0.815   0.854  0.0000  0.0000  0.0000
    3CHX    CAB   14   0.009   0.913   0.923  0.0000  0.0000  0.0000
    3CHX    CAD   15  -0.066   1.039   0.966  0.0000  0.0000  0.0000
    3CHX    CAF   16  -0.181   1.002   1.060  0.0000  0.0000  0.0000
    3CHX    CAE   17  -0.277   0.905   0.992  0.0000  0.0000  0.0000
    3CHX    CAC   18  -0.201   0.779   0.948  0.0000  0.0000  0.0000
    4CHX    CAA   19  -0.086   0.815   1.290  0.0000  0.0000  0.0000
    4CHX    CAB   20   0.009   0.913   1.359  0.0000  0.0000  0.0000
    4CHX    CAD   21  -0.066   1.039   1.402  0.0000  0.0000  0.0000
    4CHX    CAF   22  -0.181   1.002   1.496  0.0000  0.0000  0.0000
    4CHX    CAE   23  -0.277   0.905   1.428  0.0000  0.0000  0.0000
    4CHX    CAC   24  -0.201   0.779   1.384  0.0000  0.0000  0.0000
    5CHX    CAA   25  -0.086   0.815   1.726  0.0000  0.0000  0.0000
    5CHX    CAB   26   0.009   0.913   1.795  0.0000  0.0000  0.0000
    5CHX    CAD   27  -0.066   1.039   1.838  0.0000  0.0000  0.0000
    5CHX    CAF   28  -0.181   1.002   1.932  0.0000  0.0000  0.0000
    5CHX    CAE   29  -0.277   0.905   1.864  0.0000  0.0000  0.0000
    5CHX    CAC   30  -0.201   0.779   1.820  0.0000  0.0000  0.0000
    6CHX    CAA   31  -0.086   0.815   2.162  0.0000  0.0000  0.0000
    6CHX    CAB   32   0.009   0.913   2.231  0.0000  0.0000  0.0000
    6CHX    CAD   33  -0.066   1.039   2.274  0.0000  0.0000  0.0000
    6CHX    CAF   34  -0.181   1.002   2.368  0.0000  0.0000  0.0000
    6CHX    CAE   35  -0.277   0.905   2.300  0.0000  0.0000  0.0000
    6CHX    CAC   36  -0.201   0.779   2.256  0.0000  0.0000  0.0000
    7CHX    CAA   37  -0.086   0.815   2.598  0.0000  0.0000  0.0000
    7CHX    CAB   38   0.009   0.913   2.667  0.0000  0.0000  0.0000
    7CHX    CAD   39  -0.066   1.039   2.710  0.0000  0.0000  0.0000
    7CHX    CAF   40  -0.181   1.002   2.804  0.0000  0.0000  0.0000
    7CHX    CAE   41  -0.277   0.905   2.736  0.0000  0.0000  0.0000
    7CHX    CAC   42  -0.201   0.779   2.692  0.0000  0.0000  0.0000
    8CHX    CAA   43  -0.086   1.251  -0.018  0.0000  0.0000  0.0000
    8CHX    CAB   44   0.009   1.349   0.051  0.0000  0.0000  0.0000
    8CHX    CAD   45  -0.066   1.475   0.094  0.0000  0.0000  0.0000
    8CHX    CAF   46  -0.181   1.438   0.188  0.0000  0.0000  0.0000
    8CHX    CAE   47  -0.277   1.341   0.120  0.0000  0.0000  0.0000
    8CHX    CAC   48  -0.201   1.215   0.076  0.0000  0.0000  0.0000
    9CHX    CAA   49  -0.086   1.251   0.418  0.0000  0.0000  0.0000
    9CHX    CAB   50   0.009   1.349   0.487  0.0000  0.0000  0.0000
    9CHX    CAD   51  -0.066   1.475   0.530  0.0000  0.0000  0.0000
    9CHX    CAF   52  -0.181   1.438   0.624  0.0000  0.0000  0.0000
    9CHX    CAE   53  -0.277   1.341   0.556  0.0000  0.0000  0.0000
    9CHX    CAC   54  -0.201   1.215   0.512  0.0000  0.0000  0.0000
   10CHX    CAA   55  -0.086   1.251   0.854  0.0000  0.0000  0.0000
   10CHX    CAB   56   0.009   1.349   0.923  0.0000  0.0000  0.0000
   10CHX    CAD   57  -0.066   1.475   0.966  0.0000  0.0000  0.0000
   10CHX    CAF   58  -0.181   1.438   1.060  0.0000  0.0000  0.0000
   10CHX    CAE   59  -0.277   1.341   0.992  0.0000  0.0000  0.0000
   10CHX    CAC   60  -0.201   1.215   0.948  0.0000  0.0000  0.0000
   11CHX    CAA   61  -0.086   1.251   1.290  0.0000  0.0000  0.0000
   11CHX    CAB   62   0.009   1.349   1.359  0.0000  0.0000  0.0000
   11CHX    CAD   63  -0.066   1.475   1.402  0.0000  0.0000  0.0000
   11CHX    CAF   64  -0.181   1.438   1.496  0.0000  0.0000  0.0000
   11CHX    CAE   65  -0.277   1.341   1.428  0.0000  0.0000  0.0000
   11CHX    CAC   66  -0.201   1.215   1.384  0.0000  0.0000  0.0000
   12CHX    CAA   67  -0.086   1.251   1.726  0.0000  0.0000  0.0000
   12CHX    CAB   68   0.009   1.349   1.795  0.0000  0.0000  0.0000
   12CHX    CAD   69  -0.066   1.475   1.838  0.0000  0.0000  0.0000
   12CHX    CAF   70  -0.181   1.438   1.932  0.0000  0.0000  0.0000
   12CHX    CAE   71  -0.277   1.341   1.864  0.0000  0.0000  0.0000
   12CHX    CAC   72  -0.201   1.215   1.820  0.0000  0.0000  0.0000
   13CHX    CAA   73  -0.086   1.251   2.162  0.0000  0.0000  0.0000
   13CHX    CAB   74   0.009   1.349   2.231  0.0000  0.0000  0.0000
   13CHX    CAD   75  -0.066   1.475   2.274  0.0000  0.0000  0.0000
   13CHX    CAF   76  -0.181   1.438   2.368  0.0000  0.0000  0.0000
   13CHX    CAE   77  -0.277   1.341   2.300  0.0000  0.0000  0.0000
   13CHX    CAC   78  -0.201   1.215   2.256  0.0000  0.0000  0.0000
   14CHX    CAA   79  -0.086   1.251   2.598  0.0000  0.0000  0.0000
   14CHX    CAB   80   0.009   1.349   2.667  0.0000  0.0000  0.0000
   14CHX    CAD   81  -0.066   1.475   2.710  0.0000  0.0000  0.0000
   14CHX    CAF   82  -0.181   1.438   2.804  0.0000  0.0000  0.0000
   14CHX    CAE   83  -0.277   1.341   2.736  0.0000  0.0000  0.0000
   14CHX    CAC   84  -0.201   1.215   2.692  0.0000  0.0000  0.0000
   15CHX    CAA   85  -0.086   1.687  -0.018  0.0000  0.0000  0.0000
   15CHX    CAB   86   0.009   1.785   0.051  0.0000  0.0000  0.0000
   15CHX    CAD   87  -0.066   1.911   0.094  0.0000  0.0000  0.0000
   15CHX    CAF   88  -0.181   1.874   0.188  0.0000  0.0000  0.0000
   15CHX    CAE   89  -0.277   1.777   0.120  0.0000  0.0000  0.0000
   15CHX    CAC   90  -0.201   1.651   0.076  0.0000  0.0000  0.0000
   16CHX    CAA   91  -0.086   1.687   0.418  0.0000  0.0000  0.0000
   16CHX    CAB   92   0.009   1.785   0.487  0.0000  0.0000  0.0000
   16CHX    CAD   93  -0.066   1.911   0.530  0.0000  0.0000  0.0000
   16CHX    CAF   94  -0.181   1.874   0.624  0.0000  0.0000  0.0000
   16CHX    CAE   95  -0.277   1.777   0.556  0.0000  0.0000  0.0000
   16CHX    CAC   96  -0.201   1.651   0.512  0.0000  0.0000  0.0000
   17CHX    CAA   97  -0.086   1.687   0.854  0.0000  0.0000  0.0000
   17CHX    CAB   98   0.009   1.785   0.923  0.0000  0.0000  0.0000
   17CHX    CAD   99  -0.066   1.911   0.966  0.0000  0.0000  0.0000
   17CHX    CAF  100  -0.181   1.874   1.060  0.0000  0.0000  0.0000
   17CHX    CAE  101  -0.277   1.777   0.992  0.0000  0.0000  0.0000
   17CHX    CAC  102  -0.201   1.651   0.948  0.0000  0.0000  0.0000
   18CHX    CAA  103  -0.086   1.687   1.290  0.0000  0.0000  0.0000
   18CHX    CAB  104   0.009   1.785   1.359  0.0000  0.0000  0.0000
   18CHX    CAD  105  -0.066   1.911   1.402  0.0000  0.0000  0.0000
   18CHX    CAF  106  -0.181   1.874   1.496  0.0000  0.0000  0.0000
   18CHX    CAE  107  -0.277   1.777   1.428  0.0000  0.0000  0.0000
   18CHX    CAC  108  -0.201   1.651   1.384  0.0000  0.0000  0.0000
   19CHX    CAA  109  -0.086   1.687   1.726  0.0000  0.0000  0.0000
   19CHX    CAB  110   0.009   1.785   1.795  0.0000  0.0000  0.0000
   19CHX    CAD  111  -0.066   1.911   1.838  0.0000  0.0000  0.0000
   19CHX    CAF  112  -0.181   1.874   1.932  0.0000  0.0000  0.0000
   19CHX    CAE  113  -0.277   1.777   1.864  0.0000  0.0000  0.0000
   19CHX    CAC  114  -0.201   1.651   1.820  0.0000  0.0000  0.0000
   20CHX    CAA  115  -0.086   1.687   2.162  0.0000  0.0000  0.0000
   20CHX    CAB  116   0.009   1.785   2.231  0.0000  0.0000  0.0000
   20CHX    CAD  117  -0.066   1.911   2.274  0.0000  0.0000  0.0000
   20CHX    CAF  118  -0.181   1.874   2.368  0.0000  0.0000  0.0000
   20CHX    CAE  119  -0.277   1.777   2.300  0.0000  0.0000  0.0000
   20CHX    CAC  120  -0.201   1.651   2.256  0.0000  0.0000  0.0000
   21CHX    CAA  121  -0.086   1.687   2.598  0.0000  0.0000  0.0000
   21CHX    CAB  122   0.009   1.785   2.667  0.0000  0.0000  0.0000
   21CHX    CAD  123  -0.066   1.911   2.710  0.0000  0.0000  0.0000
   21CHX    CAF  124  -0.181   1.874   2.804  0.0000  0.0000  0.0000
   21CHX    CAE  125  -0.277   1.777   2.736  0.0000  0.0000  0.0000
   21CHX    CAC  126  -0.201   1.651   2.692  0.0000  0.0000  0.0000
   22CHX    CAA  127  -0.086   2.123  -0.018  0.0000  0.0000  0.0000
   22CHX    CAB  128   0.009   2.221   0.051  0.0000  0.0000  0.0000
   22CHX    CAD  129  -0.066   2.347   0.094  0.0000  0.0000  0.0000
   22CHX    CAF  130  -0.181   2.310   0.188  0.0000  0.0000  0.0000
   22CHX    CAE  131  -0.277   2.213   0.120  0.0000  0.0000  0.0000
   22CHX    CAC  132  -0.201   2.087   0.076  0.0000  0.0000  0.0000
   23CHX    CAA  133  -0.086   2.123   0.418  0.0000  0.0000  0.0000
   23CHX    CAB  134   0.009   2.221   0.487  0.0000  0.0000  0.0000
   23CHX    CAD  135  -0.066   2.347   0.530  0.0000  0.0000  0.0000
   23CHX    CAF  136  -0.181   2.310   0.624  0.0000  0.0000  0.0000
   23CHX    CAE  137  -0.277   2.213   0.556  0.0000  0.0000  0.0000
   23CHX    CAC  138  -0.201   2.087   0.512  0.0000  0.0000  0.0000
   24CHX    CAA  139  -0.086   2.123   0.854  0.0000  0.0000  0.0000
   24CHX    CAB  140   0.009   2.221   0.923  0.0000  0.0000  0.0000
   24CHX    CAD  141  -0.066   2.347   0.966  0.0000  0.0000  0.0000
   24CHX    CAF  142  -0.181   2.310   1.060  0.0000  0.0000  0.0000
   24CHX    CAE  143  -0.277   2.213   0.992  0.0000  0.0000  0.0000
   24CHX    CAC  144  -0.201   2.087   0.948  0.0000  0.0000  0.0000
   25CHX    CAA  145  -0.086   2.123   1.290  0.0000  0.0000  0.0000
   25CHX    CAB  146   0.009   2.221   1.359  0.0000  0.0000  0.0000
   25CHX    CAD  147  -0.066   2.347   1.402  0.0000  0.0000  0.0000
   25CHX    CAF  148  -0.181   2.310   1.496  0.0000  0.0000  0.0000
   25CHX    CAE  149  -0.277   2.213   1.428  0.0000  0.0000  0.0000
   25CHX    CAC  150  -0.201   2.087   1.384  0.0000  0.0000  0.0000
   26CHX    CAA  151  -0.086   2.123   1.726  0.0000  0.0000  0.0000
   26CHX    CAB  152   0.009   2.221   1.795  0.0000  0.0000  0.0000
   26CHX    CAD  153  -0.066   2.347   1.838  0.0000  0.0000  0.0000
   26CHX    CAF  154  -0.181   2.310   1.932  0.0000  0.0000  0.0000
   26CHX    CAE  155  -0.277   2.213   1.864  0.0000  0.0000  0.0000
   26CHX    CAC  156  -0.201   2.087   1.820  0.0000  0.0000  0.0000
   27CHX    CAA  157  -0.086   2.123   2.162  0.0000  0.0000  0.0000
   27CHX    CAB  158   0.009   2.221   2.231  0.0000  0.0000  0.0000
   27CHX    CAD  159  -0.066   2.347   2.274  0.0000  0.0000  0.0000
   27CHX    CAF  160  -0.181   2.310   2.368  0.0000  0.0000  0.0000
   27CHX    CAE  161  -0.277   2.213   2.300  0.0000  0.0000  0.0000
   27CHX    CAC  162  -0.201   2.087   2.256  0.0000  0.0000  0.0000
   28CHX    CAA  163  -0.086   2.123   2.598  0.0000  0.0000  0.0000
   28CHX    CAB  164   0.009   2.221   2.667  0.0000  0.0000  0.0000
   28CHX    CAD  165  -0.066   2.347   2.710  0.0000  0.0000  0.0000
   28CHX    CAF  166  -0.181   2.310   2.804  0.0000  0.0000  0.0000
   28CHX    CAE  167  -0.277   2.213   2.736  0.0000  0.0000  0.0000
   28CHX    CAC  168  -0.201   2.087   2.692  0.0000  0.0000  0.0000
   29CHX    CAA  169  -0.086   2.559  -0.018  0.0000  0.0000  0.0000
   29CHX    CAB  170   0.009   2.657   0.051  0.0000  0.0000  0.0000
   29CHX    CAD  171  -0.066   2.783   0.094  0.0000  0.0000  0.0000
   29CHX    CAF  172  -0.181   2.746   0.188  0.0000  0.0000  0.0000
   29CHX    CAE  173  -0.277   2.649   0.120  0.0000  0.0000  0.0000
   29CHX    CAC  174  -0.201   2.523   0.076  0.0000  0.0000  0.0000
   30CHX    CAA  175  -0.086   2.559   0.418  0.0000  0.0000  0.0000
   30CHX    CAB  176   0.009   2.657   0.487  0.0000  0.0000  0.0000
   30CHX    CAD  177  -0.066   2.783   0.530  0.0000  0.0000  0.0000
   30CHX    CAF  178  -0.181   2.746   0.624  0.0000  0.0000  0.0000
   30CHX    CAE  179  -0.277   2.649   0.556  0.0000  0.0000  0.0000
   30CHX    CAC  180  -0.201   2.523   0.512  0.0000  0.0000  0.0000
   31CHX    CAA  181  -0.086   2.559   0.854  0.0000  0.0000  0.0000
   31CHX    CAB  182   0.009   2.657   0.923  0.0000  0.0000  0.0000
   31CHX    CAD  183  -0.066   2.783   0.966  0.0000  0.0000  0.0000
   31CHX    CAF  184  -0.181   2.746   1.060  0.0000  0.0000  0.0000
   31CHX    CAE  185  -0.277   2.649   0.992  0.0000  0.0000  0.0000
   31CHX    CAC  186  -0.201   2.523   0.948  0.0000  0.0000  0.0000
   32CHX    CAA  187  -0.086   2.559   1.290  0.0000  0.0000  0.0000
   32CHX    CAB  188   0.009   2.657   1.359  0.0000  0.0000  0.0000
   32CHX    CAD  189  -0.066   2.783   1.402  0.0000  0.0000  0.0000
   32CHX    CAF  190  -0.181   2.746   1.496  0.0000  0.0000  0.0000
   32CHX    CAE  191  -0.277   2.649   1.428  0.0000  0.0000  0.0000
   32CHX    CAC  192  -0.201   2.523   1.384  0.0000  0.0000  0.0000
   33CHX    CAA  193  -0.086   2.559   1.726  0.0000  0.0000  0.0000
   33CHX    CAB  194   0.009   2.657   1.795  0.0000  0.0000  0.0000
   33CHX    CAD  195  -0.066   2.783   1.838  0.0000  0.0000  0.0000
   33CHX    CAF  196  -0.181   2.746   1.932  0.0000  0.0000  0.0000
   33CHX    CAE  197  -0.277   2.649   1.864  0.0000  0.0000  0.0000
   33CHX    CAC  198  -0.201   2.523   1.820  0.0000  0.0000  0.0000
   34CHX    CAA  199  -0.086   2.559   2.162  0.0000  0.0000  0.0000
   34CHX    CAB  200   0.009   2.657   2.231  0.0000  0.0000  0.0000
   34CHX    CAD  201  -0.066   2.783   2.274  0.0000  0.0000  0.0000
   34CHX    CAF  202  -0.181   2.746   2.368  0.0000  0.0000  0.0000
   34CHX    CAE  203  -0.277   2.649   2.300  0.0000  0.0000  0.0000
   34CHX    CAC  204  -0.201   2.523   2.256  0.0000  0.0000  0.0000
   35CHX    CAA  205  -0.086   2.559   2.598  0.0000  0.0000  0.0000
   35CHX    CAB  206   0.009   2.657   2.667  0.0000  0.0000  0.0000
   35CHX    CAD  207  -0.066   2.783   2.710  0.0000  0.0000  0.0000
   35CHX    CAF  208  -0.181   2.746   2.804  0.0000  0.0000  0.0000
   35CHX    CAE  209  -0.277   2.649   2.736  0.0000  0.0000  0.0000
   35CHX    CAC  210  -0.201   2.523   2.692  0.0000  0.0000  0.0000
   36CHX    CAA  211  -0.086   2.995  -0.018  0.0000  0.0000  0.0000
   36CHX    CAB  212   0.009   3.093   0.051  0.0000  0.0000  0.0000
   36CHX    CAD  213  -0.066   3.219   0.094  0.0000  0.0000  0.0000
   36CHX    CAF  214  -0.181   3.182   0.188  0.0000  0.0000  0.0000
   36CHX    CAE  215  -0.277   3.085   0.120  0.0000  0.0000  0.0000
   36CHX    CAC  216  -0.201   2.959   0.076  0.0000  0.0000  0.0000
   37CHX    CAA  217  -0.086   2.995   0.418  0.0000  0.0000  0.0000
   37CHX    CAB  218   0.009   3.093   0.487  0.0000  0.0000  0.0000
   37CHX    CAD  219  -0.066   3.219   0.530  0.0000  0.0000  0.0000
   37CHX    CAF  220  -0.181   3.182   0.624  0.0000  0.0000  0.0000
   37CHX    CAE  221  -0.277   3.085   0.556  0.0000  0.0000  0.0000
   37CHX    CAC  222  -0.201   2.959   0.512  0.0000  0.0000  0.0000
   38CHX    CAA  223  -0.086   2.995   0.854  0.0000  0.0000  0.0000
   38CHX    CAB  224   0.009   3.093   0.923  0.0000  0.0000  0.0000
   38CHX    CAD  225  -0.066   3.219   0.966  0.0000  0.0000  0.0000
   38CHX    CAF  226  -0.181   3.182   1.060  0.0000  0.0000  0.0000
   38CHX    CAE  227  -0.277   3.085   0.992  0.0000  0.0000  0.0000
   38CHX    CAC  228  -0.201   2.959   0.948  0.0000  0.0000  0.0000
   39CHX    CAA  229  -0.086   2.995   1.290  0.0000  0.0000  0.0000
   39CHX    CAB  230   0.009   3.093   1.359  0.0000  0.0000  0.0000
   39CHX    CAD  231  -0.066   3.219   1.402  0.0000  0.0000  0.0000
   39CHX    CAF  232  -0.181   3.182   1.496  0.0000  0.0000  0.0000
   39CHX    CAE  233  -0.277   3.085   1.428  0.0000  0.0000  0.0000
   39CHX    CAC  234  -0.201   2.959   1.384  0.0000  0.0000  0.0000
   40CHX    CAA  235  -0.086   2.995   1.726  0.0000  0.0000  0.0000
   40CHX    CAB  236   0.009   3.093   1.795  0.0000  0.0000  0.0000
   40CHX    CAD  237  -0.066   3.219   1.838  0.0000  0.0000  0.0000
   40CHX    CAF  238  -0.181   3.182   1.932  0.0000  0.0000  0.0000
   40CHX    CAE  239  -0.277   3.085   1.864  0.0000  0.0000  0.0000
   40CHX    CAC  240  -0.201   2.959   1.820  0.0000  0.0000  0.0000
   41CHX    CAA  241  -0.086   2.995   2.162  0.0000  0.0000  0.0000
   41CHX    CAB  242   0.009   3.093   2.231  0.0000  0.0000  0.0000
   41CHX    CAD  243  -0.066   3.219   2.274  0.0000  0.0000  0.0000
   41CHX    CAF  244  -0.181   3.182   2.368  0.0000  0.0000  0.0000
   41CHX    CAE  245  -0.277   3.085   2.300  0.0000  0.0000  0.0000
   41CHX    CAC  246  -0.201   2.959   2.256  0.0000  0.0000  0.0000
   42CHX    CAA  247  -0.086   2.995   2.598  0.0000  0.0000  0.0000
   42CHX    CAB  248   0.009   3.093   2.667  0.0000  0.0000  0.0000
   42CHX    CAD  249  -0.066   3.219   2.710  0.0000  0.0000  0.0000
   42CHX    CAF  250  -0.181   3.182   2.804  0.0000  0.0000  0.0000
   42CHX    CAE  251  -0.277   3.085   2.736  0.0000  0.0000  0.0000
   42CHX    CAC  252  -0.201   2.959   2.692  0.0000  0.0000  0.0000
   43CHX    CAA  253  -0.086   3.431  -0.018  0.0000  0.0000  0.0000
   43CHX    CAB  254   0.009   3.529   0.051  0.0000  0.0000  0.0000
   43CHX    CAD  255  -0.066   3.655   0.094  0.0000  0.0000  0.0000
   43CHX    CAF  256  -0.181   3.618   0.188  0.0000  0.0000  0.0000
   43CHX    CAE  257  -0.277   3.521   0.120  0.0000  0.0000  0.0000
   43CHX    CAC  258  -0.201   3.395   0.076  0.0000  0.0000  0.0000
   44CHX    CAA  259  -0.086   3.431   0.418  0.0000  0.0000  0.0000
   44CHX    CAB  260   0.009   3.529   0.487  0.0000  0.0000  0.0000
   44CHX    CAD  261  -0.066   3.655   0.530  0.0000  0.0000  0.0000
   44CHX    CAF  262  -0.181   3.618   0.624  0.0000  0.0000  0.0000
   44CHX    CAE  263  -0.277   3.521   0.556  0.0000  0.0000  0.0000
   44CHX    CAC  264  -0.201   3.395   0.512  0.0000  0.0000  0.0000
   45CHX    CAA  265  -0.086   3.431   0.854  0.0000  0.0000  0.0000
   45CHX    CAB  266   0.009   3.529   0.923  0.0000  0.0000  0.0000
   45CHX    CAD  267  -0.066   3.655   0.966  0.0000  0.0000  0.0000
   45CHX    CAF  268  -0.181   3.618   1.060  0.0000  0.0000  0.0000
   45CHX    CAE  269  -0.277   3.521   0.992  0.0000  0.0000  0.0000
   45CHX    CAC  270  -0.201   3.395   0.948  0.0000  0.0000  0.0000
   46CHX    CAA  271  -0.086   3.431   1.290  0.0000  0.0000  0.0000
   46CHX    CAB  272   0.009   3.529   1.359  0.0000  0.0000  0.0000
   46CHX    CAD  273  -0.066   3.655   1.402  0.0000  0.0000  0.0000
   46CHX    CAF  274  -0.181   3.618   1.496  0.0000  0.0000  0.0000
   46CHX    CAE  275  -0.277   3.521   1.428  0.0000  0.0000  0.0000
   46CHX    CAC  276  -0.201   3.395   1.384  0.0000  0.0000  0.0000
   47CHX    CAA  277  -0.086   3.431   1.726  0.0000  0.0000  0.0000
   47CHX    CAB  278   0.009   3.529   1.795  0.0000  0.0000  0.0000
   47CHX    CAD  279  -0.066   3.655   1.838  0.0000  0.0000  0.0000
   47CHX    CAF  280  -0.181   3.618   1.932  0.0000  0.0000  0.0000
   47CHX    CAE  281  -0.277   3.521   1.864  0.0000  0.0000  0.0000
   47CHX    CAC  282  -0.201   3.395   1.820  0.0000  0.0000  0.0000
   48CHX    CAA  283  -0.086   3.431   2.162  0.0000  0.0000  0.0000
   48CHX    CAB  284   0.009   3.529   2.231  0.0000  0.0000  0.0000
   48CHX    CAD  285  -0.066   3.655   2.274  0.0000  0.0000  0.0000
   48CHX    CAF  286  -0.181   3.618   2.368  0.0000  0.0000  0.0000
   48CHX    CAE  287  -0.277   3.521   2.300  0.0000  0.0000  0.0000
   48CHX    CAC  288  -0.201   3.395   2.256  0.0000  0.0000  0.0000
   49CHX    CAA  289  -0.086   3.431   2.598  0.0000  0.0000  0.0000
   49CHX    CAB  290   0.009   3.529   2.667  0.0000  0.0000  0.0000
   49CHX    CAD  291  -0.066   3.655   2.710  0.0000  0.0000  0.0000
   49CHX    CAF  292  -0.181   3.618   2.804  0.0000  0.0000  0.0000
   49CHX    CAE  293  -0.277   3.521   2.736  0.0000  0.0000  0.0000
   49CHX    CAC  294  -0.201   3.395   2.692  0.0000  0.0000  0.0000
   50CHX    CAA  295   0.350   0.815  -0.018  0.0000  0.0000  0.0000
   50CHX    CAB  296   0.445   0.913   0.051  0.0000  0.0000  0.0000
   50CHX    CAD  297   0.370   1.039   0.094  0.0000  0.0000  0.0000
   50CHX    CAF  298   0.255   1.002   0.188  0.0000  0.0000  0.0000
   50CHX    CAE  299   0.159   0.905   0.120  0.0000  0.0000  0.0000
   50CHX    CAC  300   0.235   0.779   0.076  0.0000  0.0000  0.0000
   51CHX    CAA  301   0.350   0.815   0.418  0.0000  0.0000  0.0000
   51CHX    CAB  302   0.445   0.913   0.487  0.0000  0.0000  0.0000
   51CHX    CAD  303   0.370   1.039   0.530  0.0000  0.0000  0.0000
   51CHX    CAF  304   0.255   1.002   0.624  0.0000  0.0000  0.0000
   51CHX    CAE  305   0.159   0.905   0.556  0.0000  0.0000  0.0000
   51CHX    CAC  306   0.235   0.779   0.512  0.0000  0.0000  0.0000
   52CHX    CAA  307   0.350   0.815   0.854  0.0000  0.0000  0.0000
   52CHX    CAB  308   0.445   0.913   0.923  0.0000  0.0000  0.0000
   52CHX    CAD  309   0.370   1.039   0.966  0.0000  0.0000  0.0000
   52CHX    CAF  310   0.255   1.002   1.060  0.0000  0.0000  0.0000
   52CHX    CAE  311   0.159   0.905   0.992  0.0000  0.0000  0.0000
   52CHX    CAC  312   0.235   0.779   0.948  0.0000  0.0000  0.0000
   53CHX    CAA  313   0.350   0.815   1.290  0.0000  0.0000  0.0000
   53CHX    CAB  314   0.445   0.913   1.359  0.0000  0.0000  0.0000
   53CHX    CAD  315   0.370   1.039   1.402  0.0000  0.0000  0.0000
   53CHX    CAF  316   0.255   1.002   1.496  0.0000  0.0000  0.0000
   53CHX    CAE  317   0.159   0.905   1.428  0.0000  0.0000  0.0000
   53CHX    CAC  318   0.235   0.779   1.384  0.0000  0.0000  0.0000
   54CHX    CAA  319   0.350   0.815   1.726  0.0000  0.0000  0.0000
   54CHX    CAB  320   0.445   0.913   1.795  0.0000  0.0000  0.0000
   54CHX    CAD  321   0.370   1.039   1.838  0.0000  0.0000  0.0000
   54CHX    CAF  322   0.255   1.002   1.932  0.0000  0.0000  0.0000
   54CHX    CAE  323   0.159   0.905   1.864  0.0000  0.0000  0.0000
   54CHX    CAC  324   0.235   0.779   1.820  0.0000  0.0000  0.0000
   55CHX    CAA  325   0.350   0.815   2.162  0.0000  0.0000  0.0000
   55CHX    CAB  326   0.445   0.913   2.231  0.0000  0.0000  0.0000
   55CHX    CAD  327   0.370   1.039   2.274  0.0000  0.0000  0.0000
   55CHX    CAF  328   0.255   1.002   2.368  0.0000  0.0000  0.0000
   55CHX    CAE  329   0.159   0.905   2.300  0.0000  0.0000  0.0000
   55CHX    CAC  330   0.235   0.779   2.256  0.0000  0.0000  0.0000
   56CHX    CAA  331   0.350   0.815   2.598  0.0000  0.0000  0.0000
   56CHX    CAB  332   0.445   0.913   2.667  0.0000  0.0000  0.0000
   56CHX    CAD  333   0.370   1.039   2.710  0.0000  0.0000  0.0000
   56CHX    CAF  334   0.255   1.002   2.804  0.0000  0.0000  0.0000
   56CHX    CAE  335   0.159   0.905   2.736  0.0000  0.0000  0.0000
   56CHX    CAC  336   0.235   0.779   2.692  0.0000  0.0000  0.0000
   57CHX    CAA  337   0.350   1.251  -0.018  0.0000  0.0000  0.0000
   57CHX    CAB  338   0.445   1.349   0.051  0.0000  0.0000  0.0000
   57CHX    CAD  339   0.370   1.475   0.094  0.0000  0.0000  0.0000
   57CHX    CAF  340   0.255   1.438   0.188  0.0000  0.0000  0.0000
   57CHX    CAE  341   0.159   1.341   0.120  0.0000  0.0000  0.0000
   57CHX    CAC  342   0.235   1.215   0.076  0.0000  0.0000  0.0000
   58CHX    CAA  343   0.350   1.251   0.418  0.0000  0.0000  0.0000
   58CHX    CAB  344   0.445   1.349   0.487  0.0000  0.0000  0.0000
   58CHX    CAD  345   0.370   1.475   0.530  0.0000  0.0000  0.0000
   58CHX    CAF  346   0.255   1.438   0.624  0.0000  0.0000  0.0000
   58CHX    CAE  347   0.159   1.341   0.556  0.0000  0.0000  0.0000
   58CHX    CAC  348   0.235   1.215   0.512  0.0000  0.0000  0.0000
   59CHX    CAA  349   0.350   1.251   0.854  0.0000  0.0000  0.0000
   59CHX    CAB  350   0.445   1.349   0.923  0.0000  0.0000  0.0000
   59CHX    CAD  351   0.370   1.475   0.966  0.0000  0.0000  0.0000
   59CHX    CAF  352   0.255   1.438   1.060  0.0000  0.0000  0.0000
   59CHX    CAE  353   0.159   1.341   0.992  0.0000  0.0000  0.0000
   59CHX    CAC  354   0.235   1.215   0.948  0.0000  0.0000  0.0000
   60CHX    CAA  355   0.350   1.251   1.290  0.0000  0.0000  0.0000
   60CHX    CAB  356   0.445   1.349   1.359  0.0000  0.0000  0.0000
   60CHX    CAD  357   0.370   1.475   1.402  0.0000  0.0000  0.0000
   60CHX    CAF  358   0.255   1.438   1.496  0.0000  0.0000  0.0000
   60CHX    CAE  359   0.159   1.341   1.428  0.0000  0.0000  0.0000
   60CHX    CAC  360   0.235   1.215   1.384  0.0000  0.0000  0.0000
   61CHX    CAA  361   0.350   1.251   1.726  0.0000  0.0000  0.0000
   61CHX    CAB  362   0.445   1.349   1.795  0.0000  0.0000  0.0000
   61CHX    CAD  363   0.370   1.475   1.838  0.0000  0.0000  0.0000
   61CHX    CAF  364   0.255   1.438   1.932  0.0000  0.0000  0.0000
   61CHX    CAE  365   0.159   1.341   1.864  0.0000  0.0000  0.0000
   61CHX    CAC  366   0.235   1.215   1.820  0.0000  0.0000  0.0000
   62CHX    CAA  367   0.350   1.251   2.162  0.0000  0.0000  0.0000
   62CHX    CAB  368   0.445   1.349   2.231  0.0000  0.0000  0.0000
   62CHX    CAD  369   0.370   1.475   2.274  0.0000  0.0000  0.0000
   62CHX    CAF  370   0.255   1.438   2.368  0.0000  0.0000  0.0000
   62CHX    CAE  371   0.159   1.341   2.300  0.0000  0.0000  0.0000
   62CHX    CAC  372   0.235   1.215   2.256  0.0000  0.0000  0.0000
   63CHX    CAA  373   0.350   1.251   2.598  0.0000  0.0000  0.0000
   63CHX    CAB  374   0.445   1.349   2.667  0.0000  0.0000  0.0000
   63CHX    CAD  375   0.370   1.475   2.710  0.0000  0.0000  0.0000
   63CHX    CAF  376   0.255   1.438   2.804  0.0000  0.0000  0.0000
   63CHX    CAE  377   0.159   1.341   2.736  0.0000  0.0000  0.0000
   63CHX    CAC  378   0.235   1.215   2.692  0.0000  0.0000  0.0000
   64CHX    CAA  379   0.350   1.687  -0.018  0.0000  0.0000  0.0000
   64CHX    CAB  380   0.445   1.785   0.051  0.0000  0.0000  0.0000
   64CHX    CAD  381   0.370   1.911   0.094  0.0000  0.0000  0.0000
   64CHX    CAF  382   0.255   1.874   0.188  0.0000  0.0000  0.0000
   64CHX    CAE  383   0.159   1.777   0.120  0.0000  0.0000  0.0000
   64CHX    CAC  384   0.235   1.651   0.076  0.0000  0.0000  0.0000
   65CHX    CAA  385   0.350   1.687   0.418  0.0000  0.0000  0.0000
   65CHX    CAB  386   0.445   1.785   0.487  0.0000  0.0000  0.0000
   65CHX    CAD  387   0.370   1.911   0.530  0.0000  0.0000  0.0000
   65CHX    CAF  388   0.255   1.874   0.624  0.0000  0.0000  0.0000
   65CHX    CAE  389   0.159   1.777   0.556  0.0000  0.0000  0.0000
   65CHX    CAC  390   0.235   1.651   0.512  0.0000  0.0000  0.0000
   66CHX    CAA  391   0.350   1.687   0.854  0.0000  0.0000  0.0000
   66CHX    CAB  392   0.445   1.785   0.923  0.0000  0.0000  0.0000
   66CHX    CAD  393   0.370   1.911   0.966  0.0000  0.0000  0.0000
   66CHX    CAF  394   0.255   1.874   1.060  0.0000  0.0000  0.0000
   66CHX    CAE  395   0.159   1.777   0.992  0.0000  0.0000  0.0000
   66CHX    CAC  396   0.235   1.651   0.948  0.0000  0.0000  0.0000
   67CHX    CAA  397   0.350   1.687   1.290  0.0000  0.0000  0.0000
   67CHX    CAB  398   0.445   1.785   1.359  0.0000  0.0000  0.0000
   67CHX    CAD  399   0.370   1.911   1.402  0.0000  0.0000  0.0000
   67CHX    CAF  400   0.255   1.874   1.496  0.0000  0.0000  0.0000
   67CHX    CAE  401   0.159   1.777   1.428  0.0000  0.0000  0.0000
   67CHX    CAC  402   0.235   1.651   1.384  0.0000  0.0000  0.0000
   68CHX    CAA  403   0.350   1.687   1.726  0.0000  0.0000  0.0000
   68CHX    CAB  404   0.445   1.785   1.795  0.0000  0.0000  0.0000
   68CHX    CAD  405   0.370   1.911   1.838  0.0000  0.0000  0.0000
   68CHX    CAF  406   0.255   1.874   1.932  0.0000  0.0000  0.0000
   68CHX    CAE  407   0.159   1.777   1.864  0.0000  0.0000  0.0000
   68CHX    CAC  408   0.235   1.651   1.820  0.0000  0.0000  0.0000
   69CHX    CAA  409   0.350   1.687   2.162  0.0000  0.0000  0.0000
   69CHX    CAB  410   0.445   1.785   2.231  0.0000  0.0000  0.0000
   69CHX    CAD  411   0.370   1.911   2.274  0.0000  0.0000  0.0000
   69CHX    CAF  412   0.255   1.874   2.368  0.0000  0.0000  0.0000
   69CHX    CAE  413   0.159   1.777   2.300  0.0000  0.0000  0.0000
   69CHX    CAC  414   0.235   1.651   2.256  0.0000  0.0000  0.0000
   70CHX    CAA  415   0.350   1.687   2.598  0.0000  0.0000  0.0000
   70CHX    CAB  416   0.445   1.785   2.667  0.0000  0.0000  0.0000
   70CHX    CAD  417   0.370   1.911   2.710  0.0000  0.0000  0.0000
   70CHX    CAF  418   0.255   1.874   2.804  0.0000  0.0000  0.0000
   70CHX    CAE  419   0.159   1.777   2.736  0.0000  0.0000  0.0000
   70CHX    CAC  420   0.235   1.651   2.692  0.0000  0.0000  0.0000
   71CHX    CAA  421   0.350   2.123  -0.018  0.0000  0.0000  0.0000
   71CHX    CAB  422   0.445   2.221   0.051  0.0000  0.0000  0.0000
   71CHX    CAD  423   0.370   2.347   0.094  0.0000  0.0000  0.0000
   71CHX    CAF  424   0.255   2.310   0.188  0.0000  0.0000  0.0000
   71CHX    CAE  425   0.159   2.213   0.120  0.0000  0.0000  0.0000
   71CHX    CAC  426   0.235   2.087   0.076  0.0000  0.0000  0.0000
   72CHX    CAA  427   0.350   2.123   0.418  0.0000  0.0000  0.0000
   72CHX    CAB  428   0.445   2.221   0.487  0.0000  0.0000  0.0000
   72CHX    CAD  429   0.370   2.347   0.530  0.0000  0.0000  0.0000
   72CHX    CAF  430   0.255   2.310   0.624  0.0000  0.0000  0.0000
   72CHX    CAE  431   0.159   2.213   0.556  0.0000  0.0000  0.0000
   72CHX    CAC  432   0.235   2.087   0.512  0.0000  0.0000  0.0000
   73CHX    CAA  433   0.350   2.123   0.854  0.0000  0.0000  0.0000
   73CHX    CAB  434   0.445   2.221   0.923  0.0000  0.0000  0.0000
   73CHX    CAD  435   0.370   2.347   0.966  0.0000  0.0000  0.0000
   73CHX    CAF  436   0.255   2.310   1.060  0.0000  0.0000  0.0000
   73CHX    CAE  437   0.159   2.213   0.992  0.0000  0.0000  0.0000
   73CHX    CAC  438   0.235   2.087   0.948  0.0000  0.0000  0.0000
   74CHX    CAA  439   0.350   2.123   1.290  0.0000  0.0000  0.0000
   74CHX    CAB  440   0.445   2.221   1.359  0.0000  0.0000  0.0000
   74CHX    CAD  441   0.370   2.347   1.402  0.0000  0.0000  0.0000
   74CHX    CAF  442   0.255   2.310   1.496  0.0000  0.0000  0.0000
   74CHX    CAE  443   0.159   2.213   1.428  0.0000  0.0000  0.0000
   74CHX    CAC  444   0.235   2.087   1.384  0.0000  0.0000  0.0000
   75CHX    CAA  445   0.350   2.123   1.726  0.0000  0.0000  0.0000
   75CHX    CAB  446   0.445   2.221   1.795  0.0000  0.0000  0.0000
   75CHX    CAD  447   0.370   2.347   1.838  0.0000  0.0000  0.0000
   75CHX    CAF  448   0.255   2.310   1.932  0.0000  0.0000  0.0000
   75CHX    CAE  449   0.159   2.213   1.864  0.0000  0.0000  0.0000
   75CHX    CAC  450   0.235   2.087   1.820  0.0000  0.0000  0.0000
   76CHX    CAA  451   0.350   2.123   2.162  0.0000  0.0000  0.0000
   76CHX    CAB  452   0.445   2.221   2.231  0.0000  0.0000  0.0000
   76CHX    CAD  453   0.370   2.347   2.274  0.0000  0.0000  0.0000
   76CHX    CAF  454   0.255   2.310   2.368  0.0000  0.0000  0.0000
   76CHX    CAE  455   0.159   2.213   2.300  0.0000  0.0000  0.0000
   76CHX    CAC  456   0.235   2.087   2.256  0.0000  0.0000  0.0000
   77CHX    CAA  457   0.350   2.123   2.598  0.0000  0.0000  0.0000
   77CHX    CAB  458   0.445   2.221   2.667  0.0000  0.0000  0.0000
   77CHX    CAD  459   0.370   2.347   2.710  0.0000  0.0000  0.0000
   77CHX    CAF  460   0.255   2.310   2.804  0.0000  0.0000  0.0000
   77CHX    CAE  461   0.159   2.213   2.736  0.0000  0.0000  0.0000
   77CHX    CAC  462   0.235   2.087   2.692  0.0000  0.0000  0.0000
   78CHX    CAA  463   0.350   2.559  -0.018  0.0000  0.0000  0.0000
   78CHX    CAB  464   0.445   2.657   0.051  0.0000  0.0000  0.0000
   78CHX    CAD  465   0.370   2.783   0.094  0.0000  0.0000  0.0000
   78CHX    CAF  466   0.255   2.746   0.188  0.0000  0.0000  0.0000
   78CHX    CAE  467   0.159   2.649   0.120  0.0000  0.0000  0.0000
   78CHX    CAC  468   0.235   2.523   0.076  0.0000  0.0000  0.0000
   79CHX    CAA  469   0.350   2.559   0.418  0.0000  0.0000  0.0000
   79CHX    CAB  470   0.445   2.657   0.487  0.0000  0.0000  0.0000
   79CHX    CAD  471   0.370   2.783   0.530  0.0000  0.0000  0.0000
   79CHX    CAF  472   0.255   2.746   0.624  0.0000  0.0000  0.0000
   79CHX    CAE  473   0.159   2.649   0.556  0.0000  0.0000  0.0000
   79CHX    CAC  474   0.235   2.523   0.512  0.0000  0.0000  0.0000
   80CHX    CAA  475   0.350   2.559   0.854  0.0000  0.0000  0.0000
   80CHX    CAB  476   0.445   2.657   0.923  0.0000  0.0000  0.0000
   80CHX    CAD  477   0.370   2.783   0.966  0.0000  0.0000  0.0000
   80CHX    CAF  478   0.255   2.746   1.060  0.0000  0.0000  0.0000
   80CHX    CAE  479   0.159   2.649   0.992  0.0000  0.0000  0.0000
   80CHX    CAC  480   0.235   2.523   0.948  0.0000  0.0000  0.0000
   81CHX    CAA  481   0.350   2.559   1.290  0.0000  0.0000  0.0000
   81CHX    CAB  482   0.445   2.657   1.359  0.0000  0.0000  0.0000
   81CHX    CAD  483   0.370   2.783   1.402  0.0000  0.0000  0.0000
   81CHX    CAF  484   0.255   2.746   1.496  0.0000  0.0000  0.0000
   81CHX    CAE  485   0.159   2.649   1.428  0.0000  0.0000  0.0000
   81CHX    CAC  486   0.235   2.523   1.384  0.0000  0.0000  0.0000
   82CHX    CAA  487   0.350   2.559   1.726  0.0000  0.0000  0.0000
   82CHX    CAB  488   0.445   2.657   1.795  0.0000  0.0000  0.0000
   82CHX    CAD  489   0.370   2.783   1.838  0.0000  0.0000  0.0000
   82CHX    CAF  490   0.255   2.746   1.932  0.0000  0.0000  0.0000
   82CHX    CAE  491   0.159   2.649   1.864  0.0000  0.0000  0.0000
   82CHX    CAC  492   0.235   2.523   1.820  0.0000  0.0000  0.0000
   83CHX    CAA  493   0.350   2.559   2.162  0.0000  0.0000  0.0000
   83CHX    CAB  494   0.445   2.657   2.231  0.0000  0.0000  0.0000
   83CHX    CAD  495   0.370   2.783   2.274  0.0000  0.0000  0.0000
   83CHX    CAF  496   0.255   2.746   2.368  0.0000  0.0000  0.0000
   83CHX    CAE  497   0.159   2.649   2.300  0.0000  0.0000  0.0000
   83CHX    CAC  498   0.235   2.523   2.256  0.0000  0.0000  0.0000
   84CHX    CAA  499   0.350   2.559   2.598  0.0000  0.0000  0.0000
   84CHX    CAB  500   0.445   2.657   2.667  0.0000  0.0000  0.0000
   84CHX    CAD  501   0.370   2.783   2.710  0.0000  0.0000  0.0000
   84CHX    CAF  502   0.255   2.746   2.804  0.0000  0.0000  0.0000
   84CHX    CAE  503   0.159   2.649   2.736  0.0000  0.0000  0.0000
   84CHX    CAC  504   0.235   2.523   2.692  0.0000  0.0000  0.0000
   85CHX    CAA  505   0.350   2.995  -0.018  0.0000  0.0000  0.0000
   85CHX    CAB  506   0.445   3.093   0.051  0.0000  0.0000  0.0000
   85CHX    CAD  507   0.370   3.219   0.094  0.0000  0.0000  0.0000
   85CHX    CAF  508   0.255   3.182   0.188  0.0000  0.0000  0.0000
   85CHX    CAE  509   0.159   3.085   0.120  0.0000  0.0000  0.0000
   85CHX    CAC  510   0.235   2.959   0.076  0.0000  0.0000  0.0000
   86CHX    CAA  511   0.350   2.995   0.418  0.0000  0.0000  0.0000
   86CHX    CAB  512   0.445   3.093   0.487  0.0000  0.0000  0.0000
   86CHX    CAD  513   0.370   3.219   0.530  0.0000  0.0000  0.0000
   86CHX    CAF  514   0.255   3.182   0.624  0.0000  0.0000  0.0000
   86CHX    CAE  515   0.159   3.085   0.556  0.0000  0.0000  0.0000
   86CHX    CAC  516   0.235   2.959   0.512  0.0000  0.0000  0.0000
   87CHX    CAA  517   0.350   2.995   0.854  0.0000  0.0000  0.0000
   87CHX    CAB  518   0.445   3.093   0.923  0.0000  0.0000  0.0000
   87CHX    CAD  519   0.370   3.219   0.966  0.0000  0.0000  0.0000
   87CHX    CAF  520   0.255   3.182   1.060  0.0000  0.0000  0.0000
   87CHX    CAE  521   0.159   3.085   0.992  0.0000  0.0000  0.0000
   87CHX    CAC  522   0.235   2.959   0.948  0.0000  0.0000  0.0000
   88CHX    CAA  523   0.350   2.995   1.290  0.0000  0.0000  0.0000
   88CHX    CAB  524   0.445   3.093   1.359  0.0000  0.0000  0.0000
   88CHX    CAD  525   0.370   3.219   1.402  0.0000  0.0000  0.0000
   88CHX    CAF  526   0.255   3.182   1.496  0.0000  0.0000  0.0000
   88CHX    CAE  527   0.159   3.085   1.428  0.0000  0.0000  0.0000
   88CHX    CAC  528   0.235   2.959   1.384  0.0000  0.0000  0.0000
   89CHX    CAA  529   0.350   2.995   1.726  0.0000  0.0000  0.0000
   89CHX    CAB  530   0.445   3.093   1.795  0.0000  0.0000  0.0000
   89CHX    CAD  531   0.370   3.219   1.838  0.0000  0.0000  0.0000
   89CHX    CAF  532   0.255   3.182   1.932  0.0000  0.0000  0.0000
   89CHX    CAE  533   0.159   3.085   1.864  0.0000  0.0000  0.0000
   89CHX    CAC  534   0.235   2.959   1.820  0.0000  0.0000  0.0000
   90CHX    CAA  535   0.350   2.995   2.162  0.0000  0.0000  0.0000
   90CHX    CAB  536   0.445   3.093   2.231  0.0000  0.0000  0.0000
   90CHX    CAD  537   0.370   3.219   2.274  0.0000  0.0000  0.0000
   90CHX    CAF  538   0.255   3.182   2.368  0.0000  0.0000  0.0000
   90CHX    CAE  539   0.159   3.085   2.300  0.0000  0.0000  0.0000
   90CHX    CAC  540   0.235   2.959   2.256  0.0000  0.0000  0.0000
   91CHX    CAA  541   0.350   2.995   2.598  0.0000  0.0000  0.0000
   91CHX    CAB  542   0.445   3.093   2.667  0.0000  0.0000  0.0000
   91CHX    CAD  543   0.370   3.219   2.710  0.0000  0.0000  0.0000
   91CHX    CAF  544   0.255   3.182   2.804  0.0000  0.0000  0.0000
   91CHX    CAE  545   0.159   3.085   2.736  0.0000  0.0000  0.0000
   91CHX    CAC  546   0.235   2.959   2.692  0.0000  0.0000  0.0000
   92CHX    CAA  547   0.350   3.431  -0.018  0.0000  0.0000  0.0000
   92CHX    CAB  548   0.445   3.529   0.051  0.0000  0.0000  0.0000
   92CHX    CAD  549   0.370   3.655   0.094  0.0000  0.0000  0.0000
   92CHX    CAF  550   0.255   3.618   0.188  0.0000  0.0000  0.0000
   92CHX    CAE  551   0.159   3.521   0.120  0.0000  0.0000  0.0000
   92CHX    CAC  552   0.235   3.395   0.076  0.0000  0.0000  0.0000
   93CHX    CAA  553   0.350   3.431   0.418  0.0000  0.0000  0.0000
   93CHX    CAB  554   0.445   3.529   0.487  0.0000  0.0000  0.0000
   93CHX    CAD  555   0.370   3.655   0.530  0.0000  0.0000  0.0000
   93CHX    CAF  556   0.255   3.618   0.624  0.0000  0.0000  0.0000
   93CHX    CAE  557   0.159   3.521   0.556  0.0000  0.0000  0.0000
   93CHX    CAC  558   0.235   3.395   0.512  0.0000  0.0000  0.0000
   94CHX    CAA  559   0.350   3.431   0.854  0.0000  0.0000  0.0000
   94CHX    CAB  560   0.445   3.529   0.923  0.0000  0.0000  0.0000
   94CHX    CAD  561   0.370   3.655   0.966  0.0000  0.0000  0.0000
   94CHX    CAF  562   0.255   3.618   1.060  0.0000  0.0000  0.0000
   94CHX    CAE  563   0.159   3.521   0.992  0.0000  0.0000  0.0000
   94CHX    CAC  564   0.235   3.395   0.948  0.0000  0.0000  0.0000
   95CHX    CAA  565   0.350   3.431   1.290  0.0000  0.0000  0.0000
   95CHX    CAB  566   0.445   3.529   1.359  0.0000  0.0000  0.0000
   95CHX    CAD  567   0.370   3.655   1.402  0.0000  0.0000  0.0000
   95CHX    CAF  568   0.255   3.618   1.496  0.0000  0.0000  0.0000
   95CHX    CAE  569   0.159   3.521   1.428  0.0000  0.0000  0.0000
   95CHX    CAC  570   0.235   3.395   1.384  0.0000  0.0000  0.0000
   96CHX    CAA  571   0.350   3.431   1.726  0.0000  0.0000  0.0000
   96CHX    CAB  572   0.445   3.529   1.795  0.0000  0.0000  0.0000
   96CHX    CAD  573   0.370   3.655   1.838  0.0000  0.0000  0.0000
   96CHX    CAF  574   0.255   3.618   1.932  0.0000  0.0000  0.0000
   96CHX    CAE  575   0.159   3.521   1.864  0.0000  0.0000  0.0000
   96CHX    CAC  576   0.235   3.395   1.820  0.0000  0.0000  0.0000
   97CHX    CAA  577   0.350   3.431   2.162  0.0000  0.0000  0.0000
   97CHX    CAB  578   0.445   3.529   2.231  0.0000  0.0000  0.0000
   97CHX    CAD  579   0.370   3.655   2.274  0.0000  0.0000  0.0000
   97CHX    CAF  580   0.255   3.618   2.368  0.0000  0.0000  0.0000
   97CHX    CAE  581   0.159   3.521   2.300  0.0000  0.0000  0.0000
   97CHX    CAC  582   0.235   3.395   2.256  0.0000  0.0000  0.0000
   98CHX    CAA  583   0.350   3.431   2.598  0.0000  0.0000  0.0000
   98CHX    CAB  584   0.445   3.529   2.667  0.0000  0.0000  0.0000
   98CHX    CAD  585   0.370   3.655   2.710  0.0000  0.0000  0.0000
   98CHX    CAF  586   0.255   3.618   2.804  0.0000  0.0000  0.0000
   98CHX    CAE  587   0.159   3.521   2.736  0.0000  0.0000  0.0000
   98CHX    CAC  588   0.235   3.395   2.692  0.0000  0.0000  0.0000
   99CHX    CAA  589   0.786   0.815  -0.018  0.0000  0.0000  0.0000
   99CHX    CAB  590   0.881   0.913   0.051  0.0000  0.0000  0.0000
   99CHX    CAD  591   0.806   1.039   0.094  0.0000  0.0000  0.0000
   99CHX    CAF  592   0.691   1.002   0.188  0.0000  0.0000  0.0000
   99CHX    CAE  593   0.595   0.905   0.120  0.0000  0.0000  0.0000
   99CHX    CAC  594   0.671   0.779   0.076  0.0000  0.0000  0.0000
  100CHX    CAA  595   0.786   0.815   0.418  0.0000  0.0000  0.0000
  100CHX    CAB  596   0.881   0.913   0.487  0.0000  0.0000  0.0000
  100CHX    CAD  597   0.806   1.039   0.530  0.0000  0.0000  0.0000
  100CHX    CAF  598   0.691   1.002   0.624  0.0000  0.0000  0.0000
  100CHX    CAE  599   0.595   0.905   0.556  0.0000  0.0000  0.0000
  100CHX    CAC  600   0.671   0.779   0.512  0.0000  0.0000  0.0000
  101CHX    CAA  601   0.786   0.815   0.854  0.0000  0.0000  0.0000
  101CHX    CAB  602   0.881   0.913   0.923  0.0000  0.0000  0.0000
  101CHX    CAD  603   0.806   1.039   0.966  0.0000  0.0000  0.0000
  101CHX    CAF  604   0.691   1.002   1.060  0.0000  0.0000  0.0000
  101CHX    CAE  605   0.595   0.905   0.992  0.0000  0.0000  0.0000
  101CHX    CAC  606   0.671   0.779   0.948  0.0000  0.0000  0.0000
  102CHX    CAA  607   0.786   0.815   1.290  0.0000  0.0000  0.0000
  102CHX    CAB  608   0.881   0.913   1.359  0.0000  0.0000  0.0000
  102CHX    CAD  609   0.806   1.039   1.402  0.0000  0.0000  0.0000
  102CHX    CAF  610   0.691   1.002   1.496  0.0000  0.0000  0.0000
  102CHX    CAE  611   0.595   0.905   1.428  0.0000  0.0000  0.0000
  102CHX    CAC  612   0.671   0.779   1.384  0.0000  0.0000  0.0000
  103CHX    CAA  613   0.786   0.815   1.726  0.0000  0.0000  0.0000
  103CHX    CAB  614   0.881   0.913   1.795  0.0000  0.0000  0.0000
  103CHX    CAD  615   0.806   1.039   1.838  0.0000  0.0000  0.0000
  103CHX    CAF  616   0.691   1.002   1.932  0.0000  0.0000  0.0000
  103CHX    CAE  617   0.595   0.905   1.864  0.0000  0.0000  0.0000
  103CHX    CAC  618   0.671   0.779   1.820  0.0000  0.0000  0.0000
  104CHX    CAA  619   0.786   0.815   2.162  0.0000  0.0000  0.0000
  104CHX    CAB  620   0.881   0.913   2.231  0.0000  0.0000  0.0000
  104CHX    CAD  621   0.806   1.039   2.274  0.0000  0.0000  0.0000
  104CHX    CAF  622   0.691   1.002   2.368  0.0000  0.0000  0.0000
  104CHX    CAE  623   0.595   0.905   2.300  0.0000  0.0000  0.0000
  104CHX    CAC  624   0.671   0.779   2.256  0.0000  0.0000  0.0000
  105CHX    CAA  625   0.786   0.815   2.598  0.0000  0.0000  0.0000
  105CHX    CAB  626   0.881   0.913   2.667  0.0000  0.0000  0.0000
  105CHX    CAD  627   0.806   1.039   2.710  0.0000  0.0000  0.0000
  105CHX    CAF  628   0.691   1.002   2.804  0.0000  0.0000  0.0000
  105CHX    CAE  629   0.595   0.905   2.736  0.0000  0.0000  0.0000
  105CHX    CAC  630   0.671   0.779   2.692  0.0000  0.0000  0.0000
  106CHX    CAA  631   0.786   1.251  -0.018  0.0000  0.0000  0.0000
  106CHX    CAB  632   0.881   1.349   0.051  0.0000  0.0000  0.0000
  106CHX    CAD  633   0.806   1.475   0.094  0.0000  0.0000  0.0000
  106CHX    CAF  634   0.691   1.438   0.188  0.0000  0.0000  0.0000
  106CHX    CAE  635   0.595   1.341   0.120  0.0000  0.0000  0.0000
  106CHX    CAC  636   0.671   1.215   0.076  0.0000  0.0000  0.0000
  107CHX    CAA  637   0.786   1.251   0.418  0.0000  0.0000  0.0000
  107CHX    CAB  638   0.881   1.349   0.487  0.0000  0.0000  0.0000
  107CHX    CAD  639   0.806   1.475   0.530  0.0000  0.0000  0.0000
  107CHX    CAF  640   0.691   1.438   0.624  0.0000  0.0000  0.0000
  107CHX    CAE  641   0.595   1.341   0.556  0.0000  0.0000  0.0000
  107CHX    CAC  642   0.671   1.215   0.512  0.0000  0.0000  0.0000
  108CHX    CAA  643   0.786   1.251   0.854  0.0000  0.0000  0.0000
  108CHX    CAB  644   0.881   1.349   0.923  0.0000  0.0000  0.0000
  108CHX    CAD  645   0.806   1.475   0.966  0.0000  0.0000  0.0000
  108CHX    CAF  646   0.691   1.438   1.060  0.0000  0.0000  0.0000
  108CHX    CAE  647   0.595   1.341   0.992  0.0000  0.0000  0.0000
  108CHX    CAC  648   0.671   1.215   0.948  0.0000  0.0000  0.0000
  109CHX    CAA  649   0.786   1.251   1.290  0.0000  0.0000  0.0000
  109CHX    CAB  650   0.881   1.349   1.359  0.0000  0.0000  0.0000
  109CHX    CAD  651   0.806   1.475   1.402  0.0000  0.0000  0.0000
  109CHX    CAF  652   0.691   1.438   1.496  0.0000  0.0000  0.0000
  109CHX    CAE  653   0.595   1.341   1.428  0.0000  0.0000  0.0000
  109CHX    CAC  654   0.671   1.215   1.384  0.0000  0.0000  0.0000
  110CHX    CAA  655   0.786   1.251   1.726  0.0000  0.0000  0.0000
  110CHX    CAB  656   0.881   1.349   1.795  0.0000  0.0000  0.0000
  110CHX    CAD  657   0.806   1.475   1.838  0.0000  0.0000  0.0000
  110CHX    CAF  658   0.691   1.438   1.932  0.0000  0.0000  0.0000
  110CHX    CAE  659   0.595   1.341   1.864  0.0000  0.0000  0.0000
  110CHX    CAC  660   0.671   1.215   1.820  0.0000  0.0000  0.0000
  111CHX    CAA  661   0.786   1.251   2.162  0.0000  0.0000  0.0000
  111CHX    CAB  662   0.881   1.349   2.231  0.0000  0.0000  0.0000
  111CHX    CAD  663   0.806   1.475   2.274  0.0000  0.0000  0.0000
  111CHX    CAF  664   0.691   1.438   2.368  0.0000  0.0000  0.0000
  111CHX    CAE  665   0.595   1.341   2.300  0.0000  0.0000  0.0000
  111CHX    CAC  666   0.671   1.215   2.256  0.0000  0.0000  0.0000
  112CHX    CAA  667   0.786   1.251   2.598  0.0000  0.0000  0.0000
  112CHX    CAB  668   0.881   1.349   2.667  0.0000  0.0000  0.0000
  112CHX    CAD  669   0.806   1.475   2.710  0.0000  0.0000  0.0000
  112CHX    CAF  670   0.691   1.438   2.804  0.0000  0.0000  0.0000
  112CHX    CAE  671   0.595   1.341   2.736  0.0000  0.0000  0.0000
  112CHX    CAC  672   0.671   1.215   2.692  0.0000  0.0000  0.0000
  113CHX    CAA  673   0.786   1.687  -0.018  0.0000  0.0000  0.0000
  113CHX    CAB  674   0.881   1.785   0.051  0.0000  0.0000  0.0000
  113CHX    CAD  675   0.806   1.911   0.094  0.0000  0.0000  0.0000
  113CHX    CAF  676   0.691   1.874   0.188  0.0000  0.0000  0.0000
  113CHX    CAE  677   0.595   1.777   0.120  0.0000  0.0000  0.0000
  113CHX    CAC  678   0.671   1.651   0.076  0.0000  0.0000  0.0000
  114CHX    CAA  679   0.786   1.687   0.418  0.0000  0.0000  0.0000
  114CHX    CAB  680   0.881   1.785   0.487  0.0000  0.0000  0.0000
  114CHX    CAD  681   0.806   1.911   0.530  0.0000  0.0000  0.0000
  114CHX    CAF  682   0.691   1.874   0.624  0.0000  0.0000  0.0000
  114CHX    CAE  683   0.595   1.777   0.556  0.0000  0.0000  0.0000
  114CHX    CAC  684   0.671   1.651   0.512  0.0000  0.0000  0.0000
  115CHX    CAA  685   0.786   1.687   0.854  0.0000  0.0000  0.0000
  115CHX    CAB  686   0.881   1.785   0.923  0.0000  0.0000  0.0000
  115CHX    CAD  687   0.806   1.911   0.966  0.0000  0.0000  0.0000
  115CHX    CAF  688   0.691   1.874   1.060  0.0000  0.0000  0.0000
  115CHX    CAE  689   0.595   1.777   0.992  0.0000  0.0000  0.0000
  115CHX    CAC  690   0.671   1.651   0.948  0.0000  0.0000  0.0000
  116CHX    CAA  691   0.786   1.687   1.290  0.0000  0.0000  0.0000
  116CHX    CAB  692   0.881   1.785   1.359  0.0000  0.0000  0.0000
  116CHX    CAD  693   0.806   1.911   1.402  0.0000  0.0000  0.0000
  116CHX    CAF  694   0.691   1.874   1.496  0.0000  0.0000  0.0000
  116CHX    CAE  695   0.595   1.777   1.428  0.0000  0.0000  0.0000
  116CHX    CAC  696   0.671   1.651   1.384  0.0000  0.0000  0.0000
  117CHX    CAA  697   0.786   1.687   1.726  0.0000  0.0000  0.0000
  117CHX    CAB  698   0.881   1.785   1.795  0.0000  0.0000  0.0000
  117CHX    CAD  699   0.806   1.911   1.838  0.0000  0.0000  0.0000
  117CHX    CAF  700   0.691   1.874   1.932  0.0000  0.0000  0.0000
  117CHX    CAE  701   0.595   1.777   1.864  0.0000  0.0000  0.0000
  117CHX    CAC  702   0.671   1.651   1.820  0.0000  0.0000  0.0000
  118CHX    CAA  703   0.786   1.687   2.162  0.0000  0.0000  0.0000
  118CHX    CAB  704   0.881   1.785   2.231  0.0000  0.0000  0.0000
  118CHX    CAD  705   0.806   1.911   2.274  0.0000  0.0000  0.0000
  118CHX    CAF  706   0.691   1.874   2.368  0.0000  0.0000  0.0000
  118CHX    CAE  707   0.595   1.777   2.300  0.0000  0.0000  0.0000
  118CHX    CAC  708   0.671   1.651   2.256  0.0000  0.0000  0.0000
  119CHX    CAA  709   0.786   1.687   2.598  0.0000  0.0000  0.0000
  119CHX    CAB  710   0.881   1.785   2.667  0.0000  0.0000  0.0000
  119CHX    CAD  711   0.806   1.911   2.710  0.0000  0.0000  0.0000
  119CHX    CAF  712   0.691   1.874   2.804  0.0000  0.0000  0.0000
  119CHX    CAE  713   0.595   1.777   2.736  0.0000  0.0000  0.0000
  119CHX    CAC  714   0.671   1.651   2.692  0.0000  0.0000  0.0000
  120CHX    CAA  715   0.786   2.123  -0.018  0.0000  0.0000  0.0000
  120CHX    CAB  716   0.881   2.221   0.051  0.0000  0.0000  0.0000
  120CHX    CAD  717   0.806   2.347   0.094  0.0000  0.0000  0.0000
  120CHX    CAF  718   0.691   2.310   0.188  0.0000  0.0000  0.0000
  120CHX    CAE  719   0.595   2.213   0.120  0.0000  0.0000  0.0000
  120CHX    CAC  720   0.671   2.087   0.076  0.0000  0.0000  0.0000
  121CHX    CAA  721   0.786   2.123   0.418  0.0000  0.0000  0.0000
  121CHX    CAB  722   0.881   2.221   0.487  0.0000  0.0000  0.0000
  121CHX    CAD  723   0.806   2.347   0.530  0.0000  0.0000  0.0000
  121CHX    CAF  724   0.691   2.310   0.624  0.0000  0.0000  0.0000
  121CHX    CAE  725   0.595   2.213   0.556  0.0000  0.0000  0.0000
  121CHX    CAC  726   0.671   2.087   0.512  0.0000  0.0000  0.0000
  122CHX    CAA  727   0.786   2.123   0.854  0.0000  0.0000  0.0000
  122CHX    CAB  728   0.881   2.221   0.923  0.0000  0.0000  0.0000
  122CHX    CAD  729   0.806   2.347   0.966  0.0000  0.0000  0.0000
  122CHX    CAF  730   0.691   2.310   1.060  0.0000  0.0000  0.0000
  122CHX    CAE  731   0.595   2.213   0.992  0.0000  0.0000  0.0000
  122CHX    CAC  732   0.671   2.087   0.948  0.0000  0.0000  0.0000
  123CHX    CAA  733   0.786   2.123   1.290  0.0000  0.0000  0.0000
  123CHX    CAB  734   0.881   2.221   1.359  0.0000  0.0000  0.0000
  123CHX    CAD  735   0.806   2.347   1.402  0.0000  0.0000  0.0000
  123CHX    CAF  736   0.691   2.310   1.496  0.0000  0.0000  0.0000
  123CHX    CAE  737   0.595   2.213   1.428  0.0000  0.0000  0.0000
  123CHX    CAC  738   0.671   2.087   1.384  0.0000  0.0000  0.0000
  124CHX    CAA  739   0.786   2.123   1.726  0.0000  0.0000  0.0000
  124CHX    CAB  740   0.881   2.221   1.795  0.0000  0.0000  0.0000
  124CHX    CAD  741   0.806   2.347   1.838  0.0000  0.0000  0.0000
  124CHX    CAF  742   0.691   2.310   1.932  0.0000  0.0000  0.0000
  124CHX    CAE  743   0.595   2.213   1.864  0.0000  0.0000  0.0000
  124CHX    CAC  744   0.671   2.087   1.820  0.0000  0.0000  0.0000
  125CHX    CAA  745   0.786   2.123   2.162  0.0000  0.0000  0.0000
  125CHX    CAB  746   0.881   2.221   2.231  0.0000  0.0000  0.0000
  125CHX    CAD  747   0.806   2.347   2.274  0.0000  0.0000  0.0000
  125CHX    CAF  748   0.691   2.310   2.368  0.0000  0.0000  0.0000
  125CHX    CAE  749   0.595   2.213   2.300  0.0000  0.0000  0.0000
  125CHX    CAC  750   0.671   2.087   2.256  0.0000  0.0000  0.0000
  126CHX    CAA  751   0.786   2.123   2.598  0.0000  0.0000  0.0000
  126CHX    CAB  752   0.881   2.221   2.667  0.0000  0.0000  0.0000
  126CHX    CAD  753   0.806   2.347   2.710  0.0000  0.0000  0.0000
  126CHX    CAF  754   0.691   2.310   2.804  0.0000  0.0000  0.0000
  126CHX    CAE  755   0.595   2.213   2.736  0.0000  0.0000  0.0000
  126CHX    CAC  756   0.671   2.087   2.692  0.0000  0.0000  0.0000
  127CHX    CAA  757   0.786   2.559  -0.018  0.0000  0.0000  0.0000
  127CHX    CAB  758   0.881   2.657   0.051  0.0000  0.0000  0.0000
  127CHX    CAD  759   0.806   2.783   0.094  0.0000  0.0000  0.0000
  127CHX    CAF  760   0.691   2.746   0.188  0.0000  0.0000  0.0000
  127CHX    CAE  761   0.595   2.649   0.120  0.0000  0.0000  0.0000
  127CHX    CAC  762   0.671   2.523   0.076  0.0000  0.0000  0.0000
  128CHX    CAA  763   0.786   2.559   0.418  0.0000  0.0000  0.0000
  128CHX    CAB  764   0.881   2.657   0.487  0.0000  0.0000  0.0000
  128CHX    CAD  765   0.806   2.783   0.530  0.0000  0.0000  0.0000
  128CHX    CAF  766   0.691   2.746   0.624  0.0000  0.0000  0.0000
  128CHX    CAE  767   0.595   2.649   0.556  0.0000  0.0000  0.0000
  128CHX    CAC  768   0.671   2.523   0.512  0.0000  0.0000  0.0000
  129CHX    CAA  769   0.786   2.559   0.854  0.0000  0.0000  0.0000
  129CHX    CAB  770   0.881   2.657   0.923  0.0000  0.0000  0.0000
  129CHX    CAD  771   0.806   2.783   0.966  0.0000  0.0000  0.0000
  129CHX    CAF  772   0.691   2.746   1.060  0.0000  0.0000  0.0000
  129CHX    CAE  773   0.595   2.649   0.992  0.0000  0.0000  0.0000
  129CHX    CAC  774   0.671   2.523   0.948  0.0000  0.0000  0.0000
  130CHX    CAA  775   0.786   2.559   1.290  0.0000  0.0000  0.0000
  130CHX    CAB  776   0.881   2.657   1.359  0.0000  0.0000  0.0000
  130CHX    CAD  777   0.806   2.783   1.402  0.0000  0.0000  0.0000
  130CHX    CAF  778   0.691   2.746   1.496  0.0000  0.0000  0.0000
  130CHX    CAE  779   0.595   2.649   1.428  0.0000  0.0000  0.0000
  130CHX    CAC  780   0.671   2.523   1.384  0.0000  0.0000  0.0000
  131CHX    CAA  781   0.786   2.559   1.726  0.0000  0.0000  0.0000
  131CHX    CAB  782   0.881   2.657   1.795  0.0000  0.0000  0.0000
  131CHX    CAD  783   0.806   2.783   1.838  0.0000  0.0000  0.0000
  131CHX    CAF  784   0.691   2.746   1.932  0.0000  0.0000  0.0000
  131CHX    CAE  785   0.595   2.649   1.864  0.0000  0.0000  0.0000
  131CHX    CAC  786   0.671   2.523   1.820  0.0000  0.0000  0.0000
  132CHX    CAA  787   0.786   2.559   2.162  0.0000  0.0000  0.0000
  132CHX    CAB  788   0.881   2.657   2.231  0.0000  0.0000  0.0000
  132CHX    CAD  789   0.806   2.783   2.274  0.0000  0.0000  0.0000
  132CHX    CAF  790   0.691   2.746   2.368  0.0000  0.0000  0.0000
  132CHX    CAE  791   0.595   2.649   2.300  0.0000  0.0000  0.0000
  132CHX    CAC  792   0.671   2.523   2.256  0.0000  0.0000  0.0000
  133CHX    CAA  793   0.786   2.559   2.598  0.0000  0.0000  0.0000
  133CHX    CAB  794   0.881   2.657   2.667  0.0000  0.0000  0.0000
  133CHX    CAD  795   0.806   2.783   2.710  0.0000  0.0000  0.0000
  133CHX    CAF  796   0.691   2.746   2.804  0.0000  0.0000  0.0000
  133CHX    CAE  797   0.595   2.649   2.736  0.0000  0.0000  0.0000
  133CHX    CAC  798   0.671   2.523   2.692  0.0000  0.0000  0.0000
  134CHX    CAA  799   0.786   2.995  -0.018  0.0000  0.0000  0.0000
  134CHX    CAB  800   0.881   3.093   0.051  0.0000  0.0000  0.0000
  134CHX    CAD  801   0.806   3.219   0.094  0.0000  0.0000  0.0000
  134CHX    CAF  802   0.691   3.182   0.188  0.0000  0.0000  0.0000
  134CHX    CAE  803   0.595   3.085   0.120  0.0000  0.0000  0.0000
  134CHX    CAC  804   0.671   2.959   0.076  0.0000  0.0000  0.0000
  135CHX    CAA  805   0.786   2.995   0.418  0.0000  0.0000  0.0000
  135CHX    CAB  806   0.881   3.093   0.487  0.0000  0.0000  0.0000
  135CHX    CAD  807   0.806   3.219   0.530  0.0000  0.0000  0.0000
  135CHX    CAF  808   0.691   3.182   0.624  0.0000  0.0000  0.0000
  135CHX    CAE  809   0.595   3.085   0.556  0.0000  0.0000  0.0000
  135CHX    CAC  810   0.671   2.959   0.512  0.0000  0.0000  0.0000
  136CHX    CAA  811   0.786   2.995   0.854  0.0000  0.0000  0.0000
  136CHX    CAB  812   0.881   3.093   0.923  0.0000  0.0000  0.0000
  136CHX    CAD  813   0.806   3.219   0.966  0.0000  0.0000  0.0000
  136CHX    CAF  814   0.691   3.182   1.060  0.0000  0.0000  0.0000
  136CHX    CAE  815   0.595   3.085   0.992  0.0000  0.0000  0.0000
  136CHX    CAC  816   0.671   2.959   0.948  0.0000  0.0000  0.0000
  137CHX    CAA  817   0.786   2.995   1.290  0.0000  0.0000  0.0000
  137CHX    CAB  818   0.881   3.093   1.359  0.0000  0.0000  0.0000
  137CHX    CAD  819   0.806   3.219   1.402  0.0000  0.0000  0.0000
  137CHX    CAF  820   0.691   3.182   1.496  0.0000  0.0000  0.0000
  137CHX    CAE  821   0.595   3.085   1.428  0.0000  0.0000  0.0000
  137CHX    CAC  822   0.671   2.959   1.384  0.0000  0.0000  0.0000
  138CHX    CAA  823   0.786   2.995   1.726  0.0000  0.0000  0.0000
  138CHX    CAB  824   0.881   3.093   1.795  0.0000  0.0000  0.0000
  138CHX    CAD  825   0.806   3.219   1.838  0.0000  0.0000  0.0000
  138CHX    CAF  826   0.691   3.182   1.932  0.0000  0.0000  0.0000
  138CHX    CAE  827   0.595   3.085   1.864  0.0000  0.0000  0.0000
  138CHX    CAC  828   0.671   2.959   1.820  0.0000  0.0000  0.0000
  139CHX    CAA  829   0.786   2.995   2.162  0.0000  0.0000  0.0000
  139CHX    CAB  830   0.881   3.093   2.231  0.0000  0.0000  0.0000
  139CHX    CAD  831   0.806   3.219   2.274  0.0000  0.0000  0.0000
  139CHX    CAF  832   0.691   3.182   2.368  0.0000  0.0000  0.0000
  139CHX    CAE  833   0.595   3.085   2.300  0.0000  0.0000  0.0000
  139CHX    CAC  834   0.671   2.959   2.256  0.0000  0.0000  0.0000
  140CHX    CAA  835   0.786   2.995   2.598  0.0000  0.0000  0.0000
  140CHX    CAB  836   0.881   3.093   2.667  0.0000  0.0000  0.0000
  140CHX    CAD  837   0.806   3.219   2.710  0.0000  0.0000  0.0000
  140CHX    CAF  838   0.691   3.182   2.804  0.0000  0.0000  0.0000
  140CHX    CAE  839   0.595   3.085   2.736  0.0000  0.0000  0.0000
  140CHX    CAC  840   0.671   2.959   2.692  0.0000  0.0000  0.0000
  141CHX    CAA  841   0.786   3.431  -0.018  0.0000  0.0000  0.0000
  141CHX    CAB  842   0.881   3.529   0.051  0.0000  0.0000  0.0000
  141CHX    CAD  843   0.806   3.655   0.094  0.0000  0.0000  0.0000
  141CHX    CAF  844   0.691   3.618   0.188  0.0000  0.0000  0.0000
  141CHX    CAE  845   0.595   3.521   0.120  0.0000  0.0000  0.0000
  141CHX    CAC  846   0.671   3.395   0.076  0.0000  0.0000  0.0000
  142CHX    CAA  847   0.786   3.431   0.418  0.0000  0.0000  0.0000
  142CHX    CAB  848   0.881   3.529   0.487  0.0000  0.0000  0.0000
  142CHX    CAD  849   0.806   3.655   0.530  0.0000  0.0000  0.0000
  142CHX    CAF  850   0.691   3.618   0.624  0.0000  0.0000  0.0000
  142CHX    CAE  851   0.595   3.521   0.556  0.0000  0.0000  0.0000
  142CHX    CAC  852   0.671   3.395   0.512  0.0000  0.0000  0.0000
  143CHX    CAA  853   0.786   3.431   0.854  0.0000  0.0000  0.0000
  143CHX    CAB  854   0.881   3.529   0.923  0.0000  0.0000  0.0000
  143CHX    CAD  855   0.806   3.655   0.966  0.0000  0.0000  0.0000
  143CHX    CAF  856   0.691   3.618   1.060  0.0000  0.0000  0.0000
  143CHX    CAE  857   0.595   3.521   0.992  0.0000  0.0000  0.0000
  143CHX    CAC  858   0.671   3.395   0.948  0.0000  0.0000  0.0000
  144CHX    CAA  859   0.786   3.431   1.290  0.0000  0.0000  0.0000
  144CHX    CAB  860   0.881   3.529   1.359  0.0000  0.0000  0.0000
  144CHX    CAD  861   0.806   3.655   1.402  0.0000  0.0000  0.0000
  144CHX    CAF  862   0.691   3.618   1.496  0.0000  0.0000  0.0000
  144CHX    CAE  863   0.595   3.521   1.428  0.0000  0.0000  0.0000
  144CHX    CAC  864   0.671   3.395   1.384  0.0000  0.0000  0.0000
  145CHX    CAA  865   0.786   3.431   1.726  0.0000  0.0000  0.0000
  145CHX    CAB  866   0.881   3.529   1.795  0.0000  0.0000  0.0000
  145CHX    CAD  867   0.806   3.655   1.838  0.0000  0.0000  0.0000
  145CHX    CAF  868   0.691   3.618   1.932  0.0000  0.0000  0.0000
  145CHX    CAE  869   0.595   3.521   1.864  0.0000  0.0000  0.0000
  145CHX    CAC  870   0.671   3.395   1.820  0.0000  0.0000  0.0000
  146CHX    CAA  871   0.786   3.431   2.162  0.0000  0.0000  0.0000
  146CHX    CAB  872   0.881   3.529   2.231  0.0000  0.0000  0.0000
  146CHX    CAD  873   0.806   3.655   2.274  0.0000  0.0000  0.0000
  146CHX    CAF  874   0.691   3.618   2.368  0.0000  0.0000  0.0000
  146CHX    CAE  875   0.595   3.521   2.300  0.0000  0.0000  0.0000
  146CHX    CAC  876   0.671   3.395   2.256  0.0000  0.0000  0.0000
  147CHX    CAA  877   0.786   3.431   2.598  0.0000  0.0000  0.0000
  147CHX    CAB  878   0.881   3.529   2.667  0.0000  0.0000  0.0000
  147CHX    CAD  879   0.806   3.655   2.710  0.0000  0.0000  0.0000
  147CHX    CAF  880   0.691   3.618   2.804  0.0000  0.0000  0.0000
  147CHX    CAE  881   0.595   3.521   2.736  0.0000  0.0000  0.0000
  147CHX    CAC  882   0.671   3.395   2.692  0.0000  0.0000  0.0000
  148CHX    CAA  883   1.222   0.815  -0.018  0.0000  0.0000  0.0000
  148CHX    CAB  884   1.317   0.913   0.051  0.0000  0.0000  0.0000
  148CHX    CAD  885   1.242   1.039   0.094  0.0000  0.0000  0.0000
  148CHX    CAF  886   1.127   1.002   0.188  0.0000  0.0000  0.0000
  148CHX    CAE  887   1.031   0.905   0.120  0.0000  0.0000  0.0000
  148CHX    CAC  888   1.107   0.779   0.076  0.0000  0.0000  0.0000
  149CHX    CAA  889   1.222   0.815   0.418  0.0000  0.0000  0.0000
  149CHX    CAB  890   1.317   0.913   0.487  0.0000  0.0000  0.0000
  149CHX    CAD  891   1.242   1.039   0.530  0.0000  0.0000  0.0000
  149CHX    CAF  892   1.127   1.002   0.624  0.0000  0.0000  0.0000
  149CHX    CAE  893   1.031   0.905   0.556  0.0000  0.0000  0.0000
  149CHX    CAC  894   1.107   0.779   0.512  0.0000  0.0000  0.0000
  150CHX    CAA  895   1.222   0.815   0.854  0.0000  0.0000  0.0000
  150CHX    CAB  896   1.317   0.913   0.923  0.0000  0.0000  0.0000
  150CHX    CAD  897   1.242   1.039   0.966  0.0000  0.0000  0.0000
  150CHX    CAF  898   1.127   1.002   1.060  0.0000  0.0000  0.0000
  150CHX    CAE  899   1.031   0.905   0.992  0.0000  0.0000  0.0000
  150CHX    CAC  900   1.107   0.779   0.948  0.0000  0.0000  0.0000
  151CHX    CAA  901   1.222   0.815   1.290  0.0000  0.0000  0.0000
  151CHX    CAB  902   1.317   0.913   1.359  0.0000  0.0000  0.0000
  151CHX    CAD  903   1.242   1.039   1.402  0.0000  0.0000  0.0000
  151CHX    CAF  904   1.127   1.002   1.496  0.0000  0.0000  0.0000
  151CHX    CAE  905   1.031   0.905   1.428  0.0000  0.0000  0.0000
  151CHX    CAC  906   1.107   0.779   1.384  0.0000  0.0000  0.0000
  152CHX    CAA  907   1.222   0.815   1.726  0.0000  0.0000  0.0000
  152CHX    CAB  908   1.317   0.913   1.795  0.0000  0.0000  0.0000
  152CHX    CAD  909   1.242   1.039   1.838  0.0000  0.0000  0.0000
  152CHX    CAF  910   1.127   1.002   1.932  0.0000  0.0000  0.0000
  152CHX    CAE  911   1.031   0.905   1.864  0.0000  0.0000  0.0000
  152CHX    CAC  912   1.107   0.779   1.820  0.0000  0.0000  0.0000
  153CHX    CAA  913   1.222   0.815   2.162  0.0000  0.0000  0.0000
  153CHX    CAB  914   1.317   0.913   2.231  0.0000  0.0000  0.0000
  153CHX    CAD  915   1.242   1.039   2.274  0.0000  0.0000  0.0000
  153CHX    CAF  916   1.127   1.002   2.368  0.0000  0.0000  0.0000
  153CHX    CAE  917   1.031   0.905   2.300  0.0000  0.0000  0.0000
  153CHX    CAC  918   1.107   0.779   2.256  0.0000  0.0000  0.0000
  154CHX    CAA  919   1.222   0.815   2.598  0.0000  0.0000  0.0000
  154CHX    CAB  920   1.317   0.913   2.667  0.0000  0.0000  0.0000
  154CHX    CAD  921   1.242   1.039   2.710  0.0000  0.0000  0.0000
  154CHX    CAF  922   1.127   1.002   2.804  0.0000  0.0000  0.0000
  154CHX    CAE  923   1.031   0.905   2.736  0.0000  0.0000  0.0000
  154CHX    CAC  924   1.107   0.779   2.692  0.0000  0.0000  0.0000
  155CHX    CAA  925   1.222   1.251  -0.018  0.0000  0.0000  0.0000
  155CHX    CAB  926   1.317   1.349   0.051  0.0000  0.0000  0.0000
  155CHX    CAD  927   1.242   1.475   0.094  0.0000  0.0000  0.0000
  155CHX    CAF  928   1.127   1.438   0.188  0.0000  0.0000  0.0000
  155CHX    CAE  929   1.031   1.341   0.120  0.0000  0.0000  0.0000
  155CHX    CAC  930   1.107   1.215   0.076  0.0000  0.0000  0.0000
  156CHX    CAA  931   1.222   1.251   0.418  0.0000  0.0000  0.0000
  156CHX    CAB  932   1.317   1.349   0.487  0.0000  0.0000  0.0000
  156CHX    CAD  933   1.242   1.475   0.530  0.0000  0.0000  0.0000
  156CHX    CAF  934   1.127   1.438   0.624  0.0000  0.0000  0.0000
  156CHX    CAE  935   1.031   1.341   0.556  0.0000  0.0000  0.0000
  156CHX    CAC  936   1.107   1.215   0.512  0.0000  0.0000  0.0000
  157CHX    CAA  937   1.222   1.251   0.854  0.0000  0.0000  0.0000
  157CHX    CAB  938   1.317   1.349   0.923  0.0000  0.0000  0.0000
  157CHX    CAD  939   1.242   1.475   0.966  0.0000  0.0000  0.0000
  157CHX    CAF  940   1.127   1.438   1.060  0.0000  0.0000  0.0000
  157CHX    CAE  941   1.031   1.341   0.992  0.0000  0.0000  0.0000
  157CHX    CAC  942   1.107   1.215   0.948  0.0000  0.0000  0.0000
  158CHX    CAA  943   1.222   1.251   1.290  0.0000  0.0000  0.0000
  158CHX    CAB  944   1.317   1.349   1.359  0.0000  0.0000  0.0000
  158CHX    CAD  945   1.242   1.475   1.402  0.0000  0.0000  0.0000
  158CHX    CAF  946   1.127   1.438   1.496  0.0000  0.0000  0.0000
  158CHX    CAE  947   1.031   1.341   1.428  0.0000  0.0000  0.0000
  158CHX    CAC  948   1.107   1.215   1.384  0.0000  0.0000  0.0000
  159CHX    CAA  949   1.222   1.251   1.726  0.0000  0.0000  0.0000
  159CHX    CAB  950   1.317   1.349   1.795  0.0000  0.0000  0.0000
  159CHX    CAD  951   1.242   1.475   1.838  0.0000  0.0000  0.0000
  159CHX    CAF  952   1.127   1.438   1.932  0.0000  0.0000  0.0000
  159CHX    CAE  953   1.031   1.341   1.864  0.0000  0.0000  0.0000
  159CHX    CAC  954   1.107   1.215   1.820  0.0000  0.0000  0.0000
  160CHX    CAA  955   1.222   1.251   2.162  0.0000  0.0000  0.0000
  160CHX    CAB  956   1.317   1.349   2.231  0.0000  0.0000  0.0000
  160CHX    CAD  957   1.242   1.475   2.274  0.0000  0.0000  0.0000
  160CHX    CAF  958   1.127   1.438   2.368  0.0000  0.0000  0.0000
  160CHX    CAE  959   1.031   1.341   2.300  0.0000  0.0000  0.0000
  160CHX    CAC  960   1.107   1.215   2.256  0.0000  0.0000  0.0000
  161CHX    CAA  961   1.222   1.251   2.598  0.0000  0.0000  0.0000
  161CHX    CAB  962   1.317   1.349   2.667  0.0000  0.0000  0.0000
  161CHX    CAD  963   1.242   1.475   2.710  0.0000  0.0000  0.0000
  161CHX    CAF  964   1.127   1.438   2.804  0.0000  0.0000  0.0000
  161CHX    CAE  965   1.031   1.341   2.736  0.0000  0.0000  0.0000
  161CHX    CAC  966   1.107   1.215   2.692  0.0000  0.0000  0.0000
  162CHX    CAA  967   1.222   1.687  -0.018  0.0000  0.0000  0.0000
  162CHX    CAB  968   1.317   1.785   0.051  0.0000  0.0000  0.0000
  162CHX    CAD  969   1.242   1.911   0.094  0.0000  0.0000  0.0000
  162CHX    CAF  970   1.127   1.874   0.188  0.0000  0.0000  0.0000
  162CHX    CAE  971   1.031   1.777   0.120  0.0000  0.0000  0.0000
  162CHX    CAC  972   1.107   1.651   0.076  0.0000  0.0000  0.0000
  163CHX    CAA  973   1.222   1.687   0.418  0.0000  0.0000  0.0000
  163CHX    CAB  974   1.317   1.785   0.487  0.0000  0.0000  0.0000
  163CHX    CAD  975   1.242   1.911   0.530  0.0000  0.0000  0.0000
  163CHX    CAF  976   1.127   1.874   0.624  0.0000  0.0000  0.0000
  163CHX    CAE  977   1.031   1.777   0.556  0.0000  0.0000  0.0000
  163CHX    CAC  978   1.107   1.651   0.512  0.0000  0.0000  0.0000
  164CHX    CAA  979   1.222   1.687   0.854  0.0000  0.0000  0.0000
  164CHX    CAB  980   1.317   1.785   0.923  0.0000  0.0000  0.0000
  164CHX    CAD  981   1.242   1.911   0.966  0.0000  0.0000  0.0000
  164CHX    CAF  982   1.127   1.874   1.060  0.0000  0.0000  0.0000
  164CHX    CAE  983   1.031   1.777   0.992  0.0000  0.0000  0.0000
  164CHX    CAC  984   1.107   1.651   0.948  0.0000  0.0000  0.0000
  165CHX    CAA  985   1.222   1.687   1.290  0.0000  0.0000  0.0000
  165CHX    CAB  986   1.317   1.785   1.359  0.0000  0.0000  0.0000
  165CHX    CAD  987   1.242   1.911   1.402  0.0000  0.0000  0.0000
  165CHX    CAF  988   1.127   1.874   1.496  0.0000  0.0000  0.0000
  165CHX    CAE  989   1.031   1.777   1.428  0.0000  0.0000  0.0000
  165CHX    CAC  990   1.107   1.651   1.384  0.0000  0.0000  0.0000
  166CHX    CAA  991   1.222   1.687   1.726  0.0000  0.0000  0.0000
  166CHX    CAB  992   1.317   1.785   1.795  0.0000  0.0000  0.0000
  166CHX    CAD  993   1.242   1.911   1.838  0.0000  0.0000  0.0000
  166CHX    CAF  994   1.127   1.874   1.932  0.0000  0.0000  0.0000
  166CHX    CAE  995   1.031   1.777   1.864  0.0000  0.0000  0.0000
  166CHX    CAC  996   1.107   1.651   1.820  0.0000  0.0000  0.0000
  167CHX    CAA  997   1.222   1.687   2.162  0.0000  0.0000  0.0000
  167CHX    CAB  998   1.317   1.785   2.231  0.0000  0.0000  0.0000
  167CHX    CAD  999   1.242   1.911   2.274  0.0000  0.0000  0.0000
  167CHX    CAF 1000   1.127   1.874   2.368  0.0000  0.0000  0.0000
  167CHX    CAE 1001   1.031   1.777   2.300  0.0000  0.0000  0.0000
  167CHX    CAC 1002   1.107   1.651   2.256  0.0000  0.0000  0.0000
  168CHX    CAA 1003   1.222   1.687   2.598  0.0000  0.0000  0.0000
  168CHX    CAB 1004   1.317   1.785   2.667  0.0000  0.0000  0.0000
  168CHX    CAD 1005   1.242   1.911   2.710  0.0000  0.0000  0.0000
  168CHX    CAF 1006   1.127   1.874   2.804  0.0000  0.0000  0.0000
  168CHX    CAE 1007   1.031   1.777   2.736  0.0000  0.0000  0.0000
  168CHX    CAC 1008   1.107   1.651   2.692  0.0000  0.0000  0.0000
  169CHX    CAA 1009   1.222   2.123  -0.018  0.0000  0.0000  0.0000
  169CHX    CAB 1010   1.317   2.221   0.051  0.0000  0.0000  0.0000
  169CHX    CAD 1011   1.242   2.347   0.094  0.0000  0.0000  0.0000
  169CHX    CAF 1012   1.127   2.310   0.188  0.0000  0.0000  0.0000
  169CHX    CAE 1013   1.031   2.213   0.120  0.0000  0.0000  0.0000
  169CHX    CAC 1014   1.107   2.087   0.076  0.0000  0.0000  0.0000
  170CHX    CAA 1015   1.222   2.123   0.418  0.0000  0.0000  0.0000
  170CHX    CAB 1016   1.317   2.221   0.487  0.0000  0.0000  0.0000
  170CHX    CAD 1017   1.242   2.347   0.530  0.0000  0.0000  0.0000
  170CHX    CAF 1018   1.127   2.310   0.624  0.0000  0.0000  0.0000
  170CHX    CAE 1019   1.031   2.213   0.556  0.0000  0.0000  0.0000
  170CHX    CAC 1020   1.107   2.087   0.512  0.0000  0.0000  0.0000
  171CHX    CAA 1021   1.222   2.123   0.854  0.0000  0.0000  0.0000
  171CHX    CAB 1022   1.317   2.221   0.923  0.0000  0.0000  0.0000
  171CHX    CAD 1023   1.242   2.347   0.966  0.0000  0.0000  0.0000
  171CHX    CAF 1024   1.127   2.310   1.060  0.0000  0.0000  0.0000
  171CHX    CAE 1025   1.031   2.213   0.992  0.0000  0.0000  0.0000
  171CHX    CAC 1026   1.107   2.087   0.948  0.0000  0.0000  0.0000
  172CHX    CAA 1027   1.222   2.123   1.290  0.0000  0.0000  0.0000
  172CHX    CAB 1028   1.317   2.221   1.359  0.0000  0.0000  0.0000
  172CHX    CAD 1029   1.242   2.347   1.402  0.0000  0.0000  0.0000
  172CHX    CAF 1030   1.127   2.310   1.496  0.0000  0.0000  0.0000
  172CHX    CAE 1031   1.031   2.213   1.428  0.0000  0.0000  0.0000
  172CHX    CAC 1032   1.107   2.087   1.384  0.0000  0.0000  0.0000
  173CHX    CAA 1033   1.222   2.123   1.726  0.0000  0.0000  0.0000
  173CHX    CAB 1034   1.317   2.221   1.795  0.0000  0.0000  0.0000
  173CHX    CAD 1035   1.242   2.347   1.838  0.0000  0.0000  0.0000
  173CHX    CAF 1036   1.127   2.310   1.932  0.0000  0.0000  0.0000
  173CHX    CAE 1037   1.031   2.213   1.864  0.0000  0.0000  0.0000
  173CHX    CAC 1038   1.107   2.087   1.820  0.0000  0.0000  0.0000
  174CHX    CAA 1039   1.222   2.123   2.162  0.0000  0.0000  0.0000
  174CHX    CAB 1040   1.317   2.221   2.231  0.0000  0.0000  0.0000
  174CHX    CAD 1041   1.242   2.347   2.274  0.0000  0.0000  0.0000
  174CHX    CAF 1042   1.127   2.310   2.368  0.0000  0.0000  0.0000
  174CHX    CAE 1043   1.031   2.213   2.300  0.0000  0.0000  0.0000
  174CHX    CAC 1044   1.107   2.087   2.256  0.0000  0.0000  0.0000
  175CHX    CAA 1045   1.222   2.123   2.598  0.0000  0.0000  0.0000
  175CHX    CAB 1046   1.317   2.221   2.667  0.0000  0.0000  0.0000
  175CHX    CAD 1047   1.242   2.347   2.710  0.0000  0.0000  0.0000
  175CHX    CAF 1048   1.127   2.310   2.804  0.0000  0.0000  0.0000
  175CHX    CAE 1049   1.031   2.213   2.736  0.0000  0.0000  0.0000
  175CHX    CAC 1050   1.107   2.087   2.692  0.0000  0.0000  0.0000
  176CHX    CAA 1051   1.222   2.559  -0.018  0.0000  0.0000  0.0000
  176CHX    CAB 1052   1.317   2.657   0.051  0.0000  0.0000  0.0000
  176CHX    CAD 1053   1.242   2.783   0.094  0.0000  0.0000  0.0000
  176CHX    CAF 1054   1.127   2.746   0.188  0.0000  0.0000  0.0000
  176CHX    CAE 1055   1.031   2.649   0.120  0.0000  0.0000  0.0000
  176CHX    CAC 1056   1.107   2.523   0.076  0.0000  0.0000  0.0000
  177CHX    CAA 1057   1.222   2.559   0.418  0.0000  0.0000  0.0000
  177CHX    CAB 1058   1.317   2.657   0.487  0.0000  0.0000  0.0000
  177CHX    CAD 1059   1.242   2.783   0.530  0.0000  0.0000  0.0000
  177CHX    CAF 1060   1.127   2.746   0.624  0.0000  0.0000  0.0000
  177CHX    CAE 1061   1.031   2.649   0.556  0.0000  0.0000  0.0000
  177CHX    CAC 1062   1.107   2.523   0.512  0.0000  0.0000  0.0000
  178CHX    CAA 1063   1.222   2.559   0.854  0.0000  0.0000  0.0000
  178CHX    CAB 1064   1.317   2.657   0.923  0.0000  0.0000  0.0000
  178CHX    CAD 1065   1.242   2.783   0.966  0.0000  0.0000  0.0000
  178CHX    CAF 1066   1.127   2.746   1.060  0.0000  0.0000  0.0000
  178CHX    CAE 1067   1.031   2.649   0.992  0.0000  0.0000  0.0000
  178CHX    CAC 1068   1.107   2.523   0.948  0.0000  0.0000  0.0000
  179CHX    CAA 1069   1.222   2.559   1.290  0.0000  0.0000  0.0000
  179CHX    CAB 1070   1.317   2.657   1.359  0.0000  0.0000  0.0000
  179CHX    CAD 1071   1.242   2.783   1.402  0.0000  0.0000  0.0000
  179CHX    CAF 1072   1.127   2.746   1.496  0.0000  0.0000  0.0000
  179CHX    CAE 1073   1.031   2.649   1.428  0.0000  0.0000  0.0000
  179CHX    CAC 1074   1.107   2.523   1.384  0.0000  0.0000  0.0000
  180CHX    CAA 1075   1.222   2.559   1.726  0.0000  0.0000  0.0000
  180CHX    CAB 1076   1.317   2.657   1.795  0.0000  0.0000  0.0000
  180CHX    CAD 1077   1.242   2.783   1.838  0.0000  0.0000  0.0000
  180CHX    CAF 1078   1.127   2.746   1.932  0.0000  0.0000  0.0000
  180CHX    CAE 1079   1.031   2.649   1.864  0.0000  0.0000  0.0000
  180CHX    CAC 1080   1.107   2.523   1.820  0.0000  0.0000  0.0000
  181CHX    CAA 1081   1.222   2.559   2.162  0.0000  0.0000  0.0000
  181CHX    CAB 1082   1.317   2.657   2.231  0.0000  0.0000  0.0000
  181CHX    CAD 1083   1.242   2.783   2.274  0.0000  0.0000  0.0000
  181CHX    CAF 1084   1.127   2.746   2.368  0.0000  0.0000  0.0000
  181CHX    CAE 1085   1.031   2.649   2.300  0.0000  0.0000  0.0000
  181CHX    CAC 1086   1.107   2.523   2.256  0.0000  0.0000  0.0000
  182CHX    CAA 1087   1.222   2.559   2.598  0.0000  0.0000  0.0000
  182CHX    CAB 1088   1.317   2.657   2.667  0.0000  0.0000  0.0000
  182CHX    CAD 1089   1.242   2.783   2.710  0.0000  0.0000  0.0000
  182CHX    CAF 1090   1.127   2.746   2.804  0.0000  0.0000  0.0000
  182CHX    CAE 1091   1.031   2.649   2.736  0.0000  0.0000  0.0000
  182CHX    CAC 1092   1.107   2.523   2.692  0.0000  0.0000  0.0000
  183CHX    CAA 1093   1.222   2.995  -0.018  0.0000  0.0000  0.0000
  183CHX    CAB 1094   1.317   3.093   0.051  0.0000  0.0000  0.0000
  183CHX    CAD 1095   1.242   3.219   0.094  0.0000  0.0000  0.0000
  183CHX    CAF 1096   1.127   3.182   0.188  0.0000  0.0000  0.0000
  183CHX    CAE 1097   1.031   3.085   0.120  0.0000  0.0000  0.0000
  183CHX    CAC 1098   1.107   2.959   0.076  0.0000  0.0000  0.0000
  184CHX    CAA 1099   1.222   2.995   0.418  0.0000  0.0000  0.0000
  184CHX    CAB 1100   1.317   3.093   0.487  0.0000  0.0000  0.0000
  184CHX    CAD 1101   1.242   3.219   0.530  0.0000  0.0000  0.0000
  184CHX    CAF 1102   1.127   3.182   0.624  0.0000  0.0000  0.0000
  184CHX    CAE 1103   1.031   3.085   0.556  0.0000  0.0000  0.0000
  184CHX    CAC 1104   1.107   2.959   0.512  0.0000  0.0000  0.0000
  185CHX    CAA 1105   1.222   2.995   0.854  0.0000  0.0000  0.0000
  185CHX    CAB 1106   1.317   3.093   0.923  0.0000  0.0000  0.0000
  185CHX    CAD 1107   1.242   3.219   0.966  0.0000  0.0000  0.0000
  185CHX    CAF 1108   1.127   3.182   1.060  0.0000  0.0000  0.0000
  185CHX    CAE 1109   1.031   3.085   0.992  0.0000  0.0000  0.0000
  185CHX    CAC 1110   1.107   2.959   0.948  0.0000  0.0000  0.0000
  186CHX    CAA 1111   1.222   2.995   1.290  0.0000  0.0000  0.0000
  186CHX    CAB 1112   1.317   3.093   1.359  0.0000  0.0000  0.0000
  186CHX    CAD 1113   1.242   3.219   1.402  0.0000  0.0000  0.0000
  186CHX    CAF 1114   1.127   3.182   1.496  0.0000  0.0000  0.0000
  186CHX    CAE 1115   1.031   3.085   1.428  0.0000  0.0000  0.0000
  186CHX    CAC 1116   1.107   2.959   1.384  0.0000  0.0000  0.0000
  187CHX    CAA 1117   1.222   2.995   1.726  0.0000  0.0000  0.0000
  187CHX    CAB 1118   1.317   3.093   1.795  0.0000  0.0000  0.0000
  187CHX    CAD 1119   1.242   3.219   1.838  0.0000  0.0000  0.0000
  187CHX    CAF 1120   1.127   3.182   1.932  0.0000  0.0000  0.0000
  187CHX    CAE 1121   1.031   3.085   1.864  0.0000  0.0000  0.0000
  187CHX    CAC 1122   1.107   2.959   1.820  0.0000  0.0000  0.0000
  188CHX    CAA 1123   1.222   2.995   2.162  0.0000  0.0000  0.0000
  188CHX    CAB 1124   1.317   3.093   2.231  0.0000  0.0000  0.0000
  188CHX    CAD 1125   1.242   3.219   2.274  0.0000  0.0000  0.0000
  188CHX    CAF 1126   1.127   3.182   2.368  0.0000  0.0000  0.0000
  188CHX    CAE 1127   1.031   3.085   2.300  0.0000  0.0000  0.0000
  188CHX    CAC 1128   1.107   2.959   2.256  0.0000  0.0000  0.0000
  189CHX    CAA 1129   1.222   2.995   2.598  0.0000  0.0000  0.0000
  189CHX    CAB 1130   1.317   3.093   2.667  0.0000  0.0000  0.0000
  189CHX    CAD 1131   1.242   3.219   2.710  0.0000  0.0000  0.0000
  189CHX    CAF 1132   1.127   3.182   2.804  0.0000  0.0000  0.0000
  189CHX    CAE 1133   1.031   3.085   2.736  0.0000  0.0000  0.0000
  189CHX    CAC 1134   1.107   2.959   2.692  0.0000  0.0000  0.0000
  190CHX    CAA 1135   1.222   3.431  -0.018  0.0000  0.0000  0.0000
  190CHX    CAB 1136   1.317   3.529   0.051  0.0000  0.0000  0.0000
  190CHX    CAD 1137   1.242   3.655   0.094  0.0000  0.0000  0.0000
  190CHX    CAF 1138   1.127   3.618   0.188  0.0000  0.0000  0.0000
  190CHX    CAE 1139   1.031   3.521   0.120  0.0000  0.0000  0.0000
  190CHX    CAC 1140   1.107   3.395   0.076  0.0000  0.0000  0.0000
  191CHX    CAA 1141   1.222   3.431   0.418  0.0000  0.0000  0.0000
  191CHX    CAB 1142   1.317   3.529   0.487  0.0000  0.0000  0.0000
  191CHX    CAD 1143   1.242   3.655   0.530  0.0000  0.0000  0.0000
  191CHX    CAF 1144   1.127   3.618   0.624  0.0000  0.0000  0.0000
  191CHX    CAE 1145   1.031   3.521   0.556  0.0000  0.0000  0.0000
  191CHX    CAC 1146   1.107   3.395   0.512  0.0000  0.0000  0.0000
  192CHX    CAA 1147   1.222   3.431   0.854  0.0000  0.0000  0.0000
  192CHX    CAB 1148   1.317   3.529   0.923  0.0000  0.0000  0.0000
  192CHX    CAD 1149   1.242   3.655   0.966  0.0000  0.0000  0.0000
  192CHX    CAF 1150   1.127   3.618   1.060  0.0000  0.0000  0.0000
  192CHX    CAE 1151   1.031   3.521   0.992  0.0000  0.0000  0.0000
  192CHX    CAC 1152   1.107   3.395   0.948  0.0000  0.0000  0.0000
  193CHX    CAA 1153   1.222   3.431   1.290  0.0000  0.0000  0.0000
  193CHX    CAB 1154   1.317   3.529   1.359  0.0000  0.0000  0.0000
  193CHX    CAD 1155   1.242   3.655   1.402  0.0000  0.0000  0.0000
  193CHX    CAF 1156   1.127   3.618   1.496  0.0000  0.0000  0.0000
  193CHX    CAE 1157   1.031   3.521   1.428  0.0000  0.0000  0.0000
  193CHX    CAC 1158   1.107   3.395   1.384  0.0000  0.0000  0.0000
  194CHX    CAA 1159   1.222   3.431   1.726  0.0000  0.0000  0.0000
  194CHX    CAB 1160   1.317   3.529   1.795  0.0000  0.0000  0.0000
  194CHX    CAD 1161   1.242   3.655   1.838  0.0000  0.0000  0.0000
  194CHX    CAF 1162   1.127   3.618   1.932  0.0000  0.0000  0.0000
  194CHX    CAE 1163   1.031   3.521   1.864  0.0000  0.0000  0.0000
  194CHX    CAC 1164   1.107   3.395   1.820  0.0000  0.0000  0.0000
  195CHX    CAA 1165   1.222   3.431   2.162  0.0000  0.0000  0.0000
  195CHX    CAB 1166   1.317   3.529   2.231  0.0000  0.0000  0.0000
  195CHX    CAD 1167   1.242   3.655   2.274  0.0000  0.0000  0.0000
  195CHX    CAF 1168   1.127   3.618   2.368  0.0000  0.0000  0.0000
  195CHX    CAE 1169   1.031   3.521   2.300  0.0000  0.0000  0.0000
  195CHX    CAC 1170   1.107   3.395   2.256  0.0000  0.0000  0.0000
  196CHX    CAA 1171   1.222   3.431   2.598  0.0000  0.0000  0.0000
  196CHX    CAB 1172   1.317   3.529   2.667  0.0000  0.0000  0.0000
  196CHX    CAD 1173   1.242   3.655   2.710  0.0000  0.0000  0.0000
  196CHX    CAF 1174   1.127   3.618   2.804  0.0000  0.0000  0.0000
  196CHX    CAE 1175   1.031   3.521   2.736  0.0000  0.0000  0.0000
  196CHX    CAC 1176   1.107   3.395   2.692  0.0000  0.0000  0.0000
  197CHX    CAA 1177   1.658   0.815  -0.018  0.0000  0.0000  0.0000
  197CHX    CAB 1178   1.753   0.913   0.051  0.0000  0.0000  0.0000
  197CHX    CAD 1179   1.678   1.039   0.094  0.0000  0.0000  0.0000
  197CHX    CAF 1180   1.563   1.002   0.188  0.0000  0.0000  0.0000
  197CHX    CAE 1181   1.467   0.905   0.120  0.0000  0.0000  0.0000
  197CHX    CAC 1182   1.543   0.779   0.076  0.0000  0.0000  0.0000
  198CHX    CAA 1183   1.658   0.815   0.418  0.0000  0.0000  0.0000
  198CHX    CAB 1184   1.753   0.913   0.487  0.0000  0.0000  0.0000
  198CHX    CAD 1185   1.678   1.039   0.530  0.0000  0.0000  0.0000
  198CHX    CAF 1186   1.563   1.002   0.624  0.0000  0.0000  0.0000
  198CHX    CAE 1187   1.467   0.905   0.556  0.0000  0.0000  0.0000
  198CHX    CAC 1188   1.543   0.779   0.512  0.0000  0.0000  0.0000
  199CHX    CAA 1189   1.658   0.815   0.854  0.0000  0.0000  0.0000
  199CHX    CAB 1190   1.753   0.913   0.923  0.0000  0.0000  0.0000
  199CHX    CAD 1191   1.678   1.039   0.966  0.0000  0.0000  0.0000
  199CHX    CAF 1192   1.563   1.002   1.060  0.0000  0.0000  0.0000
  199CHX    CAE 1193   1.467   0.905   0.992  0.0000  0.0000  0.0000
  199CHX    CAC 1194   1.543   0.779   0.948  0.0000  0.0000  0.0000
  200CHX    CAA 1195   1.658   0.815   1.290  0.0000  0.0000  0.0000
  200CHX    CAB 1196   1.753   0.913   1.359  0.0000  0.0000  0.0000
  200CHX    CAD 1197   1.678   1.039   1.402  0.0000  0.0000  0.0000
  200CHX    CAF 1198   1.563   1.002   1.496  0.0000  0.0000  0.0000
  200CHX    CAE 1199   1.467   0.905   1.428  0.0000  0.0000  0.0000
  200CHX    CAC 1200   1.543   0.779   1.384  0.0000  0.0000  0.0000
  201CHX    CAA 1201   1.658   0.815   1.726  0.0000  0.0000  0.0000
  201CHX    CAB 1202   1.753   0.913   1.795  0.0000  0.0000  0.0000
  201CHX    CAD 1203   1.678   1.039   1.838  0.0000  0.0000  0.0000
  201CHX    CAF 1204   1.563   1.002   1.932  0.0000  0.0000  0.0000
  201CHX    CAE 1205   1.467   0.905   1.864  0.0000  0.0000  0.0000
  201CHX    CAC 1206   1.543   0.779   1.820  0.0000  0.0000  0.0000
  202CHX    CAA 1207   1.658   0.815   2.162  0.0000  0.0000  0.0000
  202CHX    CAB 1208   1.753   0.913   2.231  0.0000  0.0000  0.0000
  202CHX    CAD 1209   1.678   1.039   2.274  0.0000  0.0000  0.0000
  202CHX    CAF 1210   1.563   1.002   2.368  0.0000  0.0000  0.0000
  202CHX    CAE 1211   1.467   0.905   2.300  0.0000  0.0000  0.0000
  202CHX    CAC 1212   1.543   0.779   2.256  0.0000  0.0000  0.0000
  203CHX    CAA 1213   1.658   0.815   2.598  0.0000  0.0000  0.0000
  203CHX    CAB 1214   1.753   0.913   2.667  0.0000  0.0000  0.0000
  203CHX    CAD 1215   1.678   1.039   2.710  0.0000  0.0000  0.0000
  203CHX    CAF 1216   1.563   1.002   2.804  0.0000  0.0000  0.0000
  203CHX    CAE 1217   1.467   0.905   2.736  0.0000  0.0000  0.0000
  203CHX    CAC 1218   1.543   0.779   2.692  0.0000  0.0000  0.0000
  204CHX    CAA 1219   1.658   1.251  -0.018  0.0000  0.0000  0.0000
  204CHX    CAB 1220   1.753   1.349   0.051  0.0000  0.0000  0.0000
  204CHX    CAD 1221   1.678   1.475   0.094  0.0000  0.0000  0.0000
  204CHX    CAF 1222   1.563   1.438   0.188  0.0000  0.0000  0.0000
  204CHX    CAE 1223   1.467   1.341   0.120  0.0000  0.0000  0.0000
  204CHX    CAC 1224   1.543   1.215   0.076  0.0000  0.0000  0.0000
  205CHX    CAA 1225   1.658   1.251   0.418  0.0000  0.0000  0.0000
  205CHX    CAB 1226   1.753   1.349   0.487  0.0000  0.0000  0.0000
  205CHX    CAD 1227   1.678   1.475   0.530  0.0000  0.0000  0.0000
  205CHX    CAF 1228   1.563   1.438   0.624  0.0000  0.0000  0.0000
  205CHX    CAE 1229   1.467   1.341   0.556  0.0000  0.0000  0.0000
  205CHX    CAC 1230   1.543   1.215   0.512  0.0000  0.0000  0.0000
  206CHX    CAA 1231   1.658   1.251   0.854  0.0000  0.0000  0.0000
  206CHX    CAB 1232   1.753   1.349   0.923  0.0000  0.0000  0.0000
  206CHX    CAD 1233   1.678   1.475   0.966  0.0000  0.0000  0.0000
  206CHX    CAF 1234   1.563   1.438   1.060  0.0000  0.0000  0.0000
  206CHX    CAE 1235   1.467   1.341   0.992  0.0000  0.0000  0.0000
  206CHX    CAC 1236   1.543   1.215   0.948  0.0000  0.0000  0.0000
  207CHX    CAA 1237   1.658   1.251   1.290  0.0000  0.0000  0.0000
  207CHX    CAB 1238   1.753   1.349   1.359  0.0000  0.0000  0.0000
  207CHX    CAD 1239   1.678   1.475   1.402  0.0000  0.0000  0.0000
  207CHX    CAF 1240   1.563   1.438   1.496  0.0000  0.0000  0.0000
  207CHX    CAE 1241   1.467   1.341   1.428  0.0000  0.0000  0.0000
  207CHX    CAC 1242   1.543   1.215   1.384  0.0000  0.0000  0.0000
  208CHX    CAA 1243   1.658   1.251   1.726  0.0000  0.0000  0.0000
  208CHX    CAB 1244   1.753   1.349   1.795  0.0000  0.0000  0.0000
  208CHX    CAD 1245   1.678   1.475   1.838  0.0000  0.0000  0.0000
  208CHX    CAF 1246   1.563   1.438   1.932  0.0000  0.0000  0.0000
  208CHX    CAE 1247   1.467   1.341   1.864  0.0000  0.0000  0.0000
  208CHX    CAC 1248   1.543   1.215   1.820  0.0000  0.0000  0.0000
  209CHX    CAA 1249   1.658   1.251   2.162  0.0000  0.0000  0.0000
  209CHX    CAB 1250   1.753   1.349   2.231  0.0000  0.0000  0.0000
  209CHX    CAD 1251   1.678   1.475   2.274  0.0000  0.0000  0.0000
  209CHX    CAF 1252   1.563   1.438   2.368  0.0000  0.0000  0.0000
  209CHX    CAE 1253   1.467   1.341   2.300  0.0000  0.0000  0.0000
  209CHX    CAC 1254   1.543   1.215   2.256  0.0000  0.0000  0.0000
  210CHX    CAA 1255   1.658   1.251   2.598  0.0000  0.0000  0.0000
  210CHX    CAB 1256   1.753   1.349   2.667  0.0000  0.0000  0.0000
  210CHX    CAD 1257   1.678   1.475   2.710  0.0000  0.0000  0.0000
  210CHX    CAF 1258   1.563   1.438   2.804  0.0000  0.0000  0.0000
  210CHX    CAE 1259   1.467   1.341   2.736  0.0000  0.0000  0.0000
  210CHX    CAC 1260   1.543   1.215   2.692  0.0000  0.0000  0.0000
  211CHX    CAA 1261   1.658   1.687  -0.018  0.0000  0.0000  0.0000
  211CHX    CAB 1262   1.753   1.785   0.051  0.0000  0.0000  0.0000
  211CHX    CAD 1263   1.678   1.911   0.094  0.0000  0.0000  0.0000
  211CHX    CAF 1264   1.563   1.874   0.188  0.0000  0.0000  0.0000
  211CHX    CAE 1265   1.467   1.777   0.120  0.0000  0.0000  0.0000
  211CHX    CAC 1266   1.543   1.651   0.076  0.0000  0.0000  0.0000
  212CHX    CAA 1267   1.658   1.687   0.418  0.0000  0.0000  0.0000
  212CHX    CAB 1268   1.753   1.785   0.487  0.0000  0.0000  0.0000
  212CHX    CAD 1269   1.678   1.911   0.530  0.0000  0.0000  0.0000
  212CHX    CAF 1270   1.563   1.874   0.624  0.0000  0.0000  0.0000
  212CHX    CAE 1271   1.467   1.777   0.556  0.0000  0.0000  0.0000
  212CHX    CAC 1272   1.543   1.651   0.512  0.0000  0.0000  0.0000
  213CHX    CAA 1273   1.658   1.687   0.854  0.0000  0.0000  0.0000
  213CHX    CAB 1274   1.753   1.785   0.923  0.0000  0.0000  0.0000
  213CHX    CAD 1275   1.678   1.911   0.966  0.0000  0.0000  0.0000
  213CHX    CAF 1276   1.563   1.874   1.060  0.0000  0.0000  0.0000
  213CHX    CAE 1277   1.467   1.777   0.992  0.0000  0.0000  0.0000
  213CHX    CAC 1278   1.543   1.651   0.948  0.0000  0.0000  0.0000
  214CHX    CAA 1279   1.658   1.687   1.290  0.0000  0.0000  0.0000
  214CHX    CAB 1280   1.753   1.785   1.359  0.0000  0.0000  0.0000
  214CHX    CAD 1281   1.678   1.911   1.402  0.0000  0.0000  0.0000
  214CHX    CAF 1282   1.563   1.874   1.496  0.0000  0.0000  0.0000
  214CHX    CAE 1283   1.467   1.777   1.428  0.0000  0.0000  0.0000
  214CHX    CAC 1284   1.543   1.651   1.384  0.0000  0.0000  0.0000
  215CHX    CAA 1285   1.658   1.687   1.726  0.0000  0.0000  0.0000
  215CHX    CAB 1286   1.753   1.785   1.795  0.0000  0.0000  0.0000
  215CHX    CAD 1287   1.678   1.911   1.838  0.0000  0.0000  0.0000
  215CHX    CAF 1288   1.563   1.874   1.932  0.0000  0.0000  0.0000
  215CHX    CAE 1289   1.467   1.777   1.864  0.0000  0.0000  0.0000
  215CHX    CAC 1290   1.543   1.651   1.820  0.0000  0.0000  0.0000
  216CHX    CAA 1291   1.658   1.687   2.162  0.0000  0.0000  0.0000
  216CHX    CAB 1292   1.753   1.785   2.231  0.0000  0.0000  0.0000
  216CHX    CAD 1293   1.678   1.911   2.274  0.0000  0.0000  0.0000
  216CHX    CAF 1294   1.563   1.874   2.368  0.0000  0.0000  0.0000
  216CHX    CAE 1295   1.467   1.777   2.300  0.0000  0.0000  0.0000
  216CHX    CAC 1296   1.543   1.651   2.256  0.0000  0.0000  0.0000
  217CHX    CAA 1297   1.658   1.687   2.598  0.0000  0.0000  0.0000
  217CHX    CAB 1298   1.753   1.785   2.667  0.0000  0.0000  0.0000
  217CHX    CAD 1299   1.678   1.911   2.710  0.0000  0.0000  0.0000
  217CHX    CAF 1300   1.563   1.874   2.804  0.0000  0.0000  0.0000
  217CHX    CAE 1301   1.467   1.777   2.736  0.0000  0.0000  0.0000
  217CHX    CAC 1302   1.543   1.651   2.692  0.0000  0.0000  0.0000
  218CHX    CAA 1303   1.658   2.123  -0.018  0.0000  0.0000  0.0000
  218CHX    CAB 1304   1.753   2.221   0.051  0.0000  0.0000  0.0000
  218CHX    CAD 1305   1.678   2.347   0.094  0.0000  0.0000  0.0000
  218CHX    CAF 1306   1.563   2.310   0.188  0.0000  0.0000  0.0000
  218CHX    CAE 1307   1.467   2.213   0.120  0.0000  0.0000  0.0000
  218CHX    CAC 1308   1.543   2.087   0.076  0.0000  0.0000  0.0000
  219CHX    CAA 1309   1.658   2.123   0.418  0.0000  0.0000  0.0000
  219CHX    CAB 1310   1.753   2.221   0.487  0.0000  0.0000  0.0000
  219CHX    CAD 1311   1.678   2.347   0.530  0.0000  0.0000  0.0000
  219CHX    CAF 1312   1.563   2.310   0.624  0.0000  0.0000  0.0000
  219CHX    CAE 1313   1.467   2.213   0.556  0.0000  0.0000  0.0000
  219CHX    CAC 1314   1.543   2.087   0.512  0.0000  0.0000  0.0000
  220CHX    CAA 1315   1.658   2.123   0.854  0.0000  0.0000  0.0000
  220CHX    CAB 1316   1.753   2.221   0.923  0.0000  0.0000  0.0000
  220CHX    CAD 1317   1.678   2.347   0.966  0.0000  0.0000  0.0000
  220CHX    CAF 1318   1.563   2.310   1.060  0.0000  0.0000  0.0000
  220CHX    CAE 1319   1.467   2.213   0.992  0.0000  0.0000  0.0000
  220CHX    CAC 1320   1.543   2.087   0.948  0.0000  0.0000  0.0000
  221CHX    CAA 1321   1.658   2.123   1.290  0.0000  0.0000  0.0000
  221CHX    CAB 1322   1.753   2.221   1.359  0.0000  0.0000  0.0000
  221CHX    CAD 1323   1.678   2.347   1.402  0.0000  0.0000  0.0000
  221CHX    CAF 1324   1.563   2.310   1.496  0.0000  0.0000  0.0000
  221CHX    CAE 1325   1.467   2.213   1.428  0.0000  0.0000  0.0000
  221CHX    CAC 1326   1.543   2.087   1.384  0.0000  0.0000  0.0000
  222CHX    CAA 1327   1.658   2.123   1.726  0.0000  0.0000  0.0000
  222CHX    CAB 1328   1.753   2.221   1.795  0.0000  0.0000  0.0000
  222CHX    CAD 1329   1.678   2.347   1.838  0.0000  0.0000  0.0000
  222CHX    CAF 1330   1.563   2.310   1.932  0.0000  0.0000  0.0000
  222CHX    CAE 1331   1.467   2.213   1.864  0.0000  0.0000  0.0000
  222CHX    CAC 1332   1.543   2.087   1.820  0.0000  0.0000  0.0000
  223CHX    CAA 1333   1.658   2.123   2.162  0.0000  0.0000  0.0000
  223CHX    CAB 1334   1.753   2.221   2.231  0.0000  0.0000  0.0000
  223CHX    CAD 1335   1.678   2.347   2.274  0.0000  0.0000  0.0000
  223CHX    CAF 1336   1.563   2.310   2.368  0.0000  0.0000  0.0000
  223CHX    CAE 1337   1.467   2.213   2.300  0.0000  0.0000  0.0000
  223CHX    CAC 1338   1.543   2.087   2.256  0.0000  0.0000  0.0000
  224CHX    CAA 1339   1.658   2.123   2.598  0.0000  0.0000  0.0000
  224CHX    CAB 1340   1.753   2.221   2.667  0.0000  0.0000  0.0000
  224CHX    CAD 1341   1.678   2.347   2.710  0.0000  0.0000  0.0000
  224CHX    CAF 1342   1.563   2.310   2.804  0.0000  0.0000  0.0000
  224CHX    CAE 1343   1.467   2.213   2.736  0.0000  0.0000  0.0000
  224CHX    CAC 1344   1.543   2.087   2.692  0.0000  0.0000  0.0000
  225CHX    CAA 1345   1.658   2.559  -0.018  0.0000  0.0000  0.0000
  225CHX    CAB 1346   1.753   2.657   0.051  0.0000  0.0000  0.0000
  225CHX    CAD 1347   1.678   2.783   0.094  0.0000  0.0000  0.0000
  225CHX    CAF 1348   1.563   2.746   0.188  0.0000  0.0000  0.0000
  225CHX    CAE 1349   1.467   2.649   0.120  0.0000  0.0000  0.0000
  225CHX    CAC 1350   1.543   2.523   0.076  0.0000  0.0000  0.0000
  226CHX    CAA 1351   1.658   2.559   0.418  0.0000  0.0000  0.0000
  226CHX    CAB 1352   1.753   2.657   0.487  0.0000  0.0000  0.0000
  226CHX    CAD 1353   1.678   2.783   0.530  0.0000  0.0000  0.0000
  226CHX    CAF 1354   1.563   2.746   0.624  0.0000  0.0000  0.0000
  226CHX    CAE 1355   1.467   2.649   0.556  0.0000  0.0000  0.0000
  226CHX    CAC 1356   1.543   2.523   0.512  0.0000  0.0000  0.0000
  227CHX    CAA 1357   1.658   2.559   0.854  0.0000  0.0000  0.0000
  227CHX    CAB 1358   1.753   2.657   0.923  0.0000  0.0000  0.0000
  227CHX    CAD 1359   1.678   2.783   0.966  0.0000  0.0000  0.0000
  227CHX    CAF 1360   1.563   2.746   1.060  0.0000  0.0000  0.0000
  227CHX    CAE 1361   1.467   2.649   0.992  0.0000  0.0000  0.0000
  227CHX    CAC 1362   1.543   2.523   0.948  0.0000  0.0000  0.0000
  228CHX    CAA 1363   1.658   2.559   1.290  0.0000  0.0000  0.0000
  228CHX    CAB 1364   1.753   2.657   1.359  0.0000  0.0000  0.0000
  228CHX    CAD 1365   1.678   2.783   1.402  0.0000  0.0000  0.0000
  228CHX    CAF 1366   1.563   2.746   1.496  0.0000  0.0000  0.0000
  228CHX    CAE 1367   1.467   2.649   1.428  0.0000  0.0000  0.0000
  228CHX    CAC 1368   1.543   2.523   1.384  0.0000  0.0000  0.0000
  229CHX    CAA 1369   1.658   2.559   1.726  0.0000  0.0000  0.0000
  229CHX    CAB 1370   1.753   2.657   1.795  0.0000  0.0000  0.0000
  229CHX    CAD 1371   1.678   2.783   1.838  0.0000  0.0000  0.0000
  229CHX    CAF 1372   1.563   2.746   1.932  0.0000  0.0000  0.0000
  229CHX    CAE 1373   1.467   2.649   1.864  0.0000  0.0000  0.0000
  229CHX    CAC 1374   1.543   2.523   1.820  0.0000  0.0000  0.0000
  230CHX    CAA 1375   1.658   2.559   2.162  0.0000  0.0000  0.0000
  230CHX    CAB 1376   1.753   2.657   2.231  0.0000  0.0000  0.0000
  230CHX    CAD 1377   1.678   2.783   2.274  0.0000  0.0000  0.0000
  230CHX    CAF 1378   1.563   2.746   2.368  0.0000  0.0000  0.0000
  230CHX    CAE 1379   1.467   2.649   2.300  0.0000  0.0000  0.0000
  230CHX    CAC 1380   1.543   2.523   2.256  0.0000  0.0000  0.0000
  231CHX    CAA 1381   1.658   2.559   2.598  0.0000  0.0000  0.0000
  231CHX    CAB 1382   1.753   2.657   2.667  0.0000  0.0000  0.0000
  231CHX    CAD 1383   1.678   2.783   2.710  0.0000  0.0000  0.0000
  231CHX    CAF 1384   1.563   2.746   2.804  0.0000  0.0000  0.0000
  231CHX    CAE 1385   1.467   2.649   2.736  0.0000  0.0000  0.0000
  231CHX    CAC 1386   1.543   2.523   2.692  0.0000  0.0000  0.0000
  232CHX    CAA 1387   1.658   2.995  -0.018  0.0000  0.0000  0.0000
  232CHX    CAB 1388   1.753   3.093   0.051  0.0000  0.0000  0.0000
  232CHX    CAD 1389   1.678   3.219   0.094  0.0000  0.0000  0.0000
  232CHX    CAF 1390   1.563   3.182   0.188  0.0000  0.0000  0.0000
  232CHX    CAE 1391   1.467   3.085   0.120  0.0000  0.0000  0.0000
  232CHX    CAC 1392   1.543   2.959   0.076  0.0000  0.0000  0.0000
  233CHX    CAA 1393   1.658   2.995   0.418  0.0000  0.0000  0.0000
  233CHX    CAB 1394   1.753   3.093   0.487  0.0000  0.0000  0.0000
  233CHX    CAD 1395   1.678   3.219   0.530  0.0000  0.0000  0.0000
  233CHX    CAF 1396   1.563   3.182   0.624  0.0000  0.0000  0.0000
  233CHX    CAE 1397   1.467   3.085   0.556  0.0000  0.0000  0.0000
  233CHX    CAC 1398   1.543   2.959   0.512  0.0000  0.0000  0.0000
  234CHX    CAA 1399   1.658   2.995   0.854  0.0000  0.0000  0.0000
  234CHX    CAB 1400   1.753   3.093   0.923  0.0000  0.0000  0.0000
  234CHX    CAD 1401   1.678   3.219   0.966  0.0000  0.0000  0.0000
  234CHX    CAF 1402   1.563   3.182   1.060  0.0000  0.0000  0.0000
  234CHX    CAE 1403   1.467   3.085   0.992  0.0000  0.0000  0.0000
  234CHX    CAC 1404   1.543   2.959   0.948  0.0000  0.0000  0.0000
  235CHX    CAA 1405   1.658   2.995   1.290  0.0000  0.0000  0.0000
  235CHX    CAB 1406   1.753   3.093   1.359  0.0000  0.0000  0.0000
  235CHX    CAD 1407   1.678   3.219   1.402  0.0000  0.0000  0.0000
  235CHX    CAF 1408   1.563   3.182   1.496  0.0000  0.0000  0.0000
  235CHX    CAE 1409   1.467   3.085   1.428  0.0000  0.0000  0.0000
  235CHX    CAC 1410   1.543   2.959   1.384  0.0000  0.0000  0.0000
  236CHX    CAA 1411   1.658   2.995   1.726  0.0000  0.0000  0.0000
  236CHX    CAB 1412   1.753   3.093   1.795  0.0000  0.0000  0.0000
  236CHX    CAD 1413   1.678   3.219   1.838  0.0000  0.0000  0.0000
  236CHX    CAF 1414   1.563   3.182   1.932  0.0000  0.0000  0.0000
  236CHX    CAE 1415   1.467   3.085   1.864  0.0000  0.0000  0.0000
  236CHX    CAC 1416   1.543   2.959   1.820  0.0000  0.0000  0.0000
  237CHX    CAA 1417   1.658   2.995   2.162  0.0000  0.0000  0.0000
  237CHX    CAB 1418   1.753   3.093   2.231  0.0000  0.0000  0.0000
  237CHX    CAD 1419   1.678   3.219   2.274  0.0000  0.0000  0.0000
  237CHX    CAF 1420   1.563   3.182   2.368  0.0000  0.0000  0.0000
  237CHX    CAE 1421   1.467   3.085   2.300  0.0000  0.0000  0.0000
  237CHX    CAC 1422   1.543   2.959   2.256  0.0000  0.0000  0.0000
  238CHX    CAA 1423   1.658   2.995   2.598  0.0000  0.0000  0.0000
  238CHX    CAB 1424   1.753   3.093   2.667  0.0000  0.0000  0.0000
  238CHX    CAD 1425   1.678   3.219   2.710  0.0000  0.0000  0.0000
  238CHX    CAF 1426   1.563   3.182   2.804  0.0000  0.0000  0.0000
  238CHX    CAE 1427   1.467   3.085   2.736  0.0000  0.0000  0.0000
  238CHX    CAC 1428   1.543   2.959   2.692  0.0000  0.0000  0.0000
  239CHX    CAA 1429   1.658   3.431  -0.018  0.0000  0.0000  0.0000
  239CHX    CAB 1430   1.753   3.529   0.051  0.0000  0.0000  0.0000
  239CHX    CAD 1431   1.678   3.655   0.094  0.0000  0.0000  0.0000
  239CHX    CAF 1432   1.563   3.618   0.188  0.0000  0.0000  0.0000
  239CHX    CAE 1433   1.467   3.521   0.120  0.0000  0.0000  0.0000
  239CHX    CAC 1434   1.543   3.395   0.076  0.0000  0.0000  0.0000
  240CHX    CAA 1435   1.658   3.431   0.418  0.0000  0.0000  0.0000
  240CHX    CAB 1436   1.753   3.529   0.487  0.0000  0.0000  0.0000
  240CHX    CAD 1437   1.678   3.655   0.530  0.0000  0.0000  0.0000
  240CHX    CAF 1438   1.563   3.618   0.624  0.0000  0.0000  0.0000
  240CHX    CAE 1439   1.467   3.521   0.556  0.0000  0.0000  0.0000
  240CHX    CAC 1440   1.543   3.395   0.512  0.0000  0.0000  0.0000
  241CHX    CAA 1441   1.658   3.431   0.854  0.0000  0.0000  0.0000
  241CHX    CAB 1442   1.753   3.529   0.923  0.0000  0.0000  0.0000
  241CHX    CAD 1443   1.678   3.655   0.966  0.0000  0.0000  0.0000
  241CHX    CAF 1444   1.563   3.618   1.060  0.0000  0.0000  0.0000
  241CHX    CAE 1445   1.467   3.521   0.992  0.0000  0.0000  0.0000
  241CHX    CAC 1446   1.543   3.395   0.948  0.0000  0.0000  0.0000
  242CHX    CAA 1447   1.658   3.431   1.290  0.0000  0.0000  0.0000
  242CHX    CAB 1448   1.753   3.529   1.359  0.0000  0.0000  0.0000
  242CHX    CAD 1449   1.678   3.655   1.402  0.0000  0.0000  0.0000
  242CHX    CAF 1450   1.563   3.618   1.496  0.0000  0.0000  0.0000
  242CHX    CAE 1451   1.467   3.521   1.428  0.0000  0.0000  0.0000
  242CHX    CAC 1452   1.543   3.395   1.384  0.0000  0.0000  0.0000
  243CHX    CAA 1453   1.658   3.431   1.726  0.0000  0.0000  0.0000
  243CHX    CAB 1454   1.753   3.529   1.795  0.0000  0.0000  0.0000
  243CHX    CAD 1455   1.678   3.655   1.838  0.0000  0.0000  0.0000
  243CHX    CAF 1456   1.563   3.618   1.932  0.0000  0.0000  0.0000
  243CHX    CAE 1457   1.467   3.521   1.864  0.0000  0.0000  0.0000
  243CHX    CAC 1458   1.543   3.395   1.820  0.0000  0.0000  0.0000
  244CHX    CAA 1459   1.658   3.431   2.162  0.0000  0.0000  0.0000
  244CHX    CAB 1460   1.753   3.529   2.231  0.0000  0.0000  0.0000
  244CHX    CAD 1461   1.678   3.655   2.274  0.0000  0.0000  0.0000
  244CHX    CAF 1462   1.563   3.618   2.368  0.0000  0.0000  0.0000
  244CHX    CAE 1463   1.467   3.521   2.300  0.0000  0.0000  0.0000
  244CHX    CAC 1464   1.543   3.395   2.256  0.0000  0.0000  0.0000
  245CHX    CAA 1465   1.658   3.431   2.598  0.0000  0.0000  0.0000
  245CHX    CAB 1466   1.753   3.529   2.667  0.0000  0.0000  0.0000
  245CHX    CAD 1467   1.678   3.655   2.710  0.0000  0.0000  0.0000
  245CHX    CAF 1468   1.563   3.618   2.804  0.0000  0.0000  0.0000
  245CHX    CAE 1469   1.467   3.521   2.736  0.0000  0.0000  0.0000
  245CHX    CAC 1470   1.543   3.395   2.692  0.0000  0.0000  0.0000
  246CHX    CAA 1471   2.094   0.815  -0.018  0.0000  0.0000  0.0000
  246CHX    CAB 1472   2.189   0.913   0.051  0.0000  0.0000  0.0000
  246CHX    CAD 1473   2.114   1.039   0.094  0.0000  0.0000  0.0000
  246CHX    CAF 1474   1.999   1.002   0.188  0.0000  0.0000  0.0000
  246CHX    CAE 1475   1.903   0.905   0.120  0.0000  0.0000  0.0000
  246CHX    CAC 1476   1.979   0.779   0.076  0.0000  0.0000  0.0000
  247CHX    CAA 1477   2.094   0.815   0.418  0.0000  0.0000  0.0000
  247CHX    CAB 1478   2.189   0.913   0.487  0.0000  0.0000  0.0000
  247CHX    CAD 1479   2.114   1.039   0.530  0.0000  0.0000  0.0000
  247CHX    CAF 1480   1.999   1.002   0.624  0.0000  0.0000  0.0000
  247CHX    CAE 1481   1.903   0.905   0.556  0.0000  0.0000  0.0000
  247CHX    CAC 1482   1.979   0.779   0.512  0.0000  0.0000  0.0000
  248CHX    CAA 1483   2.094   0.815   0.854  0.0000  0.0000  0.0000
  248CHX    CAB 1484   2.189   0.913   0.923  0.0000  0.0000  0.0000
  248CHX    CAD 1485   2.114   1.039   0.966  0.0000  0.0000  0.0000
  248CHX    CAF 1486   1.999   1.002   1.060  0.0000  0.0000  0.0000
  248CHX    CAE 1487   1.903   0.905   0.992  0.0000  0.0000  0.0000
  248CHX    CAC 1488   1.979   0.779   0.948  0.0000  0.0000  0.0000
  249CHX    CAA 1489   2.094   0.815   1.290  0.0000  0.0000  0.0000
  249CHX    CAB 1490   2.189   0.913   1.359  0.0000  0.0000  0.0000
  249CHX    CAD 1491   2.114   1.039   1.402  0.0000  0.0000  0.0000
  249CHX    CAF 1492   1.999   1.002   1.496  0.0000  0.0000  0.0000
  249CHX    CAE 1493   1.903   0.905   1.428  0.0000  0.0000  0.0000
  249CHX    CAC 1494   1.979   0.779   1.384  0.0000  0.0000  0.0000
  250CHX    CAA 1495   2.094   0.815   1.726  0.0000  0.0000  0.0000
  250CHX    CAB 1496   2.189   0.913   1.795  0.0000  0.0000  0.0000
  250CHX    CAD 1497   2.114   1.039   1.838  0.0000  0.0000  0.0000
  250CHX    CAF 1498   1.999   1.002   1.932  0.0000  0.0000  0.0000
  250CHX    CAE 1499   1.903   0.905   1.864  0.0000  0.0000  0.0000
  250CHX    CAC 1500   1.979   0.779   1.820  0.0000  0.0000  0.0000
  251CHX    CAA 1501   2.094   0.815   2.162  0.0000  0.0000  0.0000
  251CHX    CAB 1502   2.189   0.913   2.231  0.0000  0.0000  0.0000
  251CHX    CAD 1503   2.114   1.039   2.274  0.0000  0.0000  0.0000
  251CHX    CAF 1504   1.999   1.002   2.368  0.0000  0.0000  0.0000
  251CHX    CAE 1505   1.903   0.905   2.300  0.0000  0.0000  0.0000
  251CHX    CAC 1506   1.979   0.779   2.256  0.0000  0.0000  0.0000
  252CHX    CAA 1507   2.094   0.815   2.598  0.0000  0.0000  0.0000
  252CHX    CAB 1508   2.189   0.913   2.667  0.0000  0.0000  0.0000
  252CHX    CAD 1509   2.114   1.039   2.710  0.0000  0.0000  0.0000
  252CHX    CAF 1510   1.999   1.002   2.804  0.0000  0.0000  0.0000
  252CHX    CAE 1511   1.903   0.905   2.736  0.0000  0.0000  0.0000
  252CHX    CAC 1512   1.979   0.779   2.692  0.0000  0.0000  0.0000
  253CHX    CAA 1513   2.094   1.251  -0.018  0.0000  0.0000  0.0000
  253CHX    CAB 1514   2.189   1.349   0.051  0.0000  0.0000  0.0000
  253CHX    CAD 1515   2.114   1.475   0.094  0.0000  0.0000  0.0000
  253CHX    CAF 1516   1.999   1.438   0.188  0.0000  0.0000  0.0000
  253CHX    CAE 1517   1.903   1.341   0.120  0.0000  0.0000  0.0000
  253CHX    CAC 1518   1.979   1.215   0.076  0.0000  0.0000  0.0000
  254CHX    CAA 1519   2.094   1.251   0.418  0.0000  0.0000  0.0000
  254CHX    CAB 1520   2.189   1.349   0.487  0.0000  0.0000  0.0000
  254CHX    CAD 1521   2.114   1.475   0.530  0.0000  0.0000  0.0000
  254CHX    CAF 1522   1.999   1.438   0.624  0.0000  0.0000  0.0000
  254CHX    CAE 1523   1.903   1.341   0.556  0.0000  0.0000  0.0000
  254CHX    CAC 1524   1.979   1.215   0.512  0.0000  0.0000  0.0000
  255CHX    CAA 1525   2.094   1.251   0.854  0.0000  0.0000  0.0000
  255CHX    CAB 1526   2.189   1.349   0.923  0.0000  0.0000  0.0000
  255CHX    CAD 1527   2.114   1.475   0.966  0.0000  0.0000  0.0000
  255CHX    CAF 1528   1.999   1.438   1.060  0.0000  0.0000  0.0000
  255CHX    CAE 1529   1.903   1.341   0.992  0.0000  0.0000  0.0000
  255CHX    CAC 1530   1.979   1.215   0.948  0.0000  0.0000  0.0000
  256CHX    CAA 1531   2.094   1.251   1.290  0.0000  0.0000  0.0000
  256CHX    CAB 1532   2.189   1.349   1.359  0.0000  0.0000  0.0000
  256CHX    CAD 1533   2.114   1.475   1.402  0.0000  0.0000  0.0000
  256CHX    CAF 1534   1.999   1.438   1.496  0.0000  0.0000  0.0000
  256CHX    CAE 1535   1.903   1.341   1.428  0.0000  0.0000  0.0000
  256CHX    CAC 1536   1.979   1.215   1.384  0.0000  0.0000  0.0000
  257CHX    CAA 1537   2.094   1.251   1.726  0.0000  0.0000  0.0000
  257CHX    CAB 1538   2.189   1.349   1.795  0.0000  0.0000  0.0000
  257CHX    CAD 1539   2.114   1.475   1.838  0.0000  0.0000  0.0000
  257CHX    CAF 1540   1.999   1.438   1.932  0.0000  0.0000  0.0000
  257CHX    CAE 1541   1.903   1.341   1.864  0.0000  0.0000  0.0000
  257CHX    CAC 1542   1.979   1.215   1.820  0.0000  0.0000  0.0000
  258CHX    CAA 1543   2.094   1.251   2.162  0.0000  0.0000  0.0000
  258CHX    CAB 1544   2.189   1.349   2.231  0.0000  0.0000  0.0000
  258CHX    CAD 1545   2.114   1.475   2.274  0.0000  0.0000  0.0000
  258CHX    CAF 1546   1.999   1.438   2.368  0.0000  0.0000  0.0000
  258CHX    CAE 1547   1.903   1.341   2.300  0.0000  0.0000  0.0000
  258CHX    CAC 1548   1.979   1.215   2.256  0.0000  0.0000  0.0000
  259CHX    CAA 1549   2.094   1.251   2.598  0.0000  0.0000  0.0000
  259CHX    CAB 1550   2.189   1.349   2.667  0.0000  0.0000  0.0000
  259CHX    CAD 1551   2.114   1.475   2.710  0.0000  0.0000  0.0000
  259CHX    CAF 1552   1.999   1.438   2.804  0.0000  0.0000  0.0000
  259CHX    CAE 1553   1.903   1.341   2.736  0.0000  0.0000  0.0000
  259CHX    CAC 1554   1.979   1.215   2.692  0.0000  0.0000  0.0000
  260CHX    CAA 1555   2.094   1.687  -0.018  0.0000  0.0000  0.0000
  260CHX    CAB 1556   2.189   1.785   0.051  0.0000  0.0000  0.0000
  260CHX    CAD 1557   2.114   1.911   0.094  0.0000  0.0000  0.0000
  260CHX    CAF 1558   1.999   1.874   0.188  0.0000  0.0000  0.0000
  260CHX    CAE 1559   1.903   1.777   0.120  0.0000  0.0000  0.0000
  260CHX    CAC 1560   1.979   1.651   0.076  0.0000  0.0000  0.0000
  261CHX    CAA 1561   2.094   1.687   0.418  0.0000  0.0000  0.0000
  261CHX    CAB 1562   2.189   1.785   0.487  0.0000  0.0000  0.0000
  261CHX    CAD 1563   2.114   1.911   0.530  0.0000  0.0000  0.0000
  261CHX    CAF 1564   1.999   1.874   0.624  0.0000  0.0000  0.0000
  261CHX    CAE 1565   1.903   1.777   0.556  0.0000  0.0000  0.0000
  261CHX    CAC 1566   1.979   1.651   0.512  0.0000  0.0000  0.0000
  262CHX    CAA 1567   2.094   1.687   0.854  0.0000  0.0000  0.0000
  262CHX    CAB 1568   2.189   1.785   0.923  0.0000  0.0000  0.0000
  262CHX    CAD 1569   2.114   1.911   0.966  0.0000  0.0000  0.0000
  262CHX    CAF 1570   1.999   1.874   1.060  0.0000  0.0000  0.0000
  262CHX    CAE 1571   1.903   1.777   0.992  0.0000  0.0000  0.0000
  262CHX    CAC 1572   1.979   1.651   0.948  0.0000  0.0000  0.0000
  263CHX    CAA 1573   2.094   1.687   1.290  0.0000  0.0000  0.0000
  263CHX    CAB 1574   2.189   1.785   1.359  0.0000  0.0000  0.0000
  263CHX    CAD 1575   2.114   1.911   1.402  0.0000  0.0000  0.0000
  263CHX    CAF 1576   1.999   1.874   1.496  0.0000  0.0000  0.0000
  263CHX    CAE 1577   1.903   1.777   1.428  0.0000  0.0000  0.0000
  263CHX    CAC 1578   1.979   1.651   1.384  0.0000  0.0000  0.0000
  264CHX    CAA 1579   2.094   1.687   1.726  0.0000  0.0000  0.0000
  264CHX    CAB 1580   2.189   1.785   1.795  0.0000  0.0000  0.0000
  264CHX    CAD 1581   2.114   1.911   1.838  0.0000  0.0000  0.0000
  264CHX    CAF 1582   1.999   1.874   1.932  0.0000  0.0000  0.0000
  264CHX    CAE 1583   1.903   1.777   1.864  0.0000  0.0000  0.0000
  264CHX    CAC 1584   1.979   1.651   1.820  0.0000  0.0000  0.0000
  265CHX    CAA 1585   2.094   1.687   2.162  0.0000  0.0000  0.0000
  265CHX    CAB 1586   2.189   1.785   2.231  0.0000  0.0000  0.0000
  265CHX    CAD 1587   2.114   1.911   2.274  0.0000  0.0000  0.0000
  265CHX    CAF 1588   1.999   1.874   2.368  0.0000  0.0000  0.0000
  265CHX    CAE 1589   1.903   1.777   2.300  0.0000  0.0000  0.0000
  265CHX    CAC 1590   1.979   1.651   2.256  0.0000  0.0000  0.0000
  266CHX    CAA 1591   2.094   1.687   2.598  0.0000  0.0000  0.0000
  266CHX    CAB 1592   2.189   1.785   2.667  0.0000  0.0000  0.0000
  266CHX    CAD 1593   2.114   1.911   2.710  0.0000  0.0000  0.0000
  266CHX    CAF 1594   1.999   1.874   2.804  0.0000  0.0000  0.0000
  266CHX    CAE 1595   1.903   1.777   2.736  0.0000  0.0000  0.0000
  266CHX    CAC 1596   1.979   1.651   2.692  0.0000  0.0000  0.0000
  267CHX    CAA 1597   2.094   2.123  -0.018  0.0000  0.0000  0.0000
  267CHX    CAB 1598   2.189   2.221   0.051  0.0000  0.0000  0.0000
  267CHX    CAD 1599   2.114   2.347   0.094  0.0000  0.0000  0.0000
  267CHX    CAF 1600   1.999   2.310   0.188  0.0000  0.0000  0.0000
  267CHX    CAE 1601   1.903   2.213   0.120  0.0000  0.0000  0.0000
  267CHX    CAC 1602   1.979   2.087   0.076  0.0000  0.0000  0.0000
  268CHX    CAA 1603   2.094   2.123   0.418  0.0000  0.0000  0.0000
  268CHX    CAB 1604   2.189   2.221   0.487  0.0000  0.0000  0.0000
  268CHX    CAD 1605   2.114   2.347   0.530  0.0000  0.0000  0.0000
  268CHX    CAF 1606   1.999   2.310   0.624  0.0000  0.0000  0.0000
  268CHX    CAE 1607   1.903   2.213   0.556  0.0000  0.0000  0.0000
  268CHX    CAC 1608   1.979   2.087   0.512  0.0000  0.0000  0.0000
  269CHX    CAA 1609   2.094   2.123   0.854  0.0000  0.0000  0.0000
  269CHX    CAB 1610   2.189   2.221   0.923  0.0000  0.0000  0.0000
  269CHX    CAD 1611   2.114   2.347   0.966  0.0000  0.0000  0.0000
  269CHX    CAF 1612   1.999   2.310   1.060  0.0000  0.0000  0.0000
  269CHX    CAE 1613   1.903   2.213   0.992  0.0000  0.0000  0.0000
  269CHX    CAC 1614   1.979   2.087   0.948  0.0000  0.0000  0.0000
  270CHX    CAA 1615   2.094   2.123   1.290  0.0000  0.0000  0.0000
  270CHX    CAB 1616   2.189   2.221   1.359  0.0000  0.0000  0.0000
  270CHX    CAD 1617   2.114   2.347   1.402  0.0000  0.0000  0.0000
  270CHX    CAF 1618   1.999   2.310   1.496  0.0000  0.0000  0.0000
  270CHX    CAE 1619   1.903   2.213   1.428  0.0000  0.0000  0.0000
  270CHX    CAC 1620   1.979   2.087   1.384  0.0000  0.0000  0.0000
  271CHX    CAA 1621   2.094   2.123   1.726  0.0000  0.0000  0.0000
  271CHX    CAB 1622   2.189   2.221   1.795  0.0000  0.0000  0.0000
  271CHX    CAD 1623   2.114   2.347   1.838  0.0000  0.0000  0.0000
  271CHX    CAF 1624   1.999   2.310   1.932  0.0000  0.0000  0.0000
  271CHX    CAE 1625   1.903   2.213   1.864  0.0000  0.0000  0.0000
  271CHX    CAC 1626   1.979   2.087   1.820  0.0000  0.0000  0.0000
  272CHX    CAA 1627   2.094   2.123   2.162  0.0000  0.0000  0.0000
  272CHX    CAB 1628   2.189   2.221   2.231  0.0000  0.0000  0.0000
  272CHX    CAD 1629   2.114   2.347   2.274  0.0000  0.0000  0.0000
  272CHX    CAF 1630   1.999   2.310   2.368  0.0000  0.0000  0.0000
  272CHX    CAE 1631   1.903   2.213   2.300  0.0000  0.0000  0.0000
  272CHX    CAC 1632   1.979   2.087   2.256  0.0000  0.0000  0.0000
  273CHX    CAA 1633   2.094   2.123   2.598  0.0000  0.0000  0.0000
  273CHX    CAB 1634   2.189   2.221   2.667  0.0000  0.0000  0.0000
  273CHX    CAD 1635   2.114   2.347   2.710  0.0000  0.0000  0.0000
  273CHX    CAF 1636   1.999   2.310   2.804  0.0000  0.0000  0.0000
  273CHX    CAE 1637   1.903   2.213   2.736  0.0000  0.0000  0.0000
  273CHX    CAC 1638   1.979   2.087   2.692  0.0000  0.0000  0.0000
  274CHX    CAA 1639   2.094   2.559  -0.018  0.0000  0.0000  0.0000
  274CHX    CAB 1640   2.189   2.657   0.051  0.0000  0.0000  0.0000
  274CHX    CAD 1641   2.114   2.783   0.094  0.0000  0.0000  0.0000
  274CHX    CAF 1642   1.999   2.746   0.188  0.0000  0.0000  0.0000
  274CHX    CAE 1643   1.903   2.649   0.120  0.0000  0.0000  0.0000
  274CHX    CAC 1644   1.979   2.523   0.076  0.0000  0.0000  0.0000
  275CHX    CAA 1645   2.094   2.559   0.418  0.0000  0.0000  0.0000
  275CHX    CAB 1646   2.189   2.657   0.487  0.0000  0.0000  0.0000
  275CHX    CAD 1647   2.114   2.783   0.530  0.0000  0.0000  0.0000
  275CHX    CAF 1648   1.999   2.746   0.624  0.0000  0.0000  0.0000
  275CHX    CAE 1649   1.903   2.649   0.556  0.0000  0.0000  0.0000
  275CHX    CAC 1650   1.979   2.523   0.512  0.0000  0.0000  0.0000
  276CHX    CAA 1651   2.094   2.559   0.854  0.0000  0.0000  0.0000
  276CHX    CAB 1652   2.189   2.657   0.923  0.0000  0.0000  0.0000
  276CHX    CAD 1653   2.114   2.783   0.966  0.0000  0.0000  0.0000
  276CHX    CAF 1654   1.999   2.746   1.060  0.0000  0.0000  0.0000
  276CHX    CAE 1655   1.903   2.649   0.992  0.0000  0.0000  0.0000
  276CHX    CAC 1656   1.979   2.523   0.948  0.0000  0.0000  0.0000
  277CHX    CAA 1657   2.094   2.559   1.290  0.0000  0.0000  0.0000
  277CHX    CAB 1658   2.189   2.657   1.359  0.0000  0.0000  0.0000
  277CHX    CAD 1659   2.114   2.783   1.402  0.0000  0.0000  0.0000
  277CHX    CAF 1660   1.999   2.746   1.496  0.0000  0.0000  0.0000
  277CHX    CAE 1661   1.903   2.649   1.428  0.0000  0.0000  0.0000
  277CHX    CAC 1662   1.979   2.523   1.384  0.0000  0.0000  0.0000
  278CHX    CAA 1663   2.094   2.559   1.726  0.0000  0.0000  0.0000
  278CHX    CAB 1664   2.189   2.657   1.795  0.0000  0.0000  0.0000
  278CHX    CAD 1665   2.114   2.783   1.838  0.0000  0.0000  0.0000
  278CHX    CAF 1666   1.999   2.746   1.932  0.0000  0.0000  0.0000
  278CHX    CAE 1667   1.903   2.649   1.864  0.0000  0.0000  0.0000
  278CHX    CAC 1668   1.979   2.523   1.820  0.0000  0.0000  0.0000
  279CHX    CAA 1669   2.094   2.559   2.162  0.0000  0.0000  0.0000
  279CHX    CAB 1670   2.189   2.657   2.231  0.0000  0.0000  0.0000
  279CHX    CAD 1671   2.114   2.783   2.274  0.0000  0.0000  0.0000
  279CHX    CAF 1672   1.999   2.746   2.368  0.0000  0.0000  0.0000
  279CHX    CAE 1673   1.903   2.649   2.300  0.0000  0.0000  0.0000
  279CHX    CAC 1674   1.979   2.523   2.256  0.0000  0.0000  0.0000
  280CHX    CAA 1675   2.094   2.559   2.598  0.0000  0.0000  0.0000
  280CHX    CAB 1676   2.189   2.657   2.667  0.0000  0.0000  0.0000
  280CHX    CAD 1677   2.114   2.783   2.710  0.0000  0.0000  0.0000
  280CHX    CAF 1678   1.999   2.746   2.804  0.0000  0.0000  0.0000
  280CHX    CAE 1679   1.903   2.649   2.736  0.0000  0.0000  0.0000
  280CHX    CAC 1680   1.979   2.523   2.692  0.0000  0.0000  0.0000
  281CHX    CAA 1681   2.094   2.995  -0.018  0.0000  0.0000  0.0000
  281CHX    CAB 1682   2.189   3.093   0.051  0.0000  0.0000  0.0000
  281CHX    CAD 1683   2.114   3.219   0.094  0.0000  0.0000  0.0000
  281CHX    CAF 1684   1.999   3.182   0.188  0.0000  0.0000  0.0000
  281CHX    CAE 1685   1.903   3.085   0.120  0.0000  0.0000  0.0000
  281CHX    CAC 1686   1.979   2.959   0.076  0.0000  0.0000  0.0000
  282CHX    CAA 1687   2.094   2.995   0.418  0.0000  0.0000  0.0000
  282CHX    CAB 1688   2.189   3.093   0.487  0.0000  0.0000  0.0000
  282CHX    CAD 1689   2.114   3.219   0.530  0.0000  0.0000  0.0000
  282CHX    CAF 1690   1.999   3.182   0.624  0.0000  0.0000  0.0000
  282CHX    CAE 1691   1.903   3.085   0.556  0.0000  0.0000  0.0000
  282CHX    CAC 1692   1.979   2.959   0.512  0.0000  0.0000  0.0000
  283CHX    CAA 1693   2.094   2.995   0.854  0.0000  0.0000  0.0000
  283CHX    CAB 1694   2.189   3.093   0.923  0.0000  0.0000  0.0000
  283CHX    CAD 1695   2.114   3.219   0.966  0.0000  0.0000  0.0000
  283CHX    CAF 1696   1.999   3.182   1.060  0.0000  0.0000  0.0000
  283CHX    CAE 1697   1.903   3.085   0.992  0.0000  0.0000  0.0000
  283CHX    CAC 1698   1.979   2.959   0.948  0.0000  0.0000  0.0000
  284CHX    CAA 1699   2.094   2.995   1.290  0.0000  0.0000  0.0000
  284CHX    CAB 1700   2.189   3.093   1.359  0.0000  0.0000  0.0000
  284CHX    CAD 1701   2.114   3.219   1.402  0.0000  0.0000  0.0000
  284CHX    CAF 1702   1.999   3.182   1.496  0.0000  0.0000  0.0000
  284CHX    CAE 1703   1.903   3.085   1.428  0.0000  0.0000  0.0000
  284CHX    CAC 1704   1.979   2.959   1.384  0.0000  0.0000  0.0000
  285CHX    CAA 1705   2.094   2.995   1.726  0.0000  0.0000  0.0000
  285CHX    CAB 1706   2.189   3.093   1.795  0.0000  0.0000  0.0000
  285CHX    CAD 1707   2.114   3.219   1.838  0.0000  0.0000  0.0000
  285CHX    CAF 1708   1.999   3.182   1.932  0.0000  0.0000  0.0000
  285CHX    CAE 1709   1.903   3.085   1.864  0.0000  0.0000  0.0000
  285CHX    CAC 1710   1.979   2.959   1.820  0.0000  0.0000  0.0000
  286CHX    CAA 1711   2.094   2.995   2.162  0.0000  0.0000  0.0000
  286CHX    CAB 1712   2.189   3.093   2.231  0.0000  0.0000  0.0000
  286CHX    CAD 1713   2.114   3.219   2.274  0.0000  0.0000  0.0000
  286CHX    CAF 1714   1.999   3.182   2.368  0.0000  0.0000  0.0000
  286CHX    CAE 1715   1.903   3.085   2.300  0.0000  0.0000  0.0000
  286CHX    CAC 1716   1.979   2.959   2.256  0.0000  0.0000  0.0000
  287CHX    CAA 1717   2.094   2.995   2.598  0.0000  0.0000  0.0000
  287CHX    CAB 1718   2.189   3.093   2.667  0.0000  0.0000  0.0000
  287CHX    CAD 1719   2.114   3.219   2.710  0.0000  0.0000  0.0000
  287CHX    CAF 1720   1.999   3.182   2.804  0.0000  0.0000  0.0000
  287CHX    CAE 1721   1.903   3.085   2.736  0.0000  0.0000  0.0000
  287CHX    CAC 1722   1.979   2.959   2.692  0.0000  0.0000  0.0000
  288CHX    CAA 1723   2.094   3.431  -0.018  0.0000  0.0000  0.0000
  288CHX    CAB 1724   2.189   3.529   0.051  0.0000  0.0000  0.0000
  288CHX    CAD 1725   2.114   3.655   0.094  0.0000  0.0000  0.0000
  288CHX    CAF 1726   1.999   3.618   0.188  0.0000  0.0000  0.0000
  288CHX    CAE 1727   1.903   3.521   0.120  0.0000  0.0000  0.0000
  288CHX    CAC 1728   1.979   3.395   0.076  0.0000  0.0000  0.0000
  289CHX    CAA 1729   2.094   3.431   0.418  0.0000  0.0000  0.0000
  289CHX    CAB 1730   2.189   3.529   0.487  0.0000  0.0000  0.0000
  289CHX    CAD 1731   2.114   3.655   0.530  0.0000  0.0000  0.0000
  289CHX    CAF 1732   1.999   3.618   0.624  0.0000  0.0000  0.0000
  289CHX    CAE 1733   1.903   3.521   0.556  0.0000  0.0000  0.0000
  289CHX    CAC 1734   1.979   3.395   0.512  0.0000  0.0000  0.0000
  290CHX    CAA 1735   2.094   3.431   0.854  0.0000  0.0000  0.0000
  290CHX    CAB 1736   2.189   3.529   0.923  0.0000  0.0000  0.0000
  290CHX    CAD 1737   2.114   3.655   0.966  0.0000  0.0000  0.0000
  290CHX    CAF 1738   1.999   3.618   1.060  0.0000  0.0000  0.0000
  290CHX    CAE 1739   1.903   3.521   0.992  0.0000  0.0000  0.0000
  290CHX    CAC 1740   1.979   3.395   0.948  0.0000  0.0000  0.0000
  291CHX    CAA 1741   2.094   3.431   1.290  0.0000  0.0000  0.0000
  291CHX    CAB 1742   2.189   3.529   1.359  0.0000  0.0000  0.0000
  291CHX    CAD 1743   2.114   3.655   1.402  0.0000  0.0000  0.0000
  291CHX    CAF 1744   1.999   3.618   1.496  0.0000  0.0000  0.0000
  291CHX    CAE 1745   1.903   3.521   1.428  0.0000  0.0000  0.0000
  291CHX    CAC 1746   1.979   3.395   1.384  0.0000  0.0000  0.0000
  292CHX    CAA 1747   2.094   3.431   1.726  0.0000  0.0000  0.0000
  292CHX    CAB 1748   2.189   3.529   1.795  0.0000  0.0000  0.0000
  292CHX    CAD 1749   2.114   3.655   1.838  0.0000  0.0000  0.0000
  292CHX    CAF 1750   1.999   3.618   1.932  0.0000  0.0000  0.0000
  292CHX    CAE 1751   1.903   3.521   1.864  0.0000  0.0000  0.0000
  292CHX    CAC 1752   1.979   3.395   1.820  0.0000  0.0000  0.0000
  293CHX    CAA 1753   2.094   3.431   2.162  0.0000  0.0000  0.0000
  293CHX    CAB 1754   2.189   3.529   2.231  0.0000  0.0000  0.0000
  293CHX    CAD 1755   2.114   3.655   2.274  0.0000  0.0000  0.0000
  293CHX    CAF 1756   1.999   3.618   2.368  0.0000  0.0000  0.0000
  293CHX    CAE 1757   1.903   3.521   2.300  0.0000  0.0000  0.0000
  293CHX    CAC 1758   1.979   3.395   2.256  0.0000  0.0000  0.0000
  294CHX    CAA 1759   2.094   3.431   2.598  0.0000  0.0000  0.0000
  294CHX    CAB 1760   2.189   3.529   2.667  0.0000  0.0000  0.0000
  294CHX    CAD 1761   2.114   3.655   2.710  0.0000  0.0000  0.0000
  294CHX    CAF 1762   1.999   3.618   2.804  0.0000  0.0000  0.0000
  294CHX    CAE 1763   1.903   3.521   2.736  0.0000  0.0000  0.0000
  294CHX    CAC 1764   1.979   3.395   2.692  0.0000  0.0000  0.0000
  295CHX    CAA 1765   2.530   0.815  -0.018  0.0000  0.0000  0.0000
  295CHX    CAB 1766   2.625   0.913   0.051  0.0000  0.0000  0.0000
  295CHX    CAD 1767   2.550   1.039   0.094  0.0000  0.0000  0.0000
  295CHX    CAF 1768   2.435   1.002   0.188  0.0000  0.0000  0.0000
  295CHX    CAE 1769   2.339   0.905   0.120  0.0000  0.0000  0.0000
  295CHX    CAC 1770   2.415   0.779   0.076  0.0000  0.0000  0.0000
  296CHX    CAA 1771   2.530   0.815   0.418  0.0000  0.0000  0.0000
  296CHX    CAB 1772   2.625   0.913   0.487  0.0000  0.0000  0.0000
  296CHX    CAD 1773   2.550   1.039   0.530  0.0000  0.0000  0.0000
  296CHX    CAF 1774   2.435   1.002   0.624  0.0000  0.0000  0.0000
  296CHX    CAE 1775   2.339   0.905   0.556  0.0000  0.0000  0.0000
  296CHX    CAC 1776   2.415   0.779   0.512  0.0000  0.0000  0.0000
  297CHX    CAA 1777   2.530   0.815   0.854  0.0000  0.0000  0.0000
  297CHX    CAB 1778   2.625   0.913   0.923  0.0000  0.0000  0.0000
  297CHX    CAD 1779   2.550   1.039   0.966  0.0000  0.0000  0.0000
  297CHX    CAF 1780   2.435   1.002   1.060  0.0000  0.0000  0.0000
  297CHX    CAE 1781   2.339   0.905   0.992  0.0000  0.0000  0.0000
  297CHX    CAC 1782   2.415   0.779   0.948  0.0000  0.0000  0.0000
  298CHX    CAA 1783   2.530   0.815   1.290  0.0000  0.0000  0.0000
  298CHX    CAB 1784   2.625   0.913   1.359  0.0000  0.0000  0.0000
  298CHX    CAD 1785   2.550   1.039   1.402  0.0000  0.0000  0.0000
  298CHX    CAF 1786   2.435   1.002   1.496  0.0000  0.0000  0.0000
  298CHX    CAE 1787   2.339   0.905   1.428  0.0000  0.0000  0.0000
  298CHX    CAC 1788   2.415   0.779   1.384  0.0000  0.0000  0.0000
  299CHX    CAA 1789   2.530   0.815   1.726  0.0000  0.0000  0.0000
  299CHX    CAB 1790   2.625   0.913   1.795  0.0000  0.0000  0.0000
  299CHX    CAD 1791   2.550   1.039   1.838  0.0000  0.0000  0.0000
  299CHX    CAF 1792   2.435   1.002   1.932  0.0000  0.0000  0.0000
  299CHX    CAE 1793   2.339   0.905   1.864  0.0000  0.0000  0.0000
  299CHX    CAC 1794   2.415   0.779   1.820  0.0000  0.0000  0.0000
  300CHX    CAA 1795   2.530   0.815   2.162  0.0000  0.0000  0.0000
  300CHX    CAB 1796   2.625   0.913   2.231  0.0000  0.0000  0.0000
  300CHX    CAD 1797   2.550   1.039   2.274  0.0000  0.0000  0.0000
  300CHX    CAF 1798   2.435   1.002   2.368  0.0000  0.0000  0.0000
  300CHX    CAE 1799   2.339   0.905   2.300  0.0000  0.0000  0.0000
  300CHX    CAC 1800   2.415   0.779   2.256  0.0000  0.0000  0.0000
  301CHX    CAA 1801   2.530   0.815   2.598  0.0000  0.0000  0.0000
  301CHX    CAB 1802   2.625   0.913   2.667  0.0000  0.0000  0.0000
  301CHX    CAD 1803   2.550   1.039   2.710  0.0000  0.0000  0.0000
  301CHX    CAF 1804   2.435   1.002   2.804  0.0000  0.0000  0.0000
  301CHX    CAE 1805   2.339   0.905   2.736  0.0000  0.0000  0.0000
  301CHX    CAC 1806   2.415   0.779   2.692  0.0000  0.0000  0.0000
  302CHX    CAA 1807   2.530   1.251  -0.018  0.0000  0.0000  0.0000
  302CHX    CAB 1808   2.625   1.349   0.051  0.0000  0.0000  0.0000
  302CHX    CAD 1809   2.550   1.475   0.094  0.0000  0.0000  0.0000
  302CHX    CAF 1810   2.435   1.438   0.188  0.0000  0.0000  0.0000
  302CHX    CAE 1811   2.339   1.341   0.120  0.0000  0.0000  0.0000
  302CHX    CAC 1812   2.415   1.215   0.076  0.0000  0.0000  0.0000
  303CHX    CAA 1813   2.530   1.251   0.418  0.0000  0.0000  0.0000
  303CHX    CAB 1814   2.625   1.349   0.487  0.0000  0.0000  0.0000
  303CHX    CAD 1815   2.550   1.475   0.530  0.0000  0.0000  0.0000
  303CHX    CAF 1816   2.435   1.438   0.624  0.0000  0.0000  0.0000
  303CHX    CAE 1817   2.339   1.341   0.556  0.0000  0.0000  0.0000
  303CHX    CAC 1818   2.415   1.215   0.512  0.0000  0.0000  0.0000
  304CHX    CAA 1819   2.530   1.251   0.854  0.0000  0.0000  0.0000
  304CHX    CAB 1820   2.625   1.349   0.923  0.0000  0.0000  0.0000
  304CHX    CAD 1821   2.550   1.475   0.966  0.0000  0.0000  0.0000
  304CHX    CAF 1822   2.435   1.438   1.060  0.0000  0.0000  0.0000
  304CHX    CAE 1823   2.339   1.341   0.992  0.0000  0.0000  0.0000
  304CHX    CAC 1824   2.415   1.215   0.948  0.0000  0.0000  0.0000
  305CHX    CAA 1825   2.530   1.251   1.290  0.0000  0.0000  0.0000
  305CHX    CAB 1826   2.625   1.349   1.359  0.0000  0.0000  0.0000
  305CHX    CAD 1827   2.550   1.475   1.402  0.0000  0.0000  0.0000
  305CHX    CAF 1828   2.435   1.438   1.496  0.0000  0.0000  0.0000
  305CHX    CAE 1829   2.339   1.341   1.428  0.0000  0.0000  0.0000
  305CHX    CAC 1830   2.415   1.215   1.384  0.0000  0.0000  0.0000
  306CHX    CAA 1831   2.530   1.251   1.726  0.0000  0.0000  0.0000
  306CHX    CAB 1832   2.625   1.349   1.795  0.0000  0.0000  0.0000
  306CHX    CAD 1833   2.550   1.475   1.838  0.0000  0.0000  0.0000
  306CHX    CAF 1834   2.435   1.438   1.932  0.0000  0.0000  0.0000
  306CHX    CAE 1835   2.339   1.341   1.864  0.0000  0.0000  0.0000
  306CHX    CAC 1836   2.415   1.215   1.820  0.0000  0.0000  0.0000
  307CHX    CAA 1837   2.530   1.251   2.162  0.0000  0.0000  0.0000
  307CHX    CAB 1838   2.625   1.349   2.231  0.0000  0.0000  0.0000
  307CHX    CAD 1839   2.550   1.475   2.274  0.0000  0.0000  0.0000
  307CHX    CAF 1840   2.435   1.438   2.368  0.0000  0.0000  0.0000
  307CHX    CAE 1841   2.339   1.341   2.300  0.0000  0.0000  0.0000
  307CHX    CAC 1842   2.415   1.215   2.256  0.0000  0.0000  0.0000
  308CHX    CAA 1843   2.530   1.251   2.598  0.0000  0.0000  0.0000
  308CHX    CAB 1844   2.625   1.349   2.667  0.0000  0.0000  0.0000
  308CHX    CAD 1845   2.550   1.475   2.710  0.0000  0.0000  0.0000
  308CHX    CAF 1846   2.435   1.438   2.804  0.0000  0.0000  0.0000
  308CHX    CAE 1847   2.339   1.341   2.736  0.0000  0.0000  0.0000
  308CHX    CAC 1848   2.415   1.215   2.692  0.0000  0.0000  0.0000
  309CHX    CAA 1849   2.530   1.687  -0.018  0.0000  0.0000  0.0000
  309CHX    CAB 1850   2.625   1.785   0.051  0.0000  0.0000  0.0000
  309CHX    CAD 1851   2.550   1.911   0.094  0.0000  0.0000  0.0000
  309CHX    CAF 1852   2.435   1.874   0.188  0.0000  0.0000  0.0000
  309CHX    CAE 1853   2.339   1.777   0.120  0.0000  0.0000  0.0000
  309CHX    CAC 1854   2.415   1.651   0.076  0.0000  0.0000  0.0000
  310CHX    CAA 1855   2.530   1.687   0.418  0.0000  0.0000  0.0000
  310CHX    CAB 1856   2.625   1.785   0.487  0.0000  0.0000  0.0000
  310CHX    CAD 1857   2.550   1.911   0.530  0.0000  0.0000  0.0000
  310CHX    CAF 1858   2.435   1.874   0.624  0.0000  0.0000  0.0000
  310CHX    CAE 1859   2.339   1.777   0.556  0.0000  0.0000  0.0000
  310CHX    CAC 1860   2.415   1.651   0.512  0.0000  0.0000  0.0000
  311CHX    CAA 1861   2.530   1.687   0.854  0.0000  0.0000  0.0000
  311CHX    CAB 1862   2.625   1.785   0.923  0.0000  0.0000  0.0000
  311CHX    CAD 1863   2.550   1.911   0.966  0.0000  0.0000  0.0000
  311CHX    CAF 1864   2.435   1.874   1.060  0.0000  0.0000  0.0000
  311CHX    CAE 1865   2.339   1.777   0.992  0.0000  0.0000  0.0000
  311CHX    CAC 1866   2.415   1.651   0.948  0.0000  0.0000  0.0000
  312CHX    CAA 1867   2.530   1.687   1.290  0.0000  0.0000  0.0000
  312CHX    CAB 1868   2.625   1.785   1.359  0.0000  0.0000  0.0000
  312CHX    CAD 1869   2.550   1.911   1.402  0.0000  0.0000  0.0000
  312CHX    CAF 1870   2.435   1.874   1.496  0.0000  0.0000  0.0000
  312CHX    CAE 1871   2.339   1.777   1.428  0.0000  0.0000  0.0000
  312CHX    CAC 1872   2.415   1.651   1.384  0.0000  0.0000  0.0000
  313CHX    CAA 1873   2.530   1.687   1.726  0.0000  0.0000  0.0000
  313CHX    CAB 1874   2.625   1.785   1.795  0.0000  0.0000  0.0000
  313CHX    CAD 1875   2.550   1.911   1.838  0.0000  0.0000  0.0000
  313CHX    CAF 1876   2.435   1.874   1.932  0.0000  0.0000  0.0000
  313CHX    CAE 1877   2.339   1.777   1.864  0.0000  0.0000  0.0000
  313CHX    CAC 1878   2.415   1.651   1.820  0.0000  0.0000  0.0000
  314CHX    CAA 1879   2.530   1.687   2.162  0.0000  0.0000  0.0000
  314CHX    CAB 1880   2.625   1.785   2.231  0.0000  0.0000  0.0000
  314CHX    CAD 1881   2.550   1.911   2.274  0.0000  0.0000  0.0000
  314CHX    CAF 1882   2.435   1.874   2.368  0.0000  0.0000  0.0000
  314CHX    CAE 1883   2.339   1.777   2.300  0.0000  0.0000  0.0000
  314CHX    CAC 1884   2.415   1.651   2.256  0.0000  0.0000  0.0000
  315CHX    CAA 1885   2.530   1.687   2.598  0.0000  0.0000  0.0000
  315CHX    CAB 1886   2.625   1.785   2.667  0.0000  0.0000  0.0000
  315CHX    CAD 1887   2.550   1.911   2.710  0.0000  0.0000  0.0000
  315CHX    CAF 1888   2.435   1.874   2.804  0.0000  0.0000  0.0000
  315CHX    CAE 1889   2.339   1.777   2.736  0.0000  0.0000  0.0000
  315CHX    CAC 1890   2.415   1.651   2.692  0.0000  0.0000  0.0000
  316CHX    CAA 1891   2.530   2.123  -0.018  0.0000  0.0000  0.0000
  316CHX    CAB 1892   2.625   2.221   0.051  0.0000  0.0000  0.0000
  316CHX    CAD 1893   2.550   2.347   0.094  0.0000  0.0000  0.0000
  316CHX    CAF 1894   2.435   2.310   0.188  0.0000  0.0000  0.0000
  316CHX    CAE 1895   2.339   2.213   0.120  0.0000  0.0000  0.0000
  316CHX    CAC 1896   2.415   2.087   0.076  0.0000  0.0000  0.0000
  317CHX    CAA 1897   2.530   2.123   0.418  0.0000  0.0000  0.0000
  317CHX    CAB 1898   2.625   2.221   0.487  0.0000  0.0000  0.0000
  317CHX    CAD 1899   2.550   2.347   0.530  0.0000  0.0000  0.0000
  317CHX    CAF 1900   2.435   2.310   0.624  0.0000  0.0000  0.0000
  317CHX    CAE 1901   2.339   2.213   0.556  0.0000  0.0000  0.0000
  317CHX    CAC 1902   2.415   2.087   0.512  0.0000  0.0000  0.0000
  318CHX    CAA 1903   2.530   2.123   0.854  0.0000  0.0000  0.0000
  318CHX    CAB 1904   2.625   2.221   0.923  0.0000  0.0000  0.0000
  318CHX    CAD 1905   2.550   2.347   0.966  0.0000  0.0000  0.0000
  318CHX    CAF 1906   2.435   2.310   1.060  0.0000  0.0000  0.0000
  318CHX    CAE 1907   2.339   2.213   0.992  0.0000  0.0000  0.0000
  318CHX    CAC 1908   2.415   2.087   0.948  0.0000  0.0000  0.0000
  319CHX    CAA 1909   2.530   2.123   1.290  0.0000  0.0000  0.0000
  319CHX    CAB 1910   2.625   2.221   1.359  0.0000  0.0000  0.0000
  319CHX    CAD 1911   2.550   2.347   1.402  0.0000  0.0000  0.0000
  319CHX    CAF 1912   2.435   2.310   1.496  0.0000  0.0000  0.0000
  319CHX    CAE 1913   2.339   2.213   1.428  0.0000  0.0000  0.0000
  319CHX    CAC 1914   2.415   2.087   1.384  0.0000  0.0000  0.0000
  320CHX    CAA 1915   2.530   2.123   1.726  0.0000  0.0000  0.0000
  320CHX    CAB 1916   2.625   2.221   1.795  0.0000  0.0000  0.0000
  320CHX    CAD 1917   2.550   2.347   1.838  0.0000  0.0000  0.0000
  320CHX    CAF 1918   2.435   2.310   1.932  0.0000  0.0000  0.0000
  320CHX    CAE 1919   2.339   2.213   1.864  0.0000  0.0000  0.0000
  320CHX    CAC 1920   2.415   2.087   1.820  0.0000  0.0000  0.0000
  321CHX    CAA 1921   2.530   2.123   2.162  0.0000  0.0000  0.0000
  321CHX    CAB 1922   2.625   2.221   2.231  0.0000  0.0000  0.0000
  321CHX    CAD 1923   2.550   2.347   2.274  0.0000  0.0000  0.0000
  321CHX    CAF 1924   2.435   2.310   2.368  0.0000  0.0000  0.0000
  321CHX    CAE 1925   2.339   2.213   2.300  0.0000  0.0000  0.0000
  321CHX    CAC 1926   2.415   2.087   2.256  0.0000  0.0000  0.0000
  322CHX    CAA 1927   2.530   2.123   2.598  0.0000  0.0000  0.0000
  322CHX    CAB 1928   2.625   2.221   2.667  0.0000  0.0000  0.0000
  322CHX    CAD 1929   2.550   2.347   2.710  0.0000  0.0000  0.0000
  322CHX    CAF 1930   2.435   2.310   2.804  0.0000  0.0000  0.0000
  322CHX    CAE 1931   2.339   2.213   2.736  0.0000  0.0000  0.0000
  322CHX    CAC 1932   2.415   2.087   2.692  0.0000  0.0000  0.0000
  323CHX    CAA 1933   2.530   2.559  -0.018  0.0000  0.0000  0.0000
  323CHX    CAB 1934   2.625   2.657   0.051  0.0000  0.0000  0.0000
  323CHX    CAD 1935   2.550   2.783   0.094  0.0000  0.0000  0.0000
  323CHX    CAF 1936   2.435   2.746   0.188  0.0000  0.0000  0.0000
  323CHX    CAE 1937   2.339   2.649   0.120  0.0000  0.0000  0.0000
  323CHX    CAC 1938   2.415   2.523   0.076  0.0000  0.0000  0.0000
  324CHX    CAA 1939   2.530   2.559   0.418  0.0000  0.0000  0.0000
  324CHX    CAB 1940   2.625   2.657   0.487  0.0000  0.0000  0.0000
  324CHX    CAD 1941   2.550   2.783   0.530  0.0000  0.0000  0.0000
  324CHX    CAF 1942   2.435   2.746   0.624  0.0000  0.0000  0.0000
  324CHX    CAE 1943   2.339   2.649   0.556  0.0000  0.0000  0.0000
  324CHX    CAC 1944   2.415   2.523   0.512  0.0000  0.0000  0.0000
  325CHX    CAA 1945   2.530   2.559   0.854  0.0000  0.0000  0.0000
  325CHX    CAB 1946   2.625   2.657   0.923  0.0000  0.0000  0.0000
  325CHX    CAD 1947   2.550   2.783   0.966  0.0000  0.0000  0.0000
  325CHX    CAF 1948   2.435   2.746   1.060  0.0000  0.0000  0.0000
  325CHX    CAE 1949   2.339   2.649   0.992  0.0000  0.0000  0.0000
  325CHX    CAC 1950   2.415   2.523   0.948  0.0000  0.0000  0.0000
  326CHX    CAA 1951   2.530   2.559   1.290  0.0000  0.0000  0.0000
  326CHX    CAB 1952   2.625   2.657   1.359  0.0000  0.0000  0.0000
  326CHX    CAD 1953   2.550   2.783   1.402  0.0000  0.0000  0.0000
  326CHX    CAF 1954   2.435   2.746   1.496  0.0000  0.0000  0.0000
  326CHX    CAE 1955   2.339   2.649   1.428  0.0000  0.0000  0.0000
  326CHX    CAC 1956   2.415   2.523   1.384  0.0000  0.0000  0.0000
  327CHX    CAA 1957   2.530   2.559   1.726  0.0000  0.0000  0.0000
  327CHX    CAB 1958   2.625   2.657   1.795  0.0000  0.0000  0.0000
  327CHX    CAD 1959   2.550   2.783   1.838  0.0000  0.0000  0.0000
  327CHX    CAF 1960   2.435   2.746   1.932  0.0000  0.0000  0.0000
  327CHX    CAE 1961   2.339   2.649   1.864  0.0000  0.0000  0.0000
  327CHX    CAC 1962   2.415   2.523   1.820  0.0000  0.0000  0.0000
  328CHX    CAA 1963   2.530   2.559   2.162  0.0000  0.0000  0.0000
  328CHX    CAB 1964   2.625   2.657   2.231  0.0000  0.0000  0.0000
  328CHX    CAD 1965   2.550   2.783   2.274  0.0000  0.0000  0.0000
  328CHX    CAF 1966   2.435   2.746   2.368  0.0000  0.0000  0.0000
  328CHX    CAE 1967   2.339   2.649   2.300  0.0000  0.0000  0.0000
  328CHX    CAC 1968   2.415   2.523   2.256  0.0000  0.0000  0.0000
  329CHX    CAA 1969   2.530   2.559   2.598  0.0000  0.0000  0.0000
  329CHX    CAB 1970   2.625   2.657   2.667  0.0000  0.0000  0.0000
  329CHX    CAD 1971   2.550   2.783   2.710  0.0000  0.0000  0.0000
  329CHX    CAF 1972   2.435   2.746   2.804  0.0000  0.0000  0.0000
  329CHX    CAE 1973   2.339   2.649   2.736  0.0000  0.0000  0.0000
  329CHX    CAC 1974   2.415   2.523   2.692  0.0000  0.0000  0.0000
  330CHX    CAA 1975   2.530   2.995  -0.018  0.0000  0.0000  0.0000
  330CHX    CAB 1976   2.625   3.093   0.051  0.0000  0.0000  0.0000
  330CHX    CAD 1977   2.550   3.219   0.094  0.0000  0.0000  0.0000
  330CHX    CAF 1978   2.435   3.182   0.188  0.0000  0.0000  0.0000
  330CHX    CAE 1979   2.339   3.085   0.120  0.0000  0.0000  0.0000
  330CHX    CAC 1980   2.415   2.959   0.076  0.0000  0.0000  0.0000
  331CHX    CAA 1981   2.530   2.995   0.418  0.0000  0.0000  0.0000
  331CHX    CAB 1982   2.625   3.093   0.487  0.0000  0.0000  0.0000
  331CHX    CAD 1983   2.550   3.219   0.530  0.0000  0.0000  0.0000
  331CHX    CAF 1984   2.435   3.182   0.624  0.0000  0.0000  0.0000
  331CHX    CAE 1985   2.339   3.085   0.556  0.0000  0.0000  0.0000
  331CHX    CAC 1986   2.415   2.959   0.512  0.0000  0.0000  0.0000
  332CHX    CAA 1987   2.530   2.995   0.854  0.0000  0.0000  0.0000
  332CHX    CAB 1988   2.625   3.093   0.923  0.0000  0.0000  0.0000
  332CHX    CAD 1989   2.550   3.219   0.966  0.0000  0.0000  0.0000
  332CHX    CAF 1990   2.435   3.182   1.060  0.0000  0.0000  0.0000
  332CHX    CAE 1991   2.339   3.085   0.992  0.0000  0.0000  0.0000
  332CHX    CAC 1992   2.415   2.959   0.948  0.0000  0.0000  0.0000
  333CHX    CAA 1993   2.530   2.995   1.290  0.0000  0.0000  0.0000
  333CHX    CAB 1994   2.625   3.093   1.359  0.0000  0.0000  0.0000
  333CHX    CAD 1995   2.550   3.219   1.402  0.0000  0.0000  0.0000
  333CHX    CAF 1996   2.435   3.182   1.496  0.0000  0.0000  0.0000
  333CHX    CAE 1997   2.339   3.085   1.428  0.0000  0.0000  0.0000
  333CHX    CAC 1998   2.415   2.959   1.384  0.0000  0.0000  0.0000
  334CHX    CAA 1999   2.530   2.995   1.726  0.0000  0.0000  0.0000
  334CHX    CAB 2000   2.625   3.093   1.795  0.0000  0.0000  0.0000
  334CHX    CAD 2001   2.550   3.219   1.838  0.0000  0.0000  0.0000
  334CHX    CAF 2002   2.435   3.182   1.932  0.0000  0.0000  0.0000
  334CHX    CAE 2003   2.339   3.085   1.864  0.0000  0.0000  0.0000
  334CHX    CAC 2004   2.415   2.959   1.820  0.0000  0.0000  0.0000
  335CHX    CAA 2005   2.530   2.995   2.162  0.0000  0.0000  0.0000
  335CHX    CAB 2006   2.625   3.093   2.231  0.0000  0.0000  0.0000
  335CHX    CAD 2007   2.550   3.219   2.274  0.0000  0.0000  0.0000
  335CHX    CAF 2008   2.435   3.182   2.368  0.0000  0.0000  0.0000
  335CHX    CAE 2009   2.339   3.085   2.300  0.0000  0.0000  0.0000
  335CHX    CAC 2010   2.415   2.959   2.256  0.0000  0.0000  0.0000
  336CHX    CAA 2011   2.530   2.995   2.598  0.0000  0.0000  0.0000
  336CHX    CAB 2012   2.625   3.093   2.667  0.0000  0.0000  0.0000
  336CHX    CAD 2013   2.550   3.219   2.710  0.0000  0.0000  0.0000
  336CHX    CAF 2014   2.435   3.182   2.804  0.0000  0.0000  0.0000
  336CHX    CAE 2015   2.339   3.085   2.736  0.0000  0.0000  0.0000
  336CHX    CAC 2016   2.415   2.959   2.692  0.0000  0.0000  0.0000
  337CHX    CAA 2017   2.530   3.431  -0.018  0.0000  0.0000  0.0000
  337CHX    CAB 2018   2.625   3.529   0.051  0.0000  0.0000  0.0000
  337CHX    CAD 2019   2.550   3.655   0.094  0.0000  0.0000  0.0000
  337CHX    CAF 2020   2.435   3.618   0.188  0.0000  0.0000  0.0000
  337CHX    CAE 2021   2.339   3.521   0.120  0.0000  0.0000  0.0000
  337CHX    CAC 2022   2.415   3.395   0.076  0.0000  0.0000  0.0000
  338CHX    CAA 2023   2.530   3.431   0.418  0.0000  0.0000  0.0000
  338CHX    CAB 2024   2.625   3.529   0.487  0.0000  0.0000  0.0000
  338CHX    CAD 2025   2.550   3.655   0.530  0.0000  0.0000  0.0000
  338CHX    CAF 2026   2.435   3.618   0.624  0.0000  0.0000  0.0000
  338CHX    CAE 2027   2.339   3.521   0.556  0.0000  0.0000  0.0000
  338CHX    CAC 2028   2.415   3.395   0.512  0.0000  0.0000  0.0000
  339CHX    CAA 2029   2.530   3.431   0.854  0.0000  0.0000  0.0000
  339CHX    CAB 2030   2.625   3.529   0.923  0.0000  0.0000  0.0000
  339CHX    CAD 2031   2.550   3.655   0.966  0.0000  0.0000  0.0000
  339CHX    CAF 2032   2.435   3.618   1.060  0.0000  0.0000  0.0000
  339CHX    CAE 2033   2.339   3.521   0.992  0.0000  0.0000  0.0000
  339CHX    CAC 2034   2.415   3.395   0.948  0.0000  0.0000  0.0000
  340CHX    CAA 2035   2.530   3.431   1.290  0.0000  0.0000  0.0000
  340CHX    CAB 2036   2.625   3.529   1.359  0.0000  0.0000  0.0000
  340CHX    CAD 2037   2.550   3.655   1.402  0.0000  0.0000  0.0000
  340CHX    CAF 2038   2.435   3.618   1.496  0.0000  0.0000  0.0000
  340CHX    CAE 2039   2.339   3.521   1.428  0.0000  0.0000  0.0000
  340CHX    CAC 2040   2.415   3.395   1.384  0.0000  0.0000  0.0000
  341CHX    CAA 2041   2.530   3.431   1.726  0.0000  0.0000  0.0000
  341CHX    CAB 2042   2.625   3.529   1.795  0.0000  0.0000  0.0000
  341CHX    CAD 2043   2.550   3.655   1.838  0.0000  0.0000  0.0000
  341CHX    CAF 2044   2.435   3.618   1.932  0.0000  0.0000  0.0000
  341CHX    CAE 2045   2.339   3.521   1.864  0.0000  0.0000  0.0000
  341CHX    CAC 2046   2.415   3.395   1.820  0.0000  0.0000  0.0000
  342CHX    CAA 2047   2.530   3.431   2.162  0.0000  0.0000  0.0000
  342CHX    CAB 2048   2.625   3.529   2.231  0.0000  0.0000  0.0000
  342CHX    CAD 2049   2.550   3.655   2.274  0.0000  0.0000  0.0000
  342CHX    CAF 2050   2.435   3.618   2.368  0.0000  0.0000  0.0000
  342CHX    CAE 2051   2.339   3.521   2.300  0.0000  0.0000  0.0000
  342CHX    CAC 2052   2.415   3.395   2.256  0.0000  0.0000  0.0000
  343CHX    CAA 2053   2.530   3.431   2.598  0.0000  0.0000  0.0000
  343CHX    CAB 2054   2.625   3.529   2.667  0.0000  0.0000  0.0000
  343CHX    CAD 2055   2.550   3.655   2.710  0.0000  0.0000  0.0000
  343CHX    CAF 2056   2.435   3.618   2.804  0.0000  0.0000  0.0000
  343CHX    CAE 2057   2.339   3.521   2.736  0.0000  0.0000  0.0000
  343CHX    CAC 2058   2.415   3.395   2.692  0.0000  0.0000  0.0000
   3.05200   3.05200   3.05200
