Generated by trjconv : CNT in water t= 498.00000
33518
    1C        C    1   2.840   2.760   4.744
    1C        C    2   2.891   2.711   4.866
    1C        C    3   2.838   2.770   4.981
    1C        C    4   2.852   2.773   4.259
    1C        C    5   2.906   2.729   4.381
    1C        C    6   2.848   2.773   4.503
    1C        C    7   3.011   2.632   4.623
    1C        C    8   2.896   2.714   4.622
    1C        C    9   3.075   2.601   4.744
    1C        C   10   3.005   2.628   4.864
    1C        C   11   3.183   2.493   4.979
    1C        C   12   3.057   2.554   4.972
    1C        C   13   2.853   2.768   3.770
    1C        C   14   2.899   2.715   3.892
    1C        C   15   2.845   2.763   4.013
    1C        C   16   3.015   2.638   4.136
    1C        C   17   2.900   2.720   4.137
    1C        C   18   3.078   2.607   4.258
    1C        C   19   3.019   2.644   4.381
    1C        C   20   3.208   2.548   4.502
    1C        C   21   3.077   2.599   4.502
    1C        C   22   3.278   2.529   4.623
    1C        C   23   3.207   2.546   4.744
    1C        C   24   3.410   2.481   4.864
    1C        C   25   3.268   2.502   4.864
    1C        C   26   3.489   2.477   4.980
    1C        C   27   2.847   2.763   3.280
    1C        C   28   2.900   2.716   3.402
    1C        C   29   2.849   2.763   3.525
    1C        C   30   3.017   2.634   3.646
    1C        C   31   2.905   2.721   3.647
    1C        C   32   3.074   2.596   3.770
    1C        C   33   3.013   2.630   3.892
    1C        C   34   3.207   2.546   4.013
    1C        C   35   3.076   2.600   4.015
    1C        C   36   3.275   2.529   4.136
    1C        C   37   3.208   2.551   4.258
    1C        C   38   3.413   2.497   4.381
    1C        C   39   3.275   2.524   4.379
    1C        C   40   3.486   2.493   4.502
    1C        C   41   3.415   2.495   4.624
    1C        C   42   3.629   2.481   4.743
    1C        C   43   3.487   2.479   4.745
    1C        C   44   3.705   2.485   4.862
    1C        C   45   3.628   2.478   4.979
    1C        C   46   2.835   2.748   2.795
    1C        C   47   2.891   2.704   2.917
    1C        C   48   2.842   2.758   3.038
    1C        C   49   3.010   2.625   3.160
    1C        C   50   2.896   2.710   3.159
    1C        C   51   3.074   2.594   3.282
    1C        C   52   3.012   2.630   3.404
    1C        C   53   3.205   2.538   3.527
    1C        C   54   3.074   2.591   3.525
    1C        C   55   3.273   2.517   3.649
    1C        C   56   3.203   2.539   3.770
    1C        C   57   3.412   2.493   3.892
    1C        C   58   3.273   2.517   3.892
    1C        C   59   3.484   2.491   4.014
    1C        C   60   3.413   2.500   4.136
    1C        C   61   3.624   2.498   4.259
    1C        C   62   3.483   2.491   4.258
    1C        C   63   3.696   2.511   4.380
    1C        C   64   3.627   2.502   4.503
    1C        C   65   3.834   2.548   4.620
    1C        C   66   3.700   2.504   4.623
    1C        C   67   3.907   2.560   4.740
    1C        C   68   3.840   2.526   4.860
    1C        C   69   4.048   2.585   4.975
    1C        C   70   3.919   2.531   4.975
    1C        C   71   2.826   2.733   2.308
    1C        C   72   2.882   2.689   2.430
    1C        C   73   2.830   2.742   2.550
    1C        C   74   3.004   2.620   2.671
    1C        C   75   2.887   2.699   2.673
    1C        C   76   3.068   2.588   2.792
    1C        C   77   3.010   2.627   2.915
    1C        C   78   3.202   2.539   3.035
    1C        C   79   3.072   2.595   3.037
    1C        C   80   3.272   2.525   3.157
    1C        C   81   3.206   2.542   3.281
    1C        C   82   3.411   2.497   3.404
    1C        C   83   3.271   2.516   3.404
    1C        C   84   3.483   2.490   3.525
    1C        C   85   3.411   2.489   3.647
    1C        C   86   3.622   2.494   3.768
    1C        C   87   3.481   2.487   3.770
    1C        C   88   3.691   2.509   3.890
    1C        C   89   3.625   2.499   4.015
    1C        C   90   3.830   2.551   4.133
    1C        C   91   3.696   2.507   4.137
    1C        C   92   3.899   2.574   4.254
    1C        C   93   3.832   2.549   4.376
    1C        C   94   4.026   2.637   4.496
    1C        C   95   3.900   2.572   4.497
    1C        C   96   4.089   2.674   4.617
    1C        C   97   4.033   2.625   4.737
    1C        C   98   4.194   2.761   4.863
    1C        C   99   4.098   2.655   4.860
    1C        C  100   4.214   2.841   4.977
    1C        C  101   2.822   2.733   2.069
    1C        C  102   2.985   2.586   2.192
    1C        C  103   2.875   2.678   2.187
    1C        C  104   3.063   2.574   2.310
    1C        C  105   3.001   2.613   2.430
    1C        C  106   3.198   2.528   2.549
    1C        C  107   3.069   2.585   2.551
    1C        C  108   3.265   2.508   2.672
    1C        C  109   3.197   2.531   2.793
    1C        C  110   3.406   2.481   2.912
    1C        C  111   3.267   2.507   2.914
    1C        C  112   3.478   2.486   3.033
    1C        C  113   3.410   2.499   3.157
    1C        C  114   3.620   2.497   3.278
    1C        C  115   3.479   2.490   3.280
    1C        C  116   3.691   2.507   3.399
    1C        C  117   3.624   2.500   3.523
    1C        C  118   3.829   2.547   3.645
    1C        C  119   3.692   2.512   3.646
    1C        C  120   3.892   2.577   3.768
    1C        C  121   3.825   2.555   3.890
    1C        C  122   4.017   2.650   4.012
    1C        C  123   3.893   2.582   4.011
    1C        C  124   4.080   2.684   4.134
    1C        C  125   4.023   2.641   4.256
    1C        C  126   4.195   2.771   4.375
    1C        C  127   4.086   2.681   4.376
    1C        C  128   4.240   2.823   4.498
    1C        C  129   4.193   2.769   4.620
    1C        C  130   4.328   2.932   4.738
    1C        C  131   4.245   2.816   4.742
    1C        C  132   4.356   3.002   4.857
    1C        C  133   4.281   2.963   4.969
    1C        C  134   3.171   2.466   2.079
    1C        C  135   3.038   2.510   2.083
    1C        C  136   3.258   2.477   2.189
    1C        C  137   3.192   2.514   2.308
    1C        C  138   3.405   2.479   2.425
    1C        C  139   3.265   2.497   2.428
    1C        C  140   3.477   2.481   2.546
    1C        C  141   3.405   2.484   2.668
    1C        C  142   3.616   2.502   2.790
    1C        C  143   3.476   2.481   2.789
    1C        C  144   3.688   2.508   2.911
    1C        C  145   3.619   2.498   3.033
    1C        C  146   3.825   2.546   3.156
    1C        C  147   3.690   2.506   3.155
    1C        C  148   3.891   2.574   3.278
    1C        C  149   3.826   2.550   3.401
    1C        C  150   4.021   2.634   3.523
    1C        C  151   3.896   2.569   3.523
    1C        C  152   4.077   2.678   3.645
    1C        C  153   4.017   2.643   3.769
    1C        C  154   4.191   2.769   3.886
    1C        C  155   4.075   2.688   3.889
    1C        C  156   4.249   2.810   4.008
    1C        C  157   4.196   2.765   4.131
    1C        C  158   4.343   2.920   4.250
    1C        C  159   4.251   2.813   4.252
    1C        C  160   4.380   2.981   4.372
    1C        C  161   4.334   2.929   4.495
    1C        C  162   4.441   3.113   4.615
    1C        C  163   4.372   2.990   4.617
    1C        C  164   4.464   3.183   4.736
    1C        C  165   4.429   3.122   4.858
    1C        C  166   4.513   3.322   4.972
    1C        C  167   4.474   3.189   4.973
    1C        C  168   3.474   2.438   2.068
    1C        C  169   3.398   2.458   2.184
    1C        C  170   3.616   2.466   2.304
    1C        C  171   3.474   2.466   2.302
    1C        C  172   3.689   2.488   2.423
    1C        C  173   3.618   2.492   2.544
    1C        C  174   3.823   2.540   2.665
    1C        C  175   3.684   2.513   2.667
    1C        C  176   3.889   2.565   2.787
    1C        C  177   3.824   2.546   2.911
    1C        C  178   4.018   2.634   3.031
    1C        C  179   3.891   2.572   3.033
    1C        C  180   4.079   2.668   3.154
    1C        C  181   4.020   2.631   3.277
    1C        C  182   4.191   2.754   3.398
    1C        C  183   4.081   2.665   3.399
    1C        C  184   4.242   2.808   3.518
    1C        C  185   4.191   2.761   3.641
    1C        C  186   4.340   2.914   3.762
    1C        C  187   4.244   2.811   3.762
    1C        C  188   4.385   2.970   3.884
    1C        C  189   4.343   2.916   4.007
    1C        C  190   4.446   3.105   4.127
    1C        C  191   4.381   2.980   4.128
    1C        C  192   4.476   3.170   4.249
    1C        C  193   4.440   3.109   4.371
    1C        C  194   4.505   3.313   4.491
    1C        C  195   4.467   3.177   4.492
    1C        C  196   4.523   3.385   4.612
    1C        C  197   4.508   3.318   4.735
    1C        C  198   4.555   3.535   4.847
    1C        C  199   4.532   3.394   4.853
    1C        C  200   4.582   3.619   4.960
    1C        C  201   3.612   2.417   2.070
    1C        C  202   3.826   2.506   2.180
    1C        C  203   3.689   2.463   2.182
    1C        C  204   3.896   2.540   2.300
    1C        C  205   3.826   2.522   2.421
    1C        C  206   4.016   2.622   2.543
    1C        C  207   3.892   2.555   2.542
    1C        C  208   4.074   2.663   2.664
    1C        C  209   4.015   2.628   2.788
    1C        C  210   4.194   2.749   2.907
    1C        C  211   4.079   2.667   2.908
    1C        C  212   4.247   2.795   3.030
    1C        C  213   4.194   2.750   3.153
    1C        C  214   4.332   2.911   3.272
    1C        C  215   4.244   2.801   3.275
    1C        C  216   4.375   2.972   3.392
    1C        C  217   4.337   2.913   3.515
    1C        C  218   4.434   3.100   3.638
    1C        C  219   4.377   2.971   3.638
    1C        C  220   4.463   3.165   3.760
    1C        C  221   4.445   3.098   3.883
    1C        C  222   4.506   3.305   4.000
    1C        C  223   4.471   3.168   4.003
    1C        C  224   4.515   3.376   4.122
    1C        C  225   4.511   3.307   4.245
    1C        C  226   4.519   3.521   4.366
    1C        C  227   4.513   3.380   4.367
    1C        C  228   4.522   3.597   4.484
    1C        C  229   4.528   3.526   4.606
    1C        C  230   4.497   3.740   4.724
    1C        C  231   4.535   3.603   4.724
    1C        C  232   4.488   3.815   4.844
    1C        C  233   4.547   3.755   4.956
    1C        C  234   4.014   2.608   2.060
    1C        C  235   3.893   2.539   2.062
    1C        C  236   4.082   2.645   2.177
    1C        C  237   4.021   2.606   2.298
    1C        C  238   4.194   2.734   2.418
    1C        C  239   4.079   2.651   2.419
    1C        C  240   4.248   2.785   2.538
    1C        C  241   4.189   2.746   2.661
    1C        C  242   4.336   2.900   2.781
    1C        C  243   4.242   2.794   2.782
    1C        C  244   4.379   2.957   2.903
    1C        C  245   4.339   2.902   3.028
    1C        C  246   4.440   3.091   3.147
    1C        C  247   4.376   2.965   3.149
    1C        C  248   4.464   3.158   3.269
    1C        C  249   4.440   3.097   3.394
    1C        C  250   4.501   3.301   3.512
    1C        C  251   4.464   3.165   3.516
    1C        C  252   4.514   3.372   3.634
    1C        C  253   4.504   3.300   3.755
    1C        C  254   4.517   3.513   3.877
    1C        C  255   4.517   3.372   3.876
    1C        C  256   4.512   3.586   3.998
    1C        C  257   4.514   3.517   4.121
    1C        C  258   4.488   3.729   4.241
    1C        C  259   4.513   3.589   4.242
    1C        C  260   4.471   3.801   4.361
    1C        C  261   4.488   3.734   4.484
    1C        C  262   4.418   3.939   4.604
    1C        C  263   4.474   3.809   4.603
    1C        C  264   4.389   4.005   4.725
    1C        C  265   4.428   3.942   4.846
    1C        C  266   4.321   4.130   4.957
    1C        C  267   4.392   4.010   4.962
    1C        C  268   4.260   2.775   2.062
    1C        C  269   4.197   2.728   2.179
    1C        C  270   4.349   2.885   2.297
    1C        C  271   4.252   2.780   2.298
    1C        C  272   4.381   2.951   2.417
    1C        C  273   4.340   2.892   2.539
    1C        C  274   4.447   3.080   2.658
    1C        C  275   4.378   2.956   2.659
    1C        C  276   4.473   3.148   2.779
    1C        C  277   4.445   3.082   2.900
    1C        C  278   4.505   3.286   3.020
    1C        C  279   4.471   3.149   3.021
    1C        C  280   4.517   3.358   3.141
    1C        C  281   4.501   3.294   3.266
    1C        C  282   4.515   3.507   3.386
    1C        C  283   4.515   3.366   3.387
    1C        C  284   4.513   3.579   3.507
    1C        C  285   4.518   3.513   3.632
    1C        C  286   4.488   3.722   3.752
    1C        C  287   4.515   3.584   3.754
    1C        C  288   4.473   3.791   3.875
    1C        C  289   4.490   3.725   3.999
    1C        C  290   4.418   3.929   4.114
    1C        C  291   4.471   3.798   4.119
    1C        C  292   4.393   3.996   4.236
    1C        C  293   4.422   3.934   4.360
    1C        C  294   4.320   4.123   4.475
    1C        C  295   4.391   4.001   4.480
    1C        C  296   4.283   4.184   4.597
    1C        C  297   4.325   4.133   4.721
    1C        C  298   4.200   4.314   4.836
    1C        C  299   4.286   4.200   4.840
    1C        C  300   4.167   4.401   4.946
    1C        C  301   4.345   2.885   2.059
    1C        C  302   4.477   3.060   2.175
    1C        C  303   4.400   2.939   2.176
    1C        C  304   4.485   3.139   2.293
    1C        C  305   4.445   3.077   2.414
    1C        C  306   4.510   3.280   2.535
    1C        C  307   4.473   3.144   2.535
    1C        C  308   4.521   3.354   2.655
    1C        C  309   4.505   3.286   2.778
    1C        C  310   4.519   3.500   2.898
    1C        C  311   4.515   3.358   2.899
    1C        C  312   4.516   3.570   3.020
    1C        C  313   4.516   3.500   3.143
    1C        C  314   4.488   3.715   3.262
    1C        C  315   4.508   3.575   3.262
    1C        C  316   4.470   3.786   3.382
    1C        C  317   4.483   3.717   3.505
    1C        C  318   4.421   3.919   3.625
    1C        C  319   4.467   3.786   3.628
    1C        C  320   4.388   3.983   3.747
    1C        C  321   4.421   3.922   3.870
    1C        C  322   4.311   4.107   3.988
    1C        C  323   4.387   3.988   3.990
    1C        C  324   4.274   4.168   4.110
    1C        C  325   4.319   4.116   4.234
    1C        C  326   4.188   4.289   4.352
    1C        C  327   4.281   4.182   4.353
    1C        C  328   4.135   4.338   4.473
    1C        C  329   4.190   4.290   4.594
    1C        C  330   4.024   4.431   4.712
    1C        C  331   4.139   4.348   4.712
    1C        C  332   3.969   4.493   4.827
    1C        C  333   4.052   4.481   4.939
    1C        C  334   4.551   3.265   2.060
    1C        C  335   4.529   3.126   2.060
    1C        C  336   4.540   3.349   2.172
    1C        C  337   4.522   3.276   2.292
    1C        C  338   4.528   3.491   2.410
    1C        C  339   4.524   3.350   2.412
    1C        C  340   4.521   3.565   2.530
    1C        C  341   4.522   3.495   2.653
    1C        C  342   4.490   3.707   2.773
    1C        C  343   4.512   3.567   2.774
    1C        C  344   4.472   3.778   2.894
    1C        C  345   4.498   3.710   3.015
    1C        C  346   4.424   3.911   3.136
    1C        C  347   4.474   3.779   3.136
    1C        C  348   4.394   3.979   3.256
    1C        C  349   4.425   3.920   3.380
    1C        C  350   4.314   4.100   3.499
    1C        C  351   4.395   3.984   3.502
    1C        C  352   4.269   4.159   3.620
    1C        C  353   4.312   4.102   3.742
    1C        C  354   4.179   4.268   3.865
    1C        C  355   4.269   4.159   3.864
    1C        C  356   4.126   4.321   3.985
    1C        C  357   4.179   4.273   4.107
    1C        C  358   4.009   4.399   4.228
    1C        C  359   4.128   4.323   4.229
    1C        C  360   3.950   4.442   4.349
    1C        C  361   4.018   4.417   4.470
    1C        C  362   3.826   4.511   4.590
    1C        C  363   3.957   4.458   4.591
    1C        C  364   3.759   4.544   4.710
    1C        C  365   3.835   4.539   4.828
    1C        C  366   3.628   4.593   4.946
    1C        C  367   3.766   4.574   4.945
    1C        C  368   4.514   3.558   2.046
    1C        C  369   4.521   3.488   2.167
    1C        C  370   4.493   3.701   2.285
    1C        C  371   4.518   3.562   2.288
    1C        C  372   4.478   3.773   2.405
    1C        C  373   4.499   3.704   2.527
    1C        C  374   4.428   3.905   2.648
    1C        C  375   4.476   3.772   2.648
    1C        C  376   4.390   3.970   2.767
    1C        C  377   4.420   3.909   2.891
    1C        C  378   4.319   4.094   3.010
    1C        C  379   4.394   3.975   3.013
    1C        C  380   4.276   4.154   3.131
    1C        C  381   4.317   4.098   3.254
    1C        C  382   4.177   4.257   3.375
    1C        C  383   4.275   4.156   3.376
    1C        C  384   4.122   4.306   3.495
    1C        C  385   4.173   4.263   3.619
    1C        C  386   4.004   4.386   3.740
    1C        C  387   4.125   4.312   3.742
    1C        C  388   3.942   4.425   3.861
    1C        C  389   4.006   4.396   3.983
    1C        C  390   3.816   4.488   4.107
    1C        C  391   3.945   4.430   4.106
    1C        C  392   3.749   4.518   4.227
    1C        C  393   3.819   4.496   4.348
    1C        C  394   3.617   4.555   4.472
    1C        C  395   3.756   4.531   4.469
    1C        C  396   3.544   4.560   4.594
    1C        C  397   3.619   4.563   4.713
    1C        C  398   3.407   4.553   4.838
    1C        C  399   3.547   4.574   4.834
    1C        C  400   3.340   4.514   4.955
    1C        C  401   4.500   3.696   2.048
    1C        C  402   4.451   3.910   2.163
    1C        C  403   4.484   3.773   2.164
    1C        C  404   4.408   3.972   2.282
    1C        C  405   4.434   3.907   2.405
    1C        C  406   4.324   4.091   2.523
    1C        C  407   4.397   3.970   2.526
    1C        C  408   4.276   4.149   2.643
    1C        C  409   4.310   4.087   2.765
    1C        C  410   4.177   4.250   2.886
    1C        C  411   4.274   4.148   2.887
    1C        C  412   4.125   4.300   3.008
    1C        C  413   4.179   4.257   3.131
    1C        C  414   4.004   4.378   3.252
    1C        C  415   4.124   4.304   3.252
    1C        C  416   3.942   4.414   3.373
    1C        C  417   4.005   4.385   3.496
    1C        C  418   3.812   4.476   3.618
    1C        C  419   3.942   4.420   3.618
    1C        C  420   3.746   4.500   3.740
    1C        C  421   3.811   4.478   3.863
    1C        C  422   3.609   4.540   3.986
    1C        C  423   3.746   4.505   3.986
    1C        C  424   3.538   4.546   4.108
    1C        C  425   3.610   4.544   4.229
    1C        C  426   3.402   4.546   4.354
    1C        C  427   3.543   4.559   4.352
    1C        C  428   3.331   4.540   4.476
    1C        C  429   3.403   4.552   4.596
    1C        C  430   3.194   4.512   4.721
    1C        C  431   3.333   4.542   4.719
    1C        C  432   3.122   4.489   4.842
    1C        C  433   3.204   4.488   4.956
    1C        C  434   4.377   4.118   2.049
    1C        C  435   4.443   3.994   2.051
    1C        C  436   4.305   4.165   2.164
    1C        C  437   4.337   4.095   2.283
    1C        C  438   4.182   4.249   2.402
    1C        C  439   4.282   4.149   2.402
    1C        C  440   4.126   4.300   2.521
    1C        C  441   4.179   4.251   2.643
    1C        C  442   4.004   4.374   2.766
    1C        C  443   4.122   4.296   2.764
    1C        C  444   3.940   4.409   2.887
    1C        C  445   4.006   4.375   3.007
    1C        C  446   3.812   4.464   3.129
    1C        C  447   3.942   4.411   3.129
    1C        C  448   3.747   4.491   3.251
    1C        C  449   3.813   4.473   3.374
    1C        C  450   3.606   4.523   3.495
    1C        C  451   3.745   4.497   3.496
    1C        C  452   3.538   4.533   3.618
    1C        C  453   3.608   4.531   3.741
    1C        C  454   3.398   4.538   3.863
    1C        C  455   3.539   4.548   3.863
    1C        C  456   3.327   4.530   3.985
    1C        C  457   3.397   4.540   4.107
    1C        C  458   3.194   4.500   4.235
    1C        C  459   3.332   4.532   4.232
    1C        C  460   3.126   4.481   4.357
    1C        C  461   3.193   4.507   4.479
    1C        C  462   2.994   4.434   4.601
    1C        C  463   3.125   4.488   4.600
    1C        C  464   2.926   4.402   4.721
    1C        C  465   2.988   4.439   4.843
    1C        C  466   2.800   4.337   4.958
    1C        C  467   2.907   4.427   4.961
    1C        C  468   4.121   4.276   2.042
    1C        C  469   4.191   4.252   2.161
    1C        C  470   4.009   4.373   2.276
    1C        C  471   4.130   4.298   2.280
    1C        C  472   3.941   4.401   2.397
    1C        C  473   4.002   4.368   2.520
    1C        C  474   3.813   4.460   2.641
    1C        C  475   3.945   4.409   2.642
    1C        C  476   3.743   4.483   2.762
    1C        C  477   3.812   4.468   2.885
    1C        C  478   3.606   4.517   3.007
    1C        C  479   3.745   4.491   3.007
    1C        C  480   3.536   4.527   3.129
    1C        C  481   3.608   4.518   3.250
    1C        C  482   3.396   4.532   3.374
    1C        C  483   3.537   4.531   3.372
    1C        C  484   3.327   4.522   3.497
    1C        C  485   3.397   4.531   3.619
    1C        C  486   3.188   4.503   3.743
    1C        C  487   3.326   4.535   3.742
    1C        C  488   3.124   4.475   3.866
    1C        C  489   3.190   4.495   3.989
    1C        C  490   3.002   4.407   4.114
    1C        C  491   3.127   4.472   4.114
    1C        C  492   2.940   4.379   4.238
    1C        C  493   2.999   4.420   4.360
    1C        C  494   2.825   4.300   4.481
    1C        C  495   2.932   4.392   4.481
    1C        C  496   2.774   4.251   4.603
    1C        C  497   2.817   4.310   4.724
    1C        C  498   2.661   4.165   4.842
    1C        C  499   2.750   4.274   4.843
    1C        C  500   2.594   4.116   4.955
    1C        C  501   4.000   4.345   2.040
    1C        C  502   3.812   4.458   2.157
    1C        C  503   3.940   4.398   2.155
    1C        C  504   3.742   4.476   2.278
    1C        C  505   3.809   4.450   2.399
    1C        C  506   3.603   4.502   2.518
    1C        C  507   3.742   4.476   2.521
    1C        C  508   3.532   4.513   2.640
    1C        C  509   3.604   4.508   2.762
    1C        C  510   3.395   4.525   2.886
    1C        C  511   3.536   4.520   2.885
    1C        C  512   3.324   4.517   3.008
    1C        C  513   3.395   4.530   3.130
    1C        C  514   3.187   4.491   3.253
    1C        C  515   3.325   4.524   3.252
    1C        C  516   3.122   4.465   3.375
    1C        C  517   3.190   4.489   3.497
    1C        C  518   2.999   4.408   3.625
    1C        C  519   3.124   4.472   3.621
    1C        C  520   2.940   4.368   3.748
    1C        C  521   3.000   4.408   3.869
    1C        C  522   2.834   4.278   3.994
    1C        C  523   2.943   4.368   3.992
    1C        C  524   2.780   4.236   4.118
    1C        C  525   2.830   4.290   4.238
    1C        C  526   2.693   4.131   4.361
    1C        C  527   2.779   4.242   4.361
    1C        C  528   2.652   4.074   4.483
    1C        C  529   2.687   4.140   4.604
    1C        C  530   2.577   3.960   4.728
    1C        C  531   2.636   4.089   4.725
    1C        C  532   2.535   3.901   4.850
    1C        C  533   2.525   3.995   4.958
    1C        C  534   3.614   4.548   2.040
    1C        C  535   3.747   4.503   2.042
    1C        C  536   3.532   4.535   2.156
    1C        C  537   3.603   4.508   2.276
    1C        C  538   3.390   4.516   2.398
    1C        C  539   3.531   4.514   2.397
    1C        C  540   3.319   4.515   2.520
    1C        C  541   3.391   4.516   2.641
    1C        C  542   3.185   4.484   2.762
    1C        C  543   3.322   4.516   2.765
    1C        C  544   3.120   4.461   2.886
    1C        C  545   3.187   4.485   3.008
    1C        C  546   2.997   4.395   3.133
    1C        C  547   3.120   4.464   3.131
    1C        C  548   2.936   4.364   3.256
    1C        C  549   2.995   4.402   3.379
    1C        C  550   2.831   4.276   3.504
    1C        C  551   2.939   4.368   3.504
    1C        C  552   2.779   4.229   3.626
    1C        C  553   2.829   4.280   3.748
    1C        C  554   2.695   4.120   3.873
    1C        C  555   2.781   4.232   3.872
    1C        C  556   2.653   4.064   3.996
    1C        C  557   2.689   4.127   4.117
    1C        C  558   2.590   3.943   4.245
    1C        C  559   2.648   4.072   4.240
    1C        C  560   2.560   3.879   4.367
    1C        C  561   2.587   3.949   4.487
    1C        C  562   2.530   3.746   4.613
    1C        C  563   2.557   3.885   4.610
    1C        C  564   2.519   3.678   4.736
    1C        C  565   2.521   3.758   4.854
    1C        C  566   2.521   3.543   4.976
    1C        C  567   2.525   3.682   4.972
    1C        C  568   3.323   4.464   2.042
    1C        C  569   3.392   4.509   2.156
    1C        C  570   3.180   4.474   2.277
    1C        C  571   3.317   4.510   2.277
    1C        C  572   3.114   4.457   2.401
    1C        C  573   3.181   4.485   2.522
    1C        C  574   2.987   4.401   2.644
    1C        C  575   3.110   4.470   2.643
    1C        C  576   2.932   4.356   2.766
    1C        C  577   2.997   4.393   2.887
    1C        C  578   2.828   4.268   3.013
    1C        C  579   2.939   4.355   3.010
    1C        C  580   2.777   4.221   3.136
    1C        C  581   2.831   4.269   3.257
    1C        C  582   2.692   4.115   3.383
    1C        C  583   2.784   4.223   3.382
    1C        C  584   2.654   4.058   3.507
    1C        C  585   2.690   4.120   3.629
    1C        C  586   2.591   3.934   3.752
    1C        C  587   2.652   4.061   3.752
    1C        C  588   2.565   3.874   3.878
    1C        C  589   2.586   3.940   4.001
    1C        C  590   2.532   3.737   4.124
    1C        C  591   2.566   3.874   4.124
    1C        C  592   2.517   3.672   4.248
    1C        C  593   2.526   3.742   4.370
    1C        C  594   2.512   3.533   4.497
    1C        C  595   2.512   3.674   4.493
    1C        C  596   2.518   3.461   4.618
    1C        C  597   2.516   3.536   4.738
    1C        C  598   2.536   3.324   4.860
    1C        C  599   2.526   3.465   4.859
    1C        C  600   2.533   3.246   4.976
    1C        C  601   3.189   4.432   2.038
    1C        C  602   2.980   4.389   2.157
    1C        C  603   3.114   4.438   2.156
    1C        C  604   2.924   4.355   2.283
    1C        C  605   2.986   4.396   2.403
    1C        C  606   2.817   4.269   2.526
    1C        C  607   2.922   4.364   2.525
    1C        C  608   2.769   4.218   2.649
    1C        C  609   2.822   4.268   2.770
    1C        C  610   2.683   4.109   2.892
    1C        C  611   2.775   4.217   2.893
    1C        C  612   2.647   4.053   3.017
    1C        C  613   2.688   4.111   3.139
    1C        C  614   2.583   3.930   3.265
    1C        C  615   2.648   4.056   3.263
    1C        C  616   2.563   3.864   3.388
    1C        C  617   2.590   3.933   3.509
    1C        C  618   2.527   3.731   3.637
    1C        C  619   2.562   3.868   3.631
    1C        C  620   2.516   3.664   3.760
    1C        C  621   2.528   3.738   3.880
    1C        C  622   2.508   3.526   4.008
    1C        C  623   2.517   3.667   4.002
    1C        C  624   2.514   3.457   4.131
    1C        C  625   2.509   3.531   4.251
    1C        C  626   2.537   3.323   4.378
    1C        C  627   2.514   3.462   4.375
    1C        C  628   2.556   3.251   4.499
    1C        C  629   2.542   3.322   4.620
    1C        C  630   2.594   3.114   4.741
    1C        C  631   2.556   3.251   4.741
    1C        C  632   2.617   3.047   4.865
    1C        C  633   2.561   3.109   4.981
    1C        C  634   2.778   4.302   2.053
    1C        C  635   2.885   4.394   2.050
    1C        C  636   2.745   4.228   2.167
    1C        C  637   2.810   4.270   2.285
    1C        C  638   2.681   4.101   2.407
    1C        C  639   2.763   4.216   2.407
    1C        C  640   2.642   4.044   2.531
    1C        C  641   2.685   4.105   2.651
    1C        C  642   2.585   3.918   2.776
    1C        C  643   2.644   4.046   2.773
    1C        C  644   2.560   3.856   2.900
    1C        C  645   2.589   3.924   3.021
    1C        C  646   2.523   3.725   3.147
    1C        C  647   2.559   3.862   3.144
    1C        C  648   2.507   3.657   3.270
    1C        C  649   2.523   3.728   3.391
    1C        C  650   2.516   3.519   3.516
    1C        C  651   2.515   3.661   3.515
    1C        C  652   2.526   3.451   3.640
    1C        C  653   2.515   3.522   3.761
    1C        C  654   2.544   3.317   3.890
    1C        C  655   2.516   3.455   3.886
    1C        C  656   2.564   3.251   4.014
    1C        C  657   2.547   3.320   4.136
    1C        C  658   2.610   3.119   4.253
    1C        C  659   2.559   3.251   4.258
    1C        C  660   2.638   3.057   4.377
    1C        C  661   2.605   3.118   4.499
    1C        C  662   2.710   2.934   4.623
    1C        C  663   2.629   3.049   4.620
    1C        C  664   2.753   2.872   4.742
    1C        C  665   2.701   2.931   4.861
    1C        C  666   2.742   2.870   4.980
    1C        C  667   2.691   4.019   2.051
    1C        C  668   2.685   4.100   2.165
    1C        C  669   2.589   3.908   2.288
    1C        C  670   2.644   4.039   2.286
    1C        C  671   2.559   3.844   2.410
    1C        C  672   2.584   3.915   2.530
    1C        C  673   2.514   3.718   2.658
    1C        C  674   2.556   3.854   2.653
    1C        C  675   2.504   3.649   2.780
    1C        C  676   2.523   3.719   2.901
    1C        C  677   2.500   3.513   3.027
    1C        C  678   2.509   3.654   3.025
    1C        C  679   2.506   3.444   3.150
    1C        C  680   2.499   3.516   3.271
    1C        C  681   2.538   3.310   3.398
    1C        C  682   2.511   3.449   3.394
    1C        C  683   2.559   3.243   3.520
    1C        C  684   2.543   3.311   3.643
    1C        C  685   2.614   3.117   3.768
    1C        C  686   2.560   3.248   3.768
    1C        C  687   2.645   3.055   3.891
    1C        C  688   2.614   3.118   4.013
    1C        C  689   2.716   2.930   4.135
    1C        C  690   2.644   3.052   4.134
    1C        C  691   2.753   2.874   4.260
    1C        C  692   2.708   2.934   4.380
    1C        C  693   2.751   2.876   4.501
    1C        C  694   2.635   3.891   2.054
    1C        C  695   2.529   3.702   2.176
    1C        C  696   2.577   3.834   2.168
    1C        C  697   2.503   3.635   2.298
    1C        C  698   2.514   3.711   2.417
    1C        C  699   2.487   3.502   2.540
    1C        C  700   2.497   3.643   2.539
    1C        C  701   2.500   3.433   2.662
    1C        C  702   2.501   3.507   2.782
    1C        C  703   2.527   3.301   2.910
    1C        C  704   2.501   3.440   2.906
    1C        C  705   2.551   3.236   3.033
    1C        C  706   2.537   3.306   3.155
    1C        C  707   2.606   3.107   3.278
    1C        C  708   2.554   3.238   3.277
    1C        C  709   2.641   3.047   3.401
    1C        C  710   2.613   3.112   3.523
    1C        C  711   2.718   2.931   3.646
    1C        C  712   2.645   3.052   3.647
    1C        C  713   2.763   2.877   3.769
    1C        C  714   2.718   2.934   3.890
    1C        C  715   2.758   2.875   4.012
    1C        C  716   2.452   3.498   2.058
    1C        C  717   2.483   3.634   2.062
    1C        C  718   2.467   3.420   2.178
    1C        C  719   2.478   3.495   2.298
    1C        C  720   2.510   3.288   2.424
    1C        C  721   2.482   3.426   2.421
    1C        C  722   2.537   3.220   2.545
    1C        C  723   2.527   3.294   2.665
    1C        C  724   2.592   3.096   2.791
    1C        C  725   2.542   3.228   2.789
    1C        C  726   2.623   3.034   2.914
    1C        C  727   2.596   3.103   3.034
    1C        C  728   2.710   2.923   3.158
    1C        C  729   2.632   3.040   3.156
    1C        C  730   2.754   2.869   3.281
    1C        C  731   2.708   2.922   3.403
    1C        C  732   2.754   2.868   3.525
    1C        C  733   2.490   3.195   2.067
    1C        C  734   2.484   3.278   2.180
    1C        C  735   2.583   3.088   2.306
    1C        C  736   2.521   3.216   2.302
    1C        C  737   2.615   3.021   2.426
    1C        C  738   2.591   3.090   2.546
    1C        C  739   2.699   2.910   2.671
    1C        C  740   2.626   3.031   2.670
    1C        C  741   2.738   2.851   2.793
    1C        C  742   2.698   2.914   2.913
    1C        C  743   2.748   2.863   3.035
    1C        C  744   2.547   3.068   2.072
    1C        C  745   2.685   2.897   2.188
    1C        C  746   2.606   3.014   2.188
    1C        C  747   2.729   2.838   2.308
    1C        C  748   2.690   2.901   2.428
    1C        C  749   2.739   2.850   2.550
    1C        C  750   2.737   2.843   2.070
    1C        C  751   3.656   2.291   2.006
    1C        O  752   3.593   2.184   2.028
    1C        O  753   3.740   2.283   1.894
    1C        C  754   4.617   3.044   1.974
    1C        O  755   4.613   3.052   1.849
    1C        O  756   4.746   3.015   2.020
    1C        C  757   4.450   4.226   1.980
    1C        O  758   4.537   4.292   2.043
    1C        O  759   4.477   4.227   1.843
    1C        C  760   3.594   4.655   1.939
    1C        O  761   3.645   4.767   1.969
    1C        O  762   3.586   4.648   1.800
    1C        C  763   2.867   4.509   1.959
    1C        O  764   2.908   4.513   1.840
    1C        O  765   2.864   4.639   2.011
    1C        C  766   2.361   3.463   1.947
    1C        O  767   2.404   3.430   1.833
    1C        O  768   2.222   3.481   1.954
    1C        C  769   4.679   3.578   5.064
    1C        O  770   4.638   3.584   5.183
    1C        O  771   4.815   3.610   5.068
    1C        C  772   4.260   4.439   5.054
    1C        O  773   4.278   4.385   5.167
    1C        O  774   4.330   4.561   5.056
    1C        C  775   4.143   2.526   5.072
    1C        O  776   4.221   2.432   5.041
    1C        O  777   4.153   2.574   5.203
    1C        C  778   2.878   4.546   5.044
    1C        O  779   2.827   4.646   4.987
    1C        O  780   2.865   4.547   5.184
    1C        C  781   2.477   3.036   5.079
    1C        O  782   2.374   2.975   5.039
    1C        O  783   2.474   3.063   5.215
    1C        C  784   2.417   3.989   5.060
    1C        O  785   2.309   4.054   5.050
    1C        O  786   2.446   3.917   5.176
    1C        C  787   2.943   2.424   2.008
    1C        O  788   2.923   2.457   1.888
    1C        O  789   2.950   2.286   2.020
    1C        C  790   3.199   2.392   5.086
    1C        O  791   3.138   2.283   5.070
    1C        O  792   3.220   2.423   5.221
    1C        H  793   4.232   3.043   5.019
    1C        H  794   4.213   2.798   5.075
    1C        H  795   4.468   3.141   5.069
    1C        H  796   4.488   3.379   5.059
    1C        H  797   4.577   3.817   5.038
    1C        H  798   4.386   3.956   5.054
    1C        H  799   4.252   4.133   5.038
    1C        H  800   4.063   4.572   4.994
    1C        H  801   3.801   4.543   5.041
    1C        H  802   3.578   4.622   5.036
    1C        H  803   3.399   4.463   5.028
    1C        H  804   3.169   4.440   5.045
    1C        H  805   3.887   2.492   5.070
    1C        H  806   3.672   2.436   5.067
    1C        H  807   2.988   2.537   5.052
    1C        H  808   3.448   2.511   5.073
    1C        H  809   2.905   2.775   5.065
    1C        H  810   2.709   2.911   5.073
    1C        H  811   2.541   3.296   5.070
    1C        H  812   2.490   3.501   5.069
    1C        H  813   2.579   3.733   5.050
    1C        H  814   2.570   4.185   5.033
    1C        H  815   2.788   4.281   5.048
    1C        H  816   2.684   2.849   1.977
    1C        H  817   2.835   2.678   1.978
    1C        H  818   3.201   2.398   2.003
    1C        H  819   3.431   2.455   1.972
    1C        H  820   3.843   2.536   1.967
    1C        H  821   4.069   2.596   1.969
    1C        H  822   4.208   2.764   1.969
    1C        H  823   4.403   2.888   1.970
    1C        H  824   4.571   3.307   1.964
    1C        H  825   4.482   3.510   1.956
    1C        H  826   4.488   3.745   1.953
    1C        H  827   3.802   4.513   1.951
    1C        H  828   3.947   4.345   1.948
    1C        H  829   4.179   4.270   1.952
    1C        H  830   4.527   3.991   1.985
    1C        H  831   2.662   3.828   1.972
    1C        H  832   2.732   4.057   1.960
    1C        H  833   2.695   4.320   1.989
    1C        H  834   3.370   4.485   1.948
    1C        H  835   3.161   4.352   1.973
    1C        H  836   2.511   2.997   2.001
    1C        H  837   2.488   3.238   1.969
    1C        H  838   2.461   3.692   1.974
    2V3OU   H29  839   2.802   3.550   5.422
    2V3OU   C27  840   2.777   3.502   5.520
    2V3OU   H27  841   2.729   3.575   5.591
    2V3OU   H28  842   2.716   3.409   5.507
    2V3OU   O11  843   2.902   3.471   5.582
    2V3OU   C15  844   2.916   3.390   5.693
    2V3OU   C13  845   3.048   3.370   5.737
    2V3OU   C14  846   3.078   3.259   5.817
    2V3OU   C16  847   2.971   3.185   5.867
    2V3OU    H6  848   2.993   3.099   5.932
    2V3OU   C12  849   3.217   3.226   5.853
    2V3OU    O2  850   3.241   3.122   5.918
    2V3OU   C10  851   3.323   3.308   5.792
    2V3OU    C8  852   3.456   3.269   5.802
    2V3OU   O10  853   3.486   3.149   5.859
    2V3OU   H26  854   3.406   3.112   5.898
    2V3OU    C6  855   3.565   3.347   5.753
    2V3OU    C5  856   3.538   3.463   5.682
    2V3OU    C4  857   3.702   3.287   5.757
    2V3OU    H4  858   3.721   3.221   5.847
    2V3OU    H5  859   3.706   3.219   5.667
    2V3OU    C2  860   3.813   3.391   5.747
    2V3OU    O6  861   3.807   3.475   5.863
    2V3OU   H21  862   3.763   3.556   5.831
    2V3OU    C3  863   3.778   3.488   5.634
    2V3OU    H2  864   3.861   3.562   5.619
    2V3OU    H3  865   3.782   3.428   5.540
    2V3OU   C25  866   3.949   3.325   5.723
    2V3OU    O7  867   3.997   3.290   5.615
    2V3OU   C26  868   4.031   3.290   5.846
    2V3OU   H22  869   4.066   3.387   5.891
    2V3OU   H23  870   4.116   3.223   5.819
    2V3OU    O8  871   3.959   3.214   5.941
    2V3OU   H24  872   3.925   3.264   6.017
    2V3OU    C1  873   3.646   3.562   5.647
    2V3OU    H1  874   3.629   3.617   5.550
    2V3OU    O3  875   3.656   3.648   5.761
    2V3OU   C19  876   3.615   3.784   5.749
    2V3OU    H9  877   3.514   3.793   5.700
    2V3OU    O4  878   3.714   3.837   5.663
    2V3OU   C20  879   3.841   3.869   5.722
    2V3OU   H10  880   3.899   3.774   5.740
    2V3OU   C24  881   3.607   3.855   5.884
    2V3OU   H16  882   3.534   3.795   5.944
    2V3OU   H17  883   3.562   3.956   5.865
    2V3OU   C23  884   3.743   3.875   5.951
    2V3OU   H15  885   3.786   3.772   5.974
    2V3OU    N1  886   3.727   3.951   6.074
    2V3OU   H19  887   3.808   3.938   6.131
    2V3OU   H20  888   3.647   3.927   6.128
    2V3OU   C21  889   3.843   3.945   5.855
    2V3OU   H11  890   3.947   3.924   5.894
    2V3OU    O5  891   3.826   4.086   5.848
    2V3OU   H18  892   3.781   4.110   5.931
    2V3OU   C22  893   3.908   3.947   5.610
    2V3OU   H12  894   3.856   4.045   5.593
    2V3OU   H13  895   3.898   3.891   5.513
    2V3OU   H14  896   4.018   3.956   5.628
    2V3OU   C11  897   3.155   3.470   5.720
    2V3OU    O1  898   3.133   3.589   5.691
    2V3OU    C9  899   3.297   3.428   5.719
    2V3OU    C7  900   3.402   3.503   5.667
    2V3OU    O9  901   3.384   3.619   5.595
    2V3OU   H25  902   3.288   3.628   5.591
    2V3OU   C17  903   2.812   3.310   5.744
    2V3OU    H7  904   2.709   3.346   5.744
    2V3OU   C18  905   2.838   3.209   5.836
    2V3OU    H8  906   2.756   3.146   5.874
    3SOL     OW  907   3.740   2.985   3.898
    3SOL    HW1  908   3.663   2.929   3.867
    3SOL    HW2  909   3.709   3.078   3.916
    4SOL     OW  910   6.654   6.360   0.713
    4SOL    HW1  911   6.622   6.288   0.775
    4SOL    HW2  912   6.592   6.438   0.718
    5SOL     OW  913   5.221   1.925   0.973
    5SOL    HW1  914   5.173   1.905   1.059
    5SOL    HW2  915   5.302   1.867   0.965
    6SOL     OW  916   4.968   1.292   3.003
    6SOL    HW1  917   4.909   1.214   3.021
    6SOL    HW2  918   5.060   1.259   2.980
    7SOL     OW  919   2.205   4.175   4.225
    7SOL    HW1  920   2.203   4.127   4.137
    7SOL    HW2  921   2.255   4.119   4.291
    8SOL     OW  922   0.801   2.867   5.008
    8SOL    HW1  923   0.842   2.788   5.053
    8SOL    HW2  924   0.873   2.922   4.965
    9SOL     OW  925   0.195   1.036   6.437
    9SOL    HW1  926   0.256   1.041   6.516
    9SOL    HW2  927   0.238   0.979   6.366
   10SOL     OW  928   5.635   4.987   1.576
   10SOL    HW1  929   5.686   5.017   1.496
   10SOL    HW2  930   5.682   4.909   1.618
   11SOL     OW  931   2.119   2.093   1.368
   11SOL    HW1  932   2.066   2.133   1.293
   11SOL    HW2  933   2.069   2.016   1.406
   12SOL     OW  934   4.453   4.572   2.761
   12SOL    HW1  935   4.382   4.594   2.828
   12SOL    HW2  936   4.456   4.643   2.691
   13SOL     OW  937   5.734   6.200   1.410
   13SOL    HW1  938   5.785   6.205   1.324
   13SOL    HW2  939   5.745   6.110   1.451
   14SOL     OW  940   4.055   6.656   6.381
   14SOL    HW1  941   4.130   6.642   6.446
   14SOL    HW2  942   4.076   6.608   6.296
   15SOL     OW  943   1.394   6.250   6.483
   15SOL    HW1  944   1.318   6.273   6.421
   15SOL    HW2  945   1.477   6.233   6.429
   16SOL     OW  946   2.077   5.065   4.805
   16SOL    HW1  947   2.079   4.971   4.770
   16SOL    HW2  948   2.004   5.074   4.873
   17SOL     OW  949   6.927   1.167   5.137
   17SOL    HW1  950   6.920   1.102   5.062
   17SOL    HW2  951   6.922   1.118   5.224
   18SOL     OW  952   2.772   1.505   5.967
   18SOL    HW1  953   2.695   1.538   6.023
   18SOL    HW2  954   2.744   1.423   5.917
   19SOL     OW  955   3.274   6.574   3.245
   19SOL    HW1  956   3.247   6.529   3.330
   19SOL    HW2  957   3.236   6.667   3.243
   20SOL     OW  958   5.757   0.969   5.328
   20SOL    HW1  959   5.662   0.975   5.297
   20SOL    HW2  960   5.810   1.042   5.286
   21SOL     OW  961   2.196   3.926   2.515
   21SOL    HW1  962   2.185   4.008   2.571
   21SOL    HW2  963   2.292   3.899   2.513
   22SOL     OW  964   0.989   0.732   6.938
   22SOL    HW1  965   1.036   0.718   0.006
   22SOL    HW2  966   1.041   0.799   6.884
   23SOL     OW  967   5.670   4.649   1.045
   23SOL    HW1  968   5.747   4.702   1.080
   23SOL    HW2  969   5.670   4.652   0.945
   24SOL     OW  970   5.126   1.736   0.614
   24SOL    HW1  971   5.067   1.688   0.550
   24SOL    HW2  972   5.077   1.750   0.701
   25SOL     OW  973   1.982   0.478   4.498
   25SOL    HW1  974   1.920   0.427   4.557
   25SOL    HW2  975   1.933   0.550   4.451
   26SOL     OW  976   0.500   2.130   6.307
   26SOL    HW1  977   0.575   2.094   6.252
   26SOL    HW2  978   0.495   2.079   6.393
   27SOL     OW  979   6.641   0.128   2.484
   27SOL    HW1  980   6.611   0.044   2.439
   27SOL    HW2  981   6.563   0.190   2.495
   28SOL     OW  982   1.949   0.813   4.960
   28SOL    HW1  983   2.001   0.890   4.995
   28SOL    HW2  984   1.905   0.766   5.036
   29SOL     OW  985   6.788   6.959   0.928
   29SOL    HW1  986   6.730   6.885   0.962
   29SOL    HW2  987   6.880   6.949   0.964
   30SOL     OW  988   4.240   0.176   4.989
   30SOL    HW1  989   4.193   0.097   5.028
   30SOL    HW2  990   4.189   0.210   4.910
   31SOL     OW  991   1.112   4.434   4.714
   31SOL    HW1  992   1.048   4.481   4.654
   31SOL    HW2  993   1.132   4.344   4.677
   32SOL     OW  994   3.502   0.733   0.992
   32SOL    HW1  995   3.472   0.642   0.965
   32SOL    HW2  996   3.503   0.793   0.912
   33SOL     OW  997   2.298   5.439   6.349
   33SOL    HW1  998   2.281   5.497   6.269
   33SOL    HW2  999   2.272   5.488   6.432
   34SOL     OW 1000   3.053   5.972   5.391
   34SOL    HW1 1001   3.149   5.945   5.394
   34SOL    HW2 1002   3.037   6.031   5.312
   35SOL     OW 1003   1.595   2.944   6.192
   35SOL    HW1 1004   1.509   2.993   6.178
   35SOL    HW2 1005   1.615   2.887   6.112
   36SOL     OW 1006   4.763   0.765   3.180
   36SOL    HW1 1007   4.751   0.766   3.280
   36SOL    HW2 1008   4.703   0.833   3.139
   37SOL     OW 1009   2.235   6.762   3.809
   37SOL    HW1 1010   2.256   6.831   3.740
   37SOL    HW2 1011   2.275   6.788   3.896
   38SOL     OW 1012   0.924   4.441   2.654
   38SOL    HW1 1013   0.955   4.420   2.561
   38SOL    HW2 1014   0.824   4.443   2.656
   39SOL     OW 1015   6.531   5.154   1.293
   39SOL    HW1 1016   6.485   5.184   1.377
   39SOL    HW2 1017   6.539   5.055   1.293
   40SOL     OW 1018   4.889   1.644   0.465
   40SOL    HW1 1019   4.825   1.606   0.398
   40SOL    HW2 1020   4.876   1.599   0.553
   41SOL     OW 1021   5.061   3.937   1.914
   41SOL    HW1 1022   4.990   3.944   1.843
   41SOL    HW2 1023   5.049   3.853   1.966
   42SOL     OW 1024   2.541   4.740   6.729
   42SOL    HW1 1025   2.570   4.667   6.668
   42SOL    HW2 1026   2.577   4.723   6.821
   43SOL     OW 1027   5.076   0.028   5.276
   43SOL    HW1 1028   5.005   6.994   5.321
   43SOL    HW2 1029   5.103   7.003   5.191
   44SOL     OW 1030   0.089   1.349   0.146
   44SOL    HW1 1031   0.010   1.410   0.145
   44SOL    HW2 1032   0.064   1.262   0.188
   45SOL     OW 1033   2.223   4.629   6.214
   45SOL    HW1 1034   2.185   4.697   6.277
   45SOL    HW2 1035   2.299   4.669   6.163
   46SOL     OW 1036   1.347   3.522   5.346
   46SOL    HW1 1037   1.318   3.529   5.441
   46SOL    HW2 1038   1.447   3.529   5.341
   47SOL     OW 1039   5.605   3.785   6.978
   47SOL    HW1 1040   5.659   3.869   6.975
   47SOL    HW2 1041   5.530   3.791   6.913
   48SOL     OW 1042   6.303   3.991   0.491
   48SOL    HW1 1043   6.208   3.995   0.522
   48SOL    HW2 1044   6.305   3.973   0.392
   49SOL     OW 1045   3.018   3.551   6.839
   49SOL    HW1 1046   3.022   3.619   6.766
   49SOL    HW2 1047   2.945   3.485   6.820
   50SOL     OW 1048   6.165   2.020   6.924
   50SOL    HW1 1049   6.169   2.112   6.886
   50SOL    HW2 1050   6.071   1.999   6.951
   51SOL     OW 1051   0.954   5.955   2.642
   51SOL    HW1 1052   0.940   5.870   2.590
   51SOL    HW2 1053   0.957   5.935   2.740
   52SOL     OW 1054   5.962   2.689   1.794
   52SOL    HW1 1055   5.885   2.741   1.830
   52SOL    HW2 1056   5.974   2.710   1.697
   53SOL     OW 1057   3.433   0.579   1.372
   53SOL    HW1 1058   3.489   0.496   1.369
   53SOL    HW2 1059   3.487   0.655   1.408
   54SOL     OW 1060   5.822   0.099   6.357
   54SOL    HW1 1061   5.820   0.008   6.316
   54SOL    HW2 1062   5.873   0.161   6.297
   55SOL     OW 1063   1.340   3.371   6.266
   55SOL    HW1 1064   1.320   3.410   6.176
   55SOL    HW2 1065   1.266   3.309   6.292
   56SOL     OW 1066   0.584   2.089   0.166
   56SOL    HW1 1067   0.522   2.010   0.164
   56SOL    HW2 1068   0.655   2.079   0.097
   57SOL     OW 1069   4.269   6.301   0.942
   57SOL    HW1 1070   4.248   6.338   0.851
   57SOL    HW2 1071   4.185   6.265   0.983
   58SOL     OW 1072   1.336   0.954   6.936
   58SOL    HW1 1073   1.248   1.001   6.946
   58SOL    HW2 1074   1.379   0.944   0.006
   59SOL     OW 1075   4.271   3.401   5.460
   59SOL    HW1 1076   4.276   3.441   5.368
   59SOL    HW2 1077   4.331   3.453   5.522
   60SOL     OW 1078   6.430   2.533   2.094
   60SOL    HW1 1079   6.364   2.514   2.022
   60SOL    HW2 1080   6.495   2.602   2.061
   61SOL     OW 1081   0.927   6.444   4.027
   61SOL    HW1 1082   1.021   6.467   4.004
   61SOL    HW2 1083   0.874   6.428   3.943
   62SOL     OW 1084   6.222   3.090   3.251
   62SOL    HW1 1085   6.138   3.043   3.225
   62SOL    HW2 1086   6.241   3.164   3.188
   63SOL     OW 1087   3.662   0.591   6.441
   63SOL    HW1 1088   3.675   0.616   6.537
   63SOL    HW2 1089   3.717   0.652   6.384
   64SOL     OW 1090   1.346   2.770   5.424
   64SOL    HW1 1091   1.356   2.698   5.355
   64SOL    HW2 1092   1.431   2.777   5.477
   65SOL     OW 1093   0.630   5.238   4.337
   65SOL    HW1 1094   0.697   5.199   4.400
   65SOL    HW2 1095   0.538   5.225   4.374
   66SOL     OW 1096   3.722   1.355   1.633
   66SOL    HW1 1097   3.785   1.326   1.705
   66SOL    HW2 1098   3.768   1.350   1.544
   67SOL     OW 1099   0.162   3.360   1.731
   67SOL    HW1 1100   0.072   3.400   1.713
   67SOL    HW2 1101   0.157   3.301   1.811
   68SOL     OW 1102   0.097   1.901   6.831
   68SOL    HW1 1103   0.089   1.861   6.922
   68SOL    HW2 1104   0.163   1.849   6.777
   69SOL     OW 1105   1.117   5.442   6.541
   69SOL    HW1 1106   1.048   5.496   6.493
   69SOL    HW2 1107   1.198   5.499   6.558
   70SOL     OW 1108   5.101   4.311   3.897
   70SOL    HW1 1109   5.047   4.394   3.907
   70SOL    HW2 1110   5.165   4.304   3.973
   71SOL     OW 1111   5.098   1.936   4.310
   71SOL    HW1 1112   5.055   2.023   4.336
   71SOL    HW2 1113   5.053   1.900   4.228
   72SOL     OW 1114   0.125   1.272   3.366
   72SOL    HW1 1115   0.173   1.228   3.291
   72SOL    HW2 1116   0.163   1.240   3.453
   73SOL     OW 1117   2.468   0.406   1.027
   73SOL    HW1 1118   2.534   0.353   1.080
   73SOL    HW2 1119   2.468   0.374   0.932
   74SOL     OW 1120   3.665   2.273   0.606
   74SOL    HW1 1121   3.720   2.304   0.683
   74SOL    HW2 1122   3.581   2.328   0.600
   75SOL     OW 1123   2.771   2.779   0.285
   75SOL    HW1 1124   2.819   2.750   0.368
   75SOL    HW2 1125   2.774   2.879   0.278
   76SOL     OW 1126   4.009   5.070   5.692
   76SOL    HW1 1127   3.929   5.025   5.731
   76SOL    HW2 1128   4.089   5.051   5.749
   77SOL     OW 1129   0.763   5.196   4.967
   77SOL    HW1 1130   0.861   5.181   4.979
   77SOL    HW2 1131   0.724   5.233   5.052
   78SOL     OW 1132   4.350   1.836   1.221
   78SOL    HW1 1133   4.272   1.895   1.204
   78SOL    HW2 1134   4.388   1.804   1.135
   79SOL     OW 1135   1.746   4.518   3.701
   79SOL    HW1 1136   1.814   4.454   3.666
   79SOL    HW2 1137   1.731   4.591   3.634
   80SOL     OW 1138   3.564   2.018   4.942
   80SOL    HW1 1139   3.640   2.064   4.897
   80SOL    HW2 1140   3.489   2.008   4.877
   81SOL     OW 1141   3.834   5.469   1.756
   81SOL    HW1 1142   3.932   5.486   1.764
   81SOL    HW2 1143   3.802   5.420   1.837
   82SOL     OW 1144   2.766   6.602   1.675
   82SOL    HW1 1145   2.797   6.610   1.581
   82SOL    HW2 1146   2.750   6.693   1.713
   83SOL     OW 1147   5.194   1.163   4.076
   83SOL    HW1 1148   5.249   1.126   4.001
   83SOL    HW2 1149   5.206   1.263   4.080
   84SOL     OW 1150   5.990   2.841   2.768
   84SOL    HW1 1151   5.915   2.881   2.819
   84SOL    HW2 1152   6.073   2.897   2.781
   85SOL     OW 1153   2.531   6.328   3.674
   85SOL    HW1 1154   2.513   6.384   3.594
   85SOL    HW2 1155   2.569   6.385   3.747
   86SOL     OW 1156   5.088   0.054   0.470
   86SOL    HW1 1157   4.997   0.012   0.467
   86SOL    HW2 1158   5.094   0.125   0.399
   87SOL     OW 1159   2.583   3.564   6.890
   87SOL    HW1 1160   2.662   3.506   6.873
   87SOL    HW2 1161   2.610   3.660   6.883
   88SOL     OW 1162   2.399   3.617   1.650
   88SOL    HW1 1163   2.496   3.626   1.631
   88SOL    HW2 1164   2.385   3.549   1.722
   89SOL     OW 1165   3.038   3.308   4.072
   89SOL    HW1 1166   2.964   3.342   4.129
   89SOL    HW2 1167   3.102   3.254   4.127
   90SOL     OW 1168   5.655   3.706   2.308
   90SOL    HW1 1169   5.684   3.797   2.339
   90SOL    HW2 1170   5.697   3.686   2.220
   91SOL     OW 1171   4.152   5.566   6.485
   91SOL    HW1 1172   4.187   5.649   6.440
   91SOL    HW2 1173   4.060   5.584   6.520
   92SOL     OW 1174   5.163   4.013   0.066
   92SOL    HW1 1175   5.176   3.953   0.145
   92SOL    HW2 1176   5.188   4.107   0.090
   93SOL     OW 1177   3.027   3.922   2.090
   93SOL    HW1 1178   3.019   3.839   2.035
   93SOL    HW2 1179   3.006   4.002   2.034
   94SOL     OW 1180   3.064   2.198   4.218
   94SOL    HW1 1181   3.083   2.212   4.315
   94SOL    HW2 1182   2.976   2.239   4.194
   95SOL     OW 1183   0.470   0.309   4.122
   95SOL    HW1 1184   0.503   0.288   4.030
   95SOL    HW2 1185   0.417   0.232   4.157
   96SOL     OW 1186   6.902   5.349   6.346
   96SOL    HW1 1187   6.833   5.376   6.412
   96SOL    HW2 1188   6.863   5.354   6.254
   97SOL     OW 1189   2.349   4.462   5.826
   97SOL    HW1 1190   2.292   4.394   5.872
   97SOL    HW2 1191   2.437   4.469   5.873
   98SOL     OW 1192   0.850   2.059   3.670
   98SOL    HW1 1193   0.765   2.073   3.620
   98SOL    HW2 1194   0.921   2.026   3.607
   99SOL     OW 1195   3.506   4.296   5.214
   99SOL    HW1 1196   3.468   4.230   5.279
   99SOL    HW2 1197   3.606   4.288   5.212
  100SOL     OW 1198   0.591   0.121   5.091
  100SOL    HW1 1199   0.602   0.033   5.044
  100SOL    HW2 1200   0.564   0.105   5.186
  101SOL     OW 1201   4.965   3.324   2.675
  101SOL    HW1 1202   4.975   3.386   2.597
  101SOL    HW2 1203   5.042   3.260   2.676
  102SOL     OW 1204   4.217   0.608   0.120
  102SOL    HW1 1205   4.268   0.692   0.136
  102SOL    HW2 1206   4.241   0.540   0.190
  103SOL     OW 1207   1.384   1.304   1.986
  103SOL    HW1 1208   1.347   1.339   2.072
  103SOL    HW2 1209   1.397   1.380   1.922
  104SOL     OW 1210   6.578   4.459   1.692
  104SOL    HW1 1211   6.514   4.465   1.768
  104SOL    HW2 1212   6.529   4.468   1.606
  105SOL     OW 1213   0.025   0.237   4.882
  105SOL    HW1 1214   7.001   0.198   4.801
  105SOL    HW2 1215   0.020   0.337   4.877
  106SOL     OW 1216   4.699   3.386   1.442
  106SOL    HW1 1217   4.602   3.393   1.418
  106SOL    HW2 1218   4.749   3.461   1.399
  107SOL     OW 1219   5.944   6.970   1.592
  107SOL    HW1 1220   5.922   6.968   1.690
  107SOL    HW2 1221   5.879   0.008   1.544
  108SOL     OW 1222   3.039   1.072   4.793
  108SOL    HW1 1223   3.054   1.162   4.834
  108SOL    HW2 1224   3.023   1.082   4.695
  109SOL     OW 1225   2.188   1.014   5.048
  109SOL    HW1 1226   2.235   1.040   4.963
  109SOL    HW2 1227   2.156   1.097   5.094
  110SOL     OW 1228   3.466   4.097   5.410
  110SOL    HW1 1229   3.516   4.137   5.486
  110SOL    HW2 1230   3.418   4.015   5.441
  111SOL     OW 1231   5.942   2.494   0.947
  111SOL    HW1 1232   5.977   2.546   0.870
  111SOL    HW2 1233   5.862   2.441   0.919
  112SOL     OW 1234   5.502   0.258   6.541
  112SOL    HW1 1235   5.456   0.325   6.482
  112SOL    HW2 1236   5.483   0.280   6.636
  113SOL     OW 1237   0.366   5.082   2.667
  113SOL    HW1 1238   0.353   5.014   2.595
  113SOL    HW2 1239   0.368   5.173   2.627
  114SOL     OW 1240   0.080   2.409   2.069
  114SOL    HW1 1241   7.012   2.419   2.115
  114SOL    HW2 1242   0.071   2.436   1.973
  115SOL     OW 1243   4.977   6.499   3.282
  115SOL    HW1 1244   4.943   6.432   3.215
  115SOL    HW2 1245   4.934   6.481   3.371
  116SOL     OW 1246   6.998   4.955   0.513
  116SOL    HW1 1247   6.930   5.019   0.476
  116SOL    HW2 1248   0.006   4.986   0.604
  117SOL     OW 1249   2.484   2.563   0.414
  117SOL    HW1 1250   2.511   2.519   0.328
  117SOL    HW2 1251   2.473   2.661   0.399
  118SOL     OW 1252   6.965   1.813   2.740
  118SOL    HW1 1253   0.009   1.750   2.696
  118SOL    HW2 1254   6.877   1.767   2.754
  119SOL     OW 1255   6.195   0.632   4.839
  119SOL    HW1 1256   6.235   0.541   4.832
  119SOL    HW2 1257   6.207   0.666   4.932
  120SOL     OW 1258   4.283   0.674   4.317
  120SOL    HW1 1259   4.321   0.588   4.282
  120SOL    HW2 1260   4.324   0.751   4.267
  121SOL     OW 1261   0.311   5.374   6.943
  121SOL    HW1 1262   0.266   5.304   6.999
  121SOL    HW2 1263   0.248   5.405   6.872
  122SOL     OW 1264   6.804   4.737   5.959
  122SOL    HW1 1265   6.725   4.798   5.966
  122SOL    HW2 1266   6.887   4.786   5.989
  123SOL     OW 1267   0.630   2.674   1.873
  123SOL    HW1 1268   0.646   2.695   1.969
  123SOL    HW2 1269   0.533   2.680   1.852
  124SOL     OW 1270   1.151   3.659   0.339
  124SOL    HW1 1271   1.242   3.649   0.299
  124SOL    HW2 1272   1.117   3.752   0.322
  125SOL     OW 1273   4.588   2.839   0.353
  125SOL    HW1 1274   4.682   2.810   0.341
  125SOL    HW2 1275   4.529   2.759   0.367
  126SOL     OW 1276   3.758   2.960   4.172
  126SOL    HW1 1277   3.661   2.985   4.177
  126SOL    HW2 1278   3.784   2.948   4.076
  127SOL     OW 1279   0.567   4.691   5.292
  127SOL    HW1 1280   0.527   4.644   5.213
  127SOL    HW2 1281   0.655   4.648   5.316
  128SOL     OW 1282   4.991   4.110   6.500
  128SOL    HW1 1283   5.084   4.140   6.523
  128SOL    HW2 1284   4.988   4.010   6.497
  129SOL     OW 1285   0.051   5.788   2.293
  129SOL    HW1 1286   7.001   5.761   2.360
  129SOL    HW2 1287   0.115   5.712   2.279
  130SOL     OW 1288   6.314   2.618   4.349
  130SOL    HW1 1289   6.263   2.702   4.368
  130SOL    HW2 1290   6.402   2.620   4.396
  131SOL     OW 1291   0.871   3.262   3.401
  131SOL    HW1 1292   0.921   3.311   3.473
  131SOL    HW2 1293   0.779   3.239   3.433
  132SOL     OW 1294   4.121   2.562   1.040
  132SOL    HW1 1295   4.093   2.471   1.070
  132SOL    HW2 1296   4.208   2.586   1.083
  133SOL     OW 1297   4.648   5.812   5.921
  133SOL    HW1 1298   4.703   5.894   5.906
  133SOL    HW2 1299   4.596   5.822   6.006
  134SOL     OW 1300   5.842   1.965   1.110
  134SOL    HW1 1301   5.905   1.928   1.041
  134SOL    HW2 1302   5.834   1.901   1.186
  135SOL     OW 1303   4.853   3.454   3.898
  135SOL    HW1 1304   4.872   3.456   3.800
  135SOL    HW2 1305   4.809   3.539   3.925
  136SOL     OW 1306   3.762   1.162   6.330
  136SOL    HW1 1307   3.685   1.201   6.380
  136SOL    HW2 1308   3.841   1.222   6.339
  137SOL     OW 1309   2.576   3.416   5.960
  137SOL    HW1 1310   2.627   3.448   5.880
  137SOL    HW2 1311   2.478   3.422   5.942
  138SOL     OW 1312   1.087   5.116   6.662
  138SOL    HW1 1313   1.157   5.135   6.593
  138SOL    HW2 1314   1.009   5.176   6.647
  139SOL     OW 1315   1.211   0.145   1.016
  139SOL    HW1 1316   1.262   0.223   0.979
  139SOL    HW2 1317   1.254   0.113   1.101
  140SOL     OW 1318   4.310   0.658   1.411
  140SOL    HW1 1319   4.310   0.562   1.437
  140SOL    HW2 1320   4.228   0.677   1.357
  141SOL     OW 1321   0.187   2.580   0.768
  141SOL    HW1 1322   0.239   2.558   0.851
  141SOL    HW2 1323   0.250   2.599   0.693
  142SOL     OW 1324   2.384   3.581   0.784
  142SOL    HW1 1325   2.344   3.575   0.692
  142SOL    HW2 1326   2.474   3.537   0.783
  143SOL     OW 1327   4.250   6.300   1.995
  143SOL    HW1 1328   4.301   6.337   2.073
  143SOL    HW2 1329   4.218   6.207   2.017
  144SOL     OW 1330   3.036   5.779   2.990
  144SOL    HW1 1331   2.969   5.758   3.061
  144SOL    HW2 1332   3.031   5.877   2.968
  145SOL     OW 1333   0.363   5.305   3.811
  145SOL    HW1 1334   0.274   5.261   3.796
  145SOL    HW2 1335   0.362   5.395   3.769
  146SOL     OW 1336   5.006   0.939   6.321
  146SOL    HW1 1337   5.063   1.009   6.278
  146SOL    HW2 1338   5.064   0.880   6.377
  147SOL     OW 1339   4.632   0.681   4.996
  147SOL    HW1 1340   4.578   0.616   4.943
  147SOL    HW2 1341   4.674   0.634   5.074
  148SOL     OW 1342   1.702   5.897   1.187
  148SOL    HW1 1343   1.682   5.807   1.225
  148SOL    HW2 1344   1.619   5.952   1.185
  149SOL     OW 1345   1.923   2.279   4.215
  149SOL    HW1 1346   1.880   2.244   4.132
  149SOL    HW2 1347   1.953   2.373   4.199
  150SOL     OW 1348   4.157   1.316   4.745
  150SOL    HW1 1349   4.227   1.250   4.717
  150SOL    HW2 1350   4.178   1.350   4.837
  151SOL     OW 1351   5.602   2.709   0.730
  151SOL    HW1 1352   5.586   2.698   0.828
  151SOL    HW2 1353   5.691   2.750   0.715
  152SOL     OW 1354   0.760   2.090   1.442
  152SOL    HW1 1355   0.727   2.171   1.492
  152SOL    HW2 1356   0.849   2.110   1.402
  153SOL     OW 1357   2.256   1.412   3.945
  153SOL    HW1 1358   2.270   1.501   3.989
  153SOL    HW2 1359   2.342   1.380   3.906
  154SOL     OW 1360   6.361   2.511   2.585
  154SOL    HW1 1361   6.325   2.602   2.602
  154SOL    HW2 1362   6.406   2.508   2.496
  155SOL     OW 1363   6.720   5.417   2.963
  155SOL    HW1 1364   6.799   5.434   2.905
  155SOL    HW2 1365   6.648   5.483   2.943
  156SOL     OW 1366   5.249   2.534   0.243
  156SOL    HW1 1367   5.186   2.465   0.281
  156SOL    HW2 1368   5.290   2.499   0.160
  157SOL     OW 1369   5.164   6.485   1.082
  157SOL    HW1 1370   5.095   6.438   1.027
  157SOL    HW2 1371   5.246   6.428   1.087
  158SOL     OW 1372   0.585   2.889   3.772
  158SOL    HW1 1373   0.487   2.902   3.785
  158SOL    HW2 1374   0.601   2.830   3.692
  159SOL     OW 1375   6.051   5.459   0.474
  159SOL    HW1 1376   6.002   5.390   0.422
  159SOL    HW2 1377   6.123   5.499   0.417
  160SOL     OW 1378   5.403   0.549   1.366
  160SOL    HW1 1379   5.352   0.487   1.425
  160SOL    HW2 1380   5.470   0.600   1.420
  161SOL     OW 1381   6.302   6.955   0.911
  161SOL    HW1 1382   6.253   6.921   0.991
  161SOL    HW2 1383   6.236   6.976   0.838
  162SOL     OW 1384   4.439   0.304   6.435
  162SOL    HW1 1385   4.489   0.227   6.474
  162SOL    HW2 1386   4.494   0.345   6.361
  163SOL     OW 1387   1.022   3.384   2.151
  163SOL    HW1 1388   1.105   3.345   2.113
  163SOL    HW2 1389   1.025   3.379   2.251
  164SOL     OW 1390   2.965   1.883   3.071
  164SOL    HW1 1391   2.897   1.873   2.998
  164SOL    HW2 1392   2.960   1.976   3.109
  165SOL     OW 1393   6.954   6.959   4.032
  165SOL    HW1 1394   6.997   6.881   4.076
  165SOL    HW2 1395   6.857   6.962   4.057
  166SOL     OW 1396   6.472   4.640   3.992
  166SOL    HW1 1397   6.497   4.567   3.927
  166SOL    HW2 1398   6.376   4.663   3.981
  167SOL     OW 1399   2.295   1.544   5.459
  167SOL    HW1 1400   2.366   1.528   5.390
  167SOL    HW2 1401   2.244   1.459   5.475
  168SOL     OW 1402   3.861   3.596   1.510
  168SOL    HW1 1403   3.854   3.583   1.411
  168SOL    HW2 1404   3.941   3.546   1.545
  169SOL     OW 1405   4.900   2.385   0.870
  169SOL    HW1 1406   4.807   2.389   0.834
  169SOL    HW2 1407   4.898   2.389   0.969
  170SOL     OW 1408   5.998   5.656   0.902
  170SOL    HW1 1409   5.927   5.586   0.891
  170SOL    HW2 1410   6.029   5.657   0.997
  171SOL     OW 1411   3.687   2.872   1.025
  171SOL    HW1 1412   3.745   2.928   1.084
  171SOL    HW2 1413   3.680   2.914   0.934
  172SOL     OW 1414   1.281   1.515   6.750
  172SOL    HW1 1415   1.319   1.529   6.658
  172SOL    HW2 1416   1.283   1.601   6.801
  173SOL     OW 1417   6.409   1.380   3.999
  173SOL    HW1 1418   6.350   1.413   4.073
  173SOL    HW2 1419   6.371   1.408   3.911
  174SOL     OW 1420   5.647   4.287   4.293
  174SOL    HW1 1421   5.675   4.372   4.338
  174SOL    HW2 1422   5.629   4.305   4.196
  175SOL     OW 1423   0.182   6.352   2.886
  175SOL    HW1 1424   0.133   6.381   2.968
  175SOL    HW2 1425   0.187   6.429   2.822
  176SOL     OW 1426   5.896   3.357   1.630
  176SOL    HW1 1427   5.902   3.268   1.675
  176SOL    HW2 1428   5.900   3.344   1.531
  177SOL     OW 1429   5.781   2.427   3.552
  177SOL    HW1 1430   5.853   2.366   3.521
  177SOL    HW2 1431   5.723   2.379   3.618
  178SOL     OW 1432   2.679   5.657   4.531
  178SOL    HW1 1433   2.650   5.753   4.527
  178SOL    HW2 1434   2.652   5.618   4.619
  179SOL     OW 1435   3.172   4.377   1.355
  179SOL    HW1 1436   3.214   4.290   1.381
  179SOL    HW2 1437   3.219   4.452   1.401
  180SOL     OW 1438   4.744   1.129   6.799
  180SOL    HW1 1439   4.671   1.063   6.783
  180SOL    HW2 1440   4.766   1.175   6.712
  181SOL     OW 1441   3.239   2.197   6.154
  181SOL    HW1 1442   3.197   2.172   6.067
  181SOL    HW2 1443   3.172   2.188   6.228
  182SOL     OW 1444   3.283   2.591   5.861
  182SOL    HW1 1445   3.198   2.538   5.859
  182SOL    HW2 1446   3.296   2.636   5.773
  183SOL     OW 1447   2.662   0.992   3.633
  183SOL    HW1 1448   2.669   1.087   3.601
  183SOL    HW2 1449   2.748   0.966   3.677
  184SOL     OW 1450   5.127   5.654   3.826
  184SOL    HW1 1451   5.205   5.605   3.786
  184SOL    HW2 1452   5.046   5.595   3.823
  185SOL     OW 1453   0.067   0.409   4.588
  185SOL    HW1 1454   0.047   0.311   4.588
  185SOL    HW2 1455   0.161   0.423   4.555
  186SOL     OW 1456   3.456   5.800   5.090
  186SOL    HW1 1457   3.436   5.706   5.117
  186SOL    HW2 1458   3.551   5.822   5.110
  187SOL     OW 1459   4.189   6.079   1.801
  187SOL    HW1 1460   4.089   6.077   1.804
  187SOL    HW2 1461   4.225   6.026   1.878
  188SOL     OW 1462   1.454   3.328   3.119
  188SOL    HW1 1463   1.480   3.300   3.211
  188SOL    HW2 1464   1.355   3.316   3.107
  189SOL     OW 1465   5.309   5.274   5.340
  189SOL    HW1 1466   5.368   5.268   5.259
  189SOL    HW2 1467   5.215   5.290   5.311
  190SOL     OW 1468   5.770   0.285   0.761
  190SOL    HW1 1469   5.798   0.271   0.856
  190SOL    HW2 1470   5.726   0.375   0.752
  191SOL     OW 1471   0.478   1.919   5.596
  191SOL    HW1 1472   0.514   1.966   5.676
  191SOL    HW2 1473   0.407   1.854   5.624
  192SOL     OW 1474   0.562   5.614   1.348
  192SOL    HW1 1475   0.508   5.697   1.338
  192SOL    HW2 1476   0.638   5.615   1.283
  193SOL     OW 1477   1.964   0.125   0.790
  193SOL    HW1 1478   1.935   0.212   0.829
  193SOL    HW2 1479   1.936   0.050   0.850
  194SOL     OW 1480   3.758   5.807   2.299
  194SOL    HW1 1481   3.784   5.743   2.371
  194SOL    HW2 1482   3.680   5.861   2.329
  195SOL     OW 1483   3.837   0.454   1.110
  195SOL    HW1 1484   3.925   0.441   1.157
  195SOL    HW2 1485   3.852   0.508   1.027
  196SOL     OW 1486   3.984   2.358   0.778
  196SOL    HW1 1487   4.043   2.292   0.824
  196SOL    HW2 1488   3.900   2.371   0.831
  197SOL     OW 1489   1.900   5.915   0.494
  197SOL    HW1 1490   1.876   5.826   0.533
  197SOL    HW2 1491   1.934   5.975   0.566
  198SOL     OW 1492   3.865   6.845   6.704
  198SOL    HW1 1493   3.878   6.908   6.780
  198SOL    HW2 1494   3.913   6.878   6.624
  199SOL     OW 1495   0.697   0.385   2.862
  199SOL    HW1 1496   0.638   0.454   2.821
  199SOL    HW2 1497   0.742   0.423   2.943
  200SOL     OW 1498   1.018   4.659   3.396
  200SOL    HW1 1499   0.979   4.574   3.361
  200SOL    HW2 1500   1.107   4.641   3.437
  201SOL     OW 1501   5.378   1.495   6.590
  201SOL    HW1 1502   5.410   1.495   6.685
  201SOL    HW2 1503   5.417   1.416   6.542
  202SOL     OW 1504   3.486   1.077   2.429
  202SOL    HW1 1505   3.425   1.152   2.404
  202SOL    HW2 1506   3.433   1.006   2.477
  203SOL     OW 1507   6.062   2.948   6.629
  203SOL    HW1 1508   6.116   2.872   6.663
  203SOL    HW2 1509   6.109   3.034   6.649
  204SOL     OW 1510   2.489   6.456   1.563
  204SOL    HW1 1511   2.587   6.456   1.583
  204SOL    HW2 1512   2.447   6.537   1.604
  205SOL     OW 1513   5.613   0.867   1.057
  205SOL    HW1 1514   5.584   0.820   0.974
  205SOL    HW2 1515   5.646   0.959   1.034
  206SOL     OW 1516   0.231   5.325   1.789
  206SOL    HW1 1517   0.221   5.343   1.691
  206SOL    HW2 1518   0.276   5.237   1.803
  207SOL     OW 1519   4.933   1.646   5.586
  207SOL    HW1 1520   4.945   1.559   5.539
  207SOL    HW2 1521   4.942   1.722   5.521
  208SOL     OW 1522   3.321   4.832   6.252
  208SOL    HW1 1523   3.334   4.758   6.319
  208SOL    HW2 1524   3.229   4.868   6.260
  209SOL     OW 1525   6.720   5.378   5.178
  209SOL    HW1 1526   6.641   5.352   5.233
  209SOL    HW2 1527   6.803   5.375   5.234
  210SOL     OW 1528   3.977   2.192   2.006
  210SOL    HW1 1529   4.017   2.147   1.926
  210SOL    HW2 1530   3.887   2.228   1.982
  211SOL     OW 1531   1.073   2.033   2.021
  211SOL    HW1 1532   0.978   2.031   1.991
  211SOL    HW2 1533   1.083   1.980   2.106
  212SOL     OW 1534   0.779   4.992   4.503
  212SOL    HW1 1535   0.845   5.066   4.498
  212SOL    HW2 1536   0.730   4.996   4.590
  213SOL     OW 1537   4.408   2.821   6.258
  213SOL    HW1 1538   4.357   2.812   6.343
  213SOL    HW2 1539   4.461   2.906   6.260
  214SOL     OW 1540   1.598   6.398   3.215
  214SOL    HW1 1541   1.603   6.300   3.236
  214SOL    HW2 1542   1.503   6.422   3.192
  215SOL     OW 1543   3.707   3.621   2.807
  215SOL    HW1 1544   3.739   3.669   2.888
  215SOL    HW2 1545   3.773   3.550   2.782
  216SOL     OW 1546   1.670   6.386   5.693
  216SOL    HW1 1547   1.591   6.360   5.639
  216SOL    HW2 1548   1.643   6.456   5.759
  217SOL     OW 1549   0.174   2.469   3.908
  217SOL    HW1 1550   0.201   2.380   3.945
  217SOL    HW2 1551   0.113   2.515   3.973
  218SOL     OW 1552   1.866   3.901   5.678
  218SOL    HW1 1553   1.798   3.950   5.732
  218SOL    HW2 1554   1.949   3.956   5.670
  219SOL     OW 1555   3.922   5.584   0.619
  219SOL    HW1 1556   3.842   5.525   0.613
  219SOL    HW2 1557   3.995   5.549   0.560
  220SOL     OW 1558   1.867   4.528   0.726
  220SOL    HW1 1559   1.788   4.466   0.727
  220SOL    HW2 1560   1.896   4.543   0.631
  221SOL     OW 1561   6.408   2.903   3.862
  221SOL    HW1 1562   6.367   2.929   3.950
  221SOL    HW2 1563   6.465   2.979   3.829
  222SOL     OW 1564   1.108   6.002   4.532
  222SOL    HW1 1565   1.167   6.082   4.537
  222SOL    HW2 1566   1.112   5.963   4.440
  223SOL     OW 1567   5.836   4.308   2.792
  223SOL    HW1 1568   5.755   4.250   2.784
  223SOL    HW2 1569   5.864   4.338   2.700
  224SOL     OW 1570   3.383   2.049   2.122
  224SOL    HW1 1571   3.452   2.100   2.072
  224SOL    HW2 1572   3.295   2.056   2.074
  225SOL     OW 1573   0.102   0.247   1.294
  225SOL    HW1 1574   0.058   0.205   1.215
  225SOL    HW2 1575   0.033   0.266   1.364
  226SOL     OW 1576   0.304   6.144   1.417
  226SOL    HW1 1577   0.281   6.090   1.497
  226SOL    HW2 1578   0.402   6.139   1.400
  227SOL     OW 1579   1.936   3.002   2.939
  227SOL    HW1 1580   2.019   2.972   2.893
  227SOL    HW2 1581   1.919   3.099   2.919
  228SOL     OW 1582   3.889   6.466   2.612
  228SOL    HW1 1583   3.805   6.414   2.630
  228SOL    HW2 1584   3.910   6.524   2.690
  229SOL     OW 1585   6.156   5.567   3.135
  229SOL    HW1 1586   6.124   5.566   3.230
  229SOL    HW2 1587   6.081   5.541   3.074
  230SOL     OW 1588   0.916   4.310   6.003
  230SOL    HW1 1589   0.835   4.258   5.977
  230SOL    HW2 1590   0.902   4.353   6.092
  231SOL     OW 1591   0.533   1.782   0.589
  231SOL    HW1 1592   0.585   1.868   0.584
  231SOL    HW2 1593   0.475   1.774   0.508
  232SOL     OW 1594   2.135   4.354   6.565
  232SOL    HW1 1595   2.196   4.301   6.624
  232SOL    HW2 1596   2.043   4.353   6.603
  233SOL     OW 1597   3.252   0.971   6.254
  233SOL    HW1 1598   3.347   0.998   6.272
  233SOL    HW2 1599   3.196   1.053   6.241
  234SOL     OW 1600   2.876   5.480   6.753
  234SOL    HW1 1601   2.938   5.452   6.680
  234SOL    HW2 1602   2.782   5.477   6.719
  235SOL     OW 1603   4.010   3.175   4.462
  235SOL    HW1 1604   4.055   3.187   4.550
  235SOL    HW2 1605   3.951   3.095   4.464
  236SOL     OW 1606   6.808   2.071   5.606
  236SOL    HW1 1607   6.848   2.156   5.641
  236SOL    HW2 1608   6.815   2.069   5.506
  237SOL     OW 1609   7.017   6.560   1.799
  237SOL    HW1 1610   0.033   6.469   1.820
  237SOL    HW2 1611   0.070   6.628   1.807
  238SOL     OW 1612   0.001   2.057   2.268
  238SOL    HW1 1613   7.013   2.123   2.343
  238SOL    HW2 1614   6.945   2.069   2.204
  239SOL     OW 1615   0.466   5.823   1.212
  239SOL    HW1 1616   0.487   5.811   1.115
  239SOL    HW2 1617   0.525   5.893   1.251
  240SOL     OW 1618   6.937   2.921   5.638
  240SOL    HW1 1619   6.865   2.917   5.568
  240SOL    HW2 1620   6.898   2.953   5.724
  241SOL     OW 1621   6.301   1.961   4.276
  241SOL    HW1 1622   6.278   1.954   4.179
  241SOL    HW2 1623   6.234   1.911   4.330
  242SOL     OW 1624   2.055   2.661   3.448
  242SOL    HW1 1625   2.098   2.750   3.431
  242SOL    HW2 1626   2.125   2.596   3.479
  243SOL     OW 1627   4.111   1.204   6.150
  243SOL    HW1 1628   4.137   1.116   6.191
  243SOL    HW2 1629   4.064   1.260   6.219
  244SOL     OW 1630   6.765   0.760   6.096
  244SOL    HW1 1631   6.806   0.691   6.157
  244SOL    HW2 1632   6.829   0.778   6.021
  245SOL     OW 1633   5.664   2.794   3.696
  245SOL    HW1 1634   5.653   2.793   3.597
  245SOL    HW2 1635   5.582   2.758   3.740
  246SOL     OW 1636   4.952   3.508   3.633
  246SOL    HW1 1637   4.907   3.522   3.545
  246SOL    HW2 1638   5.051   3.506   3.619
  247SOL     OW 1639   2.799   0.018   3.619
  247SOL    HW1 1640   2.764   6.971   3.553
  247SOL    HW2 1641   2.895   7.017   3.639
  248SOL     OW 1642   6.568   1.399   1.822
  248SOL    HW1 1643   6.642   1.344   1.784
  248SOL    HW2 1644   6.480   1.362   1.790
  249SOL     OW 1645   2.001   6.198   4.386
  249SOL    HW1 1646   1.948   6.198   4.471
  249SOL    HW2 1647   1.997   6.108   4.344
  250SOL     OW 1648   5.620   3.244   6.175
  250SOL    HW1 1649   5.708   3.290   6.179
  250SOL    HW2 1650   5.606   3.191   6.258
  251SOL     OW 1651   2.091   2.495   0.925
  251SOL    HW1 1652   2.058   2.515   0.832
  251SOL    HW2 1653   2.180   2.450   0.920
  252SOL     OW 1654   0.663   1.577   0.713
  252SOL    HW1 1655   0.614   1.501   0.753
  252SOL    HW2 1656   0.599   1.638   0.665
  253SOL     OW 1657   1.429   4.011   5.731
  253SOL    HW1 1658   1.444   3.914   5.750
  253SOL    HW2 1659   1.485   4.040   5.654
  254SOL     OW 1660   5.068   3.796   5.827
  254SOL    HW1 1661   5.068   3.886   5.869
  254SOL    HW2 1662   5.103   3.728   5.892
  255SOL     OW 1663   3.106   1.652   2.768
  255SOL    HW1 1664   3.103   1.638   2.867
  255SOL    HW2 1665   3.115   1.750   2.749
  256SOL     OW 1666   6.612   5.480   1.546
  256SOL    HW1 1667   6.701   5.521   1.566
  256SOL    HW2 1668   6.609   5.387   1.581
  257SOL     OW 1669   3.724   5.370   6.491
  257SOL    HW1 1670   3.680   5.280   6.504
  257SOL    HW2 1671   3.683   5.436   6.553
  258SOL     OW 1672   4.962   4.018   4.025
  258SOL    HW1 1673   5.050   4.060   4.005
  258SOL    HW2 1674   4.900   4.033   3.947
  259SOL     OW 1675   1.226   2.031   3.290
  259SOL    HW1 1676   1.271   2.117   3.313
  259SOL    HW2 1677   1.220   2.023   3.190
  260SOL     OW 1678   6.666   6.844   5.717
  260SOL    HW1 1679   6.630   6.931   5.682
  260SOL    HW2 1680   6.636   6.832   5.812
  261SOL     OW 1681   0.347   1.555   3.324
  261SOL    HW1 1682   0.289   1.478   3.348
  261SOL    HW2 1683   0.290   1.637   3.310
  262SOL     OW 1684   1.959   4.799   2.373
  262SOL    HW1 1685   1.976   4.702   2.388
  262SOL    HW2 1686   2.046   4.847   2.364
  263SOL     OW 1687   6.354   2.779   5.156
  263SOL    HW1 1688   6.401   2.749   5.073
  263SOL    HW2 1689   6.255   2.774   5.142
  264SOL     OW 1690   3.462   3.800   6.182
  264SOL    HW1 1691   3.385   3.774   6.124
  264SOL    HW2 1692   3.522   3.722   6.195
  265SOL     OW 1693   5.165   5.428   4.976
  265SOL    HW1 1694   5.067   5.407   4.966
  265SOL    HW2 1695   5.185   5.451   5.071
  266SOL     OW 1696   3.394   3.039   6.266
  266SOL    HW1 1697   3.381   2.967   6.334
  266SOL    HW2 1698   3.481   3.085   6.283
  267SOL     OW 1699   1.839   1.080   6.362
  267SOL    HW1 1700   1.743   1.101   6.383
  267SOL    HW2 1701   1.898   1.144   6.409
  268SOL     OW 1702   3.227   5.197   3.632
  268SOL    HW1 1703   3.314   5.227   3.673
  268SOL    HW2 1704   3.222   5.228   3.537
  269SOL     OW 1705   1.646   0.861   4.700
  269SOL    HW1 1706   1.605   0.922   4.767
  269SOL    HW2 1707   1.585   0.784   4.683
  270SOL     OW 1708   4.998   6.854   4.585
  270SOL    HW1 1709   5.061   6.873   4.510
  270SOL    HW2 1710   4.997   6.755   4.603
  271SOL     OW 1711   1.572   1.667   0.702
  271SOL    HW1 1712   1.645   1.690   0.767
  271SOL    HW2 1713   1.484   1.673   0.748
  272SOL     OW 1714   4.519   6.027   1.863
  272SOL    HW1 1715   4.478   5.985   1.945
  272SOL    HW2 1716   4.539   6.123   1.881
  273SOL     OW 1717   2.534   6.282   4.397
  273SOL    HW1 1718   2.613   6.343   4.405
  273SOL    HW2 1719   2.473   6.298   4.475
  274SOL     OW 1720   5.930   1.657   0.868
  274SOL    HW1 1721   5.954   1.752   0.886
  274SOL    HW2 1722   5.865   1.653   0.792
  275SOL     OW 1723   5.587   6.066   5.862
  275SOL    HW1 1724   5.509   6.111   5.817
  275SOL    HW2 1725   5.567   5.969   5.875
  276SOL     OW 1726   6.889   6.520   4.234
  276SOL    HW1 1727   6.800   6.556   4.261
  276SOL    HW2 1728   6.900   6.427   4.270
  277SOL     OW 1729   4.746   2.735   5.295
  277SOL    HW1 1730   4.736   2.833   5.276
  277SOL    HW2 1731   4.701   2.682   5.223
  278SOL     OW 1732   5.994   3.811   3.400
  278SOL    HW1 1733   5.899   3.841   3.398
  278SOL    HW2 1734   6.021   3.775   3.311
  279SOL     OW 1735   0.295   3.574   3.883
  279SOL    HW1 1736   0.369   3.631   3.849
  279SOL    HW2 1737   0.236   3.629   3.943
  280SOL     OW 1738   3.776   1.511   3.807
  280SOL    HW1 1739   3.789   1.462   3.721
  280SOL    HW2 1740   3.798   1.607   3.795
  281SOL     OW 1741   5.222   6.417   5.180
  281SOL    HW1 1742   5.269   6.495   5.138
  281SOL    HW2 1743   5.124   6.428   5.171
  282SOL     OW 1744   1.149   2.712   0.555
  282SOL    HW1 1745   1.167   2.810   0.560
  282SOL    HW2 1746   1.215   2.669   0.494
  283SOL     OW 1747   5.203   3.677   4.446
  283SOL    HW1 1748   5.221   3.631   4.360
  283SOL    HW2 1749   5.116   3.644   4.484
  284SOL     OW 1750   5.079   5.634   2.593
  284SOL    HW1 1751   5.024   5.571   2.649
  284SOL    HW2 1752   5.119   5.583   2.517
  285SOL     OW 1753   4.244   0.974   5.884
  285SOL    HW1 1754   4.230   1.073   5.891
  285SOL    HW2 1755   4.292   0.942   5.966
  286SOL     OW 1756   2.518   5.152   5.474
  286SOL    HW1 1757   2.616   5.139   5.481
  286SOL    HW2 1758   2.478   5.081   5.416
  287SOL     OW 1759   3.915   6.838   0.108
  287SOL    HW1 1760   3.831   6.866   0.155
  287SOL    HW2 1761   3.965   6.773   0.166
  288SOL     OW 1762   4.667   1.957   0.535
  288SOL    HW1 1763   4.717   1.929   0.453
  288SOL    HW2 1764   4.570   1.968   0.512
  289SOL     OW 1765   6.335   5.371   4.060
  289SOL    HW1 1766   6.338   5.425   3.976
  289SOL    HW2 1767   6.256   5.399   4.115
  290SOL     OW 1768   3.895   0.970   6.151
  290SOL    HW1 1769   3.985   1.010   6.132
  290SOL    HW2 1770   3.835   1.040   6.189
  291SOL     OW 1771   3.879   0.492   5.670
  291SOL    HW1 1772   3.961   0.505   5.614
  291SOL    HW2 1773   3.847   0.580   5.704
  292SOL     OW 1774   4.257   0.026   3.894
  292SOL    HW1 1775   4.196   6.994   3.834
  292SOL    HW2 1776   4.224   0.019   3.989
  293SOL     OW 1777   5.506   6.424   2.687
  293SOL    HW1 1778   5.517   6.523   2.682
  293SOL    HW2 1779   5.589   6.383   2.725
  294SOL     OW 1780   6.455   1.315   6.494
  294SOL    HW1 1781   6.418   1.236   6.446
  294SOL    HW2 1782   6.541   1.342   6.453
  295SOL     OW 1783   1.003   0.268   4.605
  295SOL    HW1 1784   1.033   0.187   4.656
  295SOL    HW2 1785   1.079   0.332   4.596
  296SOL     OW 1786   0.715   2.332   2.149
  296SOL    HW1 1787   0.685   2.249   2.104
  296SOL    HW2 1788   0.636   2.388   2.174
  297SOL     OW 1789   5.488   3.530   3.213
  297SOL    HW1 1790   5.400   3.549   3.257
  297SOL    HW2 1791   5.502   3.431   3.207
  298SOL     OW 1792   4.396   0.893   6.094
  298SOL    HW1 1793   4.406   0.834   6.173
  298SOL    HW2 1794   4.483   0.937   6.073
  299SOL     OW 1795   1.031   0.595   6.695
  299SOL    HW1 1796   0.988   0.673   6.740
  299SOL    HW2 1797   1.128   0.592   6.718
  300SOL     OW 1798   4.320   6.988   3.452
  300SOL    HW1 1799   4.374   6.991   3.536
  300SOL    HW2 1800   4.250   0.040   3.455
  301SOL     OW 1801   6.337   5.242   6.693
  301SOL    HW1 1802   6.350   5.323   6.750
  301SOL    HW2 1803   6.344   5.160   6.750
  302SOL     OW 1804   6.688   6.025   2.643
  302SOL    HW1 1805   6.742   5.941   2.657
  302SOL    HW2 1806   6.750   6.103   2.637
  303SOL     OW 1807   5.608   5.641   3.619
  303SOL    HW1 1808   5.574   5.568   3.678
  303SOL    HW2 1809   5.669   5.602   3.550
  304SOL     OW 1810   2.292   6.331   4.935
  304SOL    HW1 1811   2.273   6.232   4.932
  304SOL    HW2 1812   2.385   6.345   4.971
  305SOL     OW 1813   0.892   2.617   1.855
  305SOL    HW1 1814   0.796   2.645   1.856
  305SOL    HW2 1815   0.951   2.698   1.853
  306SOL     OW 1816   7.014   6.671   3.134
  306SOL    HW1 1817   0.057   6.594   3.145
  306SOL    HW2 1818   7.000   6.716   3.222
  307SOL     OW 1819   3.556   3.230   4.393
  307SOL    HW1 1820   3.583   3.315   4.349
  307SOL    HW2 1821   3.535   3.161   4.322
  308SOL     OW 1822   6.285   2.040   2.654
  308SOL    HW1 1823   6.315   1.969   2.717
  308SOL    HW2 1824   6.310   2.130   2.690
  309SOL     OW 1825   1.711   5.512   6.644
  309SOL    HW1 1826   1.664   5.600   6.655
  309SOL    HW2 1827   1.755   5.487   6.730
  310SOL     OW 1828   5.589   6.674   5.142
  310SOL    HW1 1829   5.620   6.579   5.150
  310SOL    HW2 1830   5.568   6.694   5.046
  311SOL     OW 1831   1.767   5.992   2.298
  311SOL    HW1 1832   1.691   6.051   2.271
  311SOL    HW2 1833   1.787   6.007   2.395
  312SOL     OW 1834   3.313   0.302   3.666
  312SOL    HW1 1835   3.333   0.276   3.761
  312SOL    HW2 1836   3.354   0.392   3.647
  313SOL     OW 1837   2.898   3.744   2.675
  313SOL    HW1 1838   2.861   3.741   2.582
  313SOL    HW2 1839   2.918   3.651   2.706
  314SOL     OW 1840   3.104   5.625   6.171
  314SOL    HW1 1841   3.060   5.633   6.260
  314SOL    HW2 1842   3.062   5.689   6.107
  315SOL     OW 1843   6.022   0.851   4.369
  315SOL    HW1 1844   6.044   0.937   4.414
  315SOL    HW2 1845   6.100   0.789   4.375
  316SOL     OW 1846   4.173   1.011   6.327
  316SOL    HW1 1847   4.268   0.994   6.350
  316SOL    HW2 1848   4.125   0.923   6.314
  317SOL     OW 1849   1.020   2.253   1.208
  317SOL    HW1 1850   0.932   2.284   1.173
  317SOL    HW2 1851   1.089   2.323   1.191
  318SOL     OW 1852   0.666   0.020   5.562
  318SOL    HW1 1853   0.599   7.000   5.625
  318SOL    HW2 1854   0.747   0.047   5.613
  319SOL     OW 1855   0.187   0.772   3.821
  319SOL    HW1 1856   0.171   0.855   3.768
  319SOL    HW2 1857   0.138   0.777   3.908
  320SOL     OW 1858   5.560   2.021   6.532
  320SOL    HW1 1859   5.481   1.989   6.583
  320SOL    HW2 1860   5.630   2.054   6.595
  321SOL     OW 1861   5.199   2.816   0.776
  321SOL    HW1 1862   5.176   2.739   0.835
  321SOL    HW2 1863   5.126   2.829   0.708
  322SOL     OW 1864   3.040   2.674   6.552
  322SOL    HW1 1865   3.083   2.743   6.610
  322SOL    HW2 1866   2.951   2.648   6.590
  323SOL     OW 1867   1.902   3.919   2.848
  323SOL    HW1 1868   1.889   3.948   2.943
  323SOL    HW2 1869   1.859   3.984   2.787
  324SOL     OW 1870   0.583   6.957   2.658
  324SOL    HW1 1871   0.628   0.017   2.698
  324SOL    HW2 1872   0.491   6.948   2.695
  325SOL     OW 1873   0.234   4.302   0.725
  325SOL    HW1 1874   0.189   4.333   0.809
  325SOL    HW2 1875   0.333   4.299   0.740
  326SOL     OW 1876   0.568   6.164   6.903
  326SOL    HW1 1877   0.598   6.092   6.840
  326SOL    HW2 1878   0.603   6.145   6.995
  327SOL     OW 1879   5.144   5.089   5.090
  327SOL    HW1 1880   5.059   5.043   5.065
  327SOL    HW2 1881   5.204   5.025   5.139
  328SOL     OW 1882   1.370   4.783   3.101
  328SOL    HW1 1883   1.440   4.733   3.152
  328SOL    HW2 1884   1.345   4.866   3.152
  329SOL     OW 1885   3.171   3.254   1.588
  329SOL    HW1 1886   3.161   3.311   1.669
  329SOL    HW2 1887   3.128   3.300   1.510
  330SOL     OW 1888   2.980   4.189   0.697
  330SOL    HW1 1889   2.945   4.133   0.622
  330SOL    HW2 1890   3.063   4.236   0.668
  331SOL     OW 1891   6.082   5.050   5.705
  331SOL    HW1 1892   6.107   4.955   5.720
  331SOL    HW2 1893   5.988   5.065   5.736
  332SOL     OW 1894   5.592   2.515   2.679
  332SOL    HW1 1895   5.635   2.547   2.763
  332SOL    HW2 1896   5.653   2.450   2.633
  333SOL     OW 1897   3.305   0.797   5.118
  333SOL    HW1 1898   3.227   0.795   5.055
  333SOL    HW2 1899   3.284   0.744   5.200
  334SOL     OW 1900   3.738   3.646   3.267
  334SOL    HW1 1901   3.749   3.589   3.349
  334SOL    HW2 1902   3.680   3.724   3.289
  335SOL     OW 1903   4.066   1.465   1.019
  335SOL    HW1 1904   4.141   1.412   0.980
  335SOL    HW2 1905   4.028   1.526   0.949
  336SOL     OW 1906   3.440   1.393   4.588
  336SOL    HW1 1907   3.371   1.424   4.522
  336SOL    HW2 1908   3.394   1.350   4.666
  337SOL     OW 1909   0.791   0.640   5.415
  337SOL    HW1 1910   0.763   0.662   5.509
  337SOL    HW2 1911   0.862   0.703   5.386
  338SOL     OW 1912   4.370   1.321   1.151
  338SOL    HW1 1913   4.355   1.316   1.052
  338SOL    HW2 1914   4.330   1.405   1.187
  339SOL     OW 1915   3.971   5.726   5.984
  339SOL    HW1 1916   3.945   5.759   6.075
  339SOL    HW2 1917   3.936   5.789   5.915
  340SOL     OW 1918   5.015   1.861   4.060
  340SOL    HW1 1919   5.089   1.816   4.009
  340SOL    HW2 1920   4.931   1.857   4.007
  341SOL     OW 1921   6.560   6.110   3.109
  341SOL    HW1 1922   6.578   6.021   3.151
  341SOL    HW2 1923   6.534   6.096   3.013
  342SOL     OW 1924   5.007   1.920   2.477
  342SOL    HW1 1925   4.945   1.998   2.484
  342SOL    HW2 1926   4.954   1.838   2.454
  343SOL     OW 1927   6.917   6.648   2.418
  343SOL    HW1 1928   6.890   6.571   2.476
  343SOL    HW2 1929   6.937   6.615   2.326
  344SOL     OW 1930   0.526   2.109   1.046
  344SOL    HW1 1931   0.457   2.179   1.067
  344SOL    HW2 1932   0.559   2.068   1.131
  345SOL     OW 1933   6.788   2.705   4.232
  345SOL    HW1 1934   6.778   2.607   4.245
  345SOL    HW2 1935   6.700   2.745   4.207
  346SOL     OW 1936   2.275   6.484   3.873
  346SOL    HW1 1937   2.250   6.494   3.969
  346SOL    HW2 1938   2.291   6.575   3.833
  347SOL     OW 1939   2.415   4.616   0.404
  347SOL    HW1 1940   2.321   4.605   0.436
  347SOL    HW2 1941   2.420   4.694   0.342
  348SOL     OW 1942   4.656   5.193   1.554
  348SOL    HW1 1943   4.610   5.270   1.510
  348SOL    HW2 1944   4.699   5.135   1.485
  349SOL     OW 1945   5.938   4.015   0.948
  349SOL    HW1 1946   6.035   4.025   0.927
  349SOL    HW2 1947   5.907   3.924   0.922
  350SOL     OW 1948   3.560   2.817   0.233
  350SOL    HW1 1949   3.595   2.747   0.171
  350SOL    HW2 1950   3.569   2.907   0.192
  351SOL     OW 1951   3.416   4.709   1.157
  351SOL    HW1 1952   3.497   4.679   1.207
  351SOL    HW2 1953   3.354   4.632   1.144
  352SOL     OW 1954   4.744   0.368   2.575
  352SOL    HW1 1955   4.706   0.351   2.484
  352SOL    HW2 1956   4.843   0.353   2.573
  353SOL     OW 1957   1.650   0.550   6.625
  353SOL    HW1 1958   1.632   0.611   6.703
  353SOL    HW2 1959   1.606   0.586   6.543
  354SOL     OW 1960   0.093   2.208   0.323
  354SOL    HW1 1961   0.147   2.212   0.407
  354SOL    HW2 1962   0.024   2.281   0.326
  355SOL     OW 1963   0.918   2.336   2.885
  355SOL    HW1 1964   0.833   2.298   2.849
  355SOL    HW2 1965   0.948   2.282   2.964
  356SOL     OW 1966   1.869   0.970   5.702
  356SOL    HW1 1967   1.869   0.931   5.610
  356SOL    HW2 1968   1.870   0.895   5.769
  357SOL     OW 1969   5.056   0.291   4.984
  357SOL    HW1 1970   5.075   0.296   5.082
  357SOL    HW2 1971   5.094   0.371   4.937
  358SOL     OW 1972   3.461   6.074   6.654
  358SOL    HW1 1973   3.431   5.987   6.615
  358SOL    HW2 1974   3.394   6.145   6.632
  359SOL     OW 1975   1.371   2.113   2.493
  359SOL    HW1 1976   1.463   2.081   2.468
  359SOL    HW2 1977   1.359   2.207   2.464
  360SOL     OW 1978   0.796   4.789   4.258
  360SOL    HW1 1979   0.801   4.855   4.333
  360SOL    HW2 1980   0.703   4.788   4.221
  361SOL     OW 1981   6.717   1.883   2.600
  361SOL    HW1 1982   6.714   1.785   2.580
  361SOL    HW2 1983   6.809   1.908   2.628
  362SOL     OW 1984   3.808   3.862   0.686
  362SOL    HW1 1985   3.858   3.778   0.706
  362SOL    HW2 1986   3.729   3.870   0.747
  363SOL     OW 1987   5.233   5.337   1.638
  363SOL    HW1 1988   5.181   5.264   1.682
  363SOL    HW2 1989   5.180   5.373   1.561
  364SOL     OW 1990   1.037   6.816   6.350
  364SOL    HW1 1991   0.941   6.791   6.342
  364SOL    HW2 1992   1.054   6.851   6.442
  365SOL     OW 1993   5.118   1.860   3.388
  365SOL    HW1 1994   5.156   1.769   3.403
  365SOL    HW2 1995   5.102   1.904   3.477
  366SOL     OW 1996   5.691   1.482   6.536
  366SOL    HW1 1997   5.708   1.431   6.620
  366SOL    HW2 1998   5.627   1.431   6.479
  367SOL     OW 1999   5.839   1.696   6.167
  367SOL    HW1 2000   5.879   1.748   6.242
  367SOL    HW2 2001   5.742   1.718   6.158
  368SOL     OW 2002   6.942   2.284   5.708
  368SOL    HW1 2003   6.889   2.368   5.706
  368SOL    HW2 2004   6.969   2.264   5.802
  369SOL     OW 2005   6.698   3.693   1.762
  369SOL    HW1 2006   6.738   3.751   1.692
  369SOL    HW2 2007   6.642   3.748   1.824
  370SOL     OW 2008   1.554   3.178   3.805
  370SOL    HW1 2009   1.617   3.134   3.869
  370SOL    HW2 2010   1.490   3.109   3.769
  371SOL     OW 2011   0.738   4.608   6.697
  371SOL    HW1 2012   0.760   4.586   6.792
  371SOL    HW2 2013   0.691   4.696   6.693
  372SOL     OW 2014   3.935   6.381   6.438
  372SOL    HW1 2015   3.980   6.468   6.458
  372SOL    HW2 2016   3.872   6.359   6.513
  373SOL     OW 2017   5.702   5.115   3.753
  373SOL    HW1 2018   5.783   5.141   3.806
  373SOL    HW2 2019   5.624   5.170   3.783
  374SOL     OW 2020   2.749   1.148   2.952
  374SOL    HW1 2021   2.800   1.142   2.866
  374SOL    HW2 2022   2.810   1.127   3.028
  375SOL     OW 2023   1.031   5.435   4.435
  375SOL    HW1 2024   1.040   5.467   4.529
  375SOL    HW2 2025   0.990   5.506   4.379
  376SOL     OW 2026   2.926   1.005   3.685
  376SOL    HW1 2027   2.940   1.104   3.682
  376SOL    HW2 2028   3.014   0.959   3.699
  377SOL     OW 2029   1.433   1.868   0.285
  377SOL    HW1 2030   1.515   1.848   0.232
  377SOL    HW2 2031   1.394   1.955   0.256
  378SOL     OW 2032   3.910   1.311   1.827
  378SOL    HW1 2033   3.909   1.211   1.821
  378SOL    HW2 2034   3.868   1.340   1.913
  379SOL     OW 2035   5.336   1.795   6.206
  379SOL    HW1 2036   5.360   1.813   6.301
  379SOL    HW2 2037   5.238   1.773   6.200
  380SOL     OW 2038   4.329   2.442   0.293
  380SOL    HW1 2039   4.355   2.449   0.196
  380SOL    HW2 2040   4.385   2.505   0.347
  381SOL     OW 2041   1.787   3.819   3.115
  381SOL    HW1 2042   1.855   3.787   3.181
  381SOL    HW2 2043   1.707   3.758   3.117
  382SOL     OW 2044   4.543   0.950   6.702
  382SOL    HW1 2045   4.575   0.923   6.611
  382SOL    HW2 2046   4.443   0.952   6.703
  383SOL     OW 2047   5.235   1.981   0.606
  383SOL    HW1 2048   5.224   2.006   0.510
  383SOL    HW2 2049   5.226   1.882   0.616
  384SOL     OW 2050   6.386   3.767   4.786
  384SOL    HW1 2051   6.432   3.826   4.720
  384SOL    HW2 2052   6.404   3.799   4.879
  385SOL     OW 2053   4.036   3.063   6.819
  385SOL    HW1 2054   4.069   3.092   6.909
  385SOL    HW2 2055   4.077   3.121   6.749
  386SOL     OW 2056   3.868   6.175   3.795
  386SOL    HW1 2057   3.769   6.188   3.796
  386SOL    HW2 2058   3.891   6.093   3.742
  387SOL     OW 2059   3.145   6.735   3.676
  387SOL    HW1 2060   3.140   6.719   3.774
  387SOL    HW2 2061   3.240   6.728   3.646
  388SOL     OW 2062   1.782   4.574   0.061
  388SOL    HW1 2063   1.792   4.480   0.092
  388SOL    HW2 2064   1.708   4.579   7.013
  389SOL     OW 2065   3.171   3.279   2.747
  389SOL    HW1 2066   3.077   3.284   2.779
  389SOL    HW2 2067   3.217   3.202   2.792
  390SOL     OW 2068   2.288   1.177   4.101
  390SOL    HW1 2069   2.250   1.250   4.044
  390SOL    HW2 2070   2.356   1.215   4.164
  391SOL     OW 2071   0.840   2.489   6.441
  391SOL    HW1 2072   0.906   2.413   6.442
  391SOL    HW2 2073   0.750   2.454   6.416
  392SOL     OW 2074   2.873   5.682   3.176
  392SOL    HW1 2075   2.827   5.597   3.150
  392SOL    HW2 2076   2.938   5.664   3.250
  393SOL     OW 2077   6.091   4.366   4.994
  393SOL    HW1 2078   6.055   4.414   5.073
  393SOL    HW2 2079   6.030   4.379   4.916
  394SOL     OW 2080   2.552   0.065   6.727
  394SOL    HW1 2081   2.609   7.011   6.692
  394SOL    HW2 2082   2.463   0.063   6.682
  395SOL     OW 2083   6.483   3.372   0.730
  395SOL    HW1 2084   6.497   3.443   0.661
  395SOL    HW2 2085   6.505   3.409   0.820
  396SOL     OW 2086   2.975   3.414   4.724
  396SOL    HW1 2087   2.970   3.333   4.666
  396SOL    HW2 2088   2.973   3.387   4.820
  397SOL     OW 2089   4.448   2.369   6.575
  397SOL    HW1 2090   4.366   2.409   6.617
  397SOL    HW2 2091   4.421   2.318   6.493
  398SOL     OW 2092   1.514   5.180   2.098
  398SOL    HW1 2093   1.586   5.171   2.029
  398SOL    HW2 2094   1.556   5.178   2.189
  399SOL     OW 2095   5.365   5.078   2.163
  399SOL    HW1 2096   5.317   5.157   2.127
  399SOL    HW2 2097   5.352   5.074   2.262
  400SOL     OW 2098   1.423   5.492   5.402
  400SOL    HW1 2099   1.501   5.531   5.355
  400SOL    HW2 2100   1.438   5.394   5.416
  401SOL     OW 2101   5.509   1.300   6.433
  401SOL    HW1 2102   5.428   1.242   6.428
  401SOL    HW2 2103   5.521   1.347   6.346
  402SOL     OW 2104   6.006   5.030   1.155
  402SOL    HW1 2105   6.101   4.999   1.168
  402SOL    HW2 2106   6.005   5.110   1.096
  403SOL     OW 2107   5.624   3.665   6.435
  403SOL    HW1 2108   5.549   3.673   6.368
  403SOL    HW2 2109   5.666   3.755   6.447
  404SOL     OW 2110   0.360   0.066   4.881
  404SOL    HW1 2111   0.290   0.063   4.952
  404SOL    HW2 2112   0.423   0.141   4.899
  405SOL     OW 2113   0.673   2.421   0.611
  405SOL    HW1 2114   0.642   2.374   0.528
  405SOL    HW2 2115   0.739   2.492   0.587
  406SOL     OW 2116   1.685   3.323   3.594
  406SOL    HW1 2117   1.778   3.304   3.561
  406SOL    HW2 2118   1.666   3.266   3.674
  407SOL     OW 2119   2.748   0.777   4.390
  407SOL    HW1 2120   2.719   0.757   4.297
  407SOL    HW2 2121   2.668   0.777   4.451
  408SOL     OW 2122   1.809   0.163   2.980
  408SOL    HW1 2123   1.882   0.106   2.944
  408SOL    HW2 2124   1.723   0.113   2.977
  409SOL     OW 2125   6.147   3.567   3.792
  409SOL    HW1 2126   6.082   3.582   3.718
  409SOL    HW2 2127   6.241   3.574   3.757
  410SOL     OW 2128   2.646   1.568   6.391
  410SOL    HW1 2129   2.635   1.558   6.292
  410SOL    HW2 2130   2.742   1.583   6.413
  411SOL     OW 2131   6.490   4.050   5.293
  411SOL    HW1 2132   6.519   4.145   5.303
  411SOL    HW2 2133   6.391   4.047   5.279
  412SOL     OW 2134   3.554   0.308   2.377
  412SOL    HW1 2135   3.551   0.317   2.477
  412SOL    HW2 2136   3.544   0.211   2.353
  413SOL     OW 2137   2.638   6.936   0.902
  413SOL    HW1 2138   2.548   6.964   0.936
  413SOL    HW2 2139   2.672   7.003   0.836
  414SOL     OW 2140   4.169   3.756   0.492
  414SOL    HW1 2141   4.205   3.844   0.459
  414SOL    HW2 2142   4.112   3.715   0.421
  415SOL     OW 2143   3.087   6.574   1.952
  415SOL    HW1 2144   3.120   6.497   1.897
  415SOL    HW2 2145   3.141   6.656   1.931
  416SOL     OW 2146   3.692   5.904   5.205
  416SOL    HW1 2147   3.673   5.811   5.238
  416SOL    HW2 2148   3.727   5.959   5.281
  417SOL     OW 2149   4.823   5.847   0.965
  417SOL    HW1 2150   4.912   5.807   0.944
  417SOL    HW2 2151   4.800   5.827   1.061
  418SOL     OW 2152   5.477   4.963   1.062
  418SOL    HW1 2153   5.534   5.034   1.021
  418SOL    HW2 2154   5.527   4.917   1.136
  419SOL     OW 2155   5.868   6.745   1.346
  419SOL    HW1 2156   5.898   6.750   1.441
  419SOL    HW2 2157   5.777   6.704   1.342
  420SOL     OW 2158   4.113   4.367   0.160
  420SOL    HW1 2159   4.167   4.291   0.124
  420SOL    HW2 2160   4.015   4.349   0.145
  421SOL     OW 2161   1.824   6.248   6.498
  421SOL    HW1 2162   1.808   6.217   6.592
  421SOL    HW2 2163   1.858   6.172   6.443
  422SOL     OW 2164   5.717   3.325   6.752
  422SOL    HW1 2165   5.777   3.385   6.804
  422SOL    HW2 2166   5.729   3.342   6.654
  423SOL     OW 2167   0.459   2.569   6.716
  423SOL    HW1 2168   0.360   2.583   6.708
  423SOL    HW2 2169   0.478   2.476   6.747
  424SOL     OW 2170   2.195   3.360   0.391
  424SOL    HW1 2171   2.100   3.390   0.376
  424SOL    HW2 2172   2.209   3.338   0.487
  425SOL     OW 2173   2.747   1.429   0.677
  425SOL    HW1 2174   2.674   1.467   0.619
  425SOL    HW2 2175   2.715   1.344   0.719
  426SOL     OW 2176   5.737   4.084   5.509
  426SOL    HW1 2177   5.672   4.024   5.463
  426SOL    HW2 2178   5.830   4.063   5.478
  427SOL     OW 2179   5.155   3.947   0.922
  427SOL    HW1 2180   5.122   3.858   0.889
  427SOL    HW2 2181   5.240   3.933   0.973
  428SOL     OW 2182   3.855   0.821   4.739
  428SOL    HW1 2183   3.921   0.841   4.811
  428SOL    HW2 2184   3.772   0.875   4.754
  429SOL     OW 2185   1.652   5.335   6.425
  429SOL    HW1 2186   1.672   5.405   6.494
  429SOL    HW2 2187   1.708   5.352   6.344
  430SOL     OW 2188   1.343   0.144   5.332
  430SOL    HW1 2189   1.323   0.241   5.337
  430SOL    HW2 2190   1.382   0.122   5.243
  431SOL     OW 2191   3.636   1.746   0.467
  431SOL    HW1 2192   3.694   1.817   0.427
  431SOL    HW2 2193   3.591   1.783   0.549
  432SOL     OW 2194   0.369   1.968   1.281
  432SOL    HW1 2195   0.315   1.887   1.303
  432SOL    HW2 2196   0.466   1.944   1.280
  433SOL     OW 2197   3.671   6.410   5.557
  433SOL    HW1 2198   3.711   6.432   5.646
  433SOL    HW2 2199   3.603   6.479   5.533
  434SOL     OW 2200   0.194   3.587   1.325
  434SOL    HW1 2201   0.279   3.632   1.351
  434SOL    HW2 2202   0.166   3.618   1.234
  435SOL     OW 2203   3.561   4.198   0.305
  435SOL    HW1 2204   3.510   4.238   0.229
  435SOL    HW2 2205   3.507   4.126   0.348
  436SOL     OW 2206   2.079   1.039   0.111
  436SOL    HW1 2207   2.083   1.102   0.188
  436SOL    HW2 2208   2.172   1.015   0.082
  437SOL     OW 2209   0.063   6.995   6.798
  437SOL    HW1 2210   0.055   6.896   6.805
  437SOL    HW2 2211   7.020   0.009   6.728
  438SOL     OW 2212   1.170   2.840   1.882
  438SOL    HW1 2213   1.228   2.787   1.821
  438SOL    HW2 2214   1.221   2.862   1.966
  439SOL     OW 2215   6.733   5.105   3.125
  439SOL    HW1 2216   6.671   5.058   3.188
  439SOL    HW2 2217   6.758   5.194   3.163
  440SOL     OW 2218   0.968   2.742   3.830
  440SOL    HW1 2219   0.944   2.648   3.808
  440SOL    HW2 2220   0.910   2.774   3.906
  441SOL     OW 2221   0.408   1.352   3.742
  441SOL    HW1 2222   0.438   1.373   3.835
  441SOL    HW2 2223   0.375   1.436   3.698
  442SOL     OW 2224   0.042   4.191   0.037
  442SOL    HW1 2225   0.026   4.174   0.134
  442SOL    HW2 2226   0.091   4.114   7.017
  443SOL     OW 2227   0.450   4.350   5.553
  443SOL    HW1 2228   0.488   4.421   5.492
  443SOL    HW2 2229   0.518   4.327   5.622
  444SOL     OW 2230   4.218   3.211   6.380
  444SOL    HW1 2231   4.210   3.183   6.284
  444SOL    HW2 2232   4.154   3.285   6.399
  445SOL     OW 2233   2.295   4.655   3.057
  445SOL    HW1 2234   2.203   4.637   3.091
  445SOL    HW2 2235   2.303   4.751   3.030
  446SOL     OW 2236   4.727   4.914   3.705
  446SOL    HW1 2237   4.802   4.957   3.755
  446SOL    HW2 2238   4.713   4.821   3.741
  447SOL     OW 2239   6.510   5.779   0.961
  447SOL    HW1 2240   6.500   5.876   0.939
  447SOL    HW2 2241   6.593   5.765   1.014
  448SOL     OW 2242   4.308   0.426   5.084
  448SOL    HW1 2243   4.362   0.418   5.168
  448SOL    HW2 2244   4.279   0.334   5.055
  449SOL     OW 2245   5.419   0.190   4.825
  449SOL    HW1 2246   5.400   0.219   4.919
  449SOL    HW2 2247   5.478   0.258   4.781
  450SOL     OW 2248   6.897   6.217   3.781
  450SOL    HW1 2249   6.945   6.305   3.785
  450SOL    HW2 2250   6.917   6.172   3.694
  451SOL     OW 2251   0.797   2.652   3.190
  451SOL    HW1 2252   0.770   2.575   3.248
  451SOL    HW2 2253   0.730   2.725   3.199
  452SOL     OW 2254   6.975   4.739   6.428
  452SOL    HW1 2255   7.001   4.813   6.490
  452SOL    HW2 2256   6.885   4.702   6.455
  453SOL     OW 2257   2.752   1.288   6.291
  453SOL    HW1 2258   2.654   1.269   6.298
  453SOL    HW2 2259   2.795   1.273   6.380
  454SOL     OW 2260   0.943   6.039   6.855
  454SOL    HW1 2261   0.935   5.957   6.912
  454SOL    HW2 2262   0.955   6.013   6.760
  455SOL     OW 2263   5.226   0.952   5.942
  455SOL    HW1 2264   5.158   0.897   5.893
  455SOL    HW2 2265   5.234   1.041   5.898
  456SOL     OW 2266   4.242   5.762   6.132
  456SOL    HW1 2267   4.226   5.847   6.083
  456SOL    HW2 2268   4.162   5.740   6.188
  457SOL     OW 2269   2.196   4.968   2.691
  457SOL    HW1 2270   2.113   4.920   2.662
  457SOL    HW2 2271   2.184   5.066   2.677
  458SOL     OW 2272   6.494   5.529   6.090
  458SOL    HW1 2273   6.464   5.549   6.183
  458SOL    HW2 2274   6.460   5.599   6.028
  459SOL     OW 2275   1.814   0.437   2.983
  459SOL    HW1 2276   1.746   0.467   3.050
  459SOL    HW2 2277   1.811   0.337   2.975
  460SOL     OW 2278   6.398   2.101   2.952
  460SOL    HW1 2279   6.479   2.125   3.006
  460SOL    HW2 2280   6.388   2.166   2.876
  461SOL     OW 2281   4.512   6.146   5.428
  461SOL    HW1 2282   4.605   6.112   5.427
  461SOL    HW2 2283   4.454   6.087   5.484
  462SOL     OW 2284   2.973   3.011   6.470
  462SOL    HW1 2285   2.947   3.096   6.515
  462SOL    HW2 2286   3.063   2.982   6.504
  463SOL     OW 2287   6.695   5.101   2.155
  463SOL    HW1 2288   6.599   5.121   2.133
  463SOL    HW2 2289   6.721   5.153   2.237
  464SOL     OW 2290   2.119   1.630   5.718
  464SOL    HW1 2291   2.211   1.668   5.733
  464SOL    HW2 2292   2.123   1.558   5.649
  465SOL     OW 2293   6.751   2.466   4.312
  465SOL    HW1 2294   6.688   2.422   4.248
  465SOL    HW2 2295   6.791   2.397   4.373
  466SOL     OW 2296   1.348   6.858   3.800
  466SOL    HW1 2297   1.327   6.930   3.866
  466SOL    HW2 2298   1.264   6.831   3.752
  467SOL     OW 2299   1.320   0.828   5.471
  467SOL    HW1 2300   1.303   0.731   5.492
  467SOL    HW2 2301   1.250   0.884   5.514
  468SOL     OW 2302   3.773   4.749   1.088
  468SOL    HW1 2303   3.703   4.728   1.156
  468SOL    HW2 2304   3.797   4.667   1.037
  469SOL     OW 2305   2.031   5.552   6.790
  469SOL    HW1 2306   1.997   5.512   6.705
  469SOL    HW2 2307   2.057   5.480   6.853
  470SOL     OW 2308   3.945   0.234   2.867
  470SOL    HW1 2309   3.964   0.210   2.772
  470SOL    HW2 2310   4.028   0.224   2.922
  471SOL     OW 2311   2.116   2.544   4.730
  471SOL    HW1 2312   2.137   2.488   4.810
  471SOL    HW2 2313   2.081   2.633   4.760
  472SOL     OW 2314   4.055   4.689   5.704
  472SOL    HW1 2315   4.008   4.744   5.635
  472SOL    HW2 2316   4.154   4.696   5.690
  473SOL     OW 2317   1.528   3.446   2.784
  473SOL    HW1 2318   1.545   3.465   2.687
  473SOL    HW2 2319   1.432   3.465   2.805
  474SOL     OW 2320   4.468   5.071   4.600
  474SOL    HW1 2321   4.542   5.138   4.588
  474SOL    HW2 2322   4.380   5.114   4.579
  475SOL     OW 2323   0.149   6.589   6.191
  475SOL    HW1 2324   0.125   6.507   6.139
  475SOL    HW2 2325   0.067   6.630   6.230
  476SOL     OW 2326   6.762   4.303   2.311
  476SOL    HW1 2327   6.853   4.300   2.352
  476SOL    HW2 2328   6.764   4.256   2.223
  477SOL     OW 2329   2.151   5.474   3.841
  477SOL    HW1 2330   2.241   5.474   3.798
  477SOL    HW2 2331   2.094   5.404   3.798
  478SOL     OW 2332   3.109   5.077   3.171
  478SOL    HW1 2333   3.026   5.068   3.117
  478SOL    HW2 2334   3.114   5.002   3.237
  479SOL     OW 2335   3.766   2.755   0.632
  479SOL    HW1 2336   3.791   2.810   0.552
  479SOL    HW2 2337   3.818   2.670   0.631
  480SOL     OW 2338   0.832   6.751   2.711
  480SOL    HW1 2339   0.900   6.696   2.759
  480SOL    HW2 2340   0.760   6.692   2.675
  481SOL     OW 2341   4.124   0.260   1.580
  481SOL    HW1 2342   4.152   0.206   1.501
  481SOL    HW2 2343   4.077   0.202   1.645
  482SOL     OW 2344   5.620   4.520   2.419
  482SOL    HW1 2345   5.575   4.575   2.349
  482SOL    HW2 2346   5.551   4.464   2.466
  483SOL     OW 2347   5.800   1.687   1.883
  483SOL    HW1 2348   5.815   1.594   1.918
  483SOL    HW2 2349   5.725   1.686   1.817
  484SOL     OW 2350   0.302   2.481   4.263
  484SOL    HW1 2351   0.285   2.385   4.246
  484SOL    HW2 2352   0.393   2.506   4.227
  485SOL     OW 2353   3.590   4.900   2.400
  485SOL    HW1 2354   3.507   4.857   2.437
  485SOL    HW2 2355   3.572   4.997   2.383
  486SOL     OW 2356   0.341   0.196   0.802
  486SOL    HW1 2357   0.355   0.100   0.825
  486SOL    HW2 2358   0.244   0.217   0.808
  487SOL     OW 2359   0.232   2.272   6.985
  487SOL    HW1 2360   0.263   2.362   7.016
  487SOL    HW2 2361   0.249   2.263   6.886
  488SOL     OW 2362   0.226   2.507   2.265
  488SOL    HW1 2363   0.173   2.475   2.187
  488SOL    HW2 2364   0.170   2.503   2.348
  489SOL     OW 2365   3.293   5.827   6.588
  489SOL    HW1 2366   3.250   5.831   6.678
  489SOL    HW2 2367   3.248   5.891   6.527
  490SOL     OW 2368   5.687   6.663   4.629
  490SOL    HW1 2369   5.781   6.679   4.659
  490SOL    HW2 2370   5.642   6.600   4.693
  491SOL     OW 2371   1.025   2.802   2.876
  491SOL    HW1 2372   1.044   2.742   2.954
  491SOL    HW2 2373   1.084   2.775   2.800
  492SOL     OW 2374   2.135   0.490   5.856
  492SOL    HW1 2375   2.096   0.580   5.838
  492SOL    HW2 2376   2.064   0.430   5.894
  493SOL     OW 2377   6.524   4.443   5.167
  493SOL    HW1 2378   6.543   4.411   5.259
  493SOL    HW2 2379   6.573   4.385   5.101
  494SOL     OW 2380   0.065   0.341   0.753
  494SOL    HW1 2381   7.016   0.331   0.681
  494SOL    HW2 2382   0.076   0.438   0.775
  495SOL     OW 2383   4.933   4.452   1.424
  495SOL    HW1 2384   4.857   4.387   1.414
  495SOL    HW2 2385   5.018   4.408   1.394
  496SOL     OW 2386   6.152   3.243   2.962
  496SOL    HW1 2387   6.059   3.246   3.000
  496SOL    HW2 2388   6.149   3.272   2.866
  497SOL     OW 2389   3.871   0.497   4.643
  497SOL    HW1 2390   3.896   0.478   4.738
  497SOL    HW2 2391   3.841   0.592   4.636
  498SOL     OW 2392   1.026   3.070   2.778
  498SOL    HW1 2393   1.107   3.064   2.837
  498SOL    HW2 2394   1.006   2.981   2.739
  499SOL     OW 2395   3.497   1.092   5.025
  499SOL    HW1 2396   3.477   1.017   4.962
  499SOL    HW2 2397   3.581   1.071   5.076
  500SOL     OW 2398   1.218   3.822   2.762
  500SOL    HW1 2399   1.179   3.902   2.715
  500SOL    HW2 2400   1.146   3.778   2.817
  501SOL     OW 2401   1.323   3.379   6.701
  501SOL    HW1 2402   1.294   3.472   6.721
  501SOL    HW2 2403   1.423   3.377   6.689
  502SOL     OW 2404   4.141   5.063   0.138
  502SOL    HW1 2405   4.151   5.162   0.130
  502SOL    HW2 2406   4.227   5.019   0.111
  503SOL     OW 2407   5.874   4.691   5.518
  503SOL    HW1 2408   5.822   4.605   5.523
  503SOL    HW2 2409   5.851   4.749   5.595
  504SOL     OW 2410   2.280   6.176   4.504
  504SOL    HW1 2411   2.190   6.204   4.472
  504SOL    HW2 2412   2.281   6.176   4.604
  505SOL     OW 2413   4.152   0.367   6.073
  505SOL    HW1 2414   4.229   0.394   6.014
  505SOL    HW2 2415   4.163   0.411   6.162
  506SOL     OW 2416   2.252   4.294   6.046
  506SOL    HW1 2417   2.184   4.229   6.013
  506SOL    HW2 2418   2.239   4.310   6.144
  507SOL     OW 2419   3.475   0.585   4.488
  507SOL    HW1 2420   3.430   0.530   4.557
  507SOL    HW2 2421   3.408   0.618   4.421
  508SOL     OW 2422   6.839   3.798   3.332
  508SOL    HW1 2423   6.800   3.873   3.279
  508SOL    HW2 2424   6.765   3.744   3.373
  509SOL     OW 2425   4.479   1.666   1.981
  509SOL    HW1 2426   4.514   1.739   1.923
  509SOL    HW2 2427   4.499   1.688   2.077
  510SOL     OW 2428   6.891   4.128   4.465
  510SOL    HW1 2429   6.802   4.172   4.470
  510SOL    HW2 2430   6.916   4.115   4.369
  511SOL     OW 2431   0.400   0.019   0.276
  511SOL    HW1 2432   0.418   0.081   0.352
  511SOL    HW2 2433   0.475   0.026   0.210
  512SOL     OW 2434   1.114   3.711   6.172
  512SOL    HW1 2435   1.065   3.795   6.193
  512SOL    HW2 2436   1.195   3.702   6.231
  513SOL     OW 2437   6.149   6.093   4.670
  513SOL    HW1 2438   6.194   6.004   4.673
  513SOL    HW2 2439   6.087   6.096   4.591
  514SOL     OW 2440   5.830   1.704   3.775
  514SOL    HW1 2441   5.914   1.691   3.723
  514SOL    HW2 2442   5.772   1.771   3.729
  515SOL     OW 2443   2.011   6.577   6.530
  515SOL    HW1 2444   1.979   6.543   6.441
  515SOL    HW2 2445   1.939   6.632   6.573
  516SOL     OW 2446   2.297   5.342   1.890
  516SOL    HW1 2447   2.314   5.418   1.826
  516SOL    HW2 2448   2.377   5.282   1.892
  517SOL     OW 2449   4.571   6.851   0.619
  517SOL    HW1 2450   4.562   6.752   0.607
  517SOL    HW2 2451   4.491   6.886   0.668
  518SOL     OW 2452   2.730   2.351   1.489
  518SOL    HW1 2453   2.764   2.258   1.475
  518SOL    HW2 2454   2.640   2.360   1.445
  519SOL     OW 2455   0.721   6.830   6.558
  519SOL    HW1 2456   0.755   6.736   6.556
  519SOL    HW2 2457   0.625   6.830   6.585
  520SOL     OW 2458   5.449   4.606   5.687
  520SOL    HW1 2459   5.504   4.684   5.657
  520SOL    HW2 2460   5.458   4.532   5.621
  521SOL     OW 2461   6.717   1.798   0.223
  521SOL    HW1 2462   6.661   1.756   0.295
  521SOL    HW2 2463   6.776   1.868   0.264
  522SOL     OW 2464   3.672   3.703   4.360
  522SOL    HW1 2465   3.675   3.626   4.296
  522SOL    HW2 2466   3.577   3.723   4.383
  523SOL     OW 2467   6.940   6.670   4.601
  523SOL    HW1 2468   6.902   6.582   4.571
  523SOL    HW2 2469   6.884   6.707   4.674
  524SOL     OW 2470   2.597   0.802   5.697
  524SOL    HW1 2471   2.528   0.766   5.759
  524SOL    HW2 2472   2.688   0.780   5.732
  525SOL     OW 2473   2.538   3.482   0.128
  525SOL    HW1 2474   2.632   3.452   0.147
  525SOL    HW2 2475   2.537   3.535   0.043
  526SOL     OW 2476   3.564   5.573   4.813
  526SOL    HW1 2477   3.570   5.494   4.874
  526SOL    HW2 2478   3.635   5.639   4.838
  527SOL     OW 2479   0.366   1.080   6.646
  527SOL    HW1 2480   0.396   1.154   6.706
  527SOL    HW2 2481   0.435   1.008   6.645
  528SOL     OW 2482   2.284   1.183   5.269
  528SOL    HW1 2483   2.265   1.211   5.363
  528SOL    HW2 2484   2.357   1.113   5.270
  529SOL     OW 2485   0.681   5.471   4.200
  529SOL    HW1 2486   0.686   5.457   4.101
  529SOL    HW2 2487   0.648   5.388   4.244
  530SOL     OW 2488   2.207   3.195   5.312
  530SOL    HW1 2489   2.139   3.255   5.269
  530SOL    HW2 2490   2.283   3.179   5.249
  531SOL     OW 2491   0.644   0.248   1.440
  531SOL    HW1 2492   0.553   0.225   1.474
  531SOL    HW2 2493   0.660   0.201   1.353
  532SOL     OW 2494   1.263   1.363   5.692
  532SOL    HW1 2495   1.342   1.316   5.654
  532SOL    HW2 2496   1.189   1.364   5.625
  533SOL     OW 2497   5.905   0.289   4.453
  533SOL    HW1 2498   5.810   0.310   4.478
  533SOL    HW2 2499   5.967   0.320   4.525
  534SOL     OW 2500   4.609   5.190   2.520
  534SOL    HW1 2501   4.572   5.246   2.446
  534SOL    HW2 2502   4.706   5.172   2.502
  535SOL     OW 2503   0.306   3.783   3.342
  535SOL    HW1 2504   0.337   3.696   3.304
  535SOL    HW2 2505   0.287   3.771   3.440
  536SOL     OW 2506   1.735   5.525   0.848
  536SOL    HW1 2507   1.752   5.596   0.917
  536SOL    HW2 2508   1.651   5.547   0.799
  537SOL     OW 2509   2.162   0.089   2.269
  537SOL    HW1 2510   2.162   0.147   2.350
  537SOL    HW2 2511   2.171   7.013   2.296
  538SOL     OW 2512   0.469   6.187   3.433
  538SOL    HW1 2513   0.527   6.130   3.375
  538SOL    HW2 2514   0.489   6.168   3.529
  539SOL     OW 2515   1.757   4.994   1.498
  539SOL    HW1 2516   1.714   4.922   1.553
  539SOL    HW2 2517   1.840   5.025   1.544
  540SOL     OW 2518   1.331   2.344   2.377
  540SOL    HW1 2519   1.295   2.294   2.298
  540SOL    HW2 2520   1.332   2.442   2.357
  541SOL     OW 2521   2.626   5.847   5.860
  541SOL    HW1 2522   2.676   5.859   5.774
  541SOL    HW2 2523   2.635   5.752   5.890
  542SOL     OW 2524   5.866   5.394   6.649
  542SOL    HW1 2525   5.838   5.468   6.588
  542SOL    HW2 2526   5.798   5.321   6.646
  543SOL     OW 2527   0.681   5.140   6.798
  543SOL    HW1 2528   0.642   5.215   6.851
  543SOL    HW2 2529   0.697   5.171   6.704
  544SOL     OW 2530   1.321   5.100   0.572
  544SOL    HW1 2531   1.266   5.050   0.639
  544SOL    HW2 2532   1.389   5.157   0.619
  545SOL     OW 2533   3.870   1.499   2.760
  545SOL    HW1 2534   3.775   1.469   2.767
  545SOL    HW2 2535   3.895   1.552   2.841
  546SOL     OW 2536   1.425   3.761   0.282
  546SOL    HW1 2537   1.445   3.761   0.184
  546SOL    HW2 2538   1.465   3.679   0.324
  547SOL     OW 2539   2.957   3.398   0.357
  547SOL    HW1 2540   2.972   3.494   0.378
  547SOL    HW2 2541   2.959   3.345   0.442
  548SOL     OW 2542   3.483   3.035   4.213
  548SOL    HW1 2543   3.418   2.990   4.275
  548SOL    HW2 2544   3.451   3.026   4.118
  549SOL     OW 2545   5.794   3.641   1.547
  549SOL    HW1 2546   5.815   3.559   1.602
  549SOL    HW2 2547   5.698   3.641   1.522
  550SOL     OW 2548   0.447   4.222   2.186
  550SOL    HW1 2549   0.449   4.157   2.262
  550SOL    HW2 2550   0.442   4.172   2.100
  551SOL     OW 2551   6.590   2.388   0.651
  551SOL    HW1 2552   6.570   2.464   0.713
  551SOL    HW2 2553   6.523   2.388   0.576
  552SOL     OW 2554   3.949   5.981   0.225
  552SOL    HW1 2555   3.868   5.923   0.226
  552SOL    HW2 2556   3.925   6.071   0.191
  553SOL     OW 2557   1.685   1.504   1.819
  553SOL    HW1 2558   1.585   1.500   1.818
  553SOL    HW2 2559   1.714   1.596   1.844
  554SOL     OW 2560   5.269   6.440   5.471
  554SOL    HW1 2561   5.255   6.424   5.374
  554SOL    HW2 2562   5.346   6.502   5.484
  555SOL     OW 2563   1.260   4.837   4.233
  555SOL    HW1 2564   1.187   4.883   4.183
  555SOL    HW2 2565   1.258   4.739   4.212
  556SOL     OW 2566   5.331   2.991   4.196
  556SOL    HW1 2567   5.258   3.040   4.245
  556SOL    HW2 2568   5.388   3.057   4.147
  557SOL     OW 2569   0.340   6.080   6.343
  557SOL    HW1 2570   0.361   6.037   6.431
  557SOL    HW2 2571   0.377   6.173   6.342
  558SOL     OW 2572   3.919   4.164   4.963
  558SOL    HW1 2573   4.001   4.211   4.994
  558SOL    HW2 2574   3.878   4.114   5.039
  559SOL     OW 2575   6.612   5.977   6.149
  559SOL    HW1 2576   6.561   6.043   6.203
  559SOL    HW2 2577   6.619   6.009   6.054
  560SOL     OW 2578   4.350   6.942   0.097
  560SOL    HW1 2579   4.380   6.935   0.192
  560SOL    HW2 2580   4.321   6.853   0.064
  561SOL     OW 2581   5.305   6.776   0.782
  561SOL    HW1 2582   5.290   6.692   0.730
  561SOL    HW2 2583   5.304   6.854   0.720
  562SOL     OW 2584   5.667   1.492   5.473
  562SOL    HW1 2585   5.667   1.402   5.430
  562SOL    HW2 2586   5.738   1.549   5.432
  563SOL     OW 2587   2.935   6.726   4.158
  563SOL    HW1 2588   2.921   6.737   4.256
  563SOL    HW2 2589   2.871   6.784   4.108
  564SOL     OW 2590   0.999   1.071   6.486
  564SOL    HW1 2591   0.927   1.043   6.549
  564SOL    HW2 2592   1.087   1.037   6.517
  565SOL     OW 2593   4.858   3.976   4.860
  565SOL    HW1 2594   4.948   3.986   4.817
  565SOL    HW2 2595   4.794   4.041   4.819
  566SOL     OW 2596   4.934   4.701   2.980
  566SOL    HW1 2597   4.869   4.719   2.906
  566SOL    HW2 2598   4.886   4.655   3.055
  567SOL     OW 2599   3.557   2.918   4.519
  567SOL    HW1 2600   3.513   2.874   4.441
  567SOL    HW2 2601   3.640   2.966   4.488
  568SOL     OW 2602   2.594   1.817   0.067
  568SOL    HW1 2603   2.518   1.837   0.005
  568SOL    HW2 2604   2.585   1.723   0.102
  569SOL     OW 2605   2.522   2.594   0.820
  569SOL    HW1 2606   2.596   2.661   0.816
  569SOL    HW2 2607   2.435   2.639   0.799
  570SOL     OW 2608   6.428   6.077   1.537
  570SOL    HW1 2609   6.510   6.105   1.488
  570SOL    HW2 2610   6.447   6.072   1.635
  571SOL     OW 2611   4.207   5.291   3.244
  571SOL    HW1 2612   4.143   5.365   3.224
  571SOL    HW2 2613   4.239   5.250   3.159
  572SOL     OW 2614   1.560   3.757   5.082
  572SOL    HW1 2615   1.597   3.670   5.116
  572SOL    HW2 2616   1.465   3.745   5.056
  573SOL     OW 2617   4.083   2.197   6.234
  573SOL    HW1 2618   4.020   2.274   6.239
  573SOL    HW2 2619   4.032   2.111   6.235
  574SOL     OW 2620   2.475   1.330   4.260
  574SOL    HW1 2621   2.504   1.419   4.225
  574SOL    HW2 2622   2.420   1.343   4.343
  575SOL     OW 2623   5.618   2.335   6.921
  575SOL    HW1 2624   5.709   2.297   6.936
  575SOL    HW2 2625   5.624   2.433   6.903
  576SOL     OW 2626   0.780   2.138   2.736
  576SOL    HW1 2627   0.864   2.085   2.739
  576SOL    HW2 2628   0.769   2.178   2.645
  577SOL     OW 2629   3.094   1.767   3.552
  577SOL    HW1 2630   3.030   1.779   3.476
  577SOL    HW2 2631   3.161   1.842   3.552
  578SOL     OW 2632   6.734   3.381   3.673
  578SOL    HW1 2633   6.754   3.316   3.747
  578SOL    HW2 2634   6.733   3.474   3.710
  579SOL     OW 2635   4.550   3.011   6.490
  579SOL    HW1 2636   4.619   3.014   6.417
  579SOL    HW2 2637   4.596   3.002   6.579
  580SOL     OW 2638   0.849   5.863   0.023
  580SOL    HW1 2639   0.836   5.769   7.011
  580SOL    HW2 2640   0.774   5.887   0.085
  581SOL     OW 2641   3.953   3.968   2.829
  581SOL    HW1 2642   3.881   3.975   2.761
  581SOL    HW2 2643   3.914   3.973   2.921
  582SOL     OW 2644   6.188   3.790   1.724
  582SOL    HW1 2645   6.094   3.824   1.721
  582SOL    HW2 2646   6.231   3.816   1.810
  583SOL     OW 2647   2.322   4.699   6.983
  583SOL    HW1 2648   2.262   4.759   6.930
  583SOL    HW2 2649   2.267   4.639   0.021
  584SOL     OW 2650   0.452   5.196   4.606
  584SOL    HW1 2651   0.478   5.255   4.682
  584SOL    HW2 2652   0.402   5.249   4.538
  585SOL     OW 2653   0.354   1.322   0.036
  585SOL    HW1 2654   0.411   1.368   0.105
  585SOL    HW2 2655   0.258   1.348   0.049
  586SOL     OW 2656   2.692   6.666   0.777
  586SOL    HW1 2657   2.759   6.652   0.849
  586SOL    HW2 2658   2.600   6.670   0.817
  587SOL     OW 2659   0.914   2.901   5.256
  587SOL    HW1 2660   0.840   2.945   5.205
  587SOL    HW2 2661   0.962   2.970   5.310
  588SOL     OW 2662   3.225   6.918   1.589
  588SOL    HW1 2663   3.294   6.857   1.627
  588SOL    HW2 2664   3.269   6.999   1.552
  589SOL     OW 2665   4.550   5.094   2.762
  589SOL    HW1 2666   4.492   5.156   2.814
  589SOL    HW2 2667   4.582   5.139   2.679
  590SOL     OW 2668   0.176   2.181   1.623
  590SOL    HW1 2669   0.185   2.128   1.707
  590SOL    HW2 2670   0.222   2.269   1.634
  591SOL     OW 2671   3.470   6.884   3.196
  591SOL    HW1 2672   3.378   6.885   3.237
  591SOL    HW2 2673   3.471   6.944   3.116
  592SOL     OW 2674   5.588   0.887   6.957
  592SOL    HW1 2675   5.580   0.796   6.916
  592SOL    HW2 2676   5.500   0.933   6.952
  593SOL     OW 2677   5.206   1.640   3.663
  593SOL    HW1 2678   5.225   1.628   3.566
  593SOL    HW2 2679   5.112   1.671   3.675
  594SOL     OW 2680   4.253   2.720   1.261
  594SOL    HW1 2681   4.225   2.814   1.244
  594SOL    HW2 2682   4.319   2.718   1.336
  595SOL     OW 2683   3.430   6.741   4.098
  595SOL    HW1 2684   3.384   6.823   4.131
  595SOL    HW2 2685   3.378   6.660   4.124
  596SOL     OW 2686   1.332   4.761   2.296
  596SOL    HW1 2687   1.361   4.681   2.242
  596SOL    HW2 2688   1.372   4.844   2.257
  597SOL     OW 2689   3.946   2.058   5.686
  597SOL    HW1 2690   3.894   2.083   5.604
  597SOL    HW2 2691   3.993   2.139   5.722
  598SOL     OW 2692   3.485   4.319   0.886
  598SOL    HW1 2693   3.542   4.277   0.816
  598SOL    HW2 2694   3.542   4.370   0.950
  599SOL     OW 2695   6.654   6.384   2.308
  599SOL    HW1 2696   6.637   6.463   2.249
  599SOL    HW2 2697   6.718   6.322   2.264
  600SOL     OW 2698   2.628   0.073   7.011
  600SOL    HW1 2699   2.675   0.158   0.012
  600SOL    HW2 2700   2.620   0.062   6.912
  601SOL     OW 2701   3.386   5.548   3.885
  601SOL    HW1 2702   3.446   5.627   3.899
  601SOL    HW2 2703   3.432   5.481   3.827
  602SOL     OW 2704   1.489   1.157   1.329
  602SOL    HW1 2705   1.567   1.159   1.265
  602SOL    HW2 2706   1.522   1.170   1.422
  603SOL     OW 2707   3.879   1.925   3.302
  603SOL    HW1 2708   3.902   1.841   3.351
  603SOL    HW2 2709   3.796   1.965   3.342
  604SOL     OW 2710   0.085   4.097   5.734
  604SOL    HW1 2711   0.031   4.172   5.695
  604SOL    HW2 2712   0.091   4.023   5.668
  605SOL     OW 2713   5.740   0.501   4.918
  605SOL    HW1 2714   5.826   0.453   4.935
  605SOL    HW2 2715   5.757   0.584   4.866
  606SOL     OW 2716   3.766   0.255   3.134
  606SOL    HW1 2717   3.784   0.353   3.144
  606SOL    HW2 2718   3.713   0.224   3.213
  607SOL     OW 2719   4.310   1.091   4.392
  607SOL    HW1 2720   4.393   1.141   4.366
  607SOL    HW2 2721   4.304   1.007   4.339
  608SOL     OW 2722   4.610   1.296   1.249
  608SOL    HW1 2723   4.673   1.312   1.173
  608SOL    HW2 2724   4.516   1.314   1.219
  609SOL     OW 2725   3.361   4.138   4.175
  609SOL    HW1 2726   3.434   4.186   4.126
  609SOL    HW2 2727   3.366   4.161   4.272
  610SOL     OW 2728   5.097   2.496   4.606
  610SOL    HW1 2729   5.070   2.460   4.696
  610SOL    HW2 2730   5.073   2.593   4.601
  611SOL     OW 2731   0.392   6.937   1.212
  611SOL    HW1 2732   0.392   7.012   1.279
  611SOL    HW2 2733   0.323   6.870   1.238
  612SOL     OW 2734   3.430   5.444   5.545
  612SOL    HW1 2735   3.453   5.350   5.569
  612SOL    HW2 2736   3.363   5.444   5.471
  613SOL     OW 2737   3.423   2.259   0.255
  613SOL    HW1 2738   3.495   2.219   0.198
  613SOL    HW2 2739   3.377   2.186   0.306
  614SOL     OW 2740   5.205   4.461   1.306
  614SOL    HW1 2741   5.279   4.402   1.274
  614SOL    HW2 2742   5.235   4.557   1.303
  615SOL     OW 2743   6.066   6.670   0.763
  615SOL    HW1 2744   6.007   6.609   0.710
  615SOL    HW2 2745   6.027   6.762   0.762
  616SOL     OW 2746   5.649   1.713   4.991
  616SOL    HW1 2747   5.622   1.618   4.972
  616SOL    HW2 2748   5.703   1.748   4.914
  617SOL     OW 2749   6.999   5.194   5.464
  617SOL    HW1 2750   7.008   5.272   5.401
  617SOL    HW2 2751   0.070   5.156   5.483
  618SOL     OW 2752   6.327   3.770   0.678
  618SOL    HW1 2753   6.331   3.841   0.609
  618SOL    HW2 2754   6.247   3.784   0.737
  619SOL     OW 2755   2.987   0.651   6.270
  619SOL    HW1 2756   3.056   0.702   6.219
  619SOL    HW2 2757   2.908   0.633   6.211
  620SOL     OW 2758   6.597   1.641   1.943
  620SOL    HW1 2759   6.604   1.636   2.043
  620SOL    HW2 2760   6.591   1.549   1.905
  621SOL     OW 2761   2.978   1.122   6.897
  621SOL    HW1 2762   2.934   1.121   6.807
  621SOL    HW2 2763   3.014   1.214   6.915
  622SOL     OW 2764   1.430   1.932   4.945
  622SOL    HW1 2765   1.490   1.918   4.866
  622SOL    HW2 2766   1.405   2.028   4.951
  623SOL     OW 2767   6.063   0.316   4.069
  623SOL    HW1 2768   5.983   0.270   4.108
  623SOL    HW2 2769   6.065   0.301   3.970
  624SOL     OW 2770   6.511   0.841   6.438
  624SOL    HW1 2771   6.442   0.778   6.473
  624SOL    HW2 2772   6.553   0.803   6.356
  625SOL     OW 2773   2.159   1.900   0.759
  625SOL    HW1 2774   2.161   1.865   0.853
  625SOL    HW2 2775   2.065   1.900   0.726
  626SOL     OW 2776   6.760   5.584   3.825
  626SOL    HW1 2777   6.816   5.575   3.907
  626SOL    HW2 2778   6.811   5.634   3.755
  627SOL     OW 2779   6.395   0.318   0.302
  627SOL    HW1 2780   6.427   0.302   0.395
  627SOL    HW2 2781   6.389   0.417   0.285
  628SOL     OW 2782   4.390   4.298   5.801
  628SOL    HW1 2783   4.484   4.265   5.803
  628SOL    HW2 2784   4.363   4.330   5.891
  629SOL     OW 2785   1.265   6.634   6.218
  629SOL    HW1 2786   1.181   6.617   6.270
  629SOL    HW2 2787   1.290   6.552   6.167
  630SOL     OW 2788   6.325   1.249   1.441
  630SOL    HW1 2789   6.272   1.169   1.414
  630SOL    HW2 2790   6.391   1.272   1.370
  631SOL     OW 2791   1.921   2.896   3.828
  631SOL    HW1 2792   1.829   2.912   3.791
  631SOL    HW2 2793   1.988   2.947   3.773
  632SOL     OW 2794   3.460   3.821   6.510
  632SOL    HW1 2795   3.544   3.795   6.558
  632SOL    HW2 2796   3.421   3.740   6.465
  633SOL     OW 2797   1.618   6.235   1.598
  633SOL    HW1 2798   1.696   6.296   1.582
  633SOL    HW2 2799   1.652   6.144   1.622
  634SOL     OW 2800   3.206   2.953   4.613
  634SOL    HW1 2801   3.227   2.900   4.695
  634SOL    HW2 2802   3.236   3.048   4.627
  635SOL     OW 2803   5.425   0.403   6.778
  635SOL    HW1 2804   5.507   0.374   6.827
  635SOL    HW2 2805   5.447   0.481   6.719
  636SOL     OW 2806   2.859   0.498   5.684
  636SOL    HW1 2807   2.871   0.461   5.593
  636SOL    HW2 2808   2.767   0.479   5.717
  637SOL     OW 2809   6.462   0.436   2.845
  637SOL    HW1 2810   6.538   0.500   2.848
  637SOL    HW2 2811   6.498   0.342   2.843
  638SOL     OW 2812   6.703   3.452   4.422
  638SOL    HW1 2813   6.696   3.396   4.505
  638SOL    HW2 2814   6.692   3.549   4.446
  639SOL     OW 2815   5.380   4.692   2.570
  639SOL    HW1 2816   5.289   4.655   2.554
  639SOL    HW2 2817   5.428   4.635   2.636
  640SOL     OW 2818   0.374   2.827   1.895
  640SOL    HW1 2819   0.312   2.873   1.832
  640SOL    HW2 2820   0.339   2.837   1.989
  641SOL     OW 2821   2.293   5.192   4.473
  641SOL    HW1 2822   2.365   5.236   4.419
  641SOL    HW2 2823   2.334   5.141   4.548
  642SOL     OW 2824   1.173   4.205   4.575
  642SOL    HW1 2825   1.230   4.130   4.609
  642SOL    HW2 2826   1.224   4.257   4.506
  643SOL     OW 2827   5.176   5.121   0.732
  643SOL    HW1 2828   5.247   5.103   0.800
  643SOL    HW2 2829   5.127   5.205   0.756
  644SOL     OW 2830   6.953   6.863   5.089
  644SOL    HW1 2831   6.913   6.787   5.140
  644SOL    HW2 2832   6.882   6.929   5.066
  645SOL     OW 2833   4.045   5.403   2.079
  645SOL    HW1 2834   4.050   5.307   2.107
  645SOL    HW2 2835   4.013   5.458   2.155
  646SOL     OW 2836   3.690   1.798   5.032
  646SOL    HW1 2837   3.637   1.882   5.021
  646SOL    HW2 2838   3.681   1.742   4.949
  647SOL     OW 2839   4.227   2.644   5.779
  647SOL    HW1 2840   4.162   2.569   5.792
  647SOL    HW2 2841   4.226   2.673   5.683
  648SOL     OW 2842   6.138   1.334   2.779
  648SOL    HW1 2843   6.129   1.240   2.745
  648SOL    HW2 2844   6.124   1.398   2.704
  649SOL     OW 2845   2.198   5.668   0.428
  649SOL    HW1 2846   2.177   5.707   0.518
  649SOL    HW2 2847   2.206   5.568   0.436
  650SOL     OW 2848   0.133   3.856   1.166
  650SOL    HW1 2849   0.047   3.822   1.128
  650SOL    HW2 2850   0.208   3.798   1.137
  651SOL     OW 2851   1.233   0.420   4.654
  651SOL    HW1 2852   1.253   0.492   4.721
  651SOL    HW2 2853   1.250   0.455   4.562
  652SOL     OW 2854   3.793   6.147   2.072
  652SOL    HW1 2855   3.861   6.190   2.013
  652SOL    HW2 2856   3.710   6.129   2.019
  653SOL     OW 2857   1.168   0.120   2.224
  653SOL    HW1 2858   1.135   0.058   2.295
  653SOL    HW2 2859   1.265   0.102   2.207
  654SOL     OW 2860   0.368   6.820   4.965
  654SOL    HW1 2861   0.281   6.773   4.953
  654SOL    HW2 2862   0.362   6.913   4.929
  655SOL     OW 2863   0.107   4.003   2.016
  655SOL    HW1 2864   0.080   3.928   1.956
  655SOL    HW2 2865   0.160   3.967   2.093
  656SOL     OW 2866   3.630   5.952   0.075
  656SOL    HW1 2867   3.600   5.981   0.166
  656SOL    HW2 2868   3.578   6.002   0.005
  657SOL     OW 2869   3.733   3.227   2.536
  657SOL    HW1 2870   3.762   3.262   2.447
  657SOL    HW2 2871   3.813   3.198   2.588
  658SOL     OW 2872   1.719   1.845   5.218
  658SOL    HW1 2873   1.762   1.929   5.187
  658SOL    HW2 2874   1.696   1.852   5.315
  659SOL     OW 2875   1.950   5.679   6.311
  659SOL    HW1 2876   1.993   5.766   6.337
  659SOL    HW2 2877   1.955   5.615   6.388
  660SOL     OW 2878   4.686   4.450   2.819
  660SOL    HW1 2879   4.656   4.476   2.911
  660SOL    HW2 2880   4.616   4.478   2.752
  661SOL     OW 2881   4.713   4.138   4.400
  661SOL    HW1 2882   4.714   4.211   4.468
  661SOL    HW2 2883   4.749   4.054   4.441
  662SOL     OW 2884   4.961   3.189   6.675
  662SOL    HW1 2885   5.053   3.223   6.695
  662SOL    HW2 2886   4.904   3.197   6.758
  663SOL     OW 2887   6.913   4.199   6.828
  663SOL    HW1 2888   6.960   4.240   6.906
  663SOL    HW2 2889   6.959   4.113   6.803
  664SOL     OW 2890   2.121   6.405   6.726
  664SOL    HW1 2891   2.193   6.448   6.670
  664SOL    HW2 2892   2.032   6.442   6.699
  665SOL     OW 2893   3.546   5.144   1.710
  665SOL    HW1 2894   3.591   5.183   1.629
  665SOL    HW2 2895   3.571   5.048   1.718
  666SOL     OW 2896   3.105   1.289   0.522
  666SOL    HW1 2897   3.113   1.381   0.560
  666SOL    HW2 2898   3.114   1.222   0.596
  667SOL     OW 2899   0.970   3.433   3.613
  667SOL    HW1 2900   0.887   3.412   3.665
  667SOL    HW2 2901   1.039   3.362   3.628
  668SOL     OW 2902   5.325   6.962   0.585
  668SOL    HW1 2903   5.390   6.981   0.511
  668SOL    HW2 2904   5.236   6.999   0.561
  669SOL     OW 2905   2.318   6.092   2.805
  669SOL    HW1 2906   2.271   6.019   2.755
  669SOL    HW2 2907   2.382   6.051   2.871
  670SOL     OW 2908   3.336   2.881   3.037
  670SOL    HW1 2909   3.260   2.906   3.098
  670SOL    HW2 2910   3.349   2.782   3.040
  671SOL     OW 2911   1.281   0.103   6.325
  671SOL    HW1 2912   1.207   0.036   6.324
  671SOL    HW2 2913   1.301   0.128   6.420
  672SOL     OW 2914   2.469   1.921   3.603
  672SOL    HW1 2915   2.500   2.003   3.652
  672SOL    HW2 2916   2.461   1.845   3.666
  673SOL     OW 2917   5.658   6.498   0.943
  673SOL    HW1 2918   5.612   6.421   0.988
  673SOL    HW2 2919   5.607   6.582   0.960
  674SOL     OW 2920   6.567   2.090   3.456
  674SOL    HW1 2921   6.605   2.059   3.543
  674SOL    HW2 2922   6.468   2.096   3.463
  675SOL     OW 2923   6.156   1.510   4.877
  675SOL    HW1 2924   6.214   1.589   4.892
  675SOL    HW2 2925   6.124   1.508   4.783
  676SOL     OW 2926   2.033   4.815   4.716
  676SOL    HW1 2927   1.955   4.759   4.688
  676SOL    HW2 2928   2.118   4.766   4.699
  677SOL     OW 2929   5.021   6.944   1.245
  677SOL    HW1 2930   5.048   6.892   1.164
  677SOL    HW2 2931   4.928   6.978   1.233
  678SOL     OW 2932   2.276   1.607   6.072
  678SOL    HW1 2933   2.211   1.535   6.046
  678SOL    HW2 2934   2.248   1.693   6.031
  679SOL     OW 2935   5.791   6.577   2.393
  679SOL    HW1 2936   5.836   6.617   2.473
  679SOL    HW2 2937   5.757   6.651   2.334
  680SOL     OW 2938   5.471   4.196   5.142
  680SOL    HW1 2939   5.567   4.179   5.161
  680SOL    HW2 2940   5.461   4.285   5.097
  681SOL     OW 2941   2.040   6.772   2.104
  681SOL    HW1 2942   2.016   6.747   2.010
  681SOL    HW2 2943   2.114   6.839   2.104
  682SOL     OW 2944   1.334   6.443   0.187
  682SOL    HW1 2945   1.242   6.405   0.180
  682SOL    HW2 2946   1.376   6.414   0.273
  683SOL     OW 2947   5.335   2.061   0.252
  683SOL    HW1 2948   5.306   2.152   0.280
  683SOL    HW2 2949   5.420   2.037   0.299
  684SOL     OW 2950   0.167   6.001   6.926
  684SOL    HW1 2951   0.077   6.028   6.891
  684SOL    HW2 2952   0.188   5.908   6.893
  685SOL     OW 2953   5.833   1.136   5.793
  685SOL    HW1 2954   5.781   1.172   5.870
  685SOL    HW2 2955   5.929   1.163   5.802
  686SOL     OW 2956   5.331   4.573   3.252
  686SOL    HW1 2957   5.329   4.476   3.279
  686SOL    HW2 2958   5.381   4.626   3.321
  687SOL     OW 2959   6.217   2.507   4.641
  687SOL    HW1 2960   6.210   2.590   4.697
  687SOL    HW2 2961   6.191   2.528   4.547
  688SOL     OW 2962   0.314   3.438   4.593
  688SOL    HW1 2963   0.351   3.455   4.684
  688SOL    HW2 2964   0.245   3.366   4.598
  689SOL     OW 2965   6.206   4.266   5.909
  689SOL    HW1 2966   6.127   4.210   5.885
  689SOL    HW2 2967   6.258   4.287   5.827
  690SOL     OW 2968   1.166   2.509   3.380
  690SOL    HW1 2969   1.129   2.431   3.431
  690SOL    HW2 2970   1.111   2.590   3.399
  691SOL     OW 2971   0.694   3.097   7.018
  691SOL    HW1 2972   0.651   3.056   6.938
  691SOL    HW2 2973   0.726   3.025   0.060
  692SOL     OW 2974   1.755   6.864   3.321
  692SOL    HW1 2975   1.845   6.889   3.357
  692SOL    HW2 2976   1.694   6.943   3.327
  693SOL     OW 2977   6.710   0.968   2.546
  693SOL    HW1 2978   6.668   0.880   2.528
  693SOL    HW2 2979   6.737   1.011   2.460
  694SOL     OW 2980   1.653   0.550   1.995
  694SOL    HW1 2981   1.738   0.583   2.035
  694SOL    HW2 2982   1.585   0.537   2.067
  695SOL     OW 2983   4.108   6.001   6.175
  695SOL    HW1 2984   4.139   6.080   6.228
  695SOL    HW2 2985   4.084   5.927   6.238
  696SOL     OW 2986   4.480   5.702   2.836
  696SOL    HW1 2987   4.556   5.643   2.809
  696SOL    HW2 2988   4.419   5.715   2.757
  697SOL     OW 2989   1.333   3.818   3.934
  697SOL    HW1 2990   1.376   3.811   3.844
  697SOL    HW2 2991   1.261   3.887   3.932
  698SOL     OW 2992   4.040   6.493   3.976
  698SOL    HW1 2993   4.042   6.474   3.878
  698SOL    HW2 2994   4.125   6.538   4.003
  699SOL     OW 2995   2.170   4.529   0.128
  699SOL    HW1 2996   2.099   4.485   0.184
  699SOL    HW2 2997   2.242   4.463   0.108
  700SOL     OW 2998   1.875   1.358   3.928
  700SOL    HW1 2999   1.941   1.360   3.853
  700SOL    HW2 3000   1.890   1.277   3.984
  701SOL     OW 3001   0.612   4.899   5.963
  701SOL    HW1 3002   0.656   4.838   6.028
  701SOL    HW2 3003   0.573   4.977   6.012
  702SOL     OW 3004   5.536   5.506   4.996
  702SOL    HW1 3005   5.473   5.550   5.060
  702SOL    HW2 3006   5.560   5.570   4.924
  703SOL     OW 3007   4.312   3.937   0.060
  703SOL    HW1 3008   4.400   3.899   0.087
  703SOL    HW2 3009   4.276   3.886   7.002
  704SOL     OW 3010   2.427   0.320   0.770
  704SOL    HW1 3011   2.438   0.386   0.695
  704SOL    HW2 3012   2.426   0.228   0.732
  705SOL     OW 3013   5.879   2.514   3.171
  705SOL    HW1 3014   5.870   2.604   3.214
  705SOL    HW2 3015   5.797   2.494   3.118
  706SOL     OW 3016   4.177   2.309   3.734
  706SOL    HW1 3017   4.230   2.233   3.696
  706SOL    HW2 3018   4.093   2.320   3.681
  707SOL     OW 3019   4.886   1.456   1.402
  707SOL    HW1 3020   4.850   1.527   1.463
  707SOL    HW2 3021   4.888   1.491   1.308
  708SOL     OW 3022   3.973   1.019   1.666
  708SOL    HW1 3023   4.054   1.055   1.620
  708SOL    HW2 3024   3.991   1.013   1.764
  709SOL     OW 3025   1.065   4.892   6.816
  709SOL    HW1 3026   1.064   4.812   6.755
  709SOL    HW2 3027   1.060   4.975   6.761
  710SOL     OW 3028   3.055   3.952   2.755
  710SOL    HW1 3029   2.980   3.896   2.722
  710SOL    HW2 3030   3.118   3.971   2.680
  711SOL     OW 3031   0.850   0.374   3.965
  711SOL    HW1 3032   0.908   0.439   4.014
  711SOL    HW2 3033   0.830   0.296   4.025
  712SOL     OW 3034   1.376   3.924   1.392
  712SOL    HW1 3035   1.328   3.993   1.446
  712SOL    HW2 3036   1.352   3.833   1.426
  713SOL     OW 3037   3.922   3.271   3.195
  713SOL    HW1 3038   3.978   3.266   3.112
  713SOL    HW2 3039   3.968   3.329   3.262
  714SOL     OW 3040   4.883   4.997   5.058
  714SOL    HW1 3041   4.891   4.925   5.126
  714SOL    HW2 3042   4.793   5.040   5.064
  715SOL     OW 3043   4.120   0.487   6.326
  715SOL    HW1 3044   4.037   0.435   6.348
  715SOL    HW2 3045   4.169   0.508   6.410
  716SOL     OW 3046   6.924   4.627   1.752
  716SOL    HW1 3047   6.913   4.563   1.676
  716SOL    HW2 3048   6.966   4.712   1.718
  717SOL     OW 3049   6.245   2.814   0.666
  717SOL    HW1 3050   6.191   2.873   0.725
  717SOL    HW2 3051   6.204   2.812   0.574
  718SOL     OW 3052   3.695   3.801   6.659
  718SOL    HW1 3053   3.771   3.864   6.677
  718SOL    HW2 3054   3.708   3.718   6.713
  719SOL     OW 3055   5.264   4.261   0.143
  719SOL    HW1 3056   5.297   4.346   0.101
  719SOL    HW2 3057   5.186   4.281   0.201
  720SOL     OW 3058   2.238   0.845   6.311
  720SOL    HW1 3059   2.278   0.793   6.235
  720SOL    HW2 3060   2.144   0.815   6.326
  721SOL     OW 3061   1.746   6.804   6.178
  721SOL    HW1 3062   1.672   6.767   6.234
  721SOL    HW2 3063   1.771   6.739   6.107
  722SOL     OW 3064   4.325   0.128   5.767
  722SOL    HW1 3065   4.242   0.171   5.732
  722SOL    HW2 3066   4.336   0.038   5.725
  723SOL     OW 3067   1.442   3.219   1.837
  723SOL    HW1 3068   1.522   3.260   1.880
  723SOL    HW2 3069   1.373   3.199   1.906
  724SOL     OW 3070   6.602   1.200   4.945
  724SOL    HW1 3071   6.653   1.138   5.005
  724SOL    HW2 3072   6.646   1.290   4.946
  725SOL     OW 3073   2.233   5.499   0.682
  725SOL    HW1 3074   2.325   5.530   0.706
  725SOL    HW2 3075   2.166   5.553   0.734
  726SOL     OW 3076   4.153   0.001   6.651
  726SOL    HW1 3077   4.245   0.013   6.689
  726SOL    HW2 3078   4.085   0.029   6.719
  727SOL     OW 3079   2.765   4.770   3.990
  727SOL    HW1 3080   2.767   4.720   4.077
  727SOL    HW2 3081   2.672   4.799   3.970
  728SOL     OW 3082   6.837   3.585   4.985
  728SOL    HW1 3083   6.738   3.596   4.990
  728SOL    HW2 3084   6.860   3.487   4.987
  729SOL     OW 3085   3.106   0.202   1.247
  729SOL    HW1 3086   3.080   0.110   1.219
  729SOL    HW2 3087   3.023   0.254   1.270
  730SOL     OW 3088   6.273   0.445   4.456
  730SOL    HW1 3089   6.312   0.358   4.488
  730SOL    HW2 3090   6.284   0.452   4.357
  731SOL     OW 3091   5.984   3.590   3.578
  731SOL    HW1 3092   5.970   3.510   3.519
  731SOL    HW2 3093   5.998   3.671   3.522
  732SOL     OW 3094   6.836   3.181   1.892
  732SOL    HW1 3095   6.931   3.209   1.886
  732SOL    HW2 3096   6.812   3.125   1.813
  733SOL     OW 3097   4.616   4.323   3.702
  733SOL    HW1 3098   4.599   4.402   3.642
  733SOL    HW2 3099   4.657   4.249   3.649
  734SOL     OW 3100   7.009   4.325   0.845
  734SOL    HW1 3101   0.017   4.233   0.815
  734SOL    HW2 3102   6.910   4.327   0.860
  735SOL     OW 3103   1.555   4.582   6.647
  735SOL    HW1 3104   1.472   4.633   6.668
  735SOL    HW2 3105   1.610   4.633   6.581
  736SOL     OW 3106   6.121   1.449   3.541
  736SOL    HW1 3107   6.132   1.422   3.446
  736SOL    HW2 3108   6.126   1.368   3.600
  737SOL     OW 3109   5.702   3.497   0.440
  737SOL    HW1 3110   5.783   3.463   0.488
  737SOL    HW2 3111   5.621   3.482   0.497
  738SOL     OW 3112   0.751   4.137   3.902
  738SOL    HW1 3113   0.797   4.049   3.887
  738SOL    HW2 3114   0.652   4.123   3.905
  739SOL     OW 3115   4.919   6.079   6.815
  739SOL    HW1 3116   4.974   6.000   6.841
  739SOL    HW2 3117   4.974   6.162   6.823
  740SOL     OW 3118   5.588   6.872   1.367
  740SOL    HW1 3119   5.643   6.868   1.284
  740SOL    HW2 3120   5.494   6.846   1.346
  741SOL     OW 3121   1.869   0.701   2.915
  741SOL    HW1 3122   1.856   0.602   2.924
  741SOL    HW2 3123   1.910   0.737   2.999
  742SOL     OW 3124   1.058   0.214   3.324
  742SOL    HW1 3125   1.023   0.185   3.235
  742SOL    HW2 3126   0.998   0.180   3.396
  743SOL     OW 3127   1.771   3.937   4.551
  743SOL    HW1 3128   1.839   3.936   4.478
  743SOL    HW2 3129   1.782   4.021   4.606
  744SOL     OW 3130   0.389   5.953   0.756
  744SOL    HW1 3131   0.372   6.042   0.797
  744SOL    HW2 3132   0.471   5.958   0.699
  745SOL     OW 3133   1.822   5.985   2.994
  745SOL    HW1 3134   1.770   5.947   2.918
  745SOL    HW2 3135   1.762   6.002   3.071
  746SOL     OW 3136   1.833   0.332   4.687
  746SOL    HW1 3137   1.896   0.318   4.764
  746SOL    HW2 3138   1.739   0.330   4.720
  747SOL     OW 3139   5.198   4.802   2.972
  747SOL    HW1 3140   5.156   4.890   2.950
  747SOL    HW2 3141   5.128   4.731   2.971
  748SOL     OW 3142   4.446   3.429   1.332
  748SOL    HW1 3143   4.352   3.395   1.331
  748SOL    HW2 3144   4.495   3.392   1.252
  749SOL     OW 3145   6.977   1.634   5.365
  749SOL    HW1 3146   0.056   1.649   5.365
  749SOL    HW2 3147   6.933   1.702   5.424
  750SOL     OW 3148   2.459   4.024   0.613
  750SOL    HW1 3149   2.540   4.014   0.670
  750SOL    HW2 3150   2.379   4.041   0.671
  751SOL     OW 3151   4.704   0.748   0.104
  751SOL    HW1 3152   4.796   0.784   0.090
  751SOL    HW2 3153   4.648   0.766   0.023
  752SOL     OW 3154   5.187   1.948   2.180
  752SOL    HW1 3155   5.287   1.945   2.185
  752SOL    HW2 3156   5.150   1.859   2.206
  753SOL     OW 3157   1.917   2.640   3.972
  753SOL    HW1 3158   1.910   2.732   3.935
  753SOL    HW2 3159   2.002   2.597   3.938
  754SOL     OW 3160   4.845   5.562   6.761
  754SOL    HW1 3161   4.890   5.547   6.849
  754SOL    HW2 3162   4.790   5.482   6.738
  755SOL     OW 3163   0.341   6.458   1.425
  755SOL    HW1 3164   0.395   6.539   1.401
  755SOL    HW2 3165   0.246   6.472   1.397
  756SOL     OW 3166   5.015   0.005   3.273
  756SOL    HW1 3167   5.048   6.943   3.320
  756SOL    HW2 3168   5.024   7.013   3.174
  757SOL     OW 3169   0.458   0.430   3.451
  757SOL    HW1 3170   0.487   0.483   3.531
  757SOL    HW2 3171   0.539   0.393   3.405
  758SOL     OW 3172   4.033   2.334   1.146
  758SOL    HW1 3173   4.071   2.247   1.175
  758SOL    HW2 3174   3.941   2.345   1.183
  759SOL     OW 3175   1.650   1.544   6.920
  759SOL    HW1 3176   1.741   1.581   6.935
  759SOL    HW2 3177   1.581   1.607   6.955
  760SOL     OW 3178   4.568   1.864   5.927
  760SOL    HW1 3179   4.628   1.865   5.847
  760SOL    HW2 3180   4.582   1.779   5.978
  761SOL     OW 3181   5.939   2.571   6.528
  761SOL    HW1 3182   5.980   2.587   6.618
  761SOL    HW2 3183   5.845   2.538   6.540
  762SOL     OW 3184   2.489   5.695   3.728
  762SOL    HW1 3185   2.475   5.649   3.641
  762SOL    HW2 3186   2.519   5.628   3.797
  763SOL     OW 3187   4.442   6.030   6.646
  763SOL    HW1 3188   4.517   6.012   6.709
  763SOL    HW2 3189   4.357   5.996   6.685
  764SOL     OW 3190   4.456   1.413   2.306
  764SOL    HW1 3191   4.392   1.447   2.238
  764SOL    HW2 3192   4.405   1.378   2.385
  765SOL     OW 3193   6.940   6.779   3.387
  765SOL    HW1 3194   7.001   6.767   3.465
  765SOL    HW2 3195   6.891   6.865   3.395
  766SOL     OW 3196   0.196   6.478   6.957
  766SOL    HW1 3197   0.213   6.385   6.925
  766SOL    HW2 3198   0.171   6.476   0.035
  767SOL     OW 3199   5.709   0.313   2.582
  767SOL    HW1 3200   5.801   0.315   2.621
  767SOL    HW2 3201   5.684   0.406   2.553
  768SOL     OW 3202   3.192   6.427   3.454
  768SOL    HW1 3203   3.127   6.489   3.500
  768SOL    HW2 3204   3.141   6.357   3.404
  769SOL     OW 3205   4.244   1.254   5.908
  769SOL    HW1 3206   4.204   1.259   5.999
  769SOL    HW2 3207   4.213   1.333   5.854
  770SOL     OW 3208   3.374   4.907   4.119
  770SOL    HW1 3209   3.279   4.875   4.116
  770SOL    HW2 3210   3.416   4.895   4.029
  771SOL     OW 3211   0.899   5.727   4.003
  771SOL    HW1 3212   0.948   5.792   3.944
  771SOL    HW2 3213   0.805   5.757   4.016
  772SOL     OW 3214   6.692   4.313   6.073
  772SOL    HW1 3215   6.593   4.322   6.061
  772SOL    HW2 3216   6.738   4.386   6.023
  773SOL     OW 3217   0.164   4.178   2.346
  773SOL    HW1 3218   0.109   4.248   2.392
  773SOL    HW2 3219   0.195   4.214   2.258
  774SOL     OW 3220   1.447   1.121   1.799
  774SOL    HW1 3221   1.445   1.028   1.836
  774SOL    HW2 3222   1.421   1.186   1.871
  775SOL     OW 3223   1.954   1.934   4.574
  775SOL    HW1 3224   2.031   1.947   4.512
  775SOL    HW2 3225   1.975   1.861   4.639
  776SOL     OW 3226   2.112   0.470   6.304
  776SOL    HW1 3227   2.080   0.378   6.328
  776SOL    HW2 3228   2.093   0.533   6.379
  777SOL     OW 3229   4.162   1.092   0.748
  777SOL    HW1 3230   4.159   1.191   0.734
  777SOL    HW2 3231   4.090   1.049   0.693
  778SOL     OW 3232   4.049   6.845   4.655
  778SOL    HW1 3233   3.982   6.829   4.583
  778SOL    HW2 3234   4.005   6.894   4.731
  779SOL     OW 3235   1.046   1.297   2.608
  779SOL    HW1 3236   1.089   1.253   2.529
  779SOL    HW2 3237   1.101   1.280   2.690
  780SOL     OW 3238   5.609   3.086   4.995
  780SOL    HW1 3239   5.593   3.064   5.091
  780SOL    HW2 3240   5.568   3.174   4.973
  781SOL     OW 3241   0.083   1.205   5.733
  781SOL    HW1 3242   0.104   1.289   5.682
  781SOL    HW2 3243   0.166   1.173   5.779
  782SOL     OW 3244   0.159   2.954   0.757
  782SOL    HW1 3245   0.152   2.924   0.852
  782SOL    HW2 3246   0.091   2.906   0.702
  783SOL     OW 3247   3.009   4.658   0.641
  783SOL    HW1 3248   2.997   4.713   0.559
  783SOL    HW2 3249   2.920   4.624   0.672
  784SOL     OW 3250   4.733   0.514   5.207
  784SOL    HW1 3251   4.763   0.445   5.142
  784SOL    HW2 3252   4.646   0.486   5.249
  785SOL     OW 3253   6.442   2.862   3.035
  785SOL    HW1 3254   6.470   2.778   2.987
  785SOL    HW2 3255   6.407   2.838   3.125
  786SOL     OW 3256   6.837   6.794   0.154
  786SOL    HW1 3257   6.786   6.865   0.203
  786SOL    HW2 3258   6.935   6.813   0.161
  787SOL     OW 3259   2.985   2.241   6.281
  787SOL    HW1 3260   2.958   2.337   6.289
  787SOL    HW2 3261   2.992   2.200   6.371
  788SOL     OW 3262   1.386   4.207   4.381
  788SOL    HW1 3263   1.384   4.231   4.285
  788SOL    HW2 3264   1.416   4.112   4.391
  789SOL     OW 3265   5.505   3.888   0.728
  789SOL    HW1 3266   5.466   3.958   0.787
  789SOL    HW2 3267   5.457   3.802   0.741
  790SOL     OW 3268   3.197   1.557   3.908
  790SOL    HW1 3269   3.202   1.517   3.816
  790SOL    HW2 3270   3.178   1.654   3.901
  791SOL     OW 3271   3.317   1.677   4.241
  791SOL    HW1 3272   3.354   1.751   4.184
  791SOL    HW2 3273   3.388   1.607   4.255
  792SOL     OW 3274   5.907   0.016   3.431
  792SOL    HW1 3275   5.978   0.054   3.371
  792SOL    HW2 3276   5.834   6.995   3.375
  793SOL     OW 3277   6.094   0.181   6.955
  793SOL    HW1 3278   6.045   0.230   6.882
  793SOL    HW2 3279   6.147   0.247   7.009
  794SOL     OW 3280   2.296   5.326   5.388
  794SOL    HW1 3281   2.366   5.264   5.424
  794SOL    HW2 3282   2.215   5.322   5.447
  795SOL     OW 3283   4.873   4.535   6.419
  795SOL    HW1 3284   4.915   4.603   6.478
  795SOL    HW2 3285   4.773   4.543   6.425
  796SOL     OW 3286   0.297   2.254   6.615
  796SOL    HW1 3287   0.273   2.157   6.610
  796SOL    HW2 3288   0.277   2.298   6.528
  797SOL     OW 3289   5.746   2.888   3.984
  797SOL    HW1 3290   5.742   2.862   3.887
  797SOL    HW2 3291   5.816   2.959   3.995
  798SOL     OW 3292   5.285   1.079   6.404
  798SOL    HW1 3293   5.272   1.112   6.310
  798SOL    HW2 3294   5.278   0.979   6.405
  799SOL     OW 3295   6.778   3.159   3.313
  799SOL    HW1 3296   6.707   3.225   3.339
  799SOL    HW2 3297   6.782   3.086   3.381
  800SOL     OW 3298   6.214   1.464   1.959
  800SOL    HW1 3299   6.278   1.397   1.995
  800SOL    HW2 3300   6.154   1.421   1.892
  801SOL     OW 3301   0.506   2.501   3.144
  801SOL    HW1 3302   0.421   2.449   3.146
  801SOL    HW2 3303   0.485   2.598   3.135
  802SOL     OW 3304   5.468   1.131   0.780
  802SOL    HW1 3305   5.512   1.139   0.691
  802SOL    HW2 3306   5.434   1.038   0.792
  803SOL     OW 3307   6.769   0.004   5.004
  803SOL    HW1 3308   6.704   0.042   5.071
  803SOL    HW2 3309   6.735   0.021   4.912
  804SOL     OW 3310   0.105   0.041   0.512
  804SOL    HW1 3311   0.028   6.998   0.498
  804SOL    HW2 3312   0.187   7.008   0.535
  805SOL     OW 3313   2.968   3.026   6.187
  805SOL    HW1 3314   2.993   3.011   6.282
  805SOL    HW2 3315   3.037   2.986   6.127
  806SOL     OW 3316   5.378   0.712   0.471
  806SOL    HW1 3317   5.313   0.734   0.398
  806SOL    HW2 3318   5.330   0.667   0.546
  807SOL     OW 3319   1.515   0.065   3.411
  807SOL    HW1 3320   1.487   0.066   3.507
  807SOL    HW2 3321   1.457   0.001   3.360
  808SOL     OW 3322   5.166   3.583   5.369
  808SOL    HW1 3323   5.083   3.629   5.336
  808SOL    HW2 3324   5.159   3.485   5.354
  809SOL     OW 3325   0.330   4.685   6.059
  809SOL    HW1 3326   0.237   4.716   6.080
  809SOL    HW2 3327   0.346   4.691   5.961
  810SOL     OW 3328   5.834   4.373   0.029
  810SOL    HW1 3329   5.820   4.469   0.054
  810SOL    HW2 3330   5.926   4.362   7.011
  811SOL     OW 3331   5.075   5.041   4.131
  811SOL    HW1 3332   5.001   4.980   4.158
  811SOL    HW2 3333   5.038   5.115   4.076
  812SOL     OW 3334   0.186   6.740   1.878
  812SOL    HW1 3335   0.267   6.776   1.832
  812SOL    HW2 3336   0.149   6.810   1.938
  813SOL     OW 3337   5.169   5.571   2.312
  813SOL    HW1 3338   5.113   5.634   2.259
  813SOL    HW2 3339   5.201   5.497   2.252
  814SOL     OW 3340   5.130   6.184   1.496
  814SOL    HW1 3341   5.117   6.233   1.410
  814SOL    HW2 3342   5.225   6.154   1.503
  815SOL     OW 3343   0.024   2.531   1.153
  815SOL    HW1 3344   6.984   2.500   1.227
  815SOL    HW2 3345   0.020   2.465   1.078
  816SOL     OW 3346   6.525   6.794   0.985
  816SOL    HW1 3347   6.454   6.855   0.950
  816SOL    HW2 3348   6.486   6.732   1.053
  817SOL     OW 3349   1.796   2.545   2.508
  817SOL    HW1 3350   1.800   2.619   2.441
  817SOL    HW2 3351   1.720   2.560   2.571
  818SOL     OW 3352   6.462   1.551   0.956
  818SOL    HW1 3353   6.404   1.632   0.956
  818SOL    HW2 3354   6.406   1.469   0.943
  819SOL     OW 3355   6.891   3.493   4.101
  819SOL    HW1 3356   6.931   3.510   4.191
  819SOL    HW2 3357   6.795   3.520   4.102
  820SOL     OW 3358   1.198   3.041   4.671
  820SOL    HW1 3359   1.271   3.102   4.700
  820SOL    HW2 3360   1.237   2.960   4.627
  821SOL     OW 3361   1.236   3.642   6.746
  821SOL    HW1 3362   1.244   3.723   6.687
  821SOL    HW2 3363   1.207   3.670   6.837
  822SOL     OW 3364   1.519   3.848   4.698
  822SOL    HW1 3365   1.526   3.749   4.691
  822SOL    HW2 3366   1.608   3.889   4.680
  823SOL     OW 3367   3.242   4.314   0.756
  823SOL    HW1 3368   3.323   4.342   0.807
  823SOL    HW2 3369   3.266   4.240   0.694
  824SOL     OW 3370   5.608   2.014   5.724
  824SOL    HW1 3371   5.509   2.010   5.709
  824SOL    HW2 3372   5.646   1.922   5.718
  825SOL     OW 3373   2.176   3.992   2.228
  825SOL    HW1 3374   2.171   3.967   2.324
  825SOL    HW2 3375   2.086   4.023   2.197
  826SOL     OW 3376   0.337   4.067   5.951
  826SOL    HW1 3377   0.384   4.155   5.956
  826SOL    HW2 3378   0.271   4.069   5.876
  827SOL     OW 3379   3.965   5.646   0.008
  827SOL    HW1 3380   4.044   5.638   0.070
  827SOL    HW2 3381   3.970   5.734   6.980
  828SOL     OW 3382   6.429   0.233   5.912
  828SOL    HW1 3383   6.512   0.263   5.959
  828SOL    HW2 3384   6.371   0.183   5.977
  829SOL     OW 3385   3.315   2.909   4.917
  829SOL    HW1 3386   3.294   2.815   4.943
  829SOL    HW2 3387   3.412   2.916   4.895
  830SOL     OW 3388   4.481   3.997   5.360
  830SOL    HW1 3389   4.383   3.983   5.369
  830SOL    HW2 3390   4.529   3.950   5.434
  831SOL     OW 3391   6.572   0.742   4.966
  831SOL    HW1 3392   6.497   0.777   4.911
  831SOL    HW2 3393   6.578   0.642   4.956
  832SOL     OW 3394   2.195   1.844   5.965
  832SOL    HW1 3395   2.096   1.850   5.971
  832SOL    HW2 3396   2.234   1.935   5.947
  833SOL     OW 3397   6.976   6.991   6.073
  833SOL    HW1 3398   6.878   6.999   6.057
  833SOL    HW2 3399   0.006   7.007   5.988
  834SOL     OW 3400   3.158   4.101   5.233
  834SOL    HW1 3401   3.059   4.096   5.246
  834SOL    HW2 3402   3.199   4.154   5.306
  835SOL     OW 3403   4.148   0.187   3.441
  835SOL    HW1 3404   4.113   0.236   3.521
  835SOL    HW2 3405   4.149   0.249   3.362
  836SOL     OW 3406   2.439   1.146   0.398
  836SOL    HW1 3407   2.348   1.105   0.411
  836SOL    HW2 3408   2.489   1.143   0.485
  837SOL     OW 3409   4.638   0.984   5.679
  837SOL    HW1 3410   4.692   0.924   5.619
  837SOL    HW2 3411   4.616   1.068   5.630
  838SOL     OW 3412   2.401   5.494   2.967
  838SOL    HW1 3413   2.452   5.478   2.883
  838SOL    HW2 3414   2.427   5.425   3.035
  839SOL     OW 3415   2.831   1.701   2.646
  839SOL    HW1 3416   2.902   1.637   2.674
  839SOL    HW2 3417   2.776   1.661   2.573
  840SOL     OW 3418   0.733   1.323   6.843
  840SOL    HW1 3419   0.793   1.384   6.791
  840SOL    HW2 3420   0.732   1.351   6.939
  841SOL     OW 3421   0.867   3.486   6.831
  841SOL    HW1 3422   0.847   3.509   6.736
  841SOL    HW2 3423   0.785   3.448   6.874
  842SOL     OW 3424   3.702   5.521   3.573
  842SOL    HW1 3425   3.709   5.509   3.474
  842SOL    HW2 3426   3.787   5.493   3.616
  843SOL     OW 3427   6.501   2.011   1.837
  843SOL    HW1 3428   6.405   2.012   1.808
  843SOL    HW2 3429   6.551   1.941   1.786
  844SOL     OW 3430   5.308   5.715   0.524
  844SOL    HW1 3431   5.264   5.698   0.612
  844SOL    HW2 3432   5.407   5.711   0.535
  845SOL     OW 3433   0.583   4.365   4.853
  845SOL    HW1 3434   0.592   4.440   4.788
  845SOL    HW2 3435   0.643   4.290   4.826
  846SOL     OW 3436   6.396   2.014   6.412
  846SOL    HW1 3437   6.460   1.975   6.346
  846SOL    HW2 3438   6.432   2.000   6.505
  847SOL     OW 3439   4.882   3.440   2.007
  847SOL    HW1 3440   4.911   3.496   2.084
  847SOL    HW2 3441   4.907   3.344   2.024
  848SOL     OW 3442   5.994   0.413   5.898
  848SOL    HW1 3443   6.047   0.466   5.832
  848SOL    HW2 3444   6.039   0.416   5.987
  849SOL     OW 3445   0.347   5.345   4.387
  849SOL    HW1 3446   0.248   5.355   4.385
  849SOL    HW2 3447   0.390   5.435   4.387
  850SOL     OW 3448   3.934   0.808   3.013
  850SOL    HW1 3449   3.930   0.712   2.985
  850SOL    HW2 3450   3.860   0.827   3.079
  851SOL     OW 3451   1.542   0.671   6.391
  851SOL    HW1 3452   1.530   0.638   6.297
  851SOL    HW2 3453   1.622   0.731   6.395
  852SOL     OW 3454   2.314   4.164   6.677
  852SOL    HW1 3455   2.341   4.068   6.669
  852SOL    HW2 3456   2.390   4.222   6.645
  853SOL     OW 3457   1.851   4.136   1.481
  853SOL    HW1 3458   1.834   4.121   1.384
  853SOL    HW2 3459   1.883   4.230   1.495
  854SOL     OW 3460   5.608   5.172   1.810
  854SOL    HW1 3461   5.658   5.111   1.748
  854SOL    HW2 3462   5.537   5.119   1.858
  855SOL     OW 3463   5.335   0.322   1.751
  855SOL    HW1 3464   5.418   0.364   1.715
  855SOL    HW2 3465   5.259   0.338   1.688
  856SOL     OW 3466   1.701   0.040   5.337
  856SOL    HW1 3467   1.635   0.018   5.409
  856SOL    HW2 3468   1.780   7.000   5.345
  857SOL     OW 3469   6.663   3.616   2.311
  857SOL    HW1 3470   6.594   3.666   2.258
  857SOL    HW2 3471   6.735   3.679   2.339
  858SOL     OW 3472   3.253   4.487   1.115
  858SOL    HW1 3473   3.251   4.388   1.099
  858SOL    HW2 3474   3.170   4.515   1.163
  859SOL     OW 3475   6.700   4.867   6.723
  859SOL    HW1 3476   6.655   4.932   6.663
  859SOL    HW2 3477   6.713   4.780   6.675
  860SOL     OW 3478   1.847   4.746   1.789
  860SOL    HW1 3479   1.779   4.721   1.720
  860SOL    HW2 3480   1.801   4.761   1.877
  861SOL     OW 3481   3.167   5.722   5.581
  861SOL    HW1 3482   3.195   5.770   5.498
  861SOL    HW2 3483   3.107   5.645   5.555
  862SOL     OW 3484   4.383   4.618   4.401
  862SOL    HW1 3485   4.353   4.632   4.496
  862SOL    HW2 3486   4.418   4.525   4.390
  863SOL     OW 3487   5.854   1.216   1.434
  863SOL    HW1 3488   5.814   1.157   1.363
  863SOL    HW2 3489   5.951   1.192   1.446
  864SOL     OW 3490   6.058   4.429   2.944
  864SOL    HW1 3491   6.041   4.527   2.936
  864SOL    HW2 3492   5.975   4.378   2.920
  865SOL     OW 3493   1.721   6.919   4.504
  865SOL    HW1 3494   1.779   6.985   4.552
  865SOL    HW2 3495   1.631   6.960   4.487
  866SOL     OW 3496   3.484   1.857   1.535
  866SOL    HW1 3497   3.434   1.782   1.578
  866SOL    HW2 3498   3.432   1.890   1.456
  867SOL     OW 3499   1.381   2.715   5.719
  867SOL    HW1 3500   1.393   2.695   5.817
  867SOL    HW2 3501   1.284   2.729   5.700
  868SOL     OW 3502   5.203   2.637   3.222
  868SOL    HW1 3503   5.252   2.648   3.136
  868SOL    HW2 3504   5.198   2.540   3.245
  869SOL     OW 3505   6.620   4.830   2.893
  869SOL    HW1 3506   6.564   4.759   2.850
  869SOL    HW2 3507   6.707   4.836   2.844
  870SOL     OW 3508   0.035   1.863   0.934
  870SOL    HW1 3509   0.078   1.777   0.960
  870SOL    HW2 3510   0.101   1.938   0.944
  871SOL     OW 3511   6.284   3.219   0.525
  871SOL    HW1 3512   6.277   3.307   0.572
  871SOL    HW2 3513   6.275   3.232   0.427
  872SOL     OW 3514   5.985   2.417   2.786
  872SOL    HW1 3515   6.026   2.395   2.874
  872SOL    HW2 3516   6.025   2.359   2.715
  873SOL     OW 3517   4.508   6.867   5.229
  873SOL    HW1 3518   4.507   6.961   5.193
  873SOL    HW2 3519   4.461   6.807   5.165
  874SOL     OW 3520   0.670   3.912   5.930
  874SOL    HW1 3521   0.722   3.858   5.864
  874SOL    HW2 3522   0.575   3.882   5.929
  875SOL     OW 3523   6.257   4.663   6.866
  875SOL    HW1 3524   6.357   4.656   6.863
  875SOL    HW2 3525   6.221   4.667   6.772
  876SOL     OW 3526   0.766   3.324   2.086
  876SOL    HW1 3527   0.865   3.333   2.098
  876SOL    HW2 3528   0.724   3.299   2.173
  877SOL     OW 3529   5.578   5.733   0.490
  877SOL    HW1 3530   5.566   5.829   0.465
  877SOL    HW2 3531   5.665   5.699   0.453
  878SOL     OW 3532   2.943   4.015   0.231
  878SOL    HW1 3533   3.008   3.940   0.243
  878SOL    HW2 3534   2.953   4.054   0.139
  879SOL     OW 3535   4.691   2.007   2.115
  879SOL    HW1 3536   4.735   1.931   2.067
  879SOL    HW2 3537   4.594   2.011   2.089
  880SOL     OW 3538   4.225   5.255   0.871
  880SOL    HW1 3539   4.168   5.172   0.867
  880SOL    HW2 3540   4.167   5.334   0.890
  881SOL     OW 3541   4.344   5.220   4.922
  881SOL    HW1 3542   4.341   5.224   5.021
  881SOL    HW2 3543   4.290   5.296   4.884
  882SOL     OW 3544   0.798   1.065   4.452
  882SOL    HW1 3545   0.828   1.077   4.357
  882SOL    HW2 3546   0.876   1.044   4.510
  883SOL     OW 3547   3.081   5.063   6.270
  883SOL    HW1 3548   3.087   5.162   6.260
  883SOL    HW2 3549   2.999   5.040   6.323
  884SOL     OW 3550   4.842   3.794   1.372
  884SOL    HW1 3551   4.855   3.888   1.338
  884SOL    HW2 3552   4.749   3.764   1.351
  885SOL     OW 3553   4.196   5.980   0.054
  885SOL    HW1 3554   4.267   5.925   0.096
  885SOL    HW2 3555   4.113   5.976   0.110
  886SOL     OW 3556   4.835   1.566   6.111
  886SOL    HW1 3557   4.737   1.579   6.099
  886SOL    HW2 3558   4.878   1.554   6.021
  887SOL     OW 3559   4.737   0.585   6.306
  887SOL    HW1 3560   4.739   0.679   6.273
  887SOL    HW2 3561   4.652   0.542   6.277
  888SOL     OW 3562   5.818   6.268   3.436
  888SOL    HW1 3563   5.831   6.367   3.424
  888SOL    HW2 3564   5.799   6.226   3.348
  889SOL     OW 3565   0.782   6.907   4.777
  889SOL    HW1 3566   0.721   6.850   4.722
  889SOL    HW2 3567   0.876   6.876   4.764
  890SOL     OW 3568   2.707   4.856   2.029
  890SOL    HW1 3569   2.773   4.922   2.063
  890SOL    HW2 3570   2.744   4.764   2.037
  891SOL     OW 3571   6.025   3.224   6.259
  891SOL    HW1 3572   5.992   3.138   6.222
  891SOL    HW2 3573   5.970   3.300   6.224
  892SOL     OW 3574   2.930   5.238   1.759
  892SOL    HW1 3575   2.844   5.196   1.728
  892SOL    HW2 3576   2.910   5.309   1.826
  893SOL     OW 3577   2.244   0.539   0.655
  893SOL    HW1 3578   2.295   0.622   0.677
  893SOL    HW2 3579   2.248   0.522   0.556
  894SOL     OW 3580   0.983   5.582   3.487
  894SOL    HW1 3581   1.049   5.557   3.558
  894SOL    HW2 3582   0.895   5.540   3.507
  895SOL     OW 3583   1.982   0.063   4.879
  895SOL    HW1 3584   1.928   0.123   4.938
  895SOL    HW2 3585   1.981   6.990   4.916
  896SOL     OW 3586   5.442   6.545   3.181
  896SOL    HW1 3587   5.473   6.552   3.085
  896SOL    HW2 3588   5.404   6.633   3.209
  897SOL     OW 3589   5.486   2.653   5.926
  897SOL    HW1 3590   5.390   2.677   5.940
  897SOL    HW2 3591   5.518   2.691   5.840
  898SOL     OW 3592   5.829   6.451   3.972
  898SOL    HW1 3593   5.808   6.410   3.883
  898SOL    HW2 3594   5.744   6.468   4.022
  899SOL     OW 3595   0.619   5.181   6.462
  899SOL    HW1 3596   0.541   5.156   6.519
  899SOL    HW2 3597   0.651   5.102   6.411
  900SOL     OW 3598   0.792   6.090   3.766
  900SOL    HW1 3599   0.850   6.137   3.700
  900SOL    HW2 3600   0.748   6.011   3.723
  901SOL     OW 3601   5.514   2.531   3.335
  901SOL    HW1 3602   5.441   2.469   3.308
  901SOL    HW2 3603   5.548   2.505   3.425
  902SOL     OW 3604   7.016   6.274   0.078
  902SOL    HW1 3605   0.024   6.276   0.174
  902SOL    HW2 3606   6.930   6.323   0.067
  903SOL     OW 3607   0.797   4.158   0.557
  903SOL    HW1 3608   0.810   4.086   0.625
  903SOL    HW2 3609   0.882   4.169   0.504
  904SOL     OW 3610   2.004   1.802   3.451
  904SOL    HW1 3611   2.098   1.767   3.449
  904SOL    HW2 3612   1.974   1.812   3.545
  905SOL     OW 3613   5.485   1.848   5.178
  905SOL    HW1 3614   5.516   1.834   5.272
  905SOL    HW2 3615   5.552   1.809   5.115
  906SOL     OW 3616   6.189   4.051   5.247
  906SOL    HW1 3617   6.191   4.089   5.154
  906SOL    HW2 3618   6.143   4.115   5.308
  907SOL     OW 3619   6.561   3.423   1.820
  907SOL    HW1 3620   6.560   3.414   1.920
  907SOL    HW2 3621   6.587   3.516   1.795
  908SOL     OW 3622   1.639   0.779   3.284
  908SOL    HW1 3623   1.544   0.803   3.302
  908SOL    HW2 3624   1.694   0.862   3.276
  909SOL     OW 3625   3.650   0.280   1.054
  909SOL    HW1 3626   3.700   0.215   0.996
  909SOL    HW2 3627   3.711   0.355   1.080
  910SOL     OW 3628   1.902   1.644   1.647
  910SOL    HW1 3629   1.837   1.620   1.719
  910SOL    HW2 3630   1.994   1.620   1.676
  911SOL     OW 3631   0.296   4.218   1.040
  911SOL    HW1 3632   0.352   4.154   1.093
  911SOL    HW2 3633   0.250   4.169   0.966
  912SOL     OW 3634   0.722   0.402   6.032
  912SOL    HW1 3635   0.785   0.349   6.089
  912SOL    HW2 3636   0.643   0.431   6.086
  913SOL     OW 3637   2.357   1.236   1.980
  913SOL    HW1 3638   2.437   1.238   1.920
  913SOL    HW2 3639   2.383   1.266   2.072
  914SOL     OW 3640   2.980   6.922   3.139
  914SOL    HW1 3641   2.929   6.905   3.055
  914SOL    HW2 3642   2.953   7.009   3.177
  915SOL     OW 3643   0.934   2.243   0.028
  915SOL    HW1 3644   0.942   2.320   6.984
  915SOL    HW2 3645   1.007   2.177   0.010
  916SOL     OW 3646   1.744   3.227   3.122
  916SOL    HW1 3647   1.796   3.285   3.184
  916SOL    HW2 3648   1.725   3.276   3.037
  917SOL     OW 3649   3.412   2.576   6.761
  917SOL    HW1 3650   3.368   2.568   6.671
  917SOL    HW2 3651   3.432   2.485   6.797
  918SOL     OW 3652   1.170   0.963   5.669
  918SOL    HW1 3653   1.141   0.926   5.757
  918SOL    HW2 3654   1.089   0.985   5.614
  919SOL     OW 3655   2.457   6.403   1.304
  919SOL    HW1 3656   2.479   6.432   1.398
  919SOL    HW2 3657   2.486   6.474   1.240
  920SOL     OW 3658   1.840   0.678   4.379
  920SOL    HW1 3659   1.906   0.672   4.304
  920SOL    HW2 3660   1.774   0.751   4.360
  921SOL     OW 3661   5.247   4.857   6.185
  921SOL    HW1 3662   5.320   4.906   6.138
  921SOL    HW2 3663   5.196   4.801   6.120
  922SOL     OW 3664   2.276   3.713   6.570
  922SOL    HW1 3665   2.316   3.652   6.503
  922SOL    HW2 3666   2.184   3.741   6.540
  923SOL     OW 3667   4.018   1.114   6.576
  923SOL    HW1 3668   3.945   1.047   6.588
  923SOL    HW2 3669   4.074   1.090   6.497
  924SOL     OW 3670   6.433   3.974   3.184
  924SOL    HW1 3671   6.344   4.010   3.209
  924SOL    HW2 3672   6.432   3.946   3.088
  925SOL     OW 3673   6.235   2.063   3.168
  925SOL    HW1 3674   6.281   2.068   3.080
  925SOL    HW2 3675   6.167   1.989   3.166
  926SOL     OW 3676   5.238   6.252   0.845
  926SOL    HW1 3677   5.199   6.174   0.797
  926SOL    HW2 3678   5.338   6.252   0.833
  927SOL     OW 3679   4.286   4.951   4.789
  927SOL    HW1 3680   4.312   4.932   4.884
  927SOL    HW2 3681   4.358   5.003   4.745
  928SOL     OW 3682   0.659   1.026   1.546
  928SOL    HW1 3683   0.650   1.014   1.645
  928SOL    HW2 3684   0.752   1.058   1.526
  929SOL     OW 3685   0.817   2.553   2.746
  929SOL    HW1 3686   0.840   2.482   2.812
  929SOL    HW2 3687   0.775   2.512   2.665
  930SOL     OW 3688   4.734   6.005   3.593
  930SOL    HW1 3689   4.771   5.954   3.671
  930SOL    HW2 3690   4.693   5.940   3.529
  931SOL     OW 3691   1.953   2.922   1.924
  931SOL    HW1 3692   1.978   2.937   1.828
  931SOL    HW2 3693   1.928   2.826   1.938
  932SOL     OW 3694   4.589   6.252   1.027
  932SOL    HW1 3695   4.528   6.312   1.078
  932SOL    HW2 3696   4.573   6.264   0.929
  933SOL     OW 3697   1.946   6.101   3.319
  933SOL    HW1 3698   1.990   6.081   3.231
  933SOL    HW2 3699   1.854   6.063   3.319
  934SOL     OW 3700   2.957   1.307   5.289
  934SOL    HW1 3701   3.031   1.373   5.281
  934SOL    HW2 3702   2.906   1.304   5.203
  935SOL     OW 3703   2.727   2.930   6.597
  935SOL    HW1 3704   2.790   2.953   6.523
  935SOL    HW2 3705   2.706   3.013   6.649
  936SOL     OW 3706   0.534   1.774   1.652
  936SOL    HW1 3707   0.507   1.696   1.596
  936SOL    HW2 3708   0.467   1.848   1.641
  937SOL     OW 3709   4.894   2.336   3.955
  937SOL    HW1 3710   4.856   2.416   4.000
  937SOL    HW2 3711   4.952   2.365   3.879
  938SOL     OW 3712   6.797   2.219   0.088
  938SOL    HW1 3713   6.784   2.172   0.175
  938SOL    HW2 3714   6.845   2.160   0.024
  939SOL     OW 3715   6.146   0.927   5.968
  939SOL    HW1 3716   6.134   0.990   5.892
  939SOL    HW2 3717   6.067   0.866   5.973
  940SOL     OW 3718   0.510   0.676   4.281
  940SOL    HW1 3719   0.510   0.606   4.210
  940SOL    HW2 3720   0.457   0.756   4.250
  941SOL     OW 3721   5.332   2.742   4.920
  941SOL    HW1 3722   5.351   2.710   4.828
  941SOL    HW2 3723   5.233   2.751   4.932
  942SOL     OW 3724   4.877   0.264   5.641
  942SOL    HW1 3725   4.883   0.310   5.729
  942SOL    HW2 3726   4.934   0.313   5.574
  943SOL     OW 3727   5.909   2.123   0.140
  943SOL    HW1 3728   5.881   2.040   0.189
  943SOL    HW2 3729   5.918   2.103   0.043
  944SOL     OW 3730   6.175   4.022   4.766
  944SOL    HW1 3731   6.108   4.015   4.692
  944SOL    HW2 3732   6.257   3.972   4.742
  945SOL     OW 3733   5.394   4.135   5.420
  945SOL    HW1 3734   5.430   4.044   5.440
  945SOL    HW2 3735   5.402   4.154   5.323
  946SOL     OW 3736   6.035   3.134   5.745
  946SOL    HW1 3737   5.995   3.045   5.721
  946SOL    HW2 3738   6.126   3.141   5.704
  947SOL     OW 3739   1.759   3.153   5.643
  947SOL    HW1 3740   1.813   3.212   5.582
  947SOL    HW2 3741   1.686   3.207   5.685
  948SOL     OW 3742   3.805   1.917   0.229
  948SOL    HW1 3743   3.897   1.936   0.194
  948SOL    HW2 3744   3.763   2.002   0.259
  949SOL     OW 3745   5.724   5.697   6.356
  949SOL    HW1 3746   5.716   5.787   6.314
  949SOL    HW2 3747   5.816   5.686   6.393
  950SOL     OW 3748   4.109   5.484   0.952
  950SOL    HW1 3749   4.205   5.510   0.942
  950SOL    HW2 3750   4.094   5.446   1.044
  951SOL     OW 3751   1.222   2.302   3.125
  951SOL    HW1 3752   1.186   2.381   3.176
  951SOL    HW2 3753   1.145   2.248   3.091
  952SOL     OW 3754   5.391   1.910   1.578
  952SOL    HW1 3755   5.473   1.854   1.593
  952SOL    HW2 3756   5.345   1.926   1.665
  953SOL     OW 3757   3.435   0.119   6.342
  953SOL    HW1 3758   3.354   0.074   6.378
  953SOL    HW2 3759   3.449   0.093   6.247
  954SOL     OW 3760   0.304   6.188   0.905
  954SOL    HW1 3761   0.281   6.224   0.815
  954SOL    HW2 3762   0.404   6.189   0.917
  955SOL     OW 3763   6.604   6.854   2.240
  955SOL    HW1 3764   6.628   6.945   2.207
  955SOL    HW2 3765   6.625   6.847   2.338
  956SOL     OW 3766   0.798   2.528   0.351
  956SOL    HW1 3767   0.794   2.627   0.364
  956SOL    HW2 3768   0.833   2.508   0.259
  957SOL     OW 3769   2.509   6.384   5.523
  957SOL    HW1 3770   2.541   6.464   5.472
  957SOL    HW2 3771   2.518   6.303   5.466
  958SOL     OW 3772   4.909   2.297   0.090
  958SOL    HW1 3773   4.825   2.242   0.086
  958SOL    HW2 3774   4.943   2.300   0.184
  959SOL     OW 3775   1.326   4.495   2.666
  959SOL    HW1 3776   1.243   4.515   2.615
  959SOL    HW2 3777   1.303   4.437   2.745
  960SOL     OW 3778   1.669   5.656   5.424
  960SOL    HW1 3779   1.696   5.652   5.328
  960SOL    HW2 3780   1.718   5.730   5.470
  961SOL     OW 3781   3.657   6.795   1.782
  961SOL    HW1 3782   3.679   6.883   1.822
  961SOL    HW2 3783   3.591   6.747   1.841
  962SOL     OW 3784   1.361   6.650   4.169
  962SOL    HW1 3785   1.410   6.587   4.109
  962SOL    HW2 3786   1.401   6.742   4.160
  963SOL     OW 3787   6.013   0.572   1.812
  963SOL    HW1 3788   6.022   0.546   1.908
  963SOL    HW2 3789   6.059   0.659   1.796
  964SOL     OW 3790   5.207   3.950   1.374
  964SOL    HW1 3791   5.268   4.029   1.373
  964SOL    HW2 3792   5.113   3.980   1.391
  965SOL     OW 3793   1.255   2.244   0.905
  965SOL    HW1 3794   1.318   2.276   0.834
  965SOL    HW2 3795   1.220   2.323   0.956
  966SOL     OW 3796   0.370   1.968   1.577
  966SOL    HW1 3797   0.378   2.004   1.484
  966SOL    HW2 3798   0.274   1.973   1.606
  967SOL     OW 3799   0.684   5.978   2.664
  967SOL    HW1 3800   0.784   5.972   2.663
  967SOL    HW2 3801   0.657   6.062   2.711
  968SOL     OW 3802   6.030   3.837   2.390
  968SOL    HW1 3803   6.034   3.806   2.485
  968SOL    HW2 3804   5.941   3.813   2.351
  969SOL     OW 3805   4.572   6.476   6.194
  969SOL    HW1 3806   4.496   6.411   6.191
  969SOL    HW2 3807   4.602   6.488   6.288
  970SOL     OW 3808   4.345   2.192   5.315
  970SOL    HW1 3809   4.439   2.189   5.281
  970SOL    HW2 3810   4.345   2.198   5.415
  971SOL     OW 3811   0.799   2.349   1.812
  971SOL    HW1 3812   0.816   2.445   1.835
  971SOL    HW2 3813   0.721   2.316   1.863
  972SOL     OW 3814   6.823   5.688   1.605
  972SOL    HW1 3815   6.831   5.787   1.616
  972SOL    HW2 3816   6.867   5.642   1.682
  973SOL     OW 3817   6.231   4.293   5.607
  973SOL    HW1 3818   6.224   4.386   5.571
  973SOL    HW2 3819   6.311   4.248   5.566
  974SOL     OW 3820   2.611   1.112   4.156
  974SOL    HW1 3821   2.578   1.081   4.067
  974SOL    HW2 3822   2.563   1.196   4.182
  975SOL     OW 3823   3.680   6.944   5.707
  975SOL    HW1 3824   3.649   6.909   5.795
  975SOL    HW2 3825   3.771   6.984   5.717
  976SOL     OW 3826   0.183   5.699   3.716
  976SOL    HW1 3827   0.148   5.671   3.626
  976SOL    HW2 3828   0.282   5.689   3.717
  977SOL     OW 3829   1.255   1.756   3.066
  977SOL    HW1 3830   1.333   1.799   3.112
  977SOL    HW2 3831   1.183   1.824   3.053
  978SOL     OW 3832   5.714   3.112   4.753
  978SOL    HW1 3833   5.786   3.174   4.725
  978SOL    HW2 3834   5.706   3.112   4.853
  979SOL     OW 3835   5.315   0.811   3.276
  979SOL    HW1 3836   5.320   0.722   3.323
  979SOL    HW2 3837   5.220   0.841   3.273
  980SOL     OW 3838   5.949   1.040   4.823
  980SOL    HW1 3839   5.851   1.022   4.819
  980SOL    HW2 3840   5.997   0.976   4.763
  981SOL     OW 3841   0.206   2.950   5.640
  981SOL    HW1 3842   0.240   2.981   5.551
  981SOL    HW2 3843   0.106   2.959   5.642
  982SOL     OW 3844   1.551   3.071   1.368
  982SOL    HW1 3845   1.550   3.080   1.467
  982SOL    HW2 3846   1.459   3.087   1.332
  983SOL     OW 3847   5.665   1.640   2.911
  983SOL    HW1 3848   5.761   1.667   2.903
  983SOL    HW2 3849   5.625   1.635   2.820
  984SOL     OW 3850   4.838   1.064   4.415
  984SOL    HW1 3851   4.757   1.118   4.436
  984SOL    HW2 3852   4.854   1.063   4.316
  985SOL     OW 3853   3.325   5.284   7.014
  985SOL    HW1 3854   3.418   5.273   6.981
  985SOL    HW2 3855   3.323   5.353   0.067
  986SOL     OW 3856   4.547   4.993   6.331
  986SOL    HW1 3857   4.461   5.031   6.366
  986SOL    HW2 3858   4.577   5.048   6.253
  987SOL     OW 3859   3.581   6.741   2.454
  987SOL    HW1 3860   3.593   6.685   2.536
  987SOL    HW2 3861   3.614   6.834   2.471
  988SOL     OW 3862   3.447   4.071   2.050
  988SOL    HW1 3863   3.405   4.143   1.994
  988SOL    HW2 3864   3.547   4.078   2.044
  989SOL     OW 3865   1.022   6.956   5.044
  989SOL    HW1 3866   0.955   6.893   5.083
  989SOL    HW2 3867   0.975   0.003   4.986
  990SOL     OW 3868   4.610   6.140   3.821
  990SOL    HW1 3869   4.623   6.236   3.845
  990SOL    HW2 3870   4.603   6.132   3.721
  991SOL     OW 3871   6.423   1.500   5.051
  991SOL    HW1 3872   6.340   1.501   5.107
  991SOL    HW2 3873   6.415   1.570   4.980
  992SOL     OW 3874   0.280   3.422   0.946
  992SOL    HW1 3875   0.365   3.452   0.903
  992SOL    HW2 3876   0.242   3.345   0.894
  993SOL     OW 3877   3.442   4.928   3.858
  993SOL    HW1 3878   3.536   4.954   3.882
  993SOL    HW2 3879   3.442   4.880   3.770
  994SOL     OW 3880   2.880   3.433   2.671
  994SOL    HW1 3881   2.862   3.390   2.760
  994SOL    HW2 3882   2.909   3.363   2.606
  995SOL     OW 3883   0.947   1.220   5.125
  995SOL    HW1 3884   0.985   1.287   5.188
  995SOL    HW2 3885   0.939   1.259   5.034
  996SOL     OW 3886   1.275   4.076   2.305
  996SOL    HW1 3887   1.279   4.170   2.272
  996SOL    HW2 3888   1.206   4.025   2.253
  997SOL     OW 3889   6.676   1.005   1.588
  997SOL    HW1 3890   6.586   0.969   1.613
  997SOL    HW2 3891   6.687   1.000   1.488
  998SOL     OW 3892   5.269   0.085   3.008
  998SOL    HW1 3893   5.353   0.110   3.056
  998SOL    HW2 3894   5.202   0.158   3.019
  999SOL     OW 3895   0.186   5.618   1.105
  999SOL    HW1 3896   0.275   5.653   1.078
  999SOL    HW2 3897   0.162   5.539   1.048
 1000SOL     OW 3898   3.830   1.765   3.914
 1000SOL    HW1 3899   3.882   1.838   3.868
 1000SOL    HW2 3900   3.733   1.788   3.912
 1001SOL     OW 3901   4.598   0.104   5.467
 1001SOL    HW1 3902   4.689   0.110   5.427
 1001SOL    HW2 3903   4.587   0.015   5.512
 1002SOL     OW 3904   6.735   1.400   0.878
 1002SOL    HW1 3905   6.708   1.480   0.932
 1002SOL    HW2 3906   6.762   1.326   0.940
 1003SOL     OW 3907   4.305   5.261   2.298
 1003SOL    HW1 3908   4.253   5.341   2.328
 1003SOL    HW2 3909   4.284   5.183   2.358
 1004SOL     OW 3910   6.110   5.847   6.966
 1004SOL    HW1 3911   6.152   5.913   0.009
 1004SOL    HW2 3912   6.170   5.767   6.958
 1005SOL     OW 3913   6.575   6.407   3.802
 1005SOL    HW1 3914   6.593   6.310   3.789
 1005SOL    HW2 3915   6.655   6.451   3.842
 1006SOL     OW 3916   2.360   4.465   0.994
 1006SOL    HW1 3917   2.351   4.529   1.070
 1006SOL    HW2 3918   2.381   4.374   1.029
 1007SOL     OW 3919   0.427   0.806   3.173
 1007SOL    HW1 3920   0.446   0.856   3.088
 1007SOL    HW2 3921   0.508   0.807   3.231
 1008SOL     OW 3922   2.108   3.172   3.423
 1008SOL    HW1 3923   2.137   3.254   3.472
 1008SOL    HW2 3924   2.105   3.191   3.325
 1009SOL     OW 3925   1.487   6.054   4.980
 1009SOL    HW1 3926   1.552   6.130   4.986
 1009SOL    HW2 3927   1.394   6.090   4.973
 1010SOL     OW 3928   4.880   1.331   0.144
 1010SOL    HW1 3929   4.876   1.409   0.081
 1010SOL    HW2 3930   4.861   1.362   0.237
 1011SOL     OW 3931   3.604   6.230   3.708
 1011SOL    HW1 3932   3.575   6.262   3.618
 1011SOL    HW2 3933   3.566   6.139   3.726
 1012SOL     OW 3934   5.012   5.483   6.972
 1012SOL    HW1 3935   5.049   5.536   0.029
 1012SOL    HW2 3936   5.086   5.437   6.924
 1013SOL     OW 3937   0.587   0.860   1.316
 1013SOL    HW1 3938   0.629   0.879   1.404
 1013SOL    HW2 3939   0.654   0.818   1.255
 1014SOL     OW 3940   4.434   0.316   5.953
 1014SOL    HW1 3941   4.480   0.374   5.886
 1014SOL    HW2 3942   4.386   0.242   5.907
 1015SOL     OW 3943   3.353   6.168   4.250
 1015SOL    HW1 3944   3.282   6.233   4.280
 1015SOL    HW2 3945   3.334   6.078   4.288
 1016SOL     OW 3946   4.543   2.683   1.349
 1016SOL    HW1 3947   4.561   2.773   1.388
 1016SOL    HW2 3948   4.629   2.641   1.320
 1017SOL     OW 3949   4.389   1.900   6.784
 1017SOL    HW1 3950   4.343   1.988   6.771
 1017SOL    HW2 3951   4.351   1.833   6.721
 1018SOL     OW 3952   1.541   3.653   2.420
 1018SOL    HW1 3953   1.615   3.705   2.465
 1018SOL    HW2 3954   1.456   3.667   2.470
 1019SOL     OW 3955   6.419   1.058   0.520
 1019SOL    HW1 3956   6.323   1.085   0.531
 1019SOL    HW2 3957   6.472   1.138   0.491
 1020SOL     OW 3958   2.685   1.615   1.681
 1020SOL    HW1 3959   2.724   1.559   1.755
 1020SOL    HW2 3960   2.758   1.642   1.618
 1021SOL     OW 3961   6.658   1.511   1.171
 1021SOL    HW1 3962   6.714   1.585   1.210
 1021SOL    HW2 3963   6.599   1.548   1.099
 1022SOL     OW 3964   4.301   2.979   6.495
 1022SOL    HW1 3965   4.269   3.052   6.435
 1022SOL    HW2 3966   4.398   2.993   6.516
 1023SOL     OW 3967   5.300   1.123   3.602
 1023SOL    HW1 3968   5.364   1.136   3.527
 1023SOL    HW2 3969   5.246   1.040   3.587
 1024SOL     OW 3970   6.107   1.625   3.242
 1024SOL    HW1 3971   6.155   1.561   3.181
 1024SOL    HW2 3972   6.171   1.695   3.273
 1025SOL     OW 3973   3.060   4.649   1.226
 1025SOL    HW1 3974   2.960   4.642   1.220
 1025SOL    HW2 3975   3.088   4.639   1.322
 1026SOL     OW 3976   1.176   2.398   0.164
 1026SOL    HW1 3977   1.145   2.337   0.237
 1026SOL    HW2 3978   1.240   2.465   0.202
 1027SOL     OW 3979   2.708   4.894   2.498
 1027SOL    HW1 3980   2.711   4.812   2.555
 1027SOL    HW2 3981   2.745   4.873   2.407
 1028SOL     OW 3982   1.784   6.319   0.753
 1028SOL    HW1 3983   1.756   6.391   0.689
 1028SOL    HW2 3984   1.783   6.355   0.846
 1029SOL     OW 3985   2.924   1.032   6.405
 1029SOL    HW1 3986   2.858   0.962   6.377
 1029SOL    HW2 3987   2.963   1.075   6.323
 1030SOL     OW 3988   3.437   4.165   4.695
 1030SOL    HW1 3989   3.516   4.155   4.756
 1030SOL    HW2 3990   3.376   4.235   4.732
 1031SOL     OW 3991   2.396   5.509   1.231
 1031SOL    HW1 3992   2.428   5.565   1.154
 1031SOL    HW2 3993   2.302   5.534   1.253
 1032SOL     OW 3994   1.626   0.836   4.292
 1032SOL    HW1 3995   1.527   0.850   4.296
 1032SOL    HW2 3996   1.667   0.903   4.230
 1033SOL     OW 3997   2.167   5.946   3.429
 1033SOL    HW1 3998   2.245   6.004   3.451
 1033SOL    HW2 3999   2.083   6.001   3.431
 1034SOL     OW 4000   1.356   5.011   3.800
 1034SOL    HW1 4001   1.256   5.015   3.806
 1034SOL    HW2 4002   1.397   5.071   3.868
 1035SOL     OW 4003   2.328   1.350   4.503
 1035SOL    HW1 4004   2.278   1.413   4.562
 1035SOL    HW2 4005   2.364   1.274   4.557
 1036SOL     OW 4006   5.107   1.923   0.165
 1036SOL    HW1 4007   5.143   1.830   0.174
 1036SOL    HW2 4008   5.178   1.989   0.189
 1037SOL     OW 4009   2.915   2.260   6.646
 1037SOL    HW1 4010   2.898   2.304   6.734
 1037SOL    HW2 4011   3.013   2.264   6.625
 1038SOL     OW 4012   2.111   0.918   4.139
 1038SOL    HW1 4013   2.139   1.012   4.160
 1038SOL    HW2 4014   2.081   0.872   4.223
 1039SOL     OW 4015   3.928   1.669   3.408
 1039SOL    HW1 4016   3.846   1.663   3.465
 1039SOL    HW2 4017   3.912   1.620   3.322
 1040SOL     OW 4018   6.760   4.444   3.173
 1040SOL    HW1 4019   6.663   4.438   3.148
 1040SOL    HW2 4020   6.809   4.367   3.133
 1041SOL     OW 4021   0.542   0.070   4.290
 1041SOL    HW1 4022   0.579   7.018   4.349
 1041SOL    HW2 4023   0.511   0.147   4.346
 1042SOL     OW 4024   5.244   4.139   0.774
 1042SOL    HW1 4025   5.301   4.186   0.842
 1042SOL    HW2 4026   5.187   4.071   0.820
 1043SOL     OW 4027   2.845   1.108   6.653
 1043SOL    HW1 4028   2.792   1.192   6.649
 1043SOL    HW2 4029   2.876   1.084   6.561
 1044SOL     OW 4030   4.211   3.633   1.724
 1044SOL    HW1 4031   4.135   3.576   1.693
 1044SOL    HW2 4032   4.281   3.635   1.654
 1045SOL     OW 4033   3.159   1.558   3.298
 1045SOL    HW1 4034   3.149   1.466   3.337
 1045SOL    HW2 4035   3.251   1.592   3.318
 1046SOL     OW 4036   3.496   1.030   1.909
 1046SOL    HW1 4037   3.441   0.971   1.969
 1046SOL    HW2 4038   3.504   1.121   1.950
 1047SOL     OW 4039   1.172   5.121   2.293
 1047SOL    HW1 4040   1.098   5.108   2.360
 1047SOL    HW2 4041   1.153   5.202   2.238
 1048SOL     OW 4042   5.784   4.426   5.522
 1048SOL    HW1 4043   5.813   4.361   5.451
 1048SOL    HW2 4044   5.827   4.400   5.609
 1049SOL     OW 4045   0.667   3.185   4.776
 1049SOL    HW1 4046   0.655   3.131   4.692
 1049SOL    HW2 4047   0.706   3.274   4.753
 1050SOL     OW 4048   3.332   0.549   6.647
 1050SOL    HW1 4049   3.264   0.595   6.705
 1050SOL    HW2 4050   3.347   0.602   6.564
 1051SOL     OW 4051   4.237   4.636   1.541
 1051SOL    HW1 4052   4.272   4.730   1.541
 1051SOL    HW2 4053   4.184   4.620   1.624
 1052SOL     OW 4054   3.388   7.009   4.442
 1052SOL    HW1 4055   3.373   6.977   4.536
 1052SOL    HW2 4056   3.372   0.088   4.437
 1053SOL     OW 4057   4.043   4.825   3.496
 1053SOL    HW1 4058   4.121   4.763   3.494
 1053SOL    HW2 4059   4.062   4.905   3.438
 1054SOL     OW 4060   3.781   6.178   4.256
 1054SOL    HW1 4061   3.713   6.199   4.327
 1054SOL    HW2 4062   3.761   6.231   4.174
 1055SOL     OW 4063   4.653   5.135   4.956
 1055SOL    HW1 4064   4.658   5.037   4.937
 1055SOL    HW2 4065   4.557   5.165   4.951
 1056SOL     OW 4066   1.059   6.338   4.929
 1056SOL    HW1 4067   1.022   6.402   4.998
 1056SOL    HW2 4068   1.157   6.326   4.944
 1057SOL     OW 4069   3.735   4.052   1.711
 1057SOL    HW1 4070   3.721   3.970   1.765
 1057SOL    HW2 4071   3.661   4.117   1.729
 1058SOL     OW 4072   3.593   1.072   1.285
 1058SOL    HW1 4073   3.582   1.093   1.188
 1058SOL    HW2 4074   3.673   1.014   1.298
 1059SOL     OW 4075   3.155   1.355   1.121
 1059SOL    HW1 4076   3.064   1.378   1.154
 1059SOL    HW2 4077   3.215   1.436   1.128
 1060SOL     OW 4078   2.614   2.492   5.184
 1060SOL    HW1 4079   2.599   2.516   5.088
 1060SOL    HW2 4080   2.604   2.573   5.241
 1061SOL     OW 4081   3.335   6.154   1.505
 1061SOL    HW1 4082   3.346   6.215   1.583
 1061SOL    HW2 4083   3.245   6.169   1.463
 1062SOL     OW 4084   5.090   4.508   5.260
 1062SOL    HW1 4085   5.189   4.504   5.271
 1062SOL    HW2 4086   5.056   4.595   5.294
 1063SOL     OW 4087   1.917   2.761   5.994
 1063SOL    HW1 4088   1.949   2.675   5.955
 1063SOL    HW2 4089   1.957   2.838   5.944
 1064SOL     OW 4090   6.962   3.617   1.492
 1064SOL    HW1 4091   0.035   3.593   1.461
 1064SOL    HW2 4092   6.962   3.629   1.591
 1065SOL     OW 4093   5.959   6.117   5.100
 1065SOL    HW1 4094   5.981   6.141   5.195
 1065SOL    HW2 4095   6.042   6.119   5.045
 1066SOL     OW 4096   3.940   0.662   3.944
 1066SOL    HW1 4097   3.980   0.584   3.992
 1066SOL    HW2 4098   3.902   0.727   4.010
 1067SOL     OW 4099   1.719   3.279   1.402
 1067SOL    HW1 4100   1.664   3.197   1.388
 1067SOL    HW2 4101   1.733   3.295   1.500
 1068SOL     OW 4102   0.692   3.782   1.895
 1068SOL    HW1 4103   0.722   3.697   1.850
 1068SOL    HW2 4104   0.594   3.794   1.881
 1069SOL     OW 4105   3.581   4.064   1.472
 1069SOL    HW1 4106   3.590   4.137   1.540
 1069SOL    HW2 4107   3.562   4.104   1.382
 1070SOL     OW 4108   2.023   0.783   0.003
 1070SOL    HW1 4109   2.031   0.870   0.052
 1070SOL    HW2 4110   2.114   0.746   7.005
 1071SOL     OW 4111   4.115   6.514   3.709
 1071SOL    HW1 4112   4.201   6.557   3.681
 1071SOL    HW2 4113   4.046   6.528   3.637
 1072SOL     OW 4114   3.516   5.873   3.087
 1072SOL    HW1 4115   3.552   5.894   3.178
 1072SOL    HW2 4116   3.549   5.940   3.022
 1073SOL     OW 4117   2.752   4.777   2.763
 1073SOL    HW1 4118   2.838   4.770   2.814
 1073SOL    HW2 4119   2.720   4.685   2.738
 1074SOL     OW 4120   1.528   5.412   2.368
 1074SOL    HW1 4121   1.471   5.393   2.288
 1074SOL    HW2 4122   1.495   5.493   2.414
 1075SOL     OW 4123   0.319   4.205   3.044
 1075SOL    HW1 4124   0.391   4.170   2.984
 1075SOL    HW2 4125   0.354   4.281   3.098
 1076SOL     OW 4126   0.373   5.024   3.514
 1076SOL    HW1 4127   0.291   5.043   3.460
 1076SOL    HW2 4128   0.441   5.096   3.499
 1077SOL     OW 4129   4.793   0.330   0.583
 1077SOL    HW1 4130   4.822   0.311   0.677
 1077SOL    HW2 4131   4.842   0.410   0.550
 1078SOL     OW 4132   1.117   2.080   1.718
 1078SOL    HW1 4133   1.068   2.127   1.645
 1078SOL    HW2 4134   1.056   2.065   1.796
 1079SOL     OW 4135   2.406   5.151   3.034
 1079SOL    HW1 4136   2.355   5.090   2.973
 1079SOL    HW2 4137   2.396   5.120   3.129
 1080SOL     OW 4138   1.633   5.412   3.975
 1080SOL    HW1 4139   1.718   5.462   3.960
 1080SOL    HW2 4140   1.619   5.397   4.073
 1081SOL     OW 4141   1.366   1.089   0.334
 1081SOL    HW1 4142   1.268   1.081   0.352
 1081SOL    HW2 4143   1.410   1.141   0.408
 1082SOL     OW 4144   2.150   0.104   0.057
 1082SOL    HW1 4145   2.093   0.124   0.137
 1082SOL    HW2 4146   2.095   0.056   7.008
 1083SOL     OW 4147   3.895   2.962   1.170
 1083SOL    HW1 4148   3.859   2.902   1.241
 1083SOL    HW2 4149   3.995   2.961   1.173
 1084SOL     OW 4150   6.589   3.870   0.475
 1084SOL    HW1 4151   6.579   3.859   0.376
 1084SOL    HW2 4152   6.518   3.932   0.509
 1085SOL     OW 4153   1.995   4.001   3.766
 1085SOL    HW1 4154   1.941   3.941   3.826
 1085SOL    HW2 4155   2.029   3.948   3.688
 1086SOL     OW 4156   4.289   5.414   1.960
 1086SOL    HW1 4157   4.191   5.409   1.981
 1086SOL    HW2 4158   4.308   5.500   1.913
 1087SOL     OW 4159   4.145   2.655   5.522
 1087SOL    HW1 4160   4.065   2.712   5.503
 1087SOL    HW2 4161   4.227   2.696   5.483
 1088SOL     OW 4162   5.120   3.831   3.407
 1088SOL    HW1 4163   5.026   3.867   3.416
 1088SOL    HW2 4164   5.172   3.855   3.488
 1089SOL     OW 4165   6.118   0.178   3.244
 1089SOL    HW1 4166   6.106   0.269   3.283
 1089SOL    HW2 4167   6.198   0.134   3.285
 1090SOL     OW 4168   0.800   2.170   5.310
 1090SOL    HW1 4169   0.900   2.172   5.320
 1090SOL    HW2 4170   0.761   2.110   5.381
 1091SOL     OW 4171   1.055   2.180   4.652
 1091SOL    HW1 4172   1.118   2.108   4.681
 1091SOL    HW2 4173   1.083   2.267   4.693
 1092SOL     OW 4174   2.307   4.608   1.222
 1092SOL    HW1 4175   2.320   4.706   1.236
 1092SOL    HW2 4176   2.342   4.558   1.302
 1093SOL     OW 4177   0.268   1.669   2.768
 1093SOL    HW1 4178   0.215   1.711   2.842
 1093SOL    HW2 4179   0.341   1.732   2.739
 1094SOL     OW 4180   0.968   6.346   1.650
 1094SOL    HW1 4181   0.884   6.291   1.646
 1094SOL    HW2 4182   0.973   6.391   1.739
 1095SOL     OW 4183   6.572   3.773   5.702
 1095SOL    HW1 4184   6.644   3.826   5.656
 1095SOL    HW2 4185   6.506   3.835   5.744
 1096SOL     OW 4186   3.481   4.223   1.725
 1096SOL    HW1 4187   3.405   4.162   1.747
 1096SOL    HW2 4188   3.448   4.318   1.723
 1097SOL     OW 4189   1.727   4.681   5.314
 1097SOL    HW1 4190   1.734   4.704   5.411
 1097SOL    HW2 4191   1.633   4.697   5.284
 1098SOL     OW 4192   3.997   1.160   3.502
 1098SOL    HW1 4193   4.093   1.176   3.479
 1098SOL    HW2 4194   3.940   1.183   3.423
 1099SOL     OW 4195   3.598   1.455   2.797
 1099SOL    HW1 4196   3.523   1.521   2.794
 1099SOL    HW2 4197   3.566   1.367   2.760
 1100SOL     OW 4198   0.776   0.176   0.973
 1100SOL    HW1 4199   0.861   0.158   0.924
 1100SOL    HW2 4200   0.705   0.200   0.907
 1101SOL     OW 4201   5.370   2.645   0.589
 1101SOL    HW1 4202   5.465   2.655   0.618
 1101SOL    HW2 4203   5.310   2.663   0.667
 1102SOL     OW 4204   0.617   4.831   3.735
 1102SOL    HW1 4205   0.677   4.776   3.678
 1102SOL    HW2 4206   0.564   4.771   3.795
 1103SOL     OW 4207   0.850   3.110   1.435
 1103SOL    HW1 4208   0.944   3.082   1.454
 1103SOL    HW2 4209   0.789   3.032   1.445
 1104SOL     OW 4210   2.828   5.208   5.684
 1104SOL    HW1 4211   2.824   5.191   5.586
 1104SOL    HW2 4212   2.910   5.164   5.722
 1105SOL     OW 4213   4.156   5.603   0.194
 1105SOL    HW1 4214   4.185   5.508   0.188
 1105SOL    HW2 4215   4.122   5.622   0.286
 1106SOL     OW 4216   0.753   2.013   6.177
 1106SOL    HW1 4217   0.765   1.946   6.104
 1106SOL    HW2 4218   0.799   2.099   6.152
 1107SOL     OW 4219   1.355   0.435   1.249
 1107SOL    HW1 4220   1.346   0.492   1.167
 1107SOL    HW2 4221   1.354   0.493   1.330
 1108SOL     OW 4222   0.829   1.894   6.442
 1108SOL    HW1 4223   0.802   1.955   6.368
 1108SOL    HW2 4224   0.880   1.816   6.405
 1109SOL     OW 4225   4.619   1.329   3.928
 1109SOL    HW1 4226   4.544   1.393   3.913
 1109SOL    HW2 4227   4.658   1.343   4.019
 1110SOL     OW 4228   3.932   2.981   1.995
 1110SOL    HW1 4229   3.979   2.968   1.908
 1110SOL    HW2 4230   3.836   2.955   1.985
 1111SOL     OW 4231   5.446   6.875   0.166
 1111SOL    HW1 4232   5.498   6.954   0.134
 1111SOL    HW2 4233   5.456   6.800   0.101
 1112SOL     OW 4234   6.418   1.223   2.903
 1112SOL    HW1 4235   6.471   1.144   2.872
 1112SOL    HW2 4236   6.325   1.195   2.925
 1113SOL     OW 4237   6.107   3.883   1.341
 1113SOL    HW1 4238   6.126   3.880   1.243
 1113SOL    HW2 4239   6.189   3.856   1.392
 1114SOL     OW 4240   5.084   1.735   4.948
 1114SOL    HW1 4241   5.084   1.699   4.854
 1114SOL    HW2 4242   5.150   1.809   4.955
 1115SOL     OW 4243   2.243   3.248   0.676
 1115SOL    HW1 4244   2.271   3.173   0.735
 1115SOL    HW2 4245   2.209   3.323   0.732
 1116SOL     OW 4246   4.168   5.566   5.068
 1116SOL    HW1 4247   4.201   5.533   4.979
 1116SOL    HW2 4248   4.110   5.496   5.110
 1117SOL     OW 4249   2.884   3.291   0.985
 1117SOL    HW1 4250   2.942   3.216   1.019
 1117SOL    HW2 4251   2.801   3.253   0.946
 1118SOL     OW 4252   1.897   3.737   3.350
 1118SOL    HW1 4253   1.945   3.661   3.394
 1118SOL    HW2 4254   1.801   3.735   3.376
 1119SOL     OW 4255   3.313   4.133   2.352
 1119SOL    HW1 4256   3.277   4.125   2.259
 1119SOL    HW2 4257   3.317   4.230   2.377
 1120SOL     OW 4258   4.192   0.516   4.555
 1120SOL    HW1 4259   4.241   0.573   4.489
 1120SOL    HW2 4260   4.131   0.574   4.609
 1121SOL     OW 4261   5.410   3.216   2.213
 1121SOL    HW1 4262   5.379   3.289   2.153
 1121SOL    HW2 4263   5.500   3.184   2.182
 1122SOL     OW 4264   5.041   4.716   0.050
 1122SOL    HW1 4265   4.957   4.677   0.087
 1122SOL    HW2 4266   5.076   4.656   6.997
 1123SOL     OW 4267   3.571   0.828   1.677
 1123SOL    HW1 4268   3.477   0.821   1.644
 1123SOL    HW2 4269   3.580   0.909   1.735
 1124SOL     OW 4270   1.223   4.639   4.558
 1124SOL    HW1 4271   1.258   4.644   4.652
 1124SOL    HW2 4272   1.154   4.711   4.545
 1125SOL     OW 4273   4.102   3.322   4.880
 1125SOL    HW1 4274   4.064   3.237   4.844
 1125SOL    HW2 4275   4.130   3.381   4.803
 1126SOL     OW 4276   5.762   0.116   2.394
 1126SOL    HW1 4277   5.740   0.204   2.436
 1126SOL    HW2 4278   5.835   0.072   2.447
 1127SOL     OW 4279   1.584   4.605   6.920
 1127SOL    HW1 4280   1.496   4.581   6.961
 1127SOL    HW2 4281   1.573   4.613   6.821
 1128SOL     OW 4282   3.089   1.537   4.936
 1128SOL    HW1 4283   3.001   1.582   4.950
 1128SOL    HW2 4284   3.151   1.599   4.889
 1129SOL     OW 4285   5.207   0.023   0.120
 1129SOL    HW1 4286   5.268   0.096   0.089
 1129SOL    HW2 4287   5.261   6.969   0.160
 1130SOL     OW 4288   0.349   5.139   5.860
 1130SOL    HW1 4289   0.268   5.173   5.908
 1130SOL    HW2 4290   0.429   5.148   5.920
 1131SOL     OW 4291   0.704   5.315   6.070
 1131SOL    HW1 4292   0.766   5.294   5.995
 1131SOL    HW2 4293   0.643   5.390   6.044
 1132SOL     OW 4294   4.918   0.311   5.962
 1132SOL    HW1 4295   4.857   0.330   6.038
 1132SOL    HW2 4296   4.943   0.214   5.962
 1133SOL     OW 4297   0.673   2.878   0.835
 1133SOL    HW1 4298   0.764   2.900   0.801
 1133SOL    HW2 4299   0.623   2.963   0.855
 1134SOL     OW 4300   6.388   3.050   5.619
 1134SOL    HW1 4301   6.370   3.139   5.577
 1134SOL    HW2 4302   6.467   3.058   5.680
 1135SOL     OW 4303   4.944   1.514   3.405
 1135SOL    HW1 4304   4.927   1.416   3.407
 1135SOL    HW2 4305   4.977   1.540   3.314
 1136SOL     OW 4306   3.727   5.371   4.287
 1136SOL    HW1 4307   3.690   5.314   4.213
 1136SOL    HW2 4308   3.809   5.327   4.324
 1137SOL     OW 4309   1.714   1.326   5.959
 1137SOL    HW1 4310   1.617   1.310   5.979
 1137SOL    HW2 4311   1.736   1.422   5.975
 1138SOL     OW 4312   0.700   4.328   5.697
 1138SOL    HW1 4313   0.765   4.401   5.714
 1138SOL    HW2 4314   0.743   4.257   5.642
 1139SOL     OW 4315   1.300   6.735   1.817
 1139SOL    HW1 4316   1.313   6.663   1.885
 1139SOL    HW2 4317   1.387   6.754   1.772
 1140SOL     OW 4318   3.354   1.736   3.718
 1140SOL    HW1 4319   3.324   1.659   3.663
 1140SOL    HW2 4320   3.280   1.765   3.778
 1141SOL     OW 4321   6.432   5.773   5.952
 1141SOL    HW1 4322   6.332   5.767   5.953
 1141SOL    HW2 4323   6.462   5.849   6.010
 1142SOL     OW 4324   6.066   0.992   3.848
 1142SOL    HW1 4325   6.024   1.003   3.758
 1142SOL    HW2 4326   6.013   0.926   3.901
 1143SOL     OW 4327   4.530   1.435   2.740
 1143SOL    HW1 4328   4.513   1.523   2.695
 1143SOL    HW2 4329   4.599   1.447   2.811
 1144SOL     OW 4330   0.348   6.348   5.038
 1144SOL    HW1 4331   0.447   6.358   5.033
 1144SOL    HW2 4332   0.323   6.252   5.020
 1145SOL     OW 4333   1.169   4.900   5.518
 1145SOL    HW1 4334   1.172   4.876   5.421
 1145SOL    HW2 4335   1.170   4.999   5.528
 1146SOL     OW 4336   5.903   2.167   0.800
 1146SOL    HW1 4337   5.806   2.183   0.818
 1146SOL    HW2 4338   5.954   2.176   0.886
 1147SOL     OW 4339   6.393   2.499   1.734
 1147SOL    HW1 4340   6.468   2.435   1.719
 1147SOL    HW2 4341   6.355   2.526   1.646
 1148SOL     OW 4342   4.579   0.538   0.219
 1148SOL    HW1 4343   4.611   0.614   0.163
 1148SOL    HW2 4344   4.610   0.552   0.313
 1149SOL     OW 4345   0.374   3.535   2.843
 1149SOL    HW1 4346   0.338   3.612   2.896
 1149SOL    HW2 4347   0.303   3.500   2.782
 1150SOL     OW 4348   1.227   4.663   6.325
 1150SOL    HW1 4349   1.303   4.722   6.353
 1150SOL    HW2 4350   1.217   4.668   6.225
 1151SOL     OW 4351   4.775   5.439   0.148
 1151SOL    HW1 4352   4.741   5.355   0.191
 1151SOL    HW2 4353   4.818   5.416   0.061
 1152SOL     OW 4354   0.372   0.772   5.059
 1152SOL    HW1 4355   0.281   0.811   5.073
 1152SOL    HW2 4356   0.369   0.674   5.079
 1153SOL     OW 4357   2.198   5.374   2.772
 1153SOL    HW1 4358   2.151   5.317   2.705
 1153SOL    HW2 4359   2.291   5.393   2.740
 1154SOL     OW 4360   1.860   4.912   2.138
 1154SOL    HW1 4361   1.775   4.867   2.109
 1154SOL    HW2 4362   1.902   4.860   2.213
 1155SOL     OW 4363   3.043   5.836   1.754
 1155SOL    HW1 4364   3.003   5.922   1.787
 1155SOL    HW2 4365   2.972   5.781   1.711
 1156SOL     OW 4366   1.830   1.025   4.138
 1156SOL    HW1 4367   1.772   0.982   4.070
 1156SOL    HW2 4368   1.912   0.970   4.152
 1157SOL     OW 4369   1.410   1.774   4.091
 1157SOL    HW1 4370   1.506   1.788   4.066
 1157SOL    HW2 4371   1.382   1.682   4.064
 1158SOL     OW 4372   4.530   5.173   5.641
 1158SOL    HW1 4373   4.624   5.197   5.615
 1158SOL    HW2 4374   4.513   5.077   5.618
 1159SOL     OW 4375   5.156   5.158   3.114
 1159SOL    HW1 4376   5.203   5.115   3.191
 1159SOL    HW2 4377   5.083   5.098   3.082
 1160SOL     OW 4378   2.866   2.934   0.744
 1160SOL    HW1 4379   2.918   2.953   0.828
 1160SOL    HW2 4380   2.896   2.995   0.671
 1161SOL     OW 4381   4.231   0.102   4.189
 1161SOL    HW1 4382   4.219   0.196   4.222
 1161SOL    HW2 4383   4.154   0.046   4.220
 1162SOL     OW 4384   3.683   4.421   1.640
 1162SOL    HW1 4385   3.718   4.337   1.681
 1162SOL    HW2 4386   3.584   4.417   1.635
 1163SOL     OW 4387   4.492   2.131   2.581
 1163SOL    HW1 4388   4.467   2.198   2.650
 1163SOL    HW2 4389   4.435   2.144   2.500
 1164SOL     OW 4390   6.115   3.265   3.885
 1164SOL    HW1 4391   6.201   3.275   3.836
 1164SOL    HW2 4392   6.054   3.341   3.863
 1165SOL     OW 4393   1.434   4.838   1.802
 1165SOL    HW1 4394   1.410   4.919   1.747
 1165SOL    HW2 4395   1.419   4.857   1.899
 1166SOL     OW 4396   3.907   3.005   6.323
 1166SOL    HW1 4397   3.923   2.964   6.233
 1166SOL    HW2 4398   3.966   2.960   6.390
 1167SOL     OW 4399   4.500   1.711   4.615
 1167SOL    HW1 4400   4.515   1.793   4.559
 1167SOL    HW2 4401   4.488   1.738   4.711
 1168SOL     OW 4402   6.304   5.941   3.628
 1168SOL    HW1 4403   6.341   6.031   3.607
 1168SOL    HW2 4404   6.205   5.941   3.615
 1169SOL     OW 4405   1.068   3.583   1.972
 1169SOL    HW1 4406   1.037   3.506   2.027
 1169SOL    HW2 4407   1.051   3.668   2.020
 1170SOL     OW 4408   2.710   0.491   0.644
 1170SOL    HW1 4409   2.643   0.430   0.601
 1170SOL    HW2 4410   2.802   0.452   0.633
 1171SOL     OW 4411   2.480   6.874   0.350
 1171SOL    HW1 4412   2.452   6.920   0.266
 1171SOL    HW2 4413   2.579   6.863   0.352
 1172SOL     OW 4414   3.294   3.338   5.077
 1172SOL    HW1 4415   3.351   3.386   5.145
 1172SOL    HW2 4416   3.325   3.362   4.985
 1173SOL     OW 4417   4.779   0.841   6.199
 1173SOL    HW1 4418   4.764   0.897   6.118
 1173SOL    HW2 4419   4.861   0.873   6.247
 1174SOL     OW 4420   3.264   6.630   1.145
 1174SOL    HW1 4421   3.189   6.575   1.182
 1174SOL    HW2 4422   3.332   6.569   1.104
 1175SOL     OW 4423   6.200   5.128   5.091
 1175SOL    HW1 4424   6.146   5.190   5.148
 1175SOL    HW2 4425   6.188   5.034   5.123
 1176SOL     OW 4426   6.484   3.737   0.920
 1176SOL    HW1 4427   6.578   3.733   0.886
 1176SOL    HW2 4428   6.423   3.764   0.846
 1177SOL     OW 4429   6.689   3.057   0.034
 1177SOL    HW1 4430   6.752   3.134   0.044
 1177SOL    HW2 4431   6.701   2.994   0.110
 1178SOL     OW 4432   5.597   4.001   2.023
 1178SOL    HW1 4433   5.695   4.021   2.019
 1178SOL    HW2 4434   5.555   4.025   1.936
 1179SOL     OW 4435   2.519   5.965   6.772
 1179SOL    HW1 4436   2.440   5.909   6.796
 1179SOL    HW2 4437   2.569   5.922   6.697
 1180SOL     OW 4438   2.583   1.620   4.057
 1180SOL    HW1 4439   2.617   1.638   4.150
 1180SOL    HW2 4440   2.487   1.645   4.052
 1181SOL     OW 4441   2.381   4.334   2.900
 1181SOL    HW1 4442   2.366   4.270   2.976
 1181SOL    HW2 4443   2.404   4.424   2.937
 1182SOL     OW 4444   1.502   4.864   2.869
 1182SOL    HW1 4445   1.456   4.839   2.784
 1182SOL    HW2 4446   1.440   4.849   2.946
 1183SOL     OW 4447   4.698   5.581   1.068
 1183SOL    HW1 4448   4.651   5.502   1.108
 1183SOL    HW2 4449   4.784   5.552   1.027
 1184SOL     OW 4450   3.151   2.973   5.586
 1184SOL    HW1 4451   3.208   2.906   5.538
 1184SOL    HW2 4452   3.125   2.937   5.675
 1185SOL     OW 4453   2.162   1.942   0.184
 1185SOL    HW1 4454   2.214   1.953   0.268
 1185SOL    HW2 4455   2.064   1.949   0.205
 1186SOL     OW 4456   3.851   0.879   5.180
 1186SOL    HW1 4457   3.755   0.897   5.204
 1186SOL    HW2 4458   3.885   0.952   5.121
 1187SOL     OW 4459   0.266   0.971   5.283
 1187SOL    HW1 4460   0.308   1.040   5.223
 1187SOL    HW2 4461   0.190   0.927   5.236
 1188SOL     OW 4462   1.209   0.058   5.647
 1188SOL    HW1 4463   1.307   0.073   5.634
 1188SOL    HW2 4464   1.160   0.082   5.563
 1189SOL     OW 4465   6.936   0.953   1.689
 1189SOL    HW1 4466   6.993   1.024   1.647
 1189SOL    HW2 4467   6.840   0.971   1.667
 1190SOL     OW 4468   4.447   4.713   3.009
 1190SOL    HW1 4469   4.366   4.734   2.954
 1190SOL    HW2 4470   4.514   4.787   3.000
 1191SOL     OW 4471   3.746   4.805   6.700
 1191SOL    HW1 4472   3.808   4.758   6.637
 1191SOL    HW2 4473   3.784   4.802   6.793
 1192SOL     OW 4474   4.590   4.843   2.375
 1192SOL    HW1 4475   4.571   4.897   2.292
 1192SOL    HW2 4476   4.517   4.777   2.390
 1193SOL     OW 4477   4.324   6.673   3.887
 1193SOL    HW1 4478   4.351   6.577   3.882
 1193SOL    HW2 4479   4.317   6.700   3.983
 1194SOL     OW 4480   6.275   0.210   1.111
 1194SOL    HW1 4481   6.330   0.139   1.155
 1194SOL    HW2 4482   6.246   0.277   1.180
 1195SOL     OW 4483   3.893   0.574   6.785
 1195SOL    HW1 4484   3.914   0.661   6.739
 1195SOL    HW2 4485   3.835   0.591   6.864
 1196SOL     OW 4486   6.937   5.415   2.243
 1196SOL    HW1 4487   6.912   5.323   2.275
 1196SOL    HW2 4488   6.953   5.412   2.144
 1197SOL     OW 4489   3.383   5.561   6.147
 1197SOL    HW1 4490   3.417   5.467   6.148
 1197SOL    HW2 4491   3.283   5.561   6.142
 1198SOL     OW 4492   3.212   1.276   2.846
 1198SOL    HW1 4493   3.250   1.311   2.932
 1198SOL    HW2 4494   3.119   1.311   2.834
 1199SOL     OW 4495   3.709   4.117   3.444
 1199SOL    HW1 4496   3.619   4.129   3.487
 1199SOL    HW2 4497   3.702   4.133   3.346
 1200SOL     OW 4498   3.821   4.193   0.188
 1200SOL    HW1 4499   3.823   4.249   0.105
 1200SOL    HW2 4500   3.728   4.191   0.225
 1201SOL     OW 4501   1.243   0.907   4.593
 1201SOL    HW1 4502   1.146   0.932   4.588
 1201SOL    HW2 4503   1.299   0.980   4.553
 1202SOL     OW 4504   5.968   0.352   4.880
 1202SOL    HW1 4505   6.047   0.378   4.935
 1202SOL    HW2 4506   5.968   0.253   4.867
 1203SOL     OW 4507   5.908   0.030   1.876
 1203SOL    HW1 4508   5.927   0.023   1.974
 1203SOL    HW2 4509   5.811   0.014   1.859
 1204SOL     OW 4510   2.949   0.485   0.262
 1204SOL    HW1 4511   2.927   0.494   0.359
 1204SOL    HW2 4512   2.885   0.540   0.209
 1205SOL     OW 4513   0.393   2.410   4.793
 1205SOL    HW1 4514   0.309   2.416   4.740
 1205SOL    HW2 4515   0.372   2.376   4.885
 1206SOL     OW 4516   0.803   1.496   4.584
 1206SOL    HW1 4517   0.780   1.420   4.646
 1206SOL    HW2 4518   0.773   1.474   4.491
 1207SOL     OW 4519   5.642   6.008   6.726
 1207SOL    HW1 4520   5.561   5.949   6.727
 1207SOL    HW2 4521   5.673   6.023   6.820
 1208SOL     OW 4522   3.898   3.977   3.607
 1208SOL    HW1 4523   3.957   3.938   3.538
 1208SOL    HW2 4524   3.831   4.037   3.564
 1209SOL     OW 4525   6.297   5.044   4.548
 1209SOL    HW1 4526   6.345   4.980   4.607
 1209SOL    HW2 4527   6.200   5.020   4.543
 1210SOL     OW 4528   2.916   6.758   2.675
 1210SOL    HW1 4529   2.906   6.660   2.690
 1210SOL    HW2 4530   2.975   6.774   2.596
 1211SOL     OW 4531   1.029   3.244   4.307
 1211SOL    HW1 4532   0.996   3.338   4.314
 1211SOL    HW2 4533   1.085   3.234   4.225
 1212SOL     OW 4534   2.099   4.113   4.917
 1212SOL    HW1 4535   2.099   4.213   4.911
 1212SOL    HW2 4536   2.182   4.083   4.964
 1213SOL     OW 4537   5.884   3.117   5.337
 1213SOL    HW1 4538   5.884   3.080   5.430
 1213SOL    HW2 4539   5.884   3.217   5.341
 1214SOL     OW 4540   2.110   2.591   3.177
 1214SOL    HW1 4541   2.076   2.595   3.271
 1214SOL    HW2 4542   2.038   2.556   3.118
 1215SOL     OW 4543   0.399   5.092   1.794
 1215SOL    HW1 4544   0.469   5.137   1.738
 1215SOL    HW2 4545   0.372   5.007   1.750
 1216SOL     OW 4546   2.926   0.343   1.856
 1216SOL    HW1 4547   2.910   0.290   1.772
 1216SOL    HW2 4548   3.021   0.330   1.886
 1217SOL     OW 4549   1.554   1.334   2.753
 1217SOL    HW1 4550   1.468   1.309   2.707
 1217SOL    HW2 4551   1.555   1.295   2.845
 1218SOL     OW 4552   0.540   3.606   4.091
 1218SOL    HW1 4553   0.514   3.598   4.187
 1218SOL    HW2 4554   0.530   3.701   4.062
 1219SOL     OW 4555   2.836   6.107   3.090
 1219SOL    HW1 4556   2.894   6.066   3.019
 1219SOL    HW2 4557   2.806   6.198   3.059
 1220SOL     OW 4558   7.007   4.324   2.743
 1220SOL    HW1 4559   7.003   4.409   2.796
 1220SOL    HW2 4560   7.019   4.246   2.804
 1221SOL     OW 4561   5.059   3.137   6.961
 1221SOL    HW1 4562   4.996   3.137   6.884
 1221SOL    HW2 4563   5.013   3.103   0.023
 1222SOL     OW 4564   6.254   6.278   0.844
 1222SOL    HW1 4565   6.273   6.376   0.835
 1222SOL    HW2 4566   6.165   6.258   0.804
 1223SOL     OW 4567   5.920   5.826   5.261
 1223SOL    HW1 4568   5.866   5.888   5.204
 1223SOL    HW2 4569   5.961   5.876   5.337
 1224SOL     OW 4570   5.351   4.761   2.101
 1224SOL    HW1 4571   5.389   4.798   2.186
 1224SOL    HW2 4572   5.254   4.742   2.113
 1225SOL     OW 4573   5.101   1.275   0.399
 1225SOL    HW1 4574   5.148   1.275   0.487
 1225SOL    HW2 4575   5.033   1.202   0.398
 1226SOL     OW 4576   5.234   4.564   0.289
 1226SOL    HW1 4577   5.203   4.626   0.216
 1226SOL    HW2 4578   5.179   4.481   0.288
 1227SOL     OW 4579   5.193   4.586   6.862
 1227SOL    HW1 4580   5.235   4.663   6.815
 1227SOL    HW2 4581   5.149   4.525   6.795
 1228SOL     OW 4582   3.579   3.472   4.229
 1228SOL    HW1 4583   3.485   3.491   4.200
 1228SOL    HW2 4584   3.622   3.410   4.163
 1229SOL     OW 4585   1.992   5.761   3.010
 1229SOL    HW1 4586   1.951   5.851   3.026
 1229SOL    HW2 4587   2.038   5.760   2.921
 1230SOL     OW 4588   5.406   4.892   1.677
 1230SOL    HW1 4589   5.400   4.927   1.771
 1230SOL    HW2 4590   5.494   4.919   1.638
 1231SOL     OW 4591   1.992   1.898   7.001
 1231SOL    HW1 4592   1.926   1.969   0.008
 1231SOL    HW2 4593   2.078   1.913   0.031
 1232SOL     OW 4594   2.845   0.886   5.104
 1232SOL    HW1 4595   2.768   0.893   5.042
 1232SOL    HW2 4596   2.821   0.827   5.181
 1233SOL     OW 4597   0.473   5.140   5.147
 1233SOL    HW1 4598   0.421   5.224   5.136
 1233SOL    HW2 4599   0.551   5.156   5.208
 1234SOL     OW 4600   6.801   3.677   0.060
 1234SOL    HW1 4601   6.864   3.609   0.022
 1234SOL    HW2 4602   6.764   3.733   7.007
 1235SOL     OW 4603   6.194   4.817   1.090
 1235SOL    HW1 4604   6.204   4.725   1.129
 1235SOL    HW2 4605   6.210   4.813   0.991
 1236SOL     OW 4606   1.544   1.710   2.723
 1236SOL    HW1 4607   1.582   1.666   2.805
 1236SOL    HW2 4608   1.473   1.775   2.750
 1237SOL     OW 4609   0.497   6.781   5.431
 1237SOL    HW1 4610   0.418   6.841   5.447
 1237SOL    HW2 4611   0.502   6.713   5.504
 1238SOL     OW 4612   0.997   0.662   4.329
 1238SOL    HW1 4613   0.898   0.648   4.337
 1238SOL    HW2 4614   1.038   0.580   4.288
 1239SOL     OW 4615   5.109   4.886   4.422
 1239SOL    HW1 4616   5.057   4.945   4.484
 1239SOL    HW2 4617   5.188   4.937   4.387
 1240SOL     OW 4618   0.808   4.115   2.346
 1240SOL    HW1 4619   0.861   4.082   2.425
 1240SOL    HW2 4620   0.756   4.039   2.308
 1241SOL     OW 4621   4.106   4.944   5.113
 1241SOL    HW1 4622   4.006   4.944   5.102
 1241SOL    HW2 4623   4.131   5.010   5.184
 1242SOL     OW 4624   2.349   4.694   0.819
 1242SOL    HW1 4625   2.376   4.607   0.860
 1242SOL    HW2 4626   2.250   4.703   0.821
 1243SOL     OW 4627   0.832   4.213   5.008
 1243SOL    HW1 4628   0.833   4.306   4.972
 1243SOL    HW2 4629   0.781   4.153   4.946
 1244SOL     OW 4630   5.883   0.351   5.420
 1244SOL    HW1 4631   5.824   0.346   5.340
 1244SOL    HW2 4632   5.827   0.355   5.503
 1245SOL     OW 4633   4.498   5.982   1.237
 1245SOL    HW1 4634   4.511   6.037   1.154
 1245SOL    HW2 4635   4.404   5.992   1.269
 1246SOL     OW 4636   5.008   0.768   0.239
 1246SOL    HW1 4637   4.942   0.785   0.312
 1246SOL    HW2 4638   5.069   0.847   0.230
 1247SOL     OW 4639   6.628   0.211   2.790
 1247SOL    HW1 4640   6.637   0.117   2.756
 1247SOL    HW2 4641   6.714   0.260   2.778
 1248SOL     OW 4642   1.321   6.393   4.980
 1248SOL    HW1 4643   1.294   6.489   4.977
 1248SOL    HW2 4644   1.412   6.386   5.022
 1249SOL     OW 4645   5.292   5.641   6.256
 1249SOL    HW1 4646   5.214   5.680   6.208
 1249SOL    HW2 4647   5.310   5.694   6.339
 1250SOL     OW 4648   6.869   3.310   4.963
 1250SOL    HW1 4649   6.861   3.262   4.876
 1250SOL    HW2 4650   6.795   3.282   5.023
 1251SOL     OW 4651   2.836   1.110   2.706
 1251SOL    HW1 4652   2.788   1.053   2.639
 1251SOL    HW2 4653   2.920   1.063   2.735
 1252SOL     OW 4654   1.893   6.036   6.355
 1252SOL    HW1 4655   1.888   6.077   6.264
 1252SOL    HW2 4656   1.987   6.007   6.372
 1253SOL     OW 4657   3.047   6.913   0.094
 1253SOL    HW1 4658   3.029   6.838   0.157
 1253SOL    HW2 4659   3.052   6.878   0.001
 1254SOL     OW 4660   5.818   0.310   2.920
 1254SOL    HW1 4661   5.864   0.232   2.962
 1254SOL    HW2 4662   5.801   0.381   2.988
 1255SOL     OW 4663   5.211   1.456   5.530
 1255SOL    HW1 4664   5.254   1.481   5.444
 1255SOL    HW2 4665   5.119   1.420   5.513
 1256SOL     OW 4666   0.357   5.550   4.590
 1256SOL    HW1 4667   0.405   5.582   4.672
 1256SOL    HW2 4668   0.409   5.576   4.508
 1257SOL     OW 4669   0.927   6.285   3.595
 1257SOL    HW1 4670   0.886   6.224   3.528
 1257SOL    HW2 4671   1.010   6.244   3.632
 1258SOL     OW 4672   4.282   6.169   5.947
 1258SOL    HW1 4673   4.274   6.217   5.860
 1258SOL    HW2 4674   4.267   6.071   5.932
 1259SOL     OW 4675   5.525   0.575   5.427
 1259SOL    HW1 4676   5.616   0.617   5.437
 1259SOL    HW2 4677   5.483   0.607   5.342
 1260SOL     OW 4678   2.718   1.393   1.338
 1260SOL    HW1 4679   2.750   1.301   1.319
 1260SOL    HW2 4680   2.787   1.442   1.393
 1261SOL     OW 4681   6.580   4.321   5.424
 1261SOL    HW1 4682   6.543   4.403   5.469
 1261SOL    HW2 4683   6.635   4.269   5.489
 1262SOL     OW 4684   4.134   4.809   1.138
 1262SOL    HW1 4685   4.068   4.752   1.088
 1262SOL    HW2 4686   4.176   4.755   1.211
 1263SOL     OW 4687   6.466   2.087   1.014
 1263SOL    HW1 4688   6.503   2.165   0.964
 1263SOL    HW2 4689   6.541   2.032   1.050
 1264SOL     OW 4690   0.294   3.134   4.182
 1264SOL    HW1 4691   0.316   3.048   4.137
 1264SOL    HW2 4692   0.278   3.205   4.113
 1265SOL     OW 4693   6.925   5.716   4.778
 1265SOL    HW1 4694   6.916   5.668   4.866
 1265SOL    HW2 4695   6.980   5.661   4.716
 1266SOL     OW 4696   1.825   1.489   4.779
 1266SOL    HW1 4697   1.789   1.573   4.821
 1266SOL    HW2 4698   1.775   1.470   4.695
 1267SOL     OW 4699   6.345   4.961   2.257
 1267SOL    HW1 4700   6.322   5.010   2.341
 1267SOL    HW2 4701   6.291   4.997   2.181
 1268SOL     OW 4702   6.518   3.409   7.005
 1268SOL    HW1 4703   6.529   3.375   0.078
 1268SOL    HW2 4704   6.591   3.373   6.947
 1269SOL     OW 4705   6.876   5.531   6.032
 1269SOL    HW1 4706   6.795   5.574   5.991
 1269SOL    HW2 4707   6.876   5.434   6.010
 1270SOL     OW 4708   1.625   2.559   4.925
 1270SOL    HW1 4709   1.586   2.472   4.957
 1270SOL    HW2 4710   1.591   2.634   4.983
 1271SOL     OW 4711   5.171   1.954   2.940
 1271SOL    HW1 4712   5.118   2.020   2.994
 1271SOL    HW2 4713   5.135   1.862   2.957
 1272SOL     OW 4714   0.516   6.068   1.781
 1272SOL    HW1 4715   0.463   6.122   1.716
 1272SOL    HW2 4716   0.469   6.068   1.870
 1273SOL     OW 4717   2.755   6.770   6.413
 1273SOL    HW1 4718   2.747   6.674   6.442
 1273SOL    HW2 4719   2.692   6.787   6.337
 1274SOL     OW 4720   6.508   2.816   1.691
 1274SOL    HW1 4721   6.587   2.765   1.726
 1274SOL    HW2 4722   6.512   2.910   1.724
 1275SOL     OW 4723   3.669   1.503   4.061
 1275SOL    HW1 4724   3.575   1.474   4.041
 1275SOL    HW2 4725   3.717   1.522   3.975
 1276SOL     OW 4726   6.302   0.285   3.602
 1276SOL    HW1 4727   6.280   0.376   3.565
 1276SOL    HW2 4728   6.400   0.281   3.623
 1277SOL     OW 4729   0.320   1.152   5.084
 1277SOL    HW1 4730   0.230   1.195   5.072
 1277SOL    HW2 4731   0.357   1.126   4.995
 1278SOL     OW 4732   2.508   1.674   5.548
 1278SOL    HW1 4733   2.564   1.707   5.472
 1278SOL    HW2 4734   2.413   1.667   5.518
 1279SOL     OW 4735   2.589   5.291   6.798
 1279SOL    HW1 4736   2.531   5.371   6.783
 1279SOL    HW2 4737   2.658   5.312   6.868
 1280SOL     OW 4738   1.873   6.528   3.538
 1280SOL    HW1 4739   1.800   6.543   3.605
 1280SOL    HW2 4740   1.884   6.430   3.521
 1281SOL     OW 4741   1.110   6.802   3.625
 1281SOL    HW1 4742   1.100   6.883   3.567
 1281SOL    HW2 4743   1.021   6.776   3.663
 1282SOL     OW 4744   1.169   0.434   2.176
 1282SOL    HW1 4745   1.153   0.335   2.178
 1282SOL    HW2 4746   1.163   0.470   2.269
 1283SOL     OW 4747   5.238   5.356   5.945
 1283SOL    HW1 4748   5.252   5.401   6.033
 1283SOL    HW2 4749   5.314   5.377   5.884
 1284SOL     OW 4750   2.348   2.220   1.763
 1284SOL    HW1 4751   2.256   2.239   1.798
 1284SOL    HW2 4752   2.343   2.193   1.667
 1285SOL     OW 4753   4.685   2.164   5.546
 1285SOL    HW1 4754   4.606   2.215   5.579
 1285SOL    HW2 4755   4.767   2.220   5.558
 1286SOL     OW 4756   6.181   5.335   1.765
 1286SOL    HW1 4757   6.139   5.332   1.675
 1286SOL    HW2 4758   6.111   5.355   1.834
 1287SOL     OW 4759   0.036   4.764   6.158
 1287SOL    HW1 4760   7.001   4.785   6.239
 1287SOL    HW2 4761   0.037   4.665   6.143
 1288SOL     OW 4762   6.711   2.953   2.362
 1288SOL    HW1 4763   6.633   2.966   2.423
 1288SOL    HW2 4764   6.679   2.946   2.267
 1289SOL     OW 4765   6.514   6.214   2.711
 1289SOL    HW1 4766   6.483   6.276   2.639
 1289SOL    HW2 4767   6.556   6.133   2.671
 1290SOL     OW 4768   0.635   6.564   1.583
 1290SOL    HW1 4769   0.565   6.555   1.653
 1290SOL    HW2 4770   0.717   6.606   1.623
 1291SOL     OW 4771   2.374   6.588   0.487
 1291SOL    HW1 4772   2.292   6.532   0.492
 1291SOL    HW2 4773   2.356   6.679   0.524
 1292SOL     OW 4774   1.117   5.955   0.733
 1292SOL    HW1 4775   1.124   5.869   0.684
 1292SOL    HW2 4776   1.123   6.031   0.669
 1293SOL     OW 4777   0.008   2.707   5.799
 1293SOL    HW1 4778   6.967   2.783   5.777
 1293SOL    HW2 4779   0.081   2.702   5.732
 1294SOL     OW 4780   0.312   2.142   2.542
 1294SOL    HW1 4781   0.360   2.137   2.454
 1294SOL    HW2 4782   0.217   2.168   2.527
 1295SOL     OW 4783   6.238   2.843   1.707
 1295SOL    HW1 4784   6.323   2.792   1.718
 1295SOL    HW2 4785   6.161   2.779   1.714
 1296SOL     OW 4786   3.842   2.356   6.177
 1296SOL    HW1 4787   3.782   2.313   6.110
 1296SOL    HW2 4788   3.798   2.439   6.212
 1297SOL     OW 4789   6.548   1.496   5.844
 1297SOL    HW1 4790   6.633   1.485   5.791
 1297SOL    HW2 4791   6.474   1.521   5.782
 1298SOL     OW 4792   5.499   3.231   3.553
 1298SOL    HW1 4793   5.521   3.328   3.550
 1298SOL    HW2 4794   5.408   3.219   3.591
 1299SOL     OW 4795   1.108   3.996   3.702
 1299SOL    HW1 4796   1.026   3.959   3.746
 1299SOL    HW2 4797   1.177   4.016   3.771
 1300SOL     OW 4798   3.010   3.489   1.410
 1300SOL    HW1 4799   3.086   3.553   1.403
 1300SOL    HW2 4800   3.020   3.417   1.341
 1301SOL     OW 4801   0.499   0.048   2.950
 1301SOL    HW1 4802   0.576   0.076   2.893
 1301SOL    HW2 4803   0.417   0.040   2.893
 1302SOL     OW 4804   2.821   5.761   5.046
 1302SOL    HW1 4805   2.899   5.763   4.984
 1302SOL    HW2 4806   2.744   5.714   5.002
 1303SOL     OW 4807   3.861   1.505   1.284
 1303SOL    HW1 4808   3.935   1.506   1.216
 1303SOL    HW2 4809   3.867   1.422   1.339
 1304SOL     OW 4810   2.587   0.792   6.755
 1304SOL    HW1 4811   2.500   0.750   6.730
 1304SOL    HW2 4812   2.598   0.879   6.707
 1305SOL     OW 4813   4.726   6.768   4.917
 1305SOL    HW1 4814   4.630   6.795   4.929
 1305SOL    HW2 4815   4.739   6.730   4.826
 1306SOL     OW 4816   1.190   4.616   3.939
 1306SOL    HW1 4817   1.245   4.678   3.884
 1306SOL    HW2 4818   1.131   4.669   4.000
 1307SOL     OW 4819   1.632   1.878   4.779
 1307SOL    HW1 4820   1.691   1.954   4.751
 1307SOL    HW2 4821   1.689   1.807   4.821
 1308SOL     OW 4822   4.966   6.210   2.867
 1308SOL    HW1 4823   5.058   6.171   2.876
 1308SOL    HW2 4824   4.898   6.137   2.872
 1309SOL     OW 4825   5.213   3.077   4.553
 1309SOL    HW1 4826   5.306   3.042   4.558
 1309SOL    HW2 4827   5.168   3.067   4.641
 1310SOL     OW 4828   4.911   3.682   5.302
 1310SOL    HW1 4829   4.853   3.684   5.384
 1310SOL    HW2 4830   4.871   3.618   5.235
 1311SOL     OW 4831   5.148   5.920   5.243
 1311SOL    HW1 4832   5.059   5.967   5.237
 1311SOL    HW2 4833   5.137   5.834   5.295
 1312SOL     OW 4834   0.788   6.578   1.000
 1312SOL    HW1 4835   0.868   6.544   0.950
 1312SOL    HW2 4836   0.746   6.654   0.950
 1313SOL     OW 4837   3.444   5.137   5.259
 1313SOL    HW1 4838   3.448   5.098   5.167
 1313SOL    HW2 4839   3.506   5.087   5.319
 1314SOL     OW 4840   6.170   1.780   4.420
 1314SOL    HW1 4841   6.072   1.788   4.401
 1314SOL    HW2 4842   6.201   1.687   4.403
 1315SOL     OW 4843   2.169   1.112   2.920
 1315SOL    HW1 4844   2.154   1.062   2.835
 1315SOL    HW2 4845   2.142   1.208   2.907
 1316SOL     OW 4846   3.094   6.738   2.457
 1316SOL    HW1 4847   3.101   6.653   2.405
 1316SOL    HW2 4848   3.032   6.801   2.410
 1317SOL     OW 4849   6.956   5.920   3.977
 1317SOL    HW1 4850   0.007   5.990   3.986
 1317SOL    HW2 4851   6.916   5.901   4.066
 1318SOL     OW 4852   6.767   6.678   0.579
 1318SOL    HW1 4853   6.776   6.671   0.480
 1318SOL    HW2 4854   6.856   6.668   0.622
 1319SOL     OW 4855   6.240   0.920   0.166
 1319SOL    HW1 4856   6.239   1.019   0.176
 1319SOL    HW2 4857   6.323   0.883   0.207
 1320SOL     OW 4858   5.590   5.070   6.379
 1320SOL    HW1 4859   5.666   5.085   6.443
 1320SOL    HW2 4860   5.506   5.106   6.419
 1321SOL     OW 4861   3.766   2.302   6.711
 1321SOL    HW1 4862   3.787   2.269   6.618
 1321SOL    HW2 4863   3.840   2.275   6.773
 1322SOL     OW 4864   5.949   1.752   5.176
 1322SOL    HW1 4865   5.932   1.702   5.091
 1322SOL    HW2 4866   6.022   1.819   5.161
 1323SOL     OW 4867   6.560   2.008   4.763
 1323SOL    HW1 4868   6.472   2.056   4.756
 1323SOL    HW2 4869   6.601   2.001   4.672
 1324SOL     OW 4870   1.512   4.043   0.627
 1324SOL    HW1 4871   1.504   4.013   0.722
 1324SOL    HW2 4872   1.454   4.123   0.612
 1325SOL     OW 4873   3.414   5.946   2.695
 1325SOL    HW1 4874   3.417   6.029   2.751
 1325SOL    HW2 4875   3.368   5.873   2.746
 1326SOL     OW 4876   5.767   3.425   4.277
 1326SOL    HW1 4877   5.846   3.364   4.280
 1326SOL    HW2 4878   5.702   3.401   4.349
 1327SOL     OW 4879   3.244   5.263   3.014
 1327SOL    HW1 4880   3.195   5.189   3.060
 1327SOL    HW2 4881   3.317   5.225   2.958
 1328SOL     OW 4882   1.595   2.323   6.693
 1328SOL    HW1 4883   1.692   2.344   6.684
 1328SOL    HW2 4884   1.563   2.347   6.784
 1329SOL     OW 4885   1.011   0.186   0.859
 1329SOL    HW1 4886   1.041   0.141   0.775
 1329SOL    HW2 4887   1.068   0.157   0.936
 1330SOL     OW 4888   5.942   6.499   1.205
 1330SOL    HW1 4889   5.923   6.577   1.265
 1330SOL    HW2 4890   6.026   6.516   1.154
 1331SOL     OW 4891   5.734   0.390   2.098
 1331SOL    HW1 4892   5.795   0.448   2.153
 1331SOL    HW2 4893   5.774   0.375   2.008
 1332SOL     OW 4894   4.257   1.655   1.632
 1332SOL    HW1 4895   4.313   1.577   1.660
 1332SOL    HW2 4896   4.173   1.657   1.687
 1333SOL     OW 4897   3.795   4.279   5.262
 1333SOL    HW1 4898   3.880   4.330   5.275
 1333SOL    HW2 4899   3.815   4.181   5.259
 1334SOL     OW 4900   0.310   3.842   4.343
 1334SOL    HW1 4901   0.407   3.865   4.331
 1334SOL    HW2 4902   0.258   3.925   4.363
 1335SOL     OW 4903   2.893   5.073   3.036
 1335SOL    HW1 4904   2.818   5.136   3.015
 1335SOL    HW2 4905   2.856   4.993   3.084
 1336SOL     OW 4906   0.600   0.433   5.399
 1336SOL    HW1 4907   0.688   0.477   5.382
 1336SOL    HW2 4908   0.604   0.338   5.370
 1337SOL     OW 4909   2.552   1.583   6.089
 1337SOL    HW1 4910   2.455   1.563   6.077
 1337SOL    HW2 4911   2.570   1.679   6.066
 1338SOL     OW 4912   4.091   5.406   0.421
 1338SOL    HW1 4913   4.190   5.407   0.431
 1338SOL    HW2 4914   4.067   5.396   0.325
 1339SOL     OW 4915   0.334   4.378   4.701
 1339SOL    HW1 4916   0.350   4.342   4.793
 1339SOL    HW2 4917   0.387   4.462   4.689
 1340SOL     OW 4918   1.947   1.909   6.093
 1340SOL    HW1 4919   1.875   1.932   6.027
 1340SOL    HW2 4920   1.910   1.849   6.163
 1341SOL     OW 4921   4.116   1.630   3.607
 1341SOL    HW1 4922   4.021   1.608   3.581
 1341SOL    HW2 4923   4.122   1.727   3.630
 1342SOL     OW 4924   0.280   6.380   0.696
 1342SOL    HW1 4925   0.302   6.460   0.753
 1342SOL    HW2 4926   0.283   6.406   0.600
 1343SOL     OW 4927   3.993   4.922   2.993
 1343SOL    HW1 4928   4.027   4.981   3.066
 1343SOL    HW2 4929   3.926   4.972   2.938
 1344SOL     OW 4930   6.166   1.182   2.441
 1344SOL    HW1 4931   6.133   1.151   2.530
 1344SOL    HW2 4932   6.088   1.197   2.380
 1345SOL     OW 4933   0.864   6.919   3.397
 1345SOL    HW1 4934   0.778   6.967   3.387
 1345SOL    HW2 4935   0.849   6.833   3.445
 1346SOL     OW 4936   0.424   0.657   3.949
 1346SOL    HW1 4937   0.330   0.690   3.947
 1346SOL    HW2 4938   0.482   0.727   3.992
 1347SOL     OW 4939   5.801   0.483   3.129
 1347SOL    HW1 4940   5.793   0.583   3.121
 1347SOL    HW2 4941   5.748   0.452   3.208
 1348SOL     OW 4942   5.062   4.376   4.685
 1348SOL    HW1 4943   5.059   4.468   4.648
 1348SOL    HW2 4944   5.146   4.362   4.737
 1349SOL     OW 4945   4.963   2.526   6.634
 1349SOL    HW1 4946   4.903   2.457   6.593
 1349SOL    HW2 4947   4.977   2.505   6.730
 1350SOL     OW 4948   3.446   0.500   5.777
 1350SOL    HW1 4949   3.501   0.532   5.854
 1350SOL    HW2 4950   3.491   0.421   5.734
 1351SOL     OW 4951   0.737   0.709   4.460
 1351SOL    HW1 4952   0.652   0.720   4.409
 1351SOL    HW2 4953   0.716   0.705   4.558
 1352SOL     OW 4954   0.217   0.429   3.343
 1352SOL    HW1 4955   0.157   0.505   3.370
 1352SOL    HW2 4956   0.305   0.438   3.389
 1353SOL     OW 4957   1.481   4.498   4.020
 1353SOL    HW1 4958   1.509   4.432   3.950
 1353SOL    HW2 4959   1.434   4.575   3.976
 1354SOL     OW 4960   0.434   0.395   1.785
 1354SOL    HW1 4961   0.456   0.485   1.746
 1354SOL    HW2 4962   0.395   0.407   1.876
 1355SOL     OW 4963   4.942   3.046   6.445
 1355SOL    HW1 4964   4.933   2.951   6.474
 1355SOL    HW2 4965   4.931   3.106   6.524
 1356SOL     OW 4966   3.006   3.834   2.347
 1356SOL    HW1 4967   3.012   3.734   2.335
 1356SOL    HW2 4968   3.020   3.878   2.259
 1357SOL     OW 4969   2.902   2.683   5.544
 1357SOL    HW1 4970   2.805   2.662   5.559
 1357SOL    HW2 4971   2.933   2.639   5.459
 1358SOL     OW 4972   2.169   2.481   5.451
 1358SOL    HW1 4973   2.096   2.543   5.422
 1358SOL    HW2 4974   2.243   2.483   5.384
 1359SOL     OW 4975   6.786   1.033   0.502
 1359SOL    HW1 4976   6.832   1.105   0.450
 1359SOL    HW2 4977   6.764   0.958   0.440
 1360SOL     OW 4978   3.290   3.824   4.388
 1360SOL    HW1 4979   3.310   3.812   4.486
 1360SOL    HW2 4980   3.345   3.899   4.352
 1361SOL     OW 4981   0.848   5.970   0.862
 1361SOL    HW1 4982   0.947   5.985   0.855
 1361SOL    HW2 4983   0.830   5.872   0.871
 1362SOL     OW 4984   3.228   3.240   6.207
 1362SOL    HW1 4985   3.292   3.171   6.239
 1362SOL    HW2 4986   3.183   3.207   6.124
 1363SOL     OW 4987   5.650   6.333   2.036
 1363SOL    HW1 4988   5.739   6.375   2.056
 1363SOL    HW2 4989   5.664   6.242   1.997
 1364SOL     OW 4990   0.868   3.314   1.247
 1364SOL    HW1 4991   0.886   3.236   1.307
 1364SOL    HW2 4992   0.789   3.365   1.282
 1365SOL     OW 4993   0.502   3.673   5.586
 1365SOL    HW1 4994   0.417   3.650   5.634
 1365SOL    HW2 4995   0.580   3.635   5.635
 1366SOL     OW 4996   5.243   0.784   0.891
 1366SOL    HW1 4997   5.210   0.865   0.938
 1366SOL    HW2 4998   5.189   0.704   0.919
 1367SOL     OW 4999   0.685   6.497   4.249
 1367SOL    HW1 5000   0.701   6.502   4.348
 1367SOL    HW2 5001   0.773   6.505   4.201
 1368SOL     OW 5002   1.032   6.415   5.806
 1368SOL    HW1 5003   1.035   6.496   5.747
 1368SOL    HW2 5004   1.028   6.444   5.902
 1369SOL     OW 5005   2.869   6.685   3.333
 1369SOL    HW1 5006   2.921   6.749   3.276
 1369SOL    HW2 5007   2.901   6.592   3.315
 1370SOL     OW 5008   6.390   2.286   2.749
 1370SOL    HW1 5009   6.383   2.362   2.683
 1370SOL    HW2 5010   6.486   2.265   2.766
 1371SOL     OW 5011   5.800   1.807   5.619
 1371SOL    HW1 5012   5.854   1.822   5.701
 1371SOL    HW2 5013   5.849   1.746   5.557
 1372SOL     OW 5014   6.442   2.826   0.128
 1372SOL    HW1 5015   6.512   2.755   0.114
 1372SOL    HW2 5016   6.447   2.892   0.053
 1373SOL     OW 5017   5.233   2.369   2.033
 1373SOL    HW1 5018   5.258   2.419   1.950
 1373SOL    HW2 5019   5.145   2.402   2.067
 1374SOL     OW 5020   4.196   4.037   0.293
 1374SOL    HW1 5021   4.259   4.056   0.369
 1374SOL    HW2 5022   4.249   4.020   0.210
 1375SOL     OW 5023   5.354   5.680   4.113
 1375SOL    HW1 5024   5.308   5.742   4.177
 1375SOL    HW2 5025   5.287   5.617   4.073
 1376SOL     OW 5026   2.544   4.726   5.835
 1376SOL    HW1 5027   2.594   4.640   5.839
 1376SOL    HW2 5028   2.604   4.799   5.802
 1377SOL     OW 5029   1.677   1.344   3.015
 1377SOL    HW1 5030   1.767   1.347   3.059
 1377SOL    HW2 5031   1.655   1.435   2.979
 1378SOL     OW 5032   4.642   2.229   4.248
 1378SOL    HW1 5033   4.584   2.290   4.194
 1378SOL    HW2 5034   4.586   2.156   4.287
 1379SOL     OW 5035   4.906   5.477   0.924
 1379SOL    HW1 5036   4.907   5.383   0.958
 1379SOL    HW2 5037   4.965   5.533   0.981
 1380SOL     OW 5038   6.748   6.013   1.872
 1380SOL    HW1 5039   6.739   5.962   1.958
 1380SOL    HW2 5040   6.836   5.992   1.830
 1381SOL     OW 5041   6.190   2.056   5.799
 1381SOL    HW1 5042   6.155   2.136   5.849
 1381SOL    HW2 5043   6.251   2.004   5.858
 1382SOL     OW 5044   4.950   2.482   6.913
 1382SOL    HW1 5045   4.928   2.422   6.990
 1382SOL    HW2 5046   4.927   2.576   6.937
 1383SOL     OW 5047   0.696   1.354   2.210
 1383SOL    HW1 5048   0.734   1.400   2.130
 1383SOL    HW2 5049   0.753   1.372   2.290
 1384SOL     OW 5050   5.954   1.644   1.466
 1384SOL    HW1 5051   5.961   1.588   1.549
 1384SOL    HW2 5052   6.021   1.614   1.399
 1385SOL     OW 5053   0.972   5.851   1.810
 1385SOL    HW1 5054   0.967   5.814   1.717
 1385SOL    HW2 5055   0.900   5.920   1.823
 1386SOL     OW 5056   2.472   5.987   4.508
 1386SOL    HW1 5057   2.424   6.070   4.478
 1386SOL    HW2 5058   2.409   5.928   4.558
 1387SOL     OW 5059   2.935   5.768   2.229
 1387SOL    HW1 5060   2.956   5.671   2.224
 1387SOL    HW2 5061   2.968   5.806   2.315
 1388SOL     OW 5062   6.710   0.540   1.885
 1388SOL    HW1 5063   6.793   0.595   1.878
 1388SOL    HW2 5064   6.646   0.565   1.812
 1389SOL     OW 5065   6.127   1.059   2.702
 1389SOL    HW1 5066   6.173   0.977   2.669
 1389SOL    HW2 5067   6.112   1.051   2.801
 1390SOL     OW 5068   0.381   1.925   6.076
 1390SOL    HW1 5069   0.458   1.873   6.039
 1390SOL    HW2 5070   0.408   1.968   6.162
 1391SOL     OW 5071   0.891   3.286   2.711
 1391SOL    HW1 5072   0.948   3.211   2.744
 1391SOL    HW2 5073   0.795   3.259   2.713
 1392SOL     OW 5074   5.100   4.719   5.451
 1392SOL    HW1 5075   5.181   4.775   5.471
 1392SOL    HW2 5076   5.090   4.648   5.521
 1393SOL     OW 5077   4.025   6.351   5.682
 1393SOL    HW1 5078   3.993   6.416   5.613
 1393SOL    HW2 5079   4.125   6.350   5.683
 1394SOL     OW 5080   2.239   6.239   5.953
 1394SOL    HW1 5081   2.303   6.198   6.018
 1394SOL    HW2 5082   2.270   6.221   5.860
 1395SOL     OW 5083   3.261   4.641   5.505
 1395SOL    HW1 5084   3.294   4.582   5.579
 1395SOL    HW2 5085   3.228   4.728   5.544
 1396SOL     OW 5086   5.565   6.126   4.326
 1396SOL    HW1 5087   5.570   6.147   4.228
 1396SOL    HW2 5088   5.650   6.157   4.370
 1397SOL     OW 5089   4.174   5.934   4.936
 1397SOL    HW1 5090   4.131   5.904   4.851
 1397SOL    HW2 5091   4.103   5.950   5.005
 1398SOL     OW 5092   1.492   1.484   4.909
 1398SOL    HW1 5093   1.533   1.406   4.862
 1398SOL    HW2 5094   1.440   1.539   4.844
 1399SOL     OW 5095   3.474   6.469   1.642
 1399SOL    HW1 5096   3.531   6.417   1.579
 1399SOL    HW2 5097   3.386   6.423   1.653
 1400SOL     OW 5098   0.818   0.344   1.977
 1400SOL    HW1 5099   0.801   0.366   1.881
 1400SOL    HW2 5100   0.776   0.414   2.035
 1401SOL     OW 5101   7.005   1.301   4.829
 1401SOL    HW1 5102   0.052   1.328   4.898
 1401SOL    HW2 5103   6.913   1.316   4.864
 1402SOL     OW 5104   6.782   2.896   0.256
 1402SOL    HW1 5105   6.826   2.849   0.333
 1402SOL    HW2 5106   6.683   2.896   0.269
 1403SOL     OW 5107   2.030   0.470   1.898
 1403SOL    HW1 5108   2.116   0.520   1.891
 1403SOL    HW2 5109   1.974   0.490   1.817
 1404SOL     OW 5110   5.859   0.435   0.314
 1404SOL    HW1 5111   5.931   0.426   0.382
 1404SOL    HW2 5112   5.785   0.492   0.351
 1405SOL     OW 5113   2.259   3.556   1.192
 1405SOL    HW1 5114   2.282   3.598   1.104
 1405SOL    HW2 5115   2.218   3.466   1.176
 1406SOL     OW 5116   1.814   4.154   1.218
 1406SOL    HW1 5117   1.854   4.246   1.213
 1406SOL    HW2 5118   1.732   4.151   1.162
 1407SOL     OW 5119   6.634   2.116   2.463
 1407SOL    HW1 5120   6.660   2.173   2.541
 1407SOL    HW2 5121   6.633   2.020   2.490
 1408SOL     OW 5122   6.023   0.566   6.511
 1408SOL    HW1 5123   6.018   0.660   6.545
 1408SOL    HW2 5124   5.938   0.543   6.463
 1409SOL     OW 5125   0.351   0.754   4.575
 1409SOL    HW1 5126   0.366   0.693   4.497
 1409SOL    HW2 5127   0.439   0.773   4.620
 1410SOL     OW 5128   0.405   2.925   0.009
 1410SOL    HW1 5129   0.414   2.930   0.108
 1410SOL    HW2 5130   0.485   2.879   6.990
 1411SOL     OW 5131   1.563   6.707   1.969
 1411SOL    HW1 5132   1.556   6.785   2.031
 1411SOL    HW2 5133   1.635   6.645   2.002
 1412SOL     OW 5134   1.018   2.832   0.245
 1412SOL    HW1 5135   1.073   2.882   0.311
 1412SOL    HW2 5136   1.061   2.837   0.155
 1413SOL     OW 5137   2.020   0.612   4.167
 1413SOL    HW1 5138   2.061   0.622   4.076
 1413SOL    HW2 5139   2.091   0.586   4.232
 1414SOL     OW 5140   2.101   1.818   2.017
 1414SOL    HW1 5141   2.175   1.885   2.016
 1414SOL    HW2 5142   2.056   1.816   1.928
 1415SOL     OW 5143   3.954   6.001   5.967
 1415SOL    HW1 5144   3.991   6.002   6.060
 1415SOL    HW2 5145   4.028   5.986   5.902
 1416SOL     OW 5146   4.529   5.388   2.161
 1416SOL    HW1 5147   4.444   5.342   2.189
 1416SOL    HW2 5148   4.509   5.452   2.087
 1417SOL     OW 5149   2.552   1.909   6.363
 1417SOL    HW1 5150   2.610   1.973   6.312
 1417SOL    HW2 5151   2.608   1.833   6.396
 1418SOL     OW 5152   3.610   4.144   3.183
 1418SOL    HW1 5153   3.535   4.114   3.124
 1418SOL    HW2 5154   3.639   4.236   3.156
 1419SOL     OW 5155   3.916   6.434   5.009
 1419SOL    HW1 5156   3.898   6.413   4.913
 1419SOL    HW2 5157   3.986   6.373   5.044
 1420SOL     OW 5158   0.936   5.825   2.247
 1420SOL    HW1 5159   0.982   5.761   2.185
 1420SOL    HW2 5160   1.004   5.876   2.299
 1421SOL     OW 5161   2.937   1.855   2.255
 1421SOL    HW1 5162   2.923   1.874   2.352
 1421SOL    HW2 5163   2.908   1.935   2.201
 1422SOL     OW 5164   3.028   5.399   0.521
 1422SOL    HW1 5165   3.068   5.462   0.587
 1422SOL    HW2 5166   2.942   5.363   0.558
 1423SOL     OW 5167   5.032   6.869   2.398
 1423SOL    HW1 5168   5.066   6.873   2.492
 1423SOL    HW2 5169   4.943   6.824   2.396
 1424SOL     OW 5170   5.931   5.409   4.617
 1424SOL    HW1 5171   5.951   5.337   4.684
 1424SOL    HW2 5172   5.838   5.396   4.581
 1425SOL     OW 5173   2.332   6.773   4.095
 1425SOL    HW1 5174   2.376   6.690   4.129
 1425SOL    HW2 5175   2.246   6.787   4.143
 1426SOL     OW 5176   1.078   1.556   5.764
 1426SOL    HW1 5177   1.145   1.487   5.735
 1426SOL    HW2 5178   1.042   1.530   5.854
 1427SOL     OW 5179   5.920   0.798   4.031
 1427SOL    HW1 5180   5.892   0.815   4.125
 1427SOL    HW2 5181   5.843   0.763   3.978
 1428SOL     OW 5182   5.790   2.133   6.703
 1428SOL    HW1 5183   5.863   2.142   6.636
 1428SOL    HW2 5184   5.813   2.185   6.785
 1429SOL     OW 5185   0.277   0.959   0.545
 1429SOL    HW1 5186   0.290   0.868   0.584
 1429SOL    HW2 5187   0.282   0.954   0.446
 1430SOL     OW 5188   1.943   4.963   3.003
 1430SOL    HW1 5189   1.868   4.973   3.068
 1430SOL    HW2 5190   1.959   5.049   2.956
 1431SOL     OW 5191   2.548   0.469   1.534
 1431SOL    HW1 5192   2.629   0.518   1.567
 1431SOL    HW2 5193   2.576   0.391   1.478
 1432SOL     OW 5194   2.057   1.346   2.457
 1432SOL    HW1 5195   1.993   1.422   2.452
 1432SOL    HW2 5196   2.105   1.337   2.370
 1433SOL     OW 5197   3.782   0.535   4.172
 1433SOL    HW1 5198   3.735   0.461   4.219
 1433SOL    HW2 5199   3.735   0.622   4.190
 1434SOL     OW 5200   0.904   0.951   5.577
 1434SOL    HW1 5201   0.873   0.945   5.482
 1434SOL    HW2 5202   0.865   0.876   5.629
 1435SOL     OW 5203   6.242   1.957   2.402
 1435SOL    HW1 5204   6.320   1.894   2.396
 1435SOL    HW2 5205   6.237   1.995   2.495
 1436SOL     OW 5206   4.216   3.448   0.172
 1436SOL    HW1 5207   4.243   3.419   0.264
 1436SOL    HW2 5208   4.275   3.405   0.104
 1437SOL     OW 5209   3.298   0.720   2.477
 1437SOL    HW1 5210   3.215   0.766   2.506
 1437SOL    HW2 5211   3.316   0.740   2.380
 1438SOL     OW 5212   2.989   6.816   1.467
 1438SOL    HW1 5213   3.070   6.859   1.506
 1438SOL    HW2 5214   2.907   6.860   1.504
 1439SOL     OW 5215   0.430   5.905   2.505
 1439SOL    HW1 5216   0.527   5.913   2.524
 1439SOL    HW2 5217   0.398   5.812   2.526
 1440SOL     OW 5218   2.859   2.922   1.336
 1440SOL    HW1 5219   2.930   2.946   1.401
 1440SOL    HW2 5220   2.821   2.833   1.359
 1441SOL     OW 5221   5.656   6.619   1.229
 1441SOL    HW1 5222   5.725   6.567   1.177
 1441SOL    HW2 5223   5.585   6.651   1.167
 1442SOL     OW 5224   6.029   5.143   0.630
 1442SOL    HW1 5225   6.006   5.083   0.553
 1442SOL    HW2 5226   6.110   5.197   0.607
 1443SOL     OW 5227   1.380   2.480   2.924
 1443SOL    HW1 5228   1.287   2.456   2.897
 1443SOL    HW2 5229   1.378   2.543   3.001
 1444SOL     OW 5230   6.062   5.294   0.114
 1444SOL    HW1 5231   6.004   5.331   0.042
 1444SOL    HW2 5232   6.007   5.277   0.196
 1445SOL     OW 5233   1.308   3.691   2.549
 1445SOL    HW1 5234   1.224   3.702   2.496
 1445SOL    HW2 5235   1.294   3.728   2.641
 1446SOL     OW 5236   6.393   0.281   6.682
 1446SOL    HW1 5237   6.431   0.372   6.697
 1446SOL    HW2 5238   6.319   0.286   6.615
 1447SOL     OW 5239   5.990   5.065   4.554
 1447SOL    HW1 5240   5.992   5.082   4.653
 1447SOL    HW2 5241   5.895   5.054   4.524
 1448SOL     OW 5242   1.040   3.022   6.056
 1448SOL    HW1 5243   1.076   3.063   6.139
 1448SOL    HW2 5244   1.101   3.040   5.980
 1449SOL     OW 5245   1.880   4.563   4.381
 1449SOL    HW1 5246   1.797   4.572   4.327
 1449SOL    HW2 5247   1.937   4.490   4.343
 1450SOL     OW 5248   2.248   2.168   4.556
 1450SOL    HW1 5249   2.211   2.092   4.503
 1450SOL    HW2 5250   2.189   2.185   4.635
 1451SOL     OW 5251   2.151   0.157   1.917
 1451SOL    HW1 5252   2.085   0.217   1.963
 1451SOL    HW2 5253   2.212   0.213   1.860
 1452SOL     OW 5254   5.115   2.828   5.601
 1452SOL    HW1 5255   5.192   2.892   5.604
 1452SOL    HW2 5256   5.046   2.856   5.667
 1453SOL     OW 5257   0.915   4.465   4.926
 1453SOL    HW1 5258   0.904   4.548   4.981
 1453SOL    HW2 5259   0.999   4.471   4.873
 1454SOL     OW 5260   3.086   1.802   3.828
 1454SOL    HW1 5261   3.053   1.817   3.735
 1454SOL    HW2 5262   3.067   1.883   3.884
 1455SOL     OW 5263   1.262   5.898   2.257
 1455SOL    HW1 5264   1.356   5.877   2.286
 1455SOL    HW2 5265   1.255   5.891   2.158
 1456SOL     OW 5266   6.098   5.511   5.546
 1456SOL    HW1 5267   6.054   5.526   5.458
 1456SOL    HW2 5268   6.037   5.458   5.605
 1457SOL     OW 5269   0.290   4.368   5.948
 1457SOL    HW1 5270   0.299   4.417   5.861
 1457SOL    HW2 5271   0.378   4.369   5.996
 1458SOL     OW 5272   5.310   4.896   5.182
 1458SOL    HW1 5273   5.407   4.892   5.157
 1458SOL    HW2 5274   5.301   4.890   5.281
 1459SOL     OW 5275   5.207   6.712   5.408
 1459SOL    HW1 5276   5.261   6.740   5.328
 1459SOL    HW2 5277   5.223   6.776   5.483
 1460SOL     OW 5278   1.674   6.651   5.630
 1460SOL    HW1 5279   1.584   6.675   5.666
 1460SOL    HW2 5280   1.683   6.552   5.624
 1461SOL     OW 5281   0.571   2.835   3.179
 1461SOL    HW1 5282   0.477   2.807   3.198
 1461SOL    HW2 5283   0.592   2.817   3.083
 1462SOL     OW 5284   0.403   0.203   0.469
 1462SOL    HW1 5285   0.355   0.205   0.557
 1462SOL    HW2 5286   0.369   0.276   0.411
 1463SOL     OW 5287   1.967   5.488   6.535
 1463SOL    HW1 5288   1.977   5.409   6.475
 1463SOL    HW2 5289   1.872   5.493   6.568
 1464SOL     OW 5290   0.499   4.562   4.352
 1464SOL    HW1 5291   0.545   4.546   4.265
 1464SOL    HW2 5292   0.542   4.506   4.423
 1465SOL     OW 5293   1.502   1.875   3.202
 1465SOL    HW1 5294   1.481   1.943   3.132
 1465SOL    HW2 5295   1.521   1.920   3.289
 1466SOL     OW 5296   4.353   2.079   1.593
 1466SOL    HW1 5297   4.300   2.153   1.634
 1466SOL    HW2 5298   4.291   2.008   1.560
 1467SOL     OW 5299   1.377   0.961   4.233
 1467SOL    HW1 5300   1.406   1.014   4.313
 1467SOL    HW2 5301   1.278   0.947   4.238
 1468SOL     OW 5302   2.423   5.937   2.414
 1468SOL    HW1 5303   2.437   5.917   2.511
 1468SOL    HW2 5304   2.497   5.996   2.382
 1469SOL     OW 5305   6.268   5.022   3.064
 1469SOL    HW1 5306   6.342   5.060   3.009
 1469SOL    HW2 5307   6.185   5.077   3.051
 1470SOL     OW 5308   6.164   2.075   0.391
 1470SOL    HW1 5309   6.212   1.992   0.365
 1470SOL    HW2 5310   6.069   2.053   0.415
 1471SOL     OW 5311   5.306   0.061   1.570
 1471SOL    HW1 5312   5.228   0.091   1.625
 1471SOL    HW2 5313   5.384   0.122   1.587
 1472SOL     OW 5314   1.781   6.664   6.642
 1472SOL    HW1 5315   1.729   6.736   6.597
 1472SOL    HW2 5316   1.729   6.578   6.638
 1473SOL     OW 5317   2.885   5.276   4.638
 1473SOL    HW1 5318   2.786   5.282   4.621
 1473SOL    HW2 5319   2.934   5.293   4.552
 1474SOL     OW 5320   3.778   5.256   1.527
 1474SOL    HW1 5321   3.735   5.341   1.558
 1474SOL    HW2 5322   3.855   5.234   1.586
 1475SOL     OW 5323   5.066   0.246   0.256
 1475SOL    HW1 5324   5.098   0.169   0.201
 1475SOL    HW2 5325   5.087   0.332   0.208
 1476SOL     OW 5326   4.104   0.853   1.429
 1476SOL    HW1 5327   4.005   0.845   1.430
 1476SOL    HW2 5328   4.140   0.842   1.522
 1477SOL     OW 5329   4.324   5.008   1.115
 1477SOL    HW1 5330   4.247   4.947   1.135
 1477SOL    HW2 5331   4.400   4.988   1.176
 1478SOL     OW 5332   4.979   5.775   5.787
 1478SOL    HW1 5333   4.978   5.827   5.872
 1478SOL    HW2 5334   4.909   5.703   5.791
 1479SOL     OW 5335   3.826   3.836   1.295
 1479SOL    HW1 5336   3.873   3.854   1.382
 1479SOL    HW2 5337   3.844   3.741   1.267
 1480SOL     OW 5338   2.850   0.304   4.968
 1480SOL    HW1 5339   2.822   0.231   4.906
 1480SOL    HW2 5340   2.949   0.300   4.982
 1481SOL     OW 5341   5.367   2.370   5.572
 1481SOL    HW1 5342   5.289   2.433   5.582
 1481SOL    HW2 5343   5.350   2.288   5.626
 1482SOL     OW 5344   4.393   1.128   0.288
 1482SOL    HW1 5345   4.452   1.186   0.233
 1482SOL    HW2 5346   4.312   1.179   0.317
 1483SOL     OW 5347   5.016   1.241   5.938
 1483SOL    HW1 5348   5.064   1.205   5.857
 1483SOL    HW2 5349   4.918   1.232   5.925
 1484SOL     OW 5350   3.345   5.601   5.250
 1484SOL    HW1 5351   3.285   5.561   5.319
 1484SOL    HW2 5352   3.429   5.547   5.244
 1485SOL     OW 5353   4.955   2.562   2.550
 1485SOL    HW1 5354   5.045   2.574   2.507
 1485SOL    HW2 5355   4.897   2.507   2.491
 1486SOL     OW 5356   4.873   0.154   3.914
 1486SOL    HW1 5357   4.862   0.057   3.892
 1486SOL    HW2 5358   4.894   0.205   3.831
 1487SOL     OW 5359   6.785   0.033   0.657
 1487SOL    HW1 5360   6.797   7.002   0.742
 1487SOL    HW2 5361   6.816   0.127   0.670
 1488SOL     OW 5362   5.876   1.072   2.942
 1488SOL    HW1 5363   5.923   0.997   2.897
 1488SOL    HW2 5364   5.844   1.138   2.874
 1489SOL     OW 5365   3.945   4.566   6.296
 1489SOL    HW1 5366   3.848   4.573   6.319
 1489SOL    HW2 5367   3.978   4.655   6.266
 1490SOL     OW 5368   0.330   2.300   2.760
 1490SOL    HW1 5369   0.373   2.378   2.714
 1490SOL    HW2 5370   0.296   2.236   2.692
 1491SOL     OW 5371   0.175   3.395   2.721
 1491SOL    HW1 5372   0.147   3.308   2.680
 1491SOL    HW2 5373   0.095   3.440   2.760
 1492SOL     OW 5374   5.936   1.622   2.854
 1492SOL    HW1 5375   5.975   1.544   2.902
 1492SOL    HW2 5376   6.009   1.681   2.820
 1493SOL     OW 5377   4.670   2.924   5.805
 1493SOL    HW1 5378   4.623   2.902   5.891
 1493SOL    HW2 5379   4.653   2.851   5.739
 1494SOL     OW 5380   6.486   4.536   5.542
 1494SOL    HW1 5381   6.550   4.614   5.538
 1494SOL    HW2 5382   6.449   4.529   5.635
 1495SOL     OW 5383   5.967   4.395   4.374
 1495SOL    HW1 5384   5.970   4.311   4.319
 1495SOL    HW2 5385   5.994   4.373   4.468
 1496SOL     OW 5386   6.303   5.652   6.728
 1496SOL    HW1 5387   6.316   5.748   6.750
 1496SOL    HW2 5388   6.286   5.600   6.811
 1497SOL     OW 5389   5.790   3.233   2.834
 1497SOL    HW1 5390   5.705   3.275   2.804
 1497SOL    HW2 5391   5.835   3.188   2.757
 1498SOL     OW 5392   3.220   4.665   0.921
 1498SOL    HW1 5393   3.262   4.586   0.966
 1498SOL    HW2 5394   3.149   4.633   0.858
 1499SOL     OW 5395   0.587   3.968   5.373
 1499SOL    HW1 5396   0.636   3.975   5.286
 1499SOL    HW2 5397   0.496   4.009   5.363
 1500SOL     OW 5398   0.771   5.631   1.827
 1500SOL    HW1 5399   0.829   5.687   1.886
 1500SOL    HW2 5400   0.686   5.680   1.807
 1501SOL     OW 5401   5.839   1.688   6.859
 1501SOL    HW1 5402   5.912   1.635   6.815
 1501SOL    HW2 5403   5.793   1.744   6.791
 1502SOL     OW 5404   6.289   0.022   6.675
 1502SOL    HW1 5405   6.263   0.034   6.579
 1502SOL    HW2 5406   6.306   0.111   6.717
 1503SOL     OW 5407   0.557   4.408   1.951
 1503SOL    HW1 5408   0.648   4.451   1.952
 1503SOL    HW2 5409   0.524   4.401   2.045
 1504SOL     OW 5410   0.789   0.515   2.559
 1504SOL    HW1 5411   0.883   0.495   2.587
 1504SOL    HW2 5412   0.725   0.469   2.620
 1505SOL     OW 5413   4.937   5.736   4.982
 1505SOL    HW1 5414   4.894   5.799   4.918
 1505SOL    HW2 5415   5.036   5.751   4.983
 1506SOL     OW 5416   0.769   0.904   0.524
 1506SOL    HW1 5417   0.836   0.870   0.458
 1506SOL    HW2 5418   0.685   0.929   0.476
 1507SOL     OW 5419   1.804   2.403   4.489
 1507SOL    HW1 5420   1.893   2.357   4.479
 1507SOL    HW2 5421   1.752   2.395   4.404
 1508SOL     OW 5422   1.221   0.804   0.499
 1508SOL    HW1 5423   1.259   0.712   0.509
 1508SOL    HW2 5424   1.289   0.872   0.526
 1509SOL     OW 5425   5.355   0.764   3.927
 1509SOL    HW1 5426   5.417   0.688   3.947
 1509SOL    HW2 5427   5.305   0.790   4.009
 1510SOL     OW 5428   3.575   5.737   4.004
 1510SOL    HW1 5429   3.562   5.824   3.958
 1510SOL    HW2 5430   3.523   5.736   4.090
 1511SOL     OW 5431   3.751   3.295   4.602
 1511SOL    HW1 5432   3.835   3.323   4.557
 1511SOL    HW2 5433   3.696   3.239   4.539
 1512SOL     OW 5434   6.479   6.492   1.090
 1512SOL    HW1 5435   6.443   6.431   1.020
 1512SOL    HW2 5436   6.414   6.499   1.165
 1513SOL     OW 5437   3.134   0.343   6.263
 1513SOL    HW1 5438   3.184   0.428   6.247
 1513SOL    HW2 5439   3.152   0.279   6.189
 1514SOL     OW 5440   3.574   2.006   5.694
 1514SOL    HW1 5441   3.620   2.026   5.781
 1514SOL    HW2 5442   3.519   2.086   5.667
 1515SOL     OW 5443   6.086   1.787   1.814
 1515SOL    HW1 5444   6.149   1.791   1.892
 1515SOL    HW2 5445   5.993   1.800   1.847
 1516SOL     OW 5446   5.736   6.952   4.842
 1516SOL    HW1 5447   5.820   6.898   4.849
 1516SOL    HW2 5448   5.753   0.013   4.785
 1517SOL     OW 5449   4.012   6.220   4.012
 1517SOL    HW1 5450   4.042   6.315   4.021
 1517SOL    HW2 5451   3.969   6.207   3.923
 1518SOL     OW 5452   0.446   2.513   0.349
 1518SOL    HW1 5453   0.386   2.565   0.288
 1518SOL    HW2 5454   0.541   2.540   0.332
 1519SOL     OW 5455   6.821   4.392   6.656
 1519SOL    HW1 5456   6.846   4.319   6.719
 1519SOL    HW2 5457   6.774   4.353   6.576
 1520SOL     OW 5458   6.931   5.962   2.119
 1520SOL    HW1 5459   6.920   5.874   2.072
 1520SOL    HW2 5460   6.952   5.944   2.216
 1521SOL     OW 5461   2.099   4.857   6.382
 1521SOL    HW1 5462   2.042   4.856   6.465
 1521SOL    HW2 5463   2.040   4.860   6.302
 1522SOL     OW 5464   4.932   5.116   4.547
 1522SOL    HW1 5465   4.885   5.048   4.489
 1522SOL    HW2 5466   4.872   5.140   4.624
 1523SOL     OW 5467   3.959   5.893   6.915
 1523SOL    HW1 5468   3.914   5.938   6.993
 1523SOL    HW2 5469   3.946   5.948   6.833
 1524SOL     OW 5470   2.333   1.649   2.113
 1524SOL    HW1 5471   2.263   1.718   2.100
 1524SOL    HW2 5472   2.374   1.624   2.025
 1525SOL     OW 5473   6.146   2.466   7.002
 1525SOL    HW1 5474   6.091   2.474   0.065
 1525SOL    HW2 5475   6.242   2.480   0.005
 1526SOL     OW 5476   0.996   0.872   0.372
 1526SOL    HW1 5477   1.075   0.821   0.407
 1526SOL    HW2 5478   1.019   0.969   0.368
 1527SOL     OW 5479   3.741   1.147   3.735
 1527SOL    HW1 5480   3.802   1.220   3.704
 1527SOL    HW2 5481   3.792   1.082   3.791
 1528SOL     OW 5482   4.824   3.507   1.151
 1528SOL    HW1 5483   4.812   3.414   1.116
 1528SOL    HW2 5484   4.920   3.522   1.174
 1529SOL     OW 5485   4.747   1.326   5.628
 1529SOL    HW1 5486   4.745   1.304   5.725
 1529SOL    HW2 5487   4.661   1.299   5.585
 1530SOL     OW 5488   3.738   6.248   1.775
 1530SOL    HW1 5489   3.777   6.233   1.685
 1530SOL    HW2 5490   3.805   6.295   1.833
 1531SOL     OW 5491   3.194   6.560   4.596
 1531SOL    HW1 5492   3.097   6.534   4.602
 1531SOL    HW2 5493   3.201   6.658   4.577
 1532SOL     OW 5494   2.521   5.262   6.051
 1532SOL    HW1 5495   2.476   5.220   6.130
 1532SOL    HW2 5496   2.493   5.214   5.967
 1533SOL     OW 5497   5.657   5.143   1.217
 1533SOL    HW1 5498   5.718   5.110   1.290
 1533SOL    HW2 5499   5.562   5.126   1.244
 1534SOL     OW 5500   3.911   5.632   6.558
 1534SOL    HW1 5501   3.846   5.703   6.535
 1534SOL    HW2 5502   3.898   5.604   6.653
 1535SOL     OW 5503   5.734   6.922   4.521
 1535SOL    HW1 5504   5.695   6.850   4.578
 1535SOL    HW2 5505   5.673   6.941   4.444
 1536SOL     OW 5506   4.210   3.853   6.828
 1536SOL    HW1 5507   4.192   3.930   6.767
 1536SOL    HW2 5508   4.267   3.785   6.781
 1537SOL     OW 5509   3.332   5.311   4.023
 1537SOL    HW1 5510   3.301   5.224   3.986
 1537SOL    HW2 5511   3.307   5.385   3.961
 1538SOL     OW 5512   3.149   1.380   6.944
 1538SOL    HW1 5513   3.245   1.386   6.974
 1538SOL    HW2 5514   3.092   1.435   7.004
 1539SOL     OW 5515   5.668   3.019   0.808
 1539SOL    HW1 5516   5.692   3.115   0.824
 1539SOL    HW2 5517   5.750   2.968   0.783
 1540SOL     OW 5518   3.126   0.284   5.041
 1540SOL    HW1 5519   3.134   0.247   4.949
 1540SOL    HW2 5520   3.206   0.341   5.061
 1541SOL     OW 5521   3.938   3.127   4.784
 1541SOL    HW1 5522   3.863   3.184   4.751
 1541SOL    HW2 5523   3.908   3.032   4.792
 1542SOL     OW 5524   6.867   0.329   2.738
 1542SOL    HW1 5525   6.953   0.339   2.788
 1542SOL    HW2 5526   6.853   0.407   2.677
 1543SOL     OW 5527   2.732   4.915   6.640
 1543SOL    HW1 5528   2.763   4.973   6.716
 1543SOL    HW2 5529   2.651   4.864   6.669
 1544SOL     OW 5530   3.973   3.390   4.232
 1544SOL    HW1 5531   4.001   3.315   4.171
 1544SOL    HW2 5532   3.990   3.364   4.327
 1545SOL     OW 5533   6.546   6.610   2.597
 1545SOL    HW1 5534   6.508   6.546   2.531
 1545SOL    HW2 5535   6.482   6.623   2.673
 1546SOL     OW 5536   5.133   6.482   5.730
 1546SOL    HW1 5537   5.173   6.461   5.641
 1546SOL    HW2 5538   5.131   6.581   5.743
 1547SOL     OW 5539   1.621   3.584   6.539
 1547SOL    HW1 5540   1.658   3.512   6.598
 1547SOL    HW2 5541   1.693   3.649   6.516
 1548SOL     OW 5542   6.002   2.224   6.552
 1548SOL    HW1 5543   6.047   2.296   6.499
 1548SOL    HW2 5544   6.069   2.178   6.610
 1549SOL     OW 5545   4.594   1.223   4.907
 1549SOL    HW1 5546   4.606   1.160   4.830
 1549SOL    HW2 5547   4.590   1.317   4.873
 1550SOL     OW 5548   3.588   2.986   3.089
 1550SOL    HW1 5549   3.505   2.933   3.070
 1550SOL    HW2 5550   3.633   3.009   3.002
 1551SOL     OW 5551   0.207   5.468   6.091
 1551SOL    HW1 5552   0.194   5.370   6.079
 1551SOL    HW2 5553   0.124   5.508   6.131
 1552SOL     OW 5554   2.358   4.284   1.883
 1552SOL    HW1 5555   2.421   4.303   1.808
 1552SOL    HW2 5556   2.390   4.330   1.966
 1553SOL     OW 5557   0.262   1.765   5.722
 1553SOL    HW1 5558   0.223   1.857   5.724
 1553SOL    HW2 5559   0.219   1.711   5.649
 1554SOL     OW 5560   2.540   1.693   3.730
 1554SOL    HW1 5561   2.620   1.659   3.779
 1554SOL    HW2 5562   2.489   1.616   3.692
 1555SOL     OW 5563   6.942   3.372   6.194
 1555SOL    HW1 5564   6.925   3.317   6.276
 1555SOL    HW2 5565   0.020   3.372   6.174
 1556SOL     OW 5566   2.050   1.423   6.010
 1556SOL    HW1 5567   1.970   1.464   5.966
 1556SOL    HW2 5568   2.049   1.324   5.996
 1557SOL     OW 5569   0.642   3.345   6.609
 1557SOL    HW1 5570   0.636   3.331   6.708
 1557SOL    HW2 5571   0.571   3.410   6.581
 1558SOL     OW 5572   6.714   0.395   5.223
 1558SOL    HW1 5573   6.701   0.296   5.217
 1558SOL    HW2 5574   6.805   0.414   5.261
 1559SOL     OW 5575   0.268   2.452   5.787
 1559SOL    HW1 5576   0.213   2.476   5.868
 1559SOL    HW2 5577   0.236   2.365   5.750
 1560SOL     OW 5578   0.001   0.743   6.459
 1560SOL    HW1 5579   0.009   0.790   6.547
 1560SOL    HW2 5580   0.046   0.797   6.389
 1561SOL     OW 5581   5.684   5.850   2.679
 1561SOL    HW1 5582   5.600   5.803   2.706
 1561SOL    HW2 5583   5.663   5.942   2.649
 1562SOL     OW 5584   5.648   0.441   3.369
 1562SOL    HW1 5585   5.566   0.389   3.395
 1562SOL    HW2 5586   5.697   0.470   3.452
 1563SOL     OW 5587   3.681   1.119   5.842
 1563SOL    HW1 5588   3.643   1.131   5.934
 1563SOL    HW2 5589   3.780   1.133   5.844
 1564SOL     OW 5590   1.618   2.302   2.725
 1564SOL    HW1 5591   1.632   2.390   2.681
 1564SOL    HW2 5592   1.528   2.300   2.768
 1565SOL     OW 5593   5.114   3.543   1.849
 1565SOL    HW1 5594   5.038   3.495   1.805
 1565SOL    HW2 5595   5.173   3.583   1.780
 1566SOL     OW 5596   5.435   4.139   3.616
 1566SOL    HW1 5597   5.474   4.218   3.663
 1566SOL    HW2 5598   5.336   4.149   3.608
 1567SOL     OW 5599   6.919   5.641   5.699
 1567SOL    HW1 5600   6.910   5.661   5.601
 1567SOL    HW2 5601   6.937   5.725   5.749
 1568SOL     OW 5602   0.477   0.439   0.852
 1568SOL    HW1 5603   0.429   0.351   0.847
 1568SOL    HW2 5604   0.511   0.464   0.762
 1569SOL     OW 5605   3.789   5.891   5.649
 1569SOL    HW1 5606   3.789   5.801   5.692
 1569SOL    HW2 5607   3.882   5.913   5.617
 1570SOL     OW 5608   3.250   2.055   1.529
 1570SOL    HW1 5609   3.258   2.079   1.626
 1570SOL    HW2 5610   3.181   1.983   1.518
 1571SOL     OW 5611   6.626   3.476   1.398
 1571SOL    HW1 5612   6.714   3.430   1.407
 1571SOL    HW2 5613   6.553   3.409   1.405
 1572SOL     OW 5614   1.499   6.893   2.133
 1572SOL    HW1 5615   1.442   6.921   2.055
 1572SOL    HW2 5616   1.487   6.959   2.208
 1573SOL     OW 5617   4.218   0.458   1.919
 1573SOL    HW1 5618   4.164   0.375   1.935
 1573SOL    HW2 5619   4.176   0.511   1.845
 1574SOL     OW 5620   6.843   2.359   1.844
 1574SOL    HW1 5621   6.770   2.315   1.791
 1574SOL    HW2 5622   6.926   2.362   1.789
 1575SOL     OW 5623   1.922   2.251   0.512
 1575SOL    HW1 5624   1.941   2.282   0.605
 1575SOL    HW2 5625   2.007   2.250   0.459
 1576SOL     OW 5626   6.024   6.333   4.141
 1576SOL    HW1 5627   5.968   6.386   4.077
 1576SOL    HW2 5628   6.061   6.253   4.095
 1577SOL     OW 5629   2.752   0.213   5.974
 1577SOL    HW1 5630   2.699   0.141   5.930
 1577SOL    HW2 5631   2.696   0.295   5.984
 1578SOL     OW 5632   6.202   4.794   5.684
 1578SOL    HW1 5633   6.231   4.792   5.588
 1578SOL    HW2 5634   6.277   4.828   5.741
 1579SOL     OW 5635   0.855   0.738   3.689
 1579SOL    HW1 5636   0.766   0.694   3.695
 1579SOL    HW2 5637   0.921   0.674   3.647
 1580SOL     OW 5638   3.166   4.285   5.416
 1580SOL    HW1 5639   3.201   4.336   5.494
 1580SOL    HW2 5640   3.068   4.301   5.407
 1581SOL     OW 5641   6.548   4.396   4.341
 1581SOL    HW1 5642   6.597   4.469   4.293
 1581SOL    HW2 5643   6.450   4.407   4.326
 1582SOL     OW 5644   6.789   5.335   4.690
 1582SOL    HW1 5645   6.761   5.286   4.773
 1582SOL    HW2 5646   6.717   5.400   4.665
 1583SOL     OW 5647   1.752   2.875   2.788
 1583SOL    HW1 5648   1.730   2.927   2.705
 1583SOL    HW2 5649   1.792   2.936   2.856
 1584SOL     OW 5650   2.377   6.919   6.000
 1584SOL    HW1 5651   2.354   6.866   5.919
 1584SOL    HW2 5652   2.295   6.963   6.035
 1585SOL     OW 5653   5.177   1.553   4.529
 1585SOL    HW1 5654   5.131   1.642   4.524
 1585SOL    HW2 5655   5.186   1.525   4.624
 1586SOL     OW 5656   3.545   3.833   2.603
 1586SOL    HW1 5657   3.637   3.806   2.575
 1586SOL    HW2 5658   3.542   3.932   2.619
 1587SOL     OW 5659   3.408   6.868   6.652
 1587SOL    HW1 5660   3.381   6.773   6.644
 1587SOL    HW2 5661   3.496   6.881   6.606
 1588SOL     OW 5662   5.887   3.077   1.763
 1588SOL    HW1 5663   5.836   3.037   1.687
 1588SOL    HW2 5664   5.985   3.066   1.746
 1589SOL     OW 5665   6.345   4.076   4.056
 1589SOL    HW1 5666   6.413   4.021   4.008
 1589SOL    HW2 5667   6.254   4.055   4.021
 1590SOL     OW 5668   1.591   0.894   6.045
 1590SOL    HW1 5669   1.595   0.805   6.090
 1590SOL    HW2 5670   1.651   0.959   6.093
 1591SOL     OW 5671   1.221   4.725   1.654
 1591SOL    HW1 5672   1.281   4.665   1.600
 1591SOL    HW2 5673   1.275   4.776   1.720
 1592SOL     OW 5674   3.428   3.386   2.701
 1592SOL    HW1 5675   3.331   3.402   2.721
 1592SOL    HW2 5676   3.472   3.345   2.781
 1593SOL     OW 5677   1.098   5.476   5.040
 1593SOL    HW1 5678   1.122   5.524   5.124
 1593SOL    HW2 5679   1.004   5.499   5.014
 1594SOL     OW 5680   6.637   5.204   2.682
 1594SOL    HW1 5681   6.736   5.207   2.690
 1594SOL    HW2 5682   6.597   5.166   2.765
 1595SOL     OW 5683   6.588   4.888   6.098
 1595SOL    HW1 5684   6.582   4.820   6.171
 1595SOL    HW2 5685   6.555   4.976   6.131
 1596SOL     OW 5686   2.705   4.912   5.734
 1596SOL    HW1 5687   2.792   4.876   5.767
 1596SOL    HW2 5688   2.714   5.010   5.716
 1597SOL     OW 5689   2.749   6.310   1.408
 1597SOL    HW1 5690   2.711   6.280   1.321
 1597SOL    HW2 5691   2.834   6.359   1.392
 1598SOL     OW 5692   0.168   5.244   1.298
 1598SOL    HW1 5693   0.097   5.289   1.244
 1598SOL    HW2 5694   0.247   5.304   1.306
 1599SOL     OW 5695   3.806   4.812   6.972
 1599SOL    HW1 5696   3.901   4.780   6.983
 1599SOL    HW2 5697   3.744   4.745   7.012
 1600SOL     OW 5698   3.814   1.299   4.470
 1600SOL    HW1 5699   3.874   1.370   4.506
 1600SOL    HW2 5700   3.865   1.214   4.461
 1601SOL     OW 5701   0.799   5.370   3.672
 1601SOL    HW1 5702   0.878   5.413   3.715
 1601SOL    HW2 5703   0.829   5.310   3.598
 1602SOL     OW 5704   1.482   4.904   3.562
 1602SOL    HW1 5705   1.450   4.950   3.644
 1602SOL    HW2 5706   1.419   4.830   3.538
 1603SOL     OW 5707   6.832   6.783   1.603
 1603SOL    HW1 5708   6.754   6.723   1.586
 1603SOL    HW2 5709   6.885   6.747   1.680
 1604SOL     OW 5710   0.654   5.609   6.283
 1604SOL    HW1 5711   0.577   5.574   6.229
 1604SOL    HW2 5712   0.628   5.695   6.326
 1605SOL     OW 5713   5.500   6.303   3.323
 1605SOL    HW1 5714   5.570   6.253   3.272
 1605SOL    HW2 5715   5.491   6.396   3.288
 1606SOL     OW 5716   5.291   6.861   6.670
 1606SOL    HW1 5717   5.215   6.796   6.667
 1606SOL    HW2 5718   5.377   6.812   6.655
 1607SOL     OW 5719   4.048   1.769   0.695
 1607SOL    HW1 5720   4.008   1.705   0.760
 1607SOL    HW2 5721   3.977   1.832   0.663
 1608SOL     OW 5722   2.616   0.312   0.410
 1608SOL    HW1 5723   2.694   0.249   0.408
 1608SOL    HW2 5724   2.624   0.376   0.333
 1609SOL     OW 5725   4.693   1.970   5.357
 1609SOL    HW1 5726   4.677   2.046   5.419
 1609SOL    HW2 5727   4.619   1.903   5.365
 1610SOL     OW 5728   6.323   5.492   4.705
 1610SOL    HW1 5729   6.291   5.431   4.777
 1610SOL    HW2 5730   6.257   5.565   4.691
 1611SOL     OW 5731   2.928   3.727   1.569
 1611SOL    HW1 5732   3.010   3.670   1.572
 1611SOL    HW2 5733   2.897   3.735   1.475
 1612SOL     OW 5734   2.895   0.771   4.618
 1612SOL    HW1 5735   2.966   0.841   4.623
 1612SOL    HW2 5736   2.862   0.764   4.524
 1613SOL     OW 5737   2.181   5.854   0.665
 1613SOL    HW1 5738   2.270   5.878   0.705
 1613SOL    HW2 5739   2.162   5.913   0.587
 1614SOL     OW 5740   6.174   2.283   6.801
 1614SOL    HW1 5741   6.171   2.342   6.882
 1614SOL    HW2 5742   6.242   2.318   6.737
 1615SOL     OW 5743   6.490   5.010   6.594
 1615SOL    HW1 5744   6.518   5.095   6.551
 1615SOL    HW2 5745   6.461   5.027   6.688
 1616SOL     OW 5746   3.305   2.084   5.857
 1616SOL    HW1 5747   3.334   2.180   5.856
 1616SOL    HW2 5748   3.206   2.079   5.866
 1617SOL     OW 5749   4.907   0.182   3.421
 1617SOL    HW1 5750   4.954   0.103   3.382
 1617SOL    HW2 5751   4.870   0.238   3.347
 1618SOL     OW 5752   5.343   2.548   1.106
 1618SOL    HW1 5753   5.275   2.601   1.055
 1618SOL    HW2 5754   5.296   2.485   1.168
 1619SOL     OW 5755   1.633   3.203   4.617
 1619SOL    HW1 5756   1.674   3.292   4.593
 1619SOL    HW2 5757   1.580   3.169   4.540
 1620SOL     OW 5758   3.214   5.434   1.307
 1620SOL    HW1 5759   3.196   5.354   1.251
 1620SOL    HW2 5760   3.262   5.407   1.390
 1621SOL     OW 5761   1.770   0.997   1.654
 1621SOL    HW1 5762   1.827   0.988   1.572
 1621SOL    HW2 5763   1.697   0.929   1.651
 1622SOL     OW 5764   2.178   1.952   4.418
 1622SOL    HW1 5765   2.261   1.897   4.429
 1622SOL    HW2 5766   2.176   1.991   4.325
 1623SOL     OW 5767   3.007   2.235   5.348
 1623SOL    HW1 5768   3.095   2.188   5.355
 1623SOL    HW2 5769   3.005   2.289   5.264
 1624SOL     OW 5770   2.013   1.177   0.460
 1624SOL    HW1 5771   1.974   1.249   0.517
 1624SOL    HW2 5772   1.943   1.143   0.397
 1625SOL     OW 5773   0.506   5.178   2.044
 1625SOL    HW1 5774   0.570   5.254   2.036
 1625SOL    HW2 5775   0.448   5.174   1.962
 1626SOL     OW 5776   1.945   1.906   6.527
 1626SOL    HW1 5777   1.914   1.985   6.475
 1626SOL    HW2 5778   1.952   1.827   6.466
 1627SOL     OW 5779   5.684   3.213   3.875
 1627SOL    HW1 5780   5.703   3.197   3.778
 1627SOL    HW2 5781   5.726   3.140   3.929
 1628SOL     OW 5782   3.122   3.802   0.267
 1628SOL    HW1 5783   3.082   3.729   0.212
 1628SOL    HW2 5784   3.194   3.847   0.214
 1629SOL     OW 5785   4.124   2.256   3.386
 1629SOL    HW1 5786   4.050   2.229   3.448
 1629SOL    HW2 5787   4.212   2.231   3.428
 1630SOL     OW 5788   0.100   4.765   4.652
 1630SOL    HW1 5789   0.042   4.846   4.655
 1630SOL    HW2 5790   0.193   4.791   4.628
 1631SOL     OW 5791   0.498   6.733   5.754
 1631SOL    HW1 5792   0.469   6.822   5.790
 1631SOL    HW2 5793   0.422   6.669   5.761
 1632SOL     OW 5794   5.805   0.680   1.413
 1632SOL    HW1 5795   5.741   0.657   1.340
 1632SOL    HW2 5796   5.798   0.778   1.434
 1633SOL     OW 5797   5.408   2.690   3.810
 1633SOL    HW1 5798   5.414   2.715   3.906
 1633SOL    HW2 5799   5.395   2.591   3.801
 1634SOL     OW 5800   3.584   1.134   6.748
 1634SOL    HW1 5801   3.495   1.103   6.715
 1634SOL    HW2 5802   3.618   1.207   6.689
 1635SOL     OW 5803   0.202   5.660   3.997
 1635SOL    HW1 5804   0.209   5.562   4.016
 1635SOL    HW2 5805   0.214   5.676   3.899
 1636SOL     OW 5806   2.140   5.889   0.990
 1636SOL    HW1 5807   2.079   5.917   1.063
 1636SOL    HW2 5808   2.150   5.964   0.924
 1637SOL     OW 5809   6.904   3.482   1.751
 1637SOL    HW1 5810   6.812   3.507   1.720
 1637SOL    HW2 5811   6.920   3.519   1.842
 1638SOL     OW 5812   0.916   2.779   4.648
 1638SOL    HW1 5813   0.984   2.710   4.673
 1638SOL    HW2 5814   0.907   2.846   4.722
 1639SOL     OW 5815   5.085   4.805   2.195
 1639SOL    HW1 5816   5.010   4.851   2.147
 1639SOL    HW2 5817   5.134   4.870   2.252
 1640SOL     OW 5818   6.010   0.230   1.487
 1640SOL    HW1 5819   6.066   0.240   1.405
 1640SOL    HW2 5820   5.960   0.315   1.505
 1641SOL     OW 5821   6.216   2.263   5.508
 1641SOL    HW1 5822   6.201   2.288   5.412
 1641SOL    HW2 5823   6.313   2.240   5.522
 1642SOL     OW 5824   0.132   2.534   1.807
 1642SOL    HW1 5825   0.172   2.626   1.812
 1642SOL    HW2 5826   0.189   2.475   1.750
 1643SOL     OW 5827   4.393   0.518   5.556
 1643SOL    HW1 5828   4.317   0.520   5.620
 1643SOL    HW2 5829   4.465   0.458   5.592
 1644SOL     OW 5830   3.255   0.494   1.192
 1644SOL    HW1 5831   3.308   0.526   1.271
 1644SOL    HW2 5832   3.195   0.419   1.221
 1645SOL     OW 5833   2.306   0.351   6.592
 1645SOL    HW1 5834   2.341   0.261   6.567
 1645SOL    HW2 5835   2.288   0.354   6.690
 1646SOL     OW 5836   0.941   3.757   1.274
 1646SOL    HW1 5837   1.000   3.703   1.214
 1646SOL    HW2 5838   0.963   3.737   1.369
 1647SOL     OW 5839   5.809   3.467   3.808
 1647SOL    HW1 5840   5.777   3.376   3.833
 1647SOL    HW2 5841   5.805   3.478   3.709
 1648SOL     OW 5842   4.503   0.133   2.348
 1648SOL    HW1 5843   4.427   0.172   2.399
 1648SOL    HW2 5844   4.566   0.205   2.319
 1649SOL     OW 5845   3.140   0.754   3.125
 1649SOL    HW1 5846   3.170   0.805   3.044
 1649SOL    HW2 5847   3.055   0.707   3.105
 1650SOL     OW 5848   2.769   6.066   3.663
 1650SOL    HW1 5849   2.700   6.031   3.726
 1650SOL    HW2 5850   2.816   6.143   3.706
 1651SOL     OW 5851   1.424   6.793   0.685
 1651SOL    HW1 5852   1.436   6.843   0.600
 1651SOL    HW2 5853   1.401   6.857   0.759
 1652SOL     OW 5854   3.009   2.617   1.457
 1652SOL    HW1 5855   3.050   2.637   1.546
 1652SOL    HW2 5856   3.022   2.520   1.435
 1653SOL     OW 5857   0.806   6.060   1.547
 1653SOL    HW1 5858   0.868   6.040   1.623
 1653SOL    HW2 5859   0.761   6.148   1.563
 1654SOL     OW 5860   0.545   3.341   2.888
 1654SOL    HW1 5861   0.616   3.371   2.951
 1654SOL    HW2 5862   0.484   3.417   2.867
 1655SOL     OW 5863   4.853   4.860   6.325
 1655SOL    HW1 5864   4.794   4.871   6.406
 1655SOL    HW2 5865   4.947   4.880   6.350
 1656SOL     OW 5866   0.382   5.057   3.190
 1656SOL    HW1 5867   0.433   5.085   3.271
 1656SOL    HW2 5868   0.299   5.112   3.182
 1657SOL     OW 5869   1.315   0.477   5.247
 1657SOL    HW1 5870   1.293   0.546   5.315
 1657SOL    HW2 5871   1.354   0.522   5.166
 1658SOL     OW 5872   6.085   6.026   2.485
 1658SOL    HW1 5873   6.143   5.997   2.562
 1658SOL    HW2 5874   6.101   5.966   2.407
 1659SOL     OW 5875   4.227   2.313   5.765
 1659SOL    HW1 5876   4.143   2.349   5.804
 1659SOL    HW2 5877   4.300   2.316   5.834
 1660SOL     OW 5878   1.337   5.680   3.436
 1660SOL    HW1 5879   1.287   5.598   3.409
 1660SOL    HW2 5880   1.435   5.661   3.437
 1661SOL     OW 5881   2.661   0.274   2.191
 1661SOL    HW1 5882   2.561   0.269   2.184
 1661SOL    HW2 5883   2.687   0.304   2.283
 1662SOL     OW 5884   0.531   0.537   2.720
 1662SOL    HW1 5885   0.537   0.613   2.784
 1662SOL    HW2 5886   0.493   0.570   2.633
 1663SOL     OW 5887   2.686   6.889   3.416
 1663SOL    HW1 5888   2.616   6.864   3.349
 1663SOL    HW2 5889   2.764   6.827   3.409
 1664SOL     OW 5890   2.200   6.058   4.742
 1664SOL    HW1 5891   2.102   6.038   4.747
 1664SOL    HW2 5892   2.245   5.988   4.686
 1665SOL     OW 5893   0.059   0.344   4.066
 1665SOL    HW1 5894   0.133   0.280   4.087
 1665SOL    HW2 5895   0.058   0.362   3.968
 1666SOL     OW 5896   5.854   2.426   5.951
 1666SOL    HW1 5897   5.850   2.451   6.048
 1666SOL    HW2 5898   5.812   2.335   5.939
 1667SOL     OW 5899   6.517   0.670   6.194
 1667SOL    HW1 5900   6.446   0.673   6.124
 1667SOL    HW2 5901   6.602   0.706   6.156
 1668SOL     OW 5902   3.651   0.991   5.408
 1668SOL    HW1 5903   3.607   0.974   5.496
 1668SOL    HW2 5904   3.609   0.933   5.338
 1669SOL     OW 5905   5.979   6.643   6.478
 1669SOL    HW1 5906   5.885   6.674   6.495
 1669SOL    HW2 5907   5.978   6.570   6.410
 1670SOL     OW 5908   5.861   4.313   5.776
 1670SOL    HW1 5909   5.925   4.364   5.833
 1670SOL    HW2 5910   5.903   4.226   5.748
 1671SOL     OW 5911   5.963   3.713   0.563
 1671SOL    HW1 5912   5.875   3.759   0.556
 1671SOL    HW2 5913   5.950   3.615   0.553
 1672SOL     OW 5914   1.654   5.171   2.338
 1672SOL    HW1 5915   1.736   5.174   2.282
 1672SOL    HW2 5916   1.633   5.263   2.371
 1673SOL     OW 5917   0.050   2.184   3.936
 1673SOL    HW1 5918   6.995   2.126   3.904
 1673SOL    HW2 5919   0.125   2.180   3.870
 1674SOL     OW 5920   0.270   4.274   6.438
 1674SOL    HW1 5921   0.285   4.218   6.520
 1674SOL    HW2 5922   0.342   4.343   6.431
 1675SOL     OW 5923   5.076   1.915   6.646
 1675SOL    HW1 5924   5.081   1.927   6.745
 1675SOL    HW2 5925   4.984   1.937   6.614
 1676SOL     OW 5926   1.457   0.181   3.054
 1676SOL    HW1 5927   1.423   0.096   3.093
 1676SOL    HW2 5928   1.381   0.242   3.036
 1677SOL     OW 5929   5.890   1.628   5.422
 1677SOL    HW1 5930   5.889   1.662   5.328
 1677SOL    HW2 5931   5.935   1.538   5.425
 1678SOL     OW 5932   5.149   0.415   1.462
 1678SOL    HW1 5933   5.161   0.324   1.420
 1678SOL    HW2 5934   5.051   0.432   1.475
 1679SOL     OW 5935   0.397   3.791   6.793
 1679SOL    HW1 5936   0.417   3.829   6.702
 1679SOL    HW2 5937   0.378   3.865   6.857
 1680SOL     OW 5938   1.049   1.608   4.356
 1680SOL    HW1 5939   0.963   1.633   4.314
 1680SOL    HW2 5940   1.104   1.690   4.372
 1681SOL     OW 5941   6.367   5.619   1.164
 1681SOL    HW1 5942   6.425   5.669   1.099
 1681SOL    HW2 5943   6.387   5.650   1.257
 1682SOL     OW 5944   6.631   3.467   5.577
 1682SOL    HW1 5945   6.564   3.515   5.521
 1682SOL    HW2 5946   6.585   3.426   5.656
 1683SOL     OW 5947   5.417   5.642   0.832
 1683SOL    HW1 5948   5.325   5.618   0.803
 1683SOL    HW2 5949   5.428   5.742   0.827
 1684SOL     OW 5950   0.692   5.793   5.065
 1684SOL    HW1 5951   0.664   5.714   5.119
 1684SOL    HW2 5952   0.695   5.768   4.969
 1685SOL     OW 5953   1.233   1.473   0.446
 1685SOL    HW1 5954   1.238   1.378   0.476
 1685SOL    HW2 5955   1.318   1.520   0.471
 1686SOL     OW 5956   1.773   6.921   0.088
 1686SOL    HW1 5957   1.769   7.007   0.037
 1686SOL    HW2 5958   1.858   6.918   0.142
 1687SOL     OW 5959   1.430   6.926   1.610
 1687SOL    HW1 5960   1.504   6.987   1.582
 1687SOL    HW2 5961   1.465   6.832   1.613
 1688SOL     OW 5962   0.796   2.209   3.313
 1688SOL    HW1 5963   0.786   2.303   3.346
 1688SOL    HW2 5964   0.730   2.192   3.240
 1689SOL     OW 5965   1.890   1.418   3.178
 1689SOL    HW1 5966   1.937   1.354   3.239
 1689SOL    HW2 5967   1.949   1.497   3.161
 1690SOL     OW 5968   1.056   1.143   0.914
 1690SOL    HW1 5969   0.997   1.154   0.994
 1690SOL    HW2 5970   1.141   1.194   0.928
 1691SOL     OW 5971   5.385   4.372   2.508
 1691SOL    HW1 5972   5.374   4.336   2.415
 1691SOL    HW2 5973   5.306   4.429   2.531
 1692SOL     OW 5974   1.382   0.628   3.550
 1692SOL    HW1 5975   1.326   0.547   3.535
 1692SOL    HW2 5976   1.478   0.606   3.534
 1693SOL     OW 5977   2.794   2.312   3.776
 1693SOL    HW1 5978   2.749   2.290   3.862
 1693SOL    HW2 5979   2.859   2.240   3.752
 1694SOL     OW 5980   4.791   5.771   5.213
 1694SOL    HW1 5981   4.822   5.847   5.270
 1694SOL    HW2 5982   4.842   5.771   5.127
 1695SOL     OW 5983   2.833   2.388   5.537
 1695SOL    HW1 5984   2.903   2.455   5.564
 1695SOL    HW2 5985   2.872   2.326   5.469
 1696SOL     OW 5986   3.898   5.843   0.638
 1696SOL    HW1 5987   3.974   5.877   0.584
 1696SOL    HW2 5988   3.893   5.743   0.629
 1697SOL     OW 5989   0.428   1.176   1.968
 1697SOL    HW1 5990   0.493   1.125   1.912
 1697SOL    HW2 5991   0.436   1.273   1.948
 1698SOL     OW 5992   4.789   2.179   1.161
 1698SOL    HW1 5993   4.845   2.096   1.152
 1698SOL    HW2 5994   4.848   2.259   1.160
 1699SOL     OW 5995   2.442   3.317   1.097
 1699SOL    HW1 5996   2.466   3.414   1.092
 1699SOL    HW2 5997   2.350   3.308   1.137
 1700SOL     OW 5998   6.377   3.347   3.696
 1700SOL    HW1 5999   6.398   3.280   3.624
 1700SOL    HW2 6000   6.431   3.326   3.777
 1701SOL     OW 6001   5.422   3.297   4.694
 1701SOL    HW1 6002   5.334   3.294   4.647
 1701SOL    HW2 6003   5.459   3.205   4.702
 1702SOL     OW 6004   4.861   2.804   0.335
 1702SOL    HW1 6005   4.920   2.825   0.257
 1702SOL    HW2 6006   4.909   2.825   0.420
 1703SOL     OW 6007   1.907   3.825   0.149
 1703SOL    HW1 6008   1.955   3.909   0.125
 1703SOL    HW2 6009   1.871   3.782   0.066
 1704SOL     OW 6010   0.993   1.177   2.144
 1704SOL    HW1 6011   0.898   1.169   2.113
 1704SOL    HW2 6012   1.002   1.134   2.234
 1705SOL     OW 6013   4.452   3.195   1.653
 1705SOL    HW1 6014   4.378   3.229   1.711
 1705SOL    HW2 6015   4.527   3.164   1.712
 1706SOL     OW 6016   2.789   1.177   0.076
 1706SOL    HW1 6017   2.846   1.177   0.158
 1706SOL    HW2 6018   2.836   1.130   0.002
 1707SOL     OW 6019   5.399   2.341   3.167
 1707SOL    HW1 6020   5.365   2.378   3.080
 1707SOL    HW2 6021   5.426   2.246   3.153
 1708SOL     OW 6022   7.007   5.027   3.067
 1708SOL    HW1 6023   6.917   5.070   3.079
 1708SOL    HW2 6024   0.041   5.081   3.002
 1709SOL     OW 6025   3.011   6.048   2.871
 1709SOL    HW1 6026   2.929   6.066   2.818
 1709SOL    HW2 6027   3.089   6.094   2.828
 1710SOL     OW 6028   0.113   6.131   4.004
 1710SOL    HW1 6029   0.193   6.160   4.056
 1710SOL    HW2 6030   0.074   6.209   3.956
 1711SOL     OW 6031   1.654   4.420   5.780
 1711SOL    HW1 6032   1.563   4.405   5.743
 1711SOL    HW2 6033   1.690   4.506   5.745
 1712SOL     OW 6034   0.843   4.426   0.578
 1712SOL    HW1 6035   0.767   4.483   0.546
 1712SOL    HW2 6036   0.819   4.330   0.566
 1713SOL     OW 6037   0.820   3.263   0.731
 1713SOL    HW1 6038   0.809   3.234   0.826
 1713SOL    HW2 6039   0.901   3.220   0.692
 1714SOL     OW 6040   3.204   1.683   0.633
 1714SOL    HW1 6041   3.170   1.606   0.688
 1714SOL    HW2 6042   3.300   1.698   0.654
 1715SOL     OW 6043   0.103   3.202   3.689
 1715SOL    HW1 6044   0.175   3.230   3.753
 1715SOL    HW2 6045   0.037   3.277   3.678
 1716SOL     OW 6046   0.166   6.546   0.244
 1716SOL    HW1 6047   0.091   6.593   0.291
 1716SOL    HW2 6048   0.243   6.608   0.234
 1717SOL     OW 6049   3.166   0.385   6.937
 1717SOL    HW1 6050   3.138   0.303   6.888
 1717SOL    HW2 6051   3.177   0.461   6.873
 1718SOL     OW 6052   1.245   4.708   6.046
 1718SOL    HW1 6053   1.324   4.684   5.991
 1718SOL    HW2 6054   1.261   4.795   6.092
 1719SOL     OW 6055   2.120   3.543   1.706
 1719SOL    HW1 6056   2.126   3.468   1.640
 1719SOL    HW2 6057   2.154   3.512   1.795
 1720SOL     OW 6058   6.529   1.251   1.246
 1720SOL    HW1 6059   6.583   1.335   1.250
 1720SOL    HW2 6060   6.461   1.257   1.173
 1721SOL     OW 6061   1.826   6.298   3.786
 1721SOL    HW1 6062   1.868   6.284   3.697
 1721SOL    HW2 6063   1.761   6.374   3.781
 1722SOL     OW 6064   6.031   6.428   2.352
 1722SOL    HW1 6065   6.012   6.350   2.292
 1722SOL    HW2 6066   5.954   6.440   2.416
 1723SOL     OW 6067   6.227   1.625   2.290
 1723SOL    HW1 6068   6.308   1.679   2.313
 1723SOL    HW2 6069   6.153   1.686   2.262
 1724SOL     OW 6070   4.944   0.851   6.949
 1724SOL    HW1 6071   4.908   0.925   7.005
 1724SOL    HW2 6072   5.038   0.831   6.976
 1725SOL     OW 6073   3.976   4.531   1.706
 1725SOL    HW1 6074   4.041   4.457   1.688
 1725SOL    HW2 6075   4.014   4.594   1.773
 1726SOL     OW 6076   0.902   4.556   4.579
 1726SOL    HW1 6077   0.896   4.526   4.484
 1726SOL    HW2 6078   0.921   4.654   4.582
 1727SOL     OW 6079   3.346   3.729   5.313
 1727SOL    HW1 6080   3.314   3.790   5.386
 1727SOL    HW2 6081   3.305   3.757   5.226
 1728SOL     OW 6082   4.500   4.462   3.052
 1728SOL    HW1 6083   4.490   4.560   3.065
 1728SOL    HW2 6084   4.429   4.430   2.989
 1729SOL     OW 6085   2.141   3.657   3.161
 1729SOL    HW1 6086   2.118   3.740   3.111
 1729SOL    HW2 6087   2.187   3.682   3.247
 1730SOL     OW 6088   6.095   2.745   5.085
 1730SOL    HW1 6089   6.116   2.713   4.992
 1730SOL    HW2 6090   6.002   2.715   5.110
 1731SOL     OW 6091   1.834   5.461   0.421
 1731SOL    HW1 6092   1.909   5.421   0.473
 1731SOL    HW2 6093   1.778   5.389   0.381
 1732SOL     OW 6094   0.570   4.751   0.013
 1732SOL    HW1 6095   0.581   4.674   6.970
 1732SOL    HW2 6096   0.654   4.805   0.015
 1733SOL     OW 6097   1.773   3.753   0.663
 1733SOL    HW1 6098   1.845   3.772   0.730
 1733SOL    HW2 6099   1.815   3.721   0.578
 1734SOL     OW 6100   4.848   2.630   0.657
 1734SOL    HW1 6101   4.853   2.564   0.583
 1734SOL    HW2 6102   4.788   2.595   0.729
 1735SOL     OW 6103   6.155   5.020   1.513
 1735SOL    HW1 6104   6.239   5.072   1.502
 1735SOL    HW2 6105   6.079   5.083   1.533
 1736SOL     OW 6106   3.956   3.354   0.737
 1736SOL    HW1 6107   3.952   3.259   0.766
 1736SOL    HW2 6108   3.875   3.377   0.683
 1737SOL     OW 6109   1.971   6.552   3.991
 1737SOL    HW1 6110   1.885   6.547   3.939
 1737SOL    HW2 6111   1.987   6.464   4.036
 1738SOL     OW 6112   2.136   2.655   2.402
 1738SOL    HW1 6113   2.231   2.650   2.370
 1738SOL    HW2 6114   2.077   2.686   2.328
 1739SOL     OW 6115   4.424   1.560   4.893
 1739SOL    HW1 6116   4.341   1.529   4.938
 1739SOL    HW2 6117   4.415   1.657   4.870
 1740SOL     OW 6118   0.674   1.299   5.845
 1740SOL    HW1 6119   0.770   1.283   5.825
 1740SOL    HW2 6120   0.619   1.228   5.802
 1741SOL     OW 6121   1.249   6.981   3.035
 1741SOL    HW1 6122   1.320   6.919   3.000
 1741SOL    HW2 6123   1.177   6.927   3.079
 1742SOL     OW 6124   6.078   0.847   4.678
 1742SOL    HW1 6125   6.064   0.773   4.744
 1742SOL    HW2 6126   6.125   0.812   4.597
 1743SOL     OW 6127   3.996   1.223   1.159
 1743SOL    HW1 6128   3.977   1.151   1.092
 1743SOL    HW2 6129   4.006   1.311   1.112
 1744SOL     OW 6130   2.702   0.705   0.844
 1744SOL    HW1 6131   2.678   0.774   0.776
 1744SOL    HW2 6132   2.695   0.614   0.803
 1745SOL     OW 6133   0.301   2.322   3.125
 1745SOL    HW1 6134   0.344   2.248   3.072
 1745SOL    HW2 6135   0.212   2.342   3.086
 1746SOL     OW 6136   2.969   0.959   5.920
 1746SOL    HW1 6137   2.879   0.943   5.959
 1746SOL    HW2 6138   2.966   0.945   5.821
 1747SOL     OW 6139   3.189   0.249   1.884
 1747SOL    HW1 6140   3.240   0.335   1.883
 1747SOL    HW2 6141   3.253   0.172   1.873
 1748SOL     OW 6142   5.592   2.079   2.163
 1748SOL    HW1 6143   5.545   2.167   2.172
 1748SOL    HW2 6144   5.579   2.044   2.070
 1749SOL     OW 6145   3.846   6.811   6.370
 1749SOL    HW1 6146   3.772   6.744   6.368
 1749SOL    HW2 6147   3.934   6.764   6.364
 1750SOL     OW 6148   4.655   0.881   3.392
 1750SOL    HW1 6149   4.642   0.827   3.474
 1750SOL    HW2 6150   4.602   0.966   3.399
 1751SOL     OW 6151   2.093   5.685   3.534
 1751SOL    HW1 6152   2.120   5.773   3.495
 1751SOL    HW2 6153   2.006   5.695   3.582
 1752SOL     OW 6154   5.891   2.363   0.592
 1752SOL    HW1 6155   5.906   2.297   0.666
 1752SOL    HW2 6156   5.852   2.315   0.513
 1753SOL     OW 6157   1.785   0.386   1.745
 1753SOL    HW1 6158   1.800   0.362   1.841
 1753SOL    HW2 6159   1.766   0.483   1.737
 1754SOL     OW 6160   4.118   3.439   0.930
 1754SOL    HW1 6161   4.211   3.410   0.906
 1754SOL    HW2 6162   4.054   3.406   0.860
 1755SOL     OW 6163   5.145   3.796   0.581
 1755SOL    HW1 6164   5.215   3.747   0.633
 1755SOL    HW2 6165   5.081   3.840   0.643
 1756SOL     OW 6166   6.492   5.751   4.505
 1756SOL    HW1 6167   6.465   5.760   4.409
 1756SOL    HW2 6168   6.537   5.662   4.519
 1757SOL     OW 6169   2.955   6.682   4.706
 1757SOL    HW1 6170   2.860   6.669   4.736
 1757SOL    HW2 6171   2.958   6.687   4.607
 1758SOL     OW 6172   2.058   0.765   3.095
 1758SOL    HW1 6173   2.009   0.851   3.102
 1758SOL    HW2 6174   2.041   0.710   3.176
 1759SOL     OW 6175   0.900   5.784   6.669
 1759SOL    HW1 6176   0.918   5.729   6.751
 1759SOL    HW2 6177   0.906   5.726   6.588
 1760SOL     OW 6178   6.026   0.650   2.648
 1760SOL    HW1 6179   6.098   0.718   2.628
 1760SOL    HW2 6180   5.956   0.654   2.577
 1761SOL     OW 6181   6.608   2.675   1.130
 1761SOL    HW1 6182   6.520   2.721   1.116
 1761SOL    HW2 6183   6.657   2.719   1.206
 1762SOL     OW 6184   6.515   1.808   6.277
 1762SOL    HW1 6185   6.570   1.781   6.356
 1762SOL    HW2 6186   6.503   1.730   6.216
 1763SOL     OW 6187   2.100   4.052   4.021
 1763SOL    HW1 6188   2.074   4.065   3.926
 1763SOL    HW2 6189   2.020   4.068   4.080
 1764SOL     OW 6190   0.010   3.241   4.036
 1764SOL    HW1 6191   7.009   3.322   4.092
 1764SOL    HW2 6192   0.095   3.257   3.985
 1765SOL     OW 6193   2.730   2.454   6.209
 1765SOL    HW1 6194   2.729   2.438   6.308
 1765SOL    HW2 6195   2.686   2.541   6.189
 1766SOL     OW 6196   5.545   3.010   5.264
 1766SOL    HW1 6197   5.624   2.972   5.313
 1766SOL    HW2 6198   5.530   3.104   5.294
 1767SOL     OW 6199   5.921   3.382   2.541
 1767SOL    HW1 6200   5.916   3.282   2.548
 1767SOL    HW2 6201   5.872   3.412   2.459
 1768SOL     OW 6202   5.323   6.774   4.049
 1768SOL    HW1 6203   5.390   6.773   3.974
 1768SOL    HW2 6204   5.357   6.717   4.124
 1769SOL     OW 6205   4.151   1.600   2.423
 1769SOL    HW1 6206   4.213   1.605   2.344
 1769SOL    HW2 6207   4.056   1.606   2.391
 1770SOL     OW 6208   2.081   5.814   5.496
 1770SOL    HW1 6209   2.122   5.733   5.539
 1770SOL    HW2 6210   2.088   5.892   5.558
 1771SOL     OW 6211   4.616   5.754   6.744
 1771SOL    HW1 6212   4.691   5.689   6.757
 1771SOL    HW2 6213   4.551   5.717   6.677
 1772SOL     OW 6214   3.506   6.536   3.074
 1772SOL    HW1 6215   3.467   6.545   3.165
 1772SOL    HW2 6216   3.509   6.626   3.030
 1773SOL     OW 6217   1.285   5.497   6.136
 1773SOL    HW1 6218   1.224   5.576   6.135
 1773SOL    HW2 6219   1.311   5.476   6.230
 1774SOL     OW 6220   4.189   5.302   1.657
 1774SOL    HW1 6221   4.188   5.392   1.701
 1774SOL    HW2 6222   4.142   5.236   1.716
 1775SOL     OW 6223   0.714   4.362   2.286
 1775SOL    HW1 6224   0.646   4.327   2.221
 1775SOL    HW2 6225   0.750   4.285   2.341
 1776SOL     OW 6226   3.213   5.811   5.007
 1776SOL    HW1 6227   3.308   5.804   5.034
 1776SOL    HW2 6228   3.179   5.721   4.979
 1777SOL     OW 6229   4.294   6.063   0.542
 1777SOL    HW1 6230   4.274   6.064   0.640
 1777SOL    HW2 6231   4.356   5.988   0.521
 1778SOL     OW 6232   5.558   3.530   5.798
 1778SOL    HW1 6233   5.484   3.463   5.788
 1778SOL    HW2 6234   5.609   3.536   5.713
 1779SOL     OW 6235   3.416   0.199   4.829
 1779SOL    HW1 6236   3.369   0.128   4.882
 1779SOL    HW2 6237   3.481   0.247   4.887
 1780SOL     OW 6238   3.375   3.441   6.111
 1780SOL    HW1 6239   3.314   3.383   6.164
 1780SOL    HW2 6240   3.448   3.386   6.071
 1781SOL     OW 6241   3.670   5.679   2.981
 1781SOL    HW1 6242   3.601   5.734   3.027
 1781SOL    HW2 6243   3.665   5.584   3.013
 1782SOL     OW 6244   2.925   1.524   3.598
 1782SOL    HW1 6245   2.952   1.605   3.651
 1782SOL    HW2 6246   2.897   1.552   3.506
 1783SOL     OW 6247   1.824   5.786   6.770
 1783SOL    HW1 6248   1.873   5.870   6.796
 1783SOL    HW2 6249   1.882   5.707   6.788
 1784SOL     OW 6250   3.352   6.948   5.754
 1784SOL    HW1 6251   3.391   6.912   5.839
 1784SOL    HW2 6252   3.257   6.920   5.747
 1785SOL     OW 6253   6.196   4.056   2.410
 1785SOL    HW1 6254   6.138   3.975   2.422
 1785SOL    HW2 6255   6.269   4.034   2.345
 1786SOL     OW 6256   3.376   2.298   0.788
 1786SOL    HW1 6257   3.352   2.364   0.860
 1786SOL    HW2 6258   3.411   2.348   0.709
 1787SOL     OW 6259   3.535   1.145   6.082
 1787SOL    HW1 6260   3.539   1.120   6.179
 1787SOL    HW2 6261   3.446   1.185   6.061
 1788SOL     OW 6262   1.722   5.170   5.720
 1788SOL    HW1 6263   1.717   5.156   5.819
 1788SOL    HW2 6264   1.816   5.160   5.689
 1789SOL     OW 6265   6.598   1.577   7.005
 1789SOL    HW1 6266   6.596   1.541   0.079
 1789SOL    HW2 6267   6.689   1.563   6.967
 1790SOL     OW 6268   3.821   6.683   3.831
 1790SOL    HW1 6269   3.858   6.622   3.901
 1790SOL    HW2 6270   3.886   6.757   3.813
 1791SOL     OW 6271   6.819   6.465   2.661
 1791SOL    HW1 6272   6.726   6.495   2.638
 1791SOL    HW2 6273   6.848   6.508   2.746
 1792SOL     OW 6274   1.203   3.218   5.029
 1792SOL    HW1 6275   1.163   3.273   5.102
 1792SOL    HW2 6276   1.146   3.137   5.012
 1793SOL     OW 6277   6.805   0.239   3.777
 1793SOL    HW1 6278   6.807   0.331   3.738
 1793SOL    HW2 6279   6.898   0.201   3.777
 1794SOL     OW 6280   4.668   5.117   6.128
 1794SOL    HW1 6281   4.704   5.031   6.092
 1794SOL    HW2 6282   4.633   5.173   6.054
 1795SOL     OW 6283   0.442   2.940   0.648
 1795SOL    HW1 6284   0.534   2.921   0.683
 1795SOL    HW2 6285   0.374   2.909   0.714
 1796SOL     OW 6286   3.095   0.820   6.105
 1796SOL    HW1 6287   3.145   0.888   6.159
 1796SOL    HW2 6288   3.053   0.864   6.026
 1797SOL     OW 6289   1.005   6.511   0.493
 1797SOL    HW1 6290   1.104   6.515   0.503
 1797SOL    HW2 6291   0.964   6.482   0.580
 1798SOL     OW 6292   4.384   2.403   2.964
 1798SOL    HW1 6293   4.469   2.443   2.999
 1798SOL    HW2 6294   4.315   2.404   3.036
 1799SOL     OW 6295   1.100   2.021   6.407
 1799SOL    HW1 6296   1.136   2.017   6.314
 1799SOL    HW2 6297   1.042   2.102   6.417
 1800SOL     OW 6298   4.265   4.934   1.548
 1800SOL    HW1 6299   4.315   5.013   1.585
 1800SOL    HW2 6300   4.211   4.963   1.470
 1801SOL     OW 6301   6.867   6.659   2.039
 1801SOL    HW1 6302   6.912   6.604   1.969
 1801SOL    HW2 6303   6.931   6.727   2.075
 1802SOL     OW 6304   5.778   5.993   4.622
 1802SOL    HW1 6305   5.814   6.035   4.706
 1802SOL    HW2 6306   5.765   6.063   4.552
 1803SOL     OW 6307   0.068   5.994   0.450
 1803SOL    HW1 6308   0.080   6.093   0.449
 1803SOL    HW2 6309   0.156   5.949   0.465
 1804SOL     OW 6310   2.899   3.518   5.100
 1804SOL    HW1 6311   2.964   3.474   5.038
 1804SOL    HW2 6312   2.868   3.453   5.169
 1805SOL     OW 6313   5.089   3.166   5.736
 1805SOL    HW1 6314   5.098   3.131   5.830
 1805SOL    HW2 6315   5.155   3.118   5.677
 1806SOL     OW 6316   1.337   6.836   1.357
 1806SOL    HW1 6317   1.322   6.738   1.371
 1806SOL    HW2 6318   1.355   6.880   1.446
 1807SOL     OW 6319   6.331   1.726   4.908
 1807SOL    HW1 6320   6.378   1.770   4.985
 1807SOL    HW2 6321   6.344   1.781   4.825
 1808SOL     OW 6322   0.929   4.103   4.177
 1808SOL    HW1 6323   0.913   4.199   4.153
 1808SOL    HW2 6324   0.842   4.054   4.183
 1809SOL     OW 6325   3.326   1.569   5.567
 1809SOL    HW1 6326   3.367   1.659   5.580
 1809SOL    HW2 6327   3.256   1.574   5.496
 1810SOL     OW 6328   2.952   6.423   3.020
 1810SOL    HW1 6329   3.034   6.472   2.992
 1810SOL    HW2 6330   2.871   6.466   2.978
 1811SOL     OW 6331   5.951   5.229   3.353
 1811SOL    HW1 6332   5.992   5.201   3.265
 1811SOL    HW2 6333   5.852   5.224   3.346
 1812SOL     OW 6334   4.291   5.316   6.325
 1812SOL    HW1 6335   4.327   5.257   6.396
 1812SOL    HW2 6336   4.210   5.365   6.359
 1813SOL     OW 6337   6.331   4.841   0.019
 1813SOL    HW1 6338   6.426   4.864   0.001
 1813SOL    HW2 6339   6.301   4.769   6.977
 1814SOL     OW 6340   4.619   6.454   2.776
 1814SOL    HW1 6341   4.664   6.497   2.854
 1814SOL    HW2 6342   4.520   6.452   2.791
 1815SOL     OW 6343   0.113   0.245   3.145
 1815SOL    HW1 6344   0.119   0.319   3.212
 1815SOL    HW2 6345   0.094   0.284   3.055
 1816SOL     OW 6346   1.241   3.989   0.016
 1816SOL    HW1 6347   1.237   4.034   6.947
 1816SOL    HW2 6348   1.332   3.949   0.029
 1817SOL     OW 6349   2.078   5.503   1.988
 1817SOL    HW1 6350   1.988   5.460   1.984
 1817SOL    HW2 6351   2.146   5.442   1.947
 1818SOL     OW 6352   1.500   0.903   3.544
 1818SOL    HW1 6353   1.485   0.970   3.616
 1818SOL    HW2 6354   1.444   0.822   3.561
 1819SOL     OW 6355   1.409   4.739   1.432
 1819SOL    HW1 6356   1.372   4.651   1.402
 1819SOL    HW2 6357   1.364   4.812   1.381
 1820SOL     OW 6358   5.007   0.281   2.548
 1820SOL    HW1 6359   5.099   0.277   2.586
 1820SOL    HW2 6360   5.009   0.254   2.452
 1821SOL     OW 6361   2.531   1.925   2.892
 1821SOL    HW1 6362   2.476   1.962   2.818
 1821SOL    HW2 6363   2.536   1.991   2.967
 1822SOL     OW 6364   3.300   2.810   1.531
 1822SOL    HW1 6365   3.343   2.884   1.584
 1822SOL    HW2 6366   3.368   2.740   1.512
 1823SOL     OW 6367   4.143   6.560   2.235
 1823SOL    HW1 6368   4.073   6.587   2.169
 1823SOL    HW2 6369   4.191   6.641   2.269
 1824SOL     OW 6370   4.865   2.533   1.607
 1824SOL    HW1 6371   4.849   2.629   1.631
 1824SOL    HW2 6372   4.789   2.478   1.641
 1825SOL     OW 6373   1.354   0.765   1.870
 1825SOL    HW1 6374   1.315   0.683   1.910
 1825SOL    HW2 6375   1.303   0.789   1.787
 1826SOL     OW 6376   3.390   0.049   6.862
 1826SOL    HW1 6377   3.420   0.004   6.778
 1826SOL    HW2 6378   3.460   0.113   6.893
 1827SOL     OW 6379   6.986   6.177   1.449
 1827SOL    HW1 6380   0.057   6.149   1.480
 1827SOL    HW2 6381   6.984   6.276   1.434
 1828SOL     OW 6382   0.574   2.389   6.366
 1828SOL    HW1 6383   0.491   2.444   6.355
 1828SOL    HW2 6384   0.555   2.293   6.346
 1829SOL     OW 6385   5.492   5.655   2.711
 1829SOL    HW1 6386   5.483   5.612   2.621
 1829SOL    HW2 6387   5.419   5.724   2.722
 1830SOL     OW 6388   4.453   6.278   3.355
 1830SOL    HW1 6389   4.474   6.366   3.313
 1830SOL    HW2 6390   4.529   6.215   3.339
 1831SOL     OW 6391   5.207   6.588   2.110
 1831SOL    HW1 6392   5.252   6.516   2.058
 1831SOL    HW2 6393   5.179   6.661   2.048
 1832SOL     OW 6394   4.546   2.656   0.874
 1832SOL    HW1 6395   4.478   2.636   0.944
 1832SOL    HW2 6396   4.624   2.702   0.915
 1833SOL     OW 6397   4.863   0.745   4.819
 1833SOL    HW1 6398   4.802   0.716   4.892
 1833SOL    HW2 6399   4.811   0.759   4.735
 1834SOL     OW 6400   3.502   3.161   0.973
 1834SOL    HW1 6401   3.485   3.063   0.980
 1834SOL    HW2 6402   3.443   3.201   0.903
 1835SOL     OW 6403   1.846   5.175   0.888
 1835SOL    HW1 6404   1.798   5.262   0.876
 1835SOL    HW2 6405   1.800   5.104   0.834
 1836SOL     OW 6406   0.808   6.840   0.618
 1836SOL    HW1 6407   0.760   6.816   0.533
 1836SOL    HW2 6408   0.903   6.864   0.597
 1837SOL     OW 6409   0.748   2.218   4.665
 1837SOL    HW1 6410   0.773   2.267   4.748
 1837SOL    HW2 6411   0.830   2.179   4.624
 1838SOL     OW 6412   7.007   2.688   4.067
 1838SOL    HW1 6413   6.943   2.707   4.141
 1838SOL    HW2 6414   0.080   2.708   4.097
 1839SOL     OW 6415   6.538   2.459   5.609
 1839SOL    HW1 6416   6.614   2.409   5.568
 1839SOL    HW2 6417   6.506   2.410   5.690
 1840SOL     OW 6418   2.805   5.872   0.459
 1840SOL    HW1 6419   2.790   5.854   0.556
 1840SOL    HW2 6420   2.864   5.801   0.420
 1841SOL     OW 6421   2.178   2.892   3.394
 1841SOL    HW1 6422   2.208   2.872   3.301
 1841SOL    HW2 6423   2.150   2.988   3.400
 1842SOL     OW 6424   0.985   4.653   0.436
 1842SOL    HW1 6425   0.991   4.587   0.511
 1842SOL    HW2 6426   0.983   4.745   0.474
 1843SOL     OW 6427   2.466   1.805   4.892
 1843SOL    HW1 6428   2.528   1.871   4.933
 1843SOL    HW2 6429   2.477   1.805   4.792
 1844SOL     OW 6430   4.382   2.408   3.881
 1844SOL    HW1 6431   4.419   2.485   3.829
 1844SOL    HW2 6432   4.298   2.375   3.837
 1845SOL     OW 6433   4.548   0.294   0.064
 1845SOL    HW1 6434   4.557   0.335   6.994
 1845SOL    HW2 6435   4.555   0.364   0.134
 1846SOL     OW 6436   3.197   1.813   6.117
 1846SOL    HW1 6437   3.189   1.775   6.025
 1846SOL    HW2 6438   3.275   1.876   6.121
 1847SOL     OW 6439   0.187   0.580   0.866
 1847SOL    HW1 6440   0.119   0.593   0.938
 1847SOL    HW2 6441   0.278   0.600   0.903
 1848SOL     OW 6442   2.779   6.875   1.815
 1848SOL    HW1 6443   2.838   6.918   1.884
 1848SOL    HW2 6444   2.684   6.899   1.834
 1849SOL     OW 6445   3.177   1.948   6.395
 1849SOL    HW1 6446   3.158   1.889   6.316
 1849SOL    HW2 6447   3.093   1.962   6.447
 1850SOL     OW 6448   6.553   2.721   2.488
 1850SOL    HW1 6449   6.460   2.718   2.524
 1850SOL    HW2 6450   6.572   2.636   2.439
 1851SOL     OW 6451   0.630   2.909   2.682
 1851SOL    HW1 6452   0.650   3.007   2.671
 1851SOL    HW2 6453   0.545   2.898   2.732
 1852SOL     OW 6454   4.566   3.065   0.183
 1852SOL    HW1 6455   4.595   2.987   0.238
 1852SOL    HW2 6456   4.581   3.045   0.086
 1853SOL     OW 6457   1.086   4.771   1.058
 1853SOL    HW1 6458   1.055   4.770   1.153
 1853SOL    HW2 6459   1.016   4.730   1.000
 1854SOL     OW 6460   2.516   5.683   5.085
 1854SOL    HW1 6461   2.440   5.638   5.132
 1854SOL    HW2 6462   2.509   5.668   4.987
 1855SOL     OW 6463   5.327   4.854   0.842
 1855SOL    HW1 6464   5.370   4.889   0.925
 1855SOL    HW2 6465   5.262   4.781   0.866
 1856SOL     OW 6466   5.336   2.047   4.494
 1856SOL    HW1 6467   5.410   2.111   4.469
 1856SOL    HW2 6468   5.270   2.043   4.419
 1857SOL     OW 6469   4.250   1.009   3.486
 1857SOL    HW1 6470   4.181   0.939   3.470
 1857SOL    HW2 6471   4.261   1.064   3.404
 1858SOL     OW 6472   4.920   3.097   3.868
 1858SOL    HW1 6473   4.958   3.026   3.927
 1858SOL    HW2 6474   4.858   3.155   3.921
 1859SOL     OW 6475   4.518   2.182   3.068
 1859SOL    HW1 6476   4.585   2.221   3.005
 1859SOL    HW2 6477   4.428   2.221   3.050
 1860SOL     OW 6478   5.602   0.814   4.543
 1860SOL    HW1 6479   5.657   0.896   4.560
 1860SOL    HW2 6480   5.662   0.739   4.513
 1861SOL     OW 6481   5.347   6.171   3.120
 1861SOL    HW1 6482   5.274   6.112   3.086
 1861SOL    HW2 6483   5.311   6.263   3.134
 1862SOL     OW 6484   1.951   1.652   0.803
 1862SOL    HW1 6485   1.942   1.710   0.723
 1862SOL    HW2 6486   1.888   1.683   0.874
 1863SOL     OW 6487   3.141   2.651   1.178
 1863SOL    HW1 6488   3.104   2.668   1.270
 1863SOL    HW2 6489   3.069   2.668   1.110
 1864SOL     OW 6490   1.060   6.739   4.710
 1864SOL    HW1 6491   1.104   6.706   4.794
 1864SOL    HW2 6492   1.066   6.668   4.640
 1865SOL     OW 6493   4.440   2.493   6.266
 1865SOL    HW1 6494   4.493   2.568   6.305
 1865SOL    HW2 6495   4.449   2.412   6.323
 1866SOL     OW 6496   4.839   4.664   2.501
 1866SOL    HW1 6497   4.847   4.572   2.462
 1866SOL    HW2 6498   4.800   4.726   2.433
 1867SOL     OW 6499   0.279   4.323   0.145
 1867SOL    HW1 6500   0.356   4.315   0.081
 1867SOL    HW2 6501   0.193   4.321   0.094
 1868SOL     OW 6502   6.052   4.484   5.926
 1868SOL    HW1 6503   6.130   4.421   5.919
 1868SOL    HW2 6504   6.040   4.511   6.021
 1869SOL     OW 6505   6.346   1.167   5.087
 1869SOL    HW1 6506   6.266   1.186   5.030
 1869SOL    HW2 6507   6.426   1.210   5.046
 1870SOL     OW 6508   1.588   5.666   4.244
 1870SOL    HW1 6509   1.683   5.647   4.219
 1870SOL    HW2 6510   1.564   5.611   4.324
 1871SOL     OW 6511   2.171   0.061   0.645
 1871SOL    HW1 6512   2.084   0.088   0.685
 1871SOL    HW2 6513   2.187   0.113   0.561
 1872SOL     OW 6514   2.107   4.145   0.331
 1872SOL    HW1 6515   2.167   4.222   0.352
 1872SOL    HW2 6516   2.160   4.060   0.336
 1873SOL     OW 6517   4.654   1.532   6.709
 1873SOL    HW1 6518   4.744   1.498   6.683
 1873SOL    HW2 6519   4.621   1.597   6.640
 1874SOL     OW 6520   1.133   1.731   2.666
 1874SOL    HW1 6521   1.181   1.649   2.695
 1874SOL    HW2 6522   1.035   1.713   2.663
 1875SOL     OW 6523   1.008   6.441   6.652
 1875SOL    HW1 6524   0.961   6.377   6.713
 1875SOL    HW2 6525   1.072   6.496   6.705
 1876SOL     OW 6526   3.063   6.992   3.666
 1876SOL    HW1 6527   3.128   0.019   3.607
 1876SOL    HW2 6528   3.085   6.895   3.670
 1877SOL     OW 6529   0.298   6.780   3.140
 1877SOL    HW1 6530   0.383   6.754   3.094
 1877SOL    HW2 6531   0.292   6.879   3.148
 1878SOL     OW 6532   6.468   2.758   4.891
 1878SOL    HW1 6533   6.508   2.816   4.820
 1878SOL    HW2 6534   6.374   2.734   4.865
 1879SOL     OW 6535   1.352   3.894   5.467
 1879SOL    HW1 6536   1.447   3.894   5.435
 1879SOL    HW2 6537   1.294   3.935   5.398
 1880SOL     OW 6538   5.736   0.889   5.590
 1880SOL    HW1 6539   5.725   0.917   5.495
 1880SOL    HW2 6540   5.769   0.966   5.645
 1881SOL     OW 6541   6.643   2.255   0.880
 1881SOL    HW1 6542   6.639   2.302   0.792
 1881SOL    HW2 6543   6.737   2.225   0.897
 1882SOL     OW 6544   1.053   3.956   6.239
 1882SOL    HW1 6545   0.961   3.961   6.201
 1882SOL    HW2 6546   1.069   4.036   6.297
 1883SOL     OW 6547   0.171   2.325   3.551
 1883SOL    HW1 6548   0.154   2.417   3.516
 1883SOL    HW2 6549   0.220   2.271   3.482
 1884SOL     OW 6550   0.162   2.479   1.461
 1884SOL    HW1 6551   0.243   2.420   1.455
 1884SOL    HW2 6552   0.190   2.571   1.489
 1885SOL     OW 6553   2.515   1.950   5.171
 1885SOL    HW1 6554   2.431   1.917   5.214
 1885SOL    HW2 6555   2.539   2.039   5.209
 1886SOL     OW 6556   1.129   6.316   3.401
 1886SOL    HW1 6557   1.068   6.315   3.480
 1886SOL    HW2 6558   1.178   6.403   3.399
 1887SOL     OW 6559   1.489   6.028   6.735
 1887SOL    HW1 6560   1.480   6.114   6.784
 1887SOL    HW2 6561   1.555   6.038   6.660
 1888SOL     OW 6562   2.463   0.726   1.512
 1888SOL    HW1 6563   2.474   0.747   1.609
 1888SOL    HW2 6564   2.475   0.627   1.499
 1889SOL     OW 6565   1.503   3.327   3.399
 1889SOL    HW1 6566   1.581   3.328   3.461
 1889SOL    HW2 6567   1.477   3.422   3.377
 1890SOL     OW 6568   0.331   5.977   3.659
 1890SOL    HW1 6569   0.305   6.021   3.573
 1890SOL    HW2 6570   0.252   5.930   3.697
 1891SOL     OW 6571   4.071   3.724   2.690
 1891SOL    HW1 6572   4.081   3.754   2.595
 1891SOL    HW2 6573   4.056   3.804   2.748
 1892SOL     OW 6574   0.452   0.621   2.053
 1892SOL    HW1 6575   0.371   0.569   2.028
 1892SOL    HW2 6576   0.431   0.683   2.128
 1893SOL     OW 6577   3.354   3.264   3.264
 1893SOL    HW1 6578   3.309   3.262   3.353
 1893SOL    HW2 6579   3.441   3.214   3.269
 1894SOL     OW 6580   3.564   3.962   4.340
 1894SOL    HW1 6581   3.624   3.918   4.407
 1894SOL    HW2 6582   3.550   4.058   4.365
 1895SOL     OW 6583   3.481   6.620   6.857
 1895SOL    HW1 6584   3.459   6.703   6.909
 1895SOL    HW2 6585   3.427   6.618   6.773
 1896SOL     OW 6586   5.544   2.214   0.990
 1896SOL    HW1 6587   5.551   2.122   1.029
 1896SOL    HW2 6588   5.447   2.238   0.979
 1897SOL     OW 6589   2.167   5.065   3.621
 1897SOL    HW1 6590   2.183   4.977   3.577
 1897SOL    HW2 6591   2.254   5.100   3.657
 1898SOL     OW 6592   1.636   6.138   3.951
 1898SOL    HW1 6593   1.611   6.046   3.923
 1898SOL    HW2 6594   1.693   6.180   3.880
 1899SOL     OW 6595   6.900   0.101   2.051
 1899SOL    HW1 6596   6.915   0.036   1.976
 1899SOL    HW2 6597   6.940   0.064   2.135
 1900SOL     OW 6598   2.889   6.655   0.246
 1900SOL    HW1 6599   2.883   6.571   0.192
 1900SOL    HW2 6600   2.800   6.702   0.246
 1901SOL     OW 6601   3.111   3.864   1.035
 1901SOL    HW1 6602   3.199   3.817   1.029
 1901SOL    HW2 6603   3.064   3.858   0.947
 1902SOL     OW 6604   1.422   6.325   4.692
 1902SOL    HW1 6605   1.516   6.356   4.676
 1902SOL    HW2 6606   1.394   6.350   4.785
 1903SOL     OW 6607   1.338   2.412   4.587
 1903SOL    HW1 6608   1.259   2.472   4.576
 1903SOL    HW2 6609   1.420   2.467   4.600
 1904SOL     OW 6610   5.503   5.486   2.223
 1904SOL    HW1 6611   5.452   5.524   2.145
 1904SOL    HW2 6612   5.480   5.537   2.306
 1905SOL     OW 6613   6.776   0.475   3.670
 1905SOL    HW1 6614   6.851   0.540   3.660
 1905SOL    HW2 6615   6.691   0.525   3.689
 1906SOL     OW 6616   2.205   0.334   5.536
 1906SOL    HW1 6617   2.257   0.418   5.551
 1906SOL    HW2 6618   2.194   0.318   5.438
 1907SOL     OW 6619   5.309   2.858   0.089
 1907SOL    HW1 6620   5.310   2.838   0.187
 1907SOL    HW2 6621   5.303   2.957   0.075
 1908SOL     OW 6622   3.528   1.112   1.006
 1908SOL    HW1 6623   3.524   1.051   0.927
 1908SOL    HW2 6624   3.441   1.111   1.054
 1909SOL     OW 6625   6.822   4.477   4.898
 1909SOL    HW1 6626   6.881   4.406   4.859
 1909SOL    HW2 6627   6.870   4.522   4.974
 1910SOL     OW 6628   6.672   6.596   5.577
 1910SOL    HW1 6629   6.665   6.571   5.674
 1910SOL    HW2 6630   6.646   6.692   5.566
 1911SOL     OW 6631   0.055   4.923   4.420
 1911SOL    HW1 6632   0.005   4.952   4.501
 1911SOL    HW2 6633   0.072   4.825   4.424
 1912SOL     OW 6634   2.696   5.334   2.478
 1912SOL    HW1 6635   2.716   5.429   2.503
 1912SOL    HW2 6636   2.761   5.273   2.524
 1913SOL     OW 6637   2.619   4.630   5.275
 1913SOL    HW1 6638   2.713   4.616   5.243
 1913SOL    HW2 6639   2.618   4.633   5.375
 1914SOL     OW 6640   2.650   4.002   6.428
 1914SOL    HW1 6641   2.649   4.042   6.336
 1914SOL    HW2 6642   2.578   3.933   6.434
 1915SOL     OW 6643   4.602   2.113   6.344
 1915SOL    HW1 6644   4.523   2.168   6.370
 1915SOL    HW2 6645   4.639   2.146   6.257
 1916SOL     OW 6646   3.679   0.890   2.198
 1916SOL    HW1 6647   3.602   0.859   2.141
 1916SOL    HW2 6648   3.713   0.978   2.164
 1917SOL     OW 6649   2.541   4.002   1.642
 1917SOL    HW1 6650   2.574   4.092   1.669
 1917SOL    HW2 6651   2.614   3.952   1.595
 1918SOL     OW 6652   6.275   2.371   4.258
 1918SOL    HW1 6653   6.265   2.453   4.313
 1918SOL    HW2 6654   6.219   2.380   4.175
 1919SOL     OW 6655   0.921   1.767   1.126
 1919SOL    HW1 6656   0.826   1.766   1.096
 1919SOL    HW2 6657   0.963   1.855   1.104
 1920SOL     OW 6658   5.027   2.389   0.332
 1920SOL    HW1 6659   5.088   2.342   0.396
 1920SOL    HW2 6660   4.947   2.423   0.381
 1921SOL     OW 6661   1.685   2.801   0.063
 1921SOL    HW1 6662   1.680   2.728   7.014
 1921SOL    HW2 6663   1.781   2.821   0.084
 1922SOL     OW 6664   3.322   3.427   2.281
 1922SOL    HW1 6665   3.236   3.380   2.259
 1922SOL    HW2 6666   3.385   3.361   2.323
 1923SOL     OW 6667   3.762   0.436   5.441
 1923SOL    HW1 6668   3.768   0.338   5.421
 1923SOL    HW2 6669   3.802   0.453   5.531
 1924SOL     OW 6670   4.129   0.262   0.761
 1924SOL    HW1 6671   4.083   0.189   0.712
 1924SOL    HW2 6672   4.105   0.257   0.858
 1925SOL     OW 6673   1.653   4.769   1.281
 1925SOL    HW1 6674   1.634   4.672   1.297
 1925SOL    HW2 6675   1.569   4.822   1.294
 1926SOL     OW 6676   3.415   0.085   1.851
 1926SOL    HW1 6677   3.467   0.033   1.919
 1926SOL    HW2 6678   3.478   0.141   1.797
 1927SOL     OW 6679   2.126   5.253   1.478
 1927SOL    HW1 6680   2.116   5.331   1.417
 1927SOL    HW2 6681   2.220   5.220   1.474
 1928SOL     OW 6682   5.392   4.183   2.904
 1928SOL    HW1 6683   5.404   4.136   2.991
 1928SOL    HW2 6684   5.322   4.253   2.914
 1929SOL     OW 6685   3.167   0.057   2.863
 1929SOL    HW1 6686   3.192   0.058   2.766
 1929SOL    HW2 6687   3.222   0.124   2.913
 1930SOL     OW 6688   4.849   3.349   6.234
 1930SOL    HW1 6689   4.928   3.288   6.235
 1930SOL    HW2 6690   4.858   3.415   6.309
 1931SOL     OW 6691   0.522   1.751   4.232
 1931SOL    HW1 6692   0.567   1.822   4.179
 1931SOL    HW2 6693   0.507   1.783   4.326
 1932SOL     OW 6694   4.393   2.250   2.137
 1932SOL    HW1 6695   4.405   2.344   2.169
 1932SOL    HW2 6696   4.463   2.229   2.068
 1933SOL     OW 6697   1.251   1.503   1.268
 1933SOL    HW1 6698   1.338   1.504   1.317
 1933SOL    HW2 6699   1.267   1.518   1.171
 1934SOL     OW 6700   0.129   0.277   6.131
 1934SOL    HW1 6701   0.154   0.213   6.203
 1934SOL    HW2 6702   0.157   0.369   6.158
 1935SOL     OW 6703   6.630   5.312   4.074
 1935SOL    HW1 6704   6.667   5.264   3.994
 1935SOL    HW2 6705   6.539   5.347   4.051
 1936SOL     OW 6706   4.533   3.181   5.405
 1936SOL    HW1 6707   4.563   3.140   5.491
 1936SOL    HW2 6708   4.435   3.166   5.392
 1937SOL     OW 6709   5.401   5.029   6.653
 1937SOL    HW1 6710   5.366   4.984   6.571
 1937SOL    HW2 6711   5.335   5.096   6.686
 1938SOL     OW 6712   0.797   3.119   6.501
 1938SOL    HW1 6713   0.736   3.095   6.425
 1938SOL    HW2 6714   0.765   3.204   6.544
 1939SOL     OW 6715   0.776   0.139   4.508
 1939SOL    HW1 6716   0.703   0.201   4.478
 1939SOL    HW2 6717   0.852   0.193   4.544
 1940SOL     OW 6718   6.972   4.702   0.572
 1940SOL    HW1 6719   6.977   4.799   0.549
 1940SOL    HW2 6720   7.019   4.686   0.659
 1941SOL     OW 6721   5.922   2.095   4.207
 1941SOL    HW1 6722   5.877   2.042   4.279
 1941SOL    HW2 6723   5.978   2.034   4.151
 1942SOL     OW 6724   6.058   3.751   2.640
 1942SOL    HW1 6725   6.141   3.696   2.643
 1942SOL    HW2 6726   6.060   3.817   2.715
 1943SOL     OW 6727   0.904   1.286   2.869
 1943SOL    HW1 6728   0.964   1.239   2.804
 1943SOL    HW2 6729   0.896   1.382   2.844
 1944SOL     OW 6730   0.193   2.725   2.904
 1944SOL    HW1 6731   0.101   2.761   2.885
 1944SOL    HW2 6732   0.206   2.719   3.003
 1945SOL     OW 6733   4.796   1.204   2.391
 1945SOL    HW1 6734   4.850   1.211   2.308
 1945SOL    HW2 6735   4.795   1.292   2.438
 1946SOL     OW 6736   5.987   5.291   1.050
 1946SOL    HW1 6737   6.081   5.324   1.039
 1946SOL    HW2 6738   5.926   5.345   0.992
 1947SOL     OW 6739   5.758   4.573   3.660
 1947SOL    HW1 6740   5.811   4.659   3.656
 1947SOL    HW2 6741   5.781   4.517   3.580
 1948SOL     OW 6742   4.930   3.193   3.139
 1948SOL    HW1 6743   4.893   3.148   3.221
 1948SOL    HW2 6744   5.011   3.246   3.165
 1949SOL     OW 6745   3.797   4.504   6.786
 1949SOL    HW1 6746   3.874   4.544   6.736
 1949SOL    HW2 6747   3.720   4.490   6.724
 1950SOL     OW 6748   3.027   3.899   3.341
 1950SOL    HW1 6749   2.986   3.947   3.264
 1950SOL    HW2 6750   3.041   3.803   3.317
 1951SOL     OW 6751   5.952   4.741   5.820
 1951SOL    HW1 6752   6.031   4.780   5.774
 1951SOL    HW2 6753   5.971   4.644   5.841
 1952SOL     OW 6754   5.913   5.029   0.382
 1952SOL    HW1 6755   5.946   4.940   0.351
 1952SOL    HW2 6756   5.835   5.017   0.444
 1953SOL     OW 6757   0.650   0.665   6.982
 1953SOL    HW1 6758   0.723   0.609   7.019
 1953SOL    HW2 6759   0.669   0.761   7.000
 1954SOL     OW 6760   4.023   6.950   2.080
 1954SOL    HW1 6761   4.081   6.955   1.999
 1954SOL    HW2 6762   4.079   6.932   2.161
 1955SOL     OW 6763   0.410   2.141   2.950
 1955SOL    HW1 6764   0.372   2.201   2.879
 1955SOL    HW2 6765   0.486   2.088   2.913
 1956SOL     OW 6766   5.824   0.290   1.821
 1956SOL    HW1 6767   5.883   0.212   1.841
 1956SOL    HW2 6768   5.843   0.323   1.729
 1957SOL     OW 6769   5.446   1.812   4.177
 1957SOL    HW1 6770   5.396   1.731   4.207
 1957SOL    HW2 6771   5.518   1.785   4.113
 1958SOL     OW 6772   4.451   1.839   0.946
 1958SOL    HW1 6773   4.422   1.935   0.952
 1958SOL    HW2 6774   4.498   1.825   0.858
 1959SOL     OW 6775   0.449   0.990   4.879
 1959SOL    HW1 6776   0.469   0.963   4.785
 1959SOL    HW2 6777   0.447   0.908   4.937
 1960SOL     OW 6778   6.153   4.293   4.074
 1960SOL    HW1 6779   6.243   4.250   4.078
 1960SOL    HW2 6780   6.082   4.226   4.097
 1961SOL     OW 6781   0.015   4.011   4.246
 1961SOL    HW1 6782   0.096   4.046   4.294
 1961SOL    HW2 6783   7.014   3.919   4.278
 1962SOL     OW 6784   1.200   0.278   2.564
 1962SOL    HW1 6785   1.248   0.194   2.589
 1962SOL    HW2 6786   1.255   0.331   2.499
 1963SOL     OW 6787   0.424   2.616   1.528
 1963SOL    HW1 6788   0.365   2.690   1.495
 1963SOL    HW2 6789   0.508   2.655   1.567
 1964SOL     OW 6790   5.786   3.586   1.031
 1964SOL    HW1 6791   5.826   3.602   1.121
 1964SOL    HW2 6792   5.823   3.501   0.993
 1965SOL     OW 6793   0.336   4.363   3.979
 1965SOL    HW1 6794   0.345   4.265   3.962
 1965SOL    HW2 6795   0.254   4.397   3.933
 1966SOL     OW 6796   1.830   5.119   0.049
 1966SOL    HW1 6797   1.925   5.134   0.023
 1966SOL    HW2 6798   1.770   5.148   6.995
 1967SOL     OW 6799   6.461   3.619   3.077
 1967SOL    HW1 6800   6.547   3.571   3.093
 1967SOL    HW2 6801   6.430   3.600   2.984
 1968SOL     OW 6802   2.593   1.135   5.008
 1968SOL    HW1 6803   2.689   1.163   5.001
 1968SOL    HW2 6804   2.535   1.201   4.960
 1969SOL     OW 6805   2.597   6.426   0.139
 1969SOL    HW1 6806   2.539   6.363   0.087
 1969SOL    HW2 6807   2.555   6.517   0.139
 1970SOL     OW 6808   5.987   5.564   5.280
 1970SOL    HW1 6809   5.902   5.524   5.246
 1970SOL    HW2 6810   5.975   5.663   5.292
 1971SOL     OW 6811   1.835   5.737   4.616
 1971SOL    HW1 6812   1.895   5.809   4.649
 1971SOL    HW2 6813   1.773   5.774   4.547
 1972SOL     OW 6814   6.556   3.039   2.613
 1972SOL    HW1 6815   6.487   3.022   2.543
 1972SOL    HW2 6816   6.512   3.067   2.698
 1973SOL     OW 6817   2.580   3.026   0.246
 1973SOL    HW1 6818   2.515   3.102   0.248
 1973SOL    HW2 6819   2.555   2.962   0.174
 1974SOL     OW 6820   3.100   6.793   4.937
 1974SOL    HW1 6821   3.047   6.751   4.862
 1974SOL    HW2 6822   3.152   6.722   4.984
 1975SOL     OW 6823   1.811   2.453   3.500
 1975SOL    HW1 6824   1.902   2.468   3.537
 1975SOL    HW2 6825   1.805   2.361   3.462
 1976SOL     OW 6826   6.861   0.199   6.358
 1976SOL    HW1 6827   6.881   0.220   6.262
 1976SOL    HW2 6828   6.773   0.152   6.365
 1977SOL     OW 6829   2.204   4.596   5.542
 1977SOL    HW1 6830   2.282   4.535   5.553
 1977SOL    HW2 6831   2.131   4.571   5.606
 1978SOL     OW 6832   2.577   6.866   1.448
 1978SOL    HW1 6833   2.653   6.919   1.488
 1978SOL    HW2 6834   2.496   6.924   1.442
 1979SOL     OW 6835   0.194   4.967   6.267
 1979SOL    HW1 6836   0.143   4.897   6.217
 1979SOL    HW2 6837   0.283   4.930   6.294
 1980SOL     OW 6838   3.494   1.858   0.178
 1980SOL    HW1 6839   3.567   1.918   0.149
 1980SOL    HW2 6840   3.484   1.783   0.113
 1981SOL     OW 6841   3.128   1.940   2.768
 1981SOL    HW1 6842   3.118   2.031   2.728
 1981SOL    HW2 6843   3.160   1.948   2.862
 1982SOL     OW 6844   0.572   2.849   5.154
 1982SOL    HW1 6845   0.640   2.881   5.088
 1982SOL    HW2 6846   0.578   2.905   5.237
 1983SOL     OW 6847   0.144   0.485   2.536
 1983SOL    HW1 6848   0.073   0.551   2.560
 1983SOL    HW2 6849   0.234   0.528   2.546
 1984SOL     OW 6850   4.938   2.873   5.811
 1984SOL    HW1 6851   4.846   2.902   5.781
 1984SOL    HW2 6852   4.979   2.947   5.864
 1985SOL     OW 6853   6.245   3.448   2.271
 1985SOL    HW1 6854   6.167   3.427   2.211
 1985SOL    HW2 6855   6.310   3.373   2.269
 1986SOL     OW 6856   4.351   2.621   1.723
 1986SOL    HW1 6857   4.347   2.577   1.633
 1986SOL    HW2 6858   4.415   2.698   1.720
 1987SOL     OW 6859   2.574   1.225   1.538
 1987SOL    HW1 6860   2.658   1.187   1.499
 1987SOL    HW2 6861   2.496   1.168   1.513
 1988SOL     OW 6862   0.244   2.198   1.200
 1988SOL    HW1 6863   0.286   2.273   1.251
 1988SOL    HW2 6864   0.287   2.112   1.227
 1989SOL     OW 6865   2.439   5.040   4.758
 1989SOL    HW1 6866   2.429   4.996   4.669
 1989SOL    HW2 6867   2.535   5.036   4.787
 1990SOL     OW 6868   4.016   0.176   0.411
 1990SOL    HW1 6869   4.028   0.118   0.331
 1990SOL    HW2 6870   3.986   0.267   0.383
 1991SOL     OW 6871   2.776   5.187   0.861
 1991SOL    HW1 6872   2.708   5.150   0.798
 1991SOL    HW2 6873   2.753   5.161   0.955
 1992SOL     OW 6874   0.686   6.280   1.604
 1992SOL    HW1 6875   0.605   6.249   1.653
 1992SOL    HW2 6876   0.674   6.375   1.576
 1993SOL     OW 6877   2.293   2.600   3.809
 1993SOL    HW1 6878   2.253   2.603   3.717
 1993SOL    HW2 6879   2.313   2.693   3.839
 1994SOL     OW 6880   3.556   2.641   0.855
 1994SOL    HW1 6881   3.624   2.595   0.798
 1994SOL    HW2 6882   3.601   2.690   0.929
 1995SOL     OW 6883   5.619   2.217   4.046
 1995SOL    HW1 6884   5.533   2.259   4.072
 1995SOL    HW2 6885   5.641   2.143   4.108
 1996SOL     OW 6886   3.597   1.664   0.901
 1996SOL    HW1 6887   3.575   1.571   0.931
 1996SOL    HW2 6888   3.561   1.730   0.966
 1997SOL     OW 6889   3.979   0.251   3.930
 1997SOL    HW1 6890   3.933   0.190   3.994
 1997SOL    HW2 6891   4.035   0.317   3.979
 1998SOL     OW 6892   1.860   3.684   1.421
 1998SOL    HW1 6893   1.855   3.761   1.357
 1998SOL    HW2 6894   1.779   3.627   1.410
 1999SOL     OW 6895   1.465   6.835   6.781
 1999SOL    HW1 6896   1.421   6.751   6.750
 1999SOL    HW2 6897   1.525   6.815   6.859
 2000SOL     OW 6898   3.638   4.151   5.665
 2000SOL    HW1 6899   3.717   4.110   5.711
 2000SOL    HW2 6900   3.667   4.232   5.614
 2001SOL     OW 6901   1.879   1.935   0.974
 2001SOL    HW1 6902   1.975   1.947   1.000
 2001SOL    HW2 6903   1.848   2.017   0.926
 2002SOL     OW 6904   0.235   4.666   0.435
 2002SOL    HW1 6905   0.201   4.672   0.342
 2002SOL    HW2 6906   0.169   4.708   0.498
 2003SOL     OW 6907   6.543   5.106   2.915
 2003SOL    HW1 6908   6.575   5.138   3.004
 2003SOL    HW2 6909   6.575   5.013   2.900
 2004SOL     OW 6910   3.256   0.105   3.509
 2004SOL    HW1 6911   3.254   0.185   3.570
 2004SOL    HW2 6912   3.292   0.133   3.420
 2005SOL     OW 6913   1.465   6.344   0.394
 2005SOL    HW1 6914   1.523   6.382   0.467
 2005SOL    HW2 6915   1.509   6.263   0.357
 2006SOL     OW 6916   5.651   6.181   2.525
 2006SOL    HW1 6917   5.698   6.245   2.464
 2006SOL    HW2 6918   5.562   6.158   2.488
 2007SOL     OW 6919   5.872   4.406   6.723
 2007SOL    HW1 6920   5.789   4.366   6.761
 2007SOL    HW2 6921   5.949   4.389   6.786
 2008SOL     OW 6922   1.432   3.737   4.181
 2008SOL    HW1 6923   1.420   3.816   4.241
 2008SOL    HW2 6924   1.374   3.748   4.100
 2009SOL     OW 6925   6.359   0.266   3.105
 2009SOL    HW1 6926   6.262   0.256   3.128
 2009SOL    HW2 6927   6.403   0.176   3.109
 2010SOL     OW 6928   1.175   1.717   1.940
 2010SOL    HW1 6929   1.144   1.773   2.016
 2010SOL    HW2 6930   1.240   1.770   1.885
 2011SOL     OW 6931   1.252   6.779   5.778
 2011SOL    HW1 6932   1.165   6.807   5.819
 2011SOL    HW2 6933   1.325   6.786   5.847
 2012SOL     OW 6934   1.567   3.096   1.633
 2012SOL    HW1 6935   1.515   3.106   1.718
 2012SOL    HW2 6936   1.664   3.084   1.654
 2013SOL     OW 6937   0.684   3.618   2.241
 2013SOL    HW1 6938   0.752   3.563   2.192
 2013SOL    HW2 6939   0.639   3.562   2.310
 2014SOL     OW 6940   3.677   0.404   4.462
 2014SOL    HW1 6941   3.750   0.421   4.528
 2014SOL    HW2 6942   3.599   0.461   4.484
 2015SOL     OW 6943   4.516   0.879   2.297
 2015SOL    HW1 6944   4.436   0.911   2.246
 2015SOL    HW2 6945   4.489   0.805   2.359
 2016SOL     OW 6946   1.644   0.628   5.655
 2016SOL    HW1 6947   1.597   0.541   5.639
 2016SOL    HW2 6948   1.578   0.696   5.688
 2017SOL     OW 6949   3.795   6.663   3.558
 2017SOL    HW1 6950   3.826   6.580   3.513
 2017SOL    HW2 6951   3.806   6.653   3.657
 2018SOL     OW 6952   1.135   0.947   3.728
 2018SOL    HW1 6953   1.061   0.964   3.663
 2018SOL    HW2 6954   1.097   0.905   3.811
 2019SOL     OW 6955   5.852   5.266   6.347
 2019SOL    HW1 6956   5.783   5.315   6.402
 2019SOL    HW2 6957   5.852   5.170   6.372
 2020SOL     OW 6958   1.945   6.051   6.789
 2020SOL    HW1 6959   1.965   6.026   6.883
 2020SOL    HW2 6960   2.031   6.071   6.741
 2021SOL     OW 6961   6.502   5.942   4.212
 2021SOL    HW1 6962   6.509   5.989   4.299
 2021SOL    HW2 6963   6.529   6.004   4.138
 2022SOL     OW 6964   1.883   4.160   4.695
 2022SOL    HW1 6965   1.883   4.260   4.707
 2022SOL    HW2 6966   1.948   4.119   4.758
 2023SOL     OW 6967   6.466   6.594   0.297
 2023SOL    HW1 6968   6.401   6.524   0.329
 2023SOL    HW2 6969   6.463   6.673   0.358
 2024SOL     OW 6970   0.408   5.980   4.706
 2024SOL    HW1 6971   0.335   5.994   4.640
 2024SOL    HW2 6972   0.459   5.897   4.683
 2025SOL     OW 6973   1.094   6.575   4.269
 2025SOL    HW1 6974   1.021   6.584   4.201
 2025SOL    HW2 6975   1.182   6.598   4.226
 2026SOL     OW 6976   6.901   0.391   6.141
 2026SOL    HW1 6977   6.889   0.464   6.208
 2026SOL    HW2 6978   6.993   0.354   6.148
 2027SOL     OW 6979   6.814   6.205   2.143
 2027SOL    HW1 6980   6.864   6.120   2.153
 2027SOL    HW2 6981   6.856   6.261   2.072
 2028SOL     OW 6982   3.318   5.293   4.307
 2028SOL    HW1 6983   3.323   5.195   4.325
 2028SOL    HW2 6984   3.304   5.308   4.209
 2029SOL     OW 6985   6.468   2.759   6.489
 2029SOL    HW1 6986   6.541   2.824   6.510
 2029SOL    HW2 6987   6.493   2.708   6.406
 2030SOL     OW 6988   2.329   6.444   1.923
 2030SOL    HW1 6989   2.327   6.366   1.985
 2030SOL    HW2 6990   2.262   6.511   1.953
 2031SOL     OW 6991   6.809   5.898   4.210
 2031SOL    HW1 6992   6.809   5.918   4.308
 2031SOL    HW2 6993   6.750   5.819   4.193
 2032SOL     OW 6994   3.034   2.108   5.964
 2032SOL    HW1 6995   2.992   2.094   5.875
 2032SOL    HW2 6996   2.990   2.050   6.033
 2033SOL     OW 6997   2.368   2.102   0.732
 2033SOL    HW1 6998   2.295   2.035   0.744
 2033SOL    HW2 6999   2.371   2.132   0.636
 2034SOL     OW 7000   0.213   4.064   4.425
 2034SOL    HW1 7001   0.223   4.050   4.523
 2034SOL    HW2 7002   0.224   4.161   4.403
 2035SOL     OW 7003   5.460   0.208   2.619
 2035SOL    HW1 7004   5.544   0.261   2.608
 2035SOL    HW2 7005   5.435   0.166   2.532
 2036SOL     OW 7006   0.864   4.479   1.067
 2036SOL    HW1 7007   0.916   4.403   1.104
 2036SOL    HW2 7008   0.779   4.445   1.027
 2037SOL     OW 7009   0.637   2.418   0.019
 2037SOL    HW1 7010   0.701   2.357   0.066
 2037SOL    HW2 7011   0.560   2.366   7.003
 2038SOL     OW 7012   1.701   1.183   6.721
 2038SOL    HW1 7013   1.617   1.229   6.747
 2038SOL    HW2 7014   1.752   1.240   6.657
 2039SOL     OW 7015   5.755   6.248   2.781
 2039SOL    HW1 7016   5.847   6.214   2.800
 2039SOL    HW2 7017   5.726   6.217   2.690
 2040SOL     OW 7018   1.790   2.468   0.911
 2040SOL    HW1 7019   1.831   2.514   0.832
 2040SOL    HW2 7020   1.819   2.514   0.995
 2041SOL     OW 7021   2.387   0.486   6.344
 2041SOL    HW1 7022   2.339   0.432   6.414
 2041SOL    HW2 7023   2.321   0.546   6.298
 2042SOL     OW 7024   5.396   1.323   5.691
 2042SOL    HW1 7025   5.337   1.377   5.631
 2042SOL    HW2 7026   5.467   1.382   5.730
 2043SOL     OW 7027   0.042   4.015   1.367
 2043SOL    HW1 7028   0.077   3.956   1.294
 2043SOL    HW2 7029   0.118   4.049   1.422
 2044SOL     OW 7030   3.876   0.669   0.924
 2044SOL    HW1 7031   3.825   0.651   0.840
 2044SOL    HW2 7032   3.841   0.754   0.966
 2045SOL     OW 7033   1.012   6.424   5.366
 2045SOL    HW1 7034   1.101   6.381   5.352
 2045SOL    HW2 7035   0.947   6.355   5.399
 2046SOL     OW 7036   1.075   1.747   4.826
 2046SOL    HW1 7037   1.076   1.846   4.841
 2046SOL    HW2 7038   1.100   1.701   4.912
 2047SOL     OW 7039   0.269   0.682   0.627
 2047SOL    HW1 7040   0.271   0.624   0.545
 2047SOL    HW2 7041   0.265   0.625   0.708
 2048SOL     OW 7042   0.842   2.079   4.253
 2048SOL    HW1 7043   0.910   2.072   4.180
 2048SOL    HW2 7044   0.886   2.060   4.341
 2049SOL     OW 7045   4.651   1.869   5.066
 2049SOL    HW1 7046   4.639   1.968   5.064
 2049SOL    HW2 7047   4.735   1.847   5.116
 2050SOL     OW 7048   0.356   1.308   4.066
 2050SOL    HW1 7049   0.321   1.397   4.037
 2050SOL    HW2 7050   0.282   1.255   4.107
 2051SOL     OW 7051   3.050   6.613   6.779
 2051SOL    HW1 7052   3.091   6.692   6.824
 2051SOL    HW2 7053   3.097   6.530   6.808
 2052SOL     OW 7054   1.563   4.335   6.363
 2052SOL    HW1 7055   1.558   4.261   6.296
 2052SOL    HW2 7056   1.561   4.298   6.456
 2053SOL     OW 7057   6.743   6.476   3.273
 2053SOL    HW1 7058   6.784   6.479   3.364
 2053SOL    HW2 7059   6.795   6.412   3.215
 2054SOL     OW 7060   2.988   3.435   3.194
 2054SOL    HW1 7061   2.931   3.501   3.144
 2054SOL    HW2 7062   3.070   3.415   3.142
 2055SOL     OW 7063   3.390   2.348   5.830
 2055SOL    HW1 7064   3.357   2.409   5.902
 2055SOL    HW2 7065   3.409   2.401   5.748
 2056SOL     OW 7066   4.029   4.237   0.948
 2056SOL    HW1 7067   4.036   4.146   0.989
 2056SOL    HW2 7068   4.096   4.298   0.990
 2057SOL     OW 7069   5.070   2.576   4.344
 2057SOL    HW1 7070   5.037   2.662   4.381
 2057SOL    HW2 7071   5.090   2.513   4.420
 2058SOL     OW 7072   6.913   7.017   2.714
 2058SOL    HW1 7073   6.920   0.084   2.763
 2058SOL    HW2 7074   6.817   6.992   2.703
 2059SOL     OW 7075   1.135   0.571   5.872
 2059SOL    HW1 7076   1.210   0.507   5.889
 2059SOL    HW2 7077   1.138   0.644   5.941
 2060SOL     OW 7078   1.544   2.430   6.953
 2060SOL    HW1 7079   1.614   2.486   6.998
 2060SOL    HW2 7080   1.455   2.472   6.968
 2061SOL     OW 7081   2.074   2.407   2.499
 2061SOL    HW1 7082   1.985   2.442   2.530
 2061SOL    HW2 7083   2.131   2.484   2.469
 2062SOL     OW 7084   0.337   4.929   5.054
 2062SOL    HW1 7085   0.385   5.001   5.103
 2062SOL    HW2 7086   0.283   4.969   4.980
 2063SOL     OW 7087   0.989   1.039   4.689
 2063SOL    HW1 7088   1.016   0.974   4.760
 2063SOL    HW2 7089   1.031   1.128   4.707
 2064SOL     OW 7090   0.854   3.124   3.791
 2064SOL    HW1 7091   0.803   3.058   3.846
 2064SOL    HW2 7092   0.951   3.114   3.809
 2065SOL     OW 7093   4.057   3.701   5.463
 2065SOL    HW1 7094   4.069   3.609   5.424
 2065SOL    HW2 7095   4.082   3.699   5.560
 2066SOL     OW 7096   0.590   3.139   5.959
 2066SOL    HW1 7097   0.659   3.207   5.984
 2066SOL    HW2 7098   0.512   3.185   5.916
 2067SOL     OW 7099   6.387   5.183   1.515
 2067SOL    HW1 7100   6.443   5.220   1.589
 2067SOL    HW2 7101   6.319   5.251   1.487
 2068SOL     OW 7102   4.386   0.831   4.766
 2068SOL    HW1 7103   4.347   0.776   4.840
 2068SOL    HW2 7104   4.331   0.818   4.683
 2069SOL     OW 7105   0.183   1.621   3.671
 2069SOL    HW1 7106   0.279   1.607   3.647
 2069SOL    HW2 7107   0.174   1.700   3.731
 2070SOL     OW 7108   0.795   4.996   1.123
 2070SOL    HW1 7109   0.870   5.061   1.110
 2070SOL    HW2 7110   0.727   5.036   1.184
 2071SOL     OW 7111   0.123   1.455   5.600
 2071SOL    HW1 7112   0.222   1.454   5.615
 2071SOL    HW2 7113   0.087   1.545   5.626
 2072SOL     OW 7114   4.882   4.441   5.612
 2072SOL    HW1 7115   4.969   4.431   5.564
 2072SOL    HW2 7116   4.841   4.351   5.628
 2073SOL     OW 7117   3.327   5.410   6.466
 2073SOL    HW1 7118   3.317   5.311   6.476
 2073SOL    HW2 7119   3.305   5.437   6.373
 2074SOL     OW 7120   1.571   4.568   6.155
 2074SOL    HW1 7121   1.509   4.494   6.130
 2074SOL    HW2 7122   1.621   4.543   6.238
 2075SOL     OW 7123   6.387   2.841   1.072
 2075SOL    HW1 7124   6.291   2.815   1.060
 2075SOL    HW2 7125   6.396   2.939   1.055
 2076SOL     OW 7126   6.312   6.487   4.491
 2076SOL    HW1 7127   6.362   6.428   4.554
 2076SOL    HW2 7128   6.232   6.439   4.457
 2077SOL     OW 7129   6.347   4.667   0.812
 2077SOL    HW1 7130   6.350   4.748   0.753
 2077SOL    HW2 7131   6.252   4.640   0.827
 2078SOL     OW 7132   0.787   3.198   5.567
 2078SOL    HW1 7133   0.860   3.216   5.501
 2078SOL    HW2 7134   0.827   3.179   5.657
 2079SOL     OW 7135   5.151   1.181   2.395
 2079SOL    HW1 7136   5.086   1.108   2.372
 2079SOL    HW2 7137   5.224   1.182   2.327
 2080SOL     OW 7138   2.665   2.922   6.245
 2080SOL    HW1 7139   2.736   2.979   6.202
 2080SOL    HW2 7140   2.622   2.974   6.319
 2081SOL     OW 7141   6.184   5.465   2.370
 2081SOL    HW1 7142   6.221   5.491   2.460
 2081SOL    HW2 7143   6.235   5.512   2.298
 2082SOL     OW 7144   6.397   6.358   4.209
 2082SOL    HW1 7145   6.324   6.349   4.277
 2082SOL    HW2 7146   6.380   6.438   4.152
 2083SOL     OW 7147   0.086   6.738   3.613
 2083SOL    HW1 7148   0.008   6.735   3.676
 2083SOL    HW2 7149   0.143   6.657   3.628
 2084SOL     OW 7150   5.989   2.259   1.046
 2084SOL    HW1 7151   5.977   2.356   1.025
 2084SOL    HW2 7152   5.933   2.235   1.125
 2085SOL     OW 7153   5.649   5.670   1.066
 2085SOL    HW1 7154   5.652   5.577   1.104
 2085SOL    HW2 7155   5.661   5.666   0.967
 2086SOL     OW 7156   5.226   0.886   6.996
 2086SOL    HW1 7157   5.232   0.929   0.067
 2086SOL    HW2 7158   5.270   0.944   6.928
 2087SOL     OW 7159   4.029   1.615   6.722
 2087SOL    HW1 7160   4.045   1.531   6.670
 2087SOL    HW2 7161   3.936   1.647   6.706
 2088SOL     OW 7162   1.068   5.719   5.767
 2088SOL    HW1 7163   0.977   5.688   5.795
 2088SOL    HW2 7164   1.074   5.719   5.668
 2089SOL     OW 7165   2.401   3.259   0.224
 2089SOL    HW1 7166   2.424   3.331   0.158
 2089SOL    HW2 7167   2.336   3.296   0.291
 2090SOL     OW 7168   5.537   2.881   5.694
 2090SOL    HW1 7169   5.520   2.797   5.642
 2090SOL    HW2 7170   5.635   2.889   5.713
 2091SOL     OW 7171   5.198   6.557   1.328
 2091SOL    HW1 7172   5.192   6.503   1.244
 2091SOL    HW2 7173   5.118   6.538   1.385
 2092SOL     OW 7174   3.899   3.856   1.560
 2092SOL    HW1 7175   3.832   3.894   1.623
 2092SOL    HW2 7176   3.897   3.756   1.565
 2093SOL     OW 7177   4.222   1.104   1.591
 2093SOL    HW1 7178   4.256   1.096   1.497
 2093SOL    HW2 7179   4.293   1.145   1.648
 2094SOL     OW 7180   5.317   1.952   5.919
 2094SOL    HW1 7181   5.336   1.877   5.982
 2094SOL    HW2 7182   5.293   1.914   5.829
 2095SOL     OW 7183   5.200   5.404   4.036
 2095SOL    HW1 7184   5.131   5.332   4.037
 2095SOL    HW2 7185   5.238   5.412   3.944
 2096SOL     OW 7186   4.198   6.937   1.884
 2096SOL    HW1 7187   4.277   6.891   1.924
 2096SOL    HW2 7188   4.225   6.980   1.798
 2097SOL     OW 7189   0.800   5.858   6.203
 2097SOL    HW1 7190   0.817   5.777   6.147
 2097SOL    HW2 7191   0.762   5.830   6.291
 2098SOL     OW 7192   2.899   5.780   3.688
 2098SOL    HW1 7193   2.998   5.776   3.688
 2098SOL    HW2 7194   2.868   5.869   3.653
 2099SOL     OW 7195   4.744   1.516   6.378
 2099SOL    HW1 7196   4.659   1.568   6.386
 2099SOL    HW2 7197   4.771   1.511   6.282
 2100SOL     OW 7198   5.080   0.091   1.692
 2100SOL    HW1 7199   5.071   0.086   1.791
 2100SOL    HW2 7200   5.048   0.007   1.650
 2101SOL     OW 7201   0.723   0.040   2.426
 2101SOL    HW1 7202   0.678   0.031   2.515
 2101SOL    HW2 7203   0.818   0.070   2.439
 2102SOL     OW 7204   3.824   2.129   1.017
 2102SOL    HW1 7205   3.881   2.058   1.059
 2102SOL    HW2 7206   3.824   2.210   1.075
 2103SOL     OW 7207   2.713   6.072   0.309
 2103SOL    HW1 7208   2.719   6.158   0.360
 2103SOL    HW2 7209   2.768   6.002   0.354
 2104SOL     OW 7210   1.539   4.238   3.546
 2104SOL    HW1 7211   1.545   4.261   3.643
 2104SOL    HW2 7212   1.452   4.191   3.528
 2105SOL     OW 7213   5.519   6.088   5.038
 2105SOL    HW1 7214   5.497   6.121   4.946
 2105SOL    HW2 7215   5.449   6.119   5.102
 2106SOL     OW 7216   4.352   3.118   0.726
 2106SOL    HW1 7217   4.437   3.070   0.702
 2106SOL    HW2 7218   4.279   3.089   0.665
 2107SOL     OW 7219   5.583   4.764   5.251
 2107SOL    HW1 7220   5.594   4.763   5.151
 2107SOL    HW2 7221   5.516   4.695   5.277
 2108SOL     OW 7222   4.856   0.209   5.242
 2108SOL    HW1 7223   4.922   0.137   5.218
 2108SOL    HW2 7224   4.816   0.245   5.158
 2109SOL     OW 7225   2.794   6.557   2.056
 2109SOL    HW1 7226   2.880   6.580   2.010
 2109SOL    HW2 7227   2.724   6.536   1.988
 2110SOL     OW 7228   3.806   6.590   0.116
 2110SOL    HW1 7229   3.756   6.669   0.079
 2110SOL    HW2 7230   3.743   6.532   0.167
 2111SOL     OW 7231   0.821   2.166   5.805
 2111SOL    HW1 7232   0.888   2.147   5.877
 2111SOL    HW2 7233   0.836   2.258   5.769
 2112SOL     OW 7234   1.126   0.403   0.134
 2112SOL    HW1 7235   1.110   0.346   0.054
 2112SOL    HW2 7236   1.208   0.458   0.120
 2113SOL     OW 7237   0.441   1.224   4.665
 2113SOL    HW1 7238   0.535   1.253   4.649
 2113SOL    HW2 7239   0.440   1.132   4.705
 2114SOL     OW 7240   1.340   1.492   6.002
 2114SOL    HW1 7241   1.273   1.422   5.978
 2114SOL    HW2 7242   1.385   1.467   6.088
 2115SOL     OW 7243   6.328   6.083   3.267
 2115SOL    HW1 7244   6.317   6.169   3.316
 2115SOL    HW2 7245   6.404   6.091   3.203
 2116SOL     OW 7246   1.204   1.854   0.087
 2116SOL    HW1 7247   1.112   1.840   0.123
 2116SOL    HW2 7248   1.245   1.933   0.133
 2117SOL     OW 7249   6.450   1.783   2.374
 2117SOL    HW1 7250   6.527   1.839   2.342
 2117SOL    HW2 7251   6.485   1.712   2.435
 2118SOL     OW 7252   6.756   2.697   2.722
 2118SOL    HW1 7253   6.719   2.717   2.632
 2118SOL    HW2 7254   6.682   2.674   2.785
 2119SOL     OW 7255   1.265   1.243   0.564
 2119SOL    HW1 7256   1.334   1.249   0.636
 2119SOL    HW2 7257   1.188   1.188   0.596
 2120SOL     OW 7258   5.916   1.087   0.924
 2120SOL    HW1 7259   5.854   1.033   0.867
 2120SOL    HW2 7260   5.886   1.182   0.925
 2121SOL     OW 7261   1.804   0.652   6.915
 2121SOL    HW1 7262   1.854   0.736   6.935
 2121SOL    HW2 7263   1.845   0.607   6.836
 2122SOL     OW 7264   6.326   1.247   4.396
 2122SOL    HW1 7265   6.404   1.217   4.341
 2122SOL    HW2 7266   6.358   1.286   4.482
 2123SOL     OW 7267   1.303   5.362   2.900
 2123SOL    HW1 7268   1.384   5.367   2.958
 2123SOL    HW2 7269   1.306   5.279   2.844
 2124SOL     OW 7270   4.011   3.879   6.235
 2124SOL    HW1 7271   4.101   3.909   6.267
 2124SOL    HW2 7272   3.960   3.841   6.313
 2125SOL     OW 7273   1.422   5.957   4.490
 2125SOL    HW1 7274   1.479   6.039   4.500
 2125SOL    HW2 7275   1.414   5.932   4.394
 2126SOL     OW 7276   2.682   3.813   6.767
 2126SOL    HW1 7277   2.744   3.834   6.691
 2126SOL    HW2 7278   2.691   3.883   6.838
 2127SOL     OW 7279   0.506   2.536   4.448
 2127SOL    HW1 7280   0.462   2.450   4.474
 2127SOL    HW2 7281   0.544   2.528   4.356
 2128SOL     OW 7282   5.269   3.155   1.342
 2128SOL    HW1 7283   5.236   3.100   1.418
 2128SOL    HW2 7284   5.346   3.108   1.298
 2129SOL     OW 7285   5.699   4.032   4.386
 2129SOL    HW1 7286   5.683   3.973   4.307
 2129SOL    HW2 7287   5.658   4.122   4.370
 2130SOL     OW 7288   3.059   0.956   1.121
 2130SOL    HW1 7289   2.984   0.893   1.102
 2130SOL    HW2 7290   3.134   0.907   1.164
 2131SOL     OW 7291   5.137   0.421   5.508
 2131SOL    HW1 7292   5.066   0.488   5.529
 2131SOL    HW2 7293   5.216   0.436   5.569
 2132SOL     OW 7294   2.136   2.270   0.360
 2132SOL    HW1 7295   2.208   2.292   0.427
 2132SOL    HW2 7296   2.167   2.297   0.269
 2133SOL     OW 7297   3.321   2.381   1.720
 2133SOL    HW1 7298   3.313   2.283   1.741
 2133SOL    HW2 7299   3.231   2.424   1.727
 2134SOL     OW 7300   2.252   6.684   5.272
 2134SOL    HW1 7301   2.212   6.771   5.242
 2134SOL    HW2 7302   2.328   6.660   5.212
 2135SOL     OW 7303   0.737   6.829   4.186
 2135SOL    HW1 7304   0.703   6.912   4.142
 2135SOL    HW2 7305   0.702   6.825   4.280
 2136SOL     OW 7306   1.421   4.699   3.816
 2136SOL    HW1 7307   1.435   4.798   3.811
 2136SOL    HW2 7308   1.453   4.657   3.732
 2137SOL     OW 7309   1.147   1.251   4.743
 2137SOL    HW1 7310   1.243   1.227   4.761
 2137SOL    HW2 7311   1.143   1.336   4.690
 2138SOL     OW 7312   0.806   2.273   6.687
 2138SOL    HW1 7313   0.761   2.300   6.601
 2138SOL    HW2 7314   0.831   2.355   6.739
 2139SOL     OW 7315   2.066   0.917   4.424
 2139SOL    HW1 7316   1.996   0.925   4.496
 2139SOL    HW2 7317   2.149   0.878   4.463
 2140SOL     OW 7318   1.667   5.834   3.925
 2140SOL    HW1 7319   1.727   5.885   3.863
 2140SOL    HW2 7320   1.707   5.834   4.017
 2141SOL     OW 7321   6.842   1.462   6.919
 2141SOL    HW1 7322   6.813   1.385   6.862
 2141SOL    HW2 7323   6.938   1.484   6.900
 2142SOL     OW 7324   2.803   1.533   3.346
 2142SOL    HW1 7325   2.708   1.563   3.341
 2142SOL    HW2 7326   2.833   1.500   3.257
 2143SOL     OW 7327   3.744   6.360   6.908
 2143SOL    HW1 7328   3.657   6.361   6.958
 2143SOL    HW2 7329   3.779   6.454   6.902
 2144SOL     OW 7330   6.926   0.751   2.671
 2144SOL    HW1 7331   6.899   0.795   2.757
 2144SOL    HW2 7332   6.959   0.821   2.607
 2145SOL     OW 7333   3.971   5.272   2.918
 2145SOL    HW1 7334   3.984   5.369   2.894
 2145SOL    HW2 7335   3.947   5.265   3.015
 2146SOL     OW 7336   3.629   2.578   1.163
 2146SOL    HW1 7337   3.687   2.653   1.130
 2146SOL    HW2 7338   3.541   2.614   1.192
 2147SOL     OW 7339   0.120   0.826   5.083
 2147SOL    HW1 7340   0.099   0.729   5.090
 2147SOL    HW2 7341   0.096   0.859   4.992
 2148SOL     OW 7342   4.940   2.917   2.737
 2148SOL    HW1 7343   4.866   2.862   2.697
 2148SOL    HW2 7344   4.926   2.923   2.836
 2149SOL     OW 7345   3.692   0.839   3.463
 2149SOL    HW1 7346   3.710   0.803   3.554
 2149SOL    HW2 7347   3.767   0.898   3.435
 2150SOL     OW 7348   3.646   1.628   2.524
 2150SOL    HW1 7349   3.707   1.650   2.600
 2150SOL    HW2 7350   3.574   1.565   2.555
 2151SOL     OW 7351   3.556   2.889   5.731
 2151SOL    HW1 7352   3.591   2.908   5.639
 2151SOL    HW2 7353   3.584   2.963   5.793
 2152SOL     OW 7354   6.116   5.933   1.856
 2152SOL    HW1 7355   6.210   5.955   1.883
 2152SOL    HW2 7356   6.083   6.003   1.793
 2153SOL     OW 7357   4.751   2.605   2.704
 2153SOL    HW1 7358   4.692   2.581   2.627
 2153SOL    HW2 7359   4.847   2.590   2.678
 2154SOL     OW 7360   4.322   5.776   5.096
 2154SOL    HW1 7361   4.278   5.831   5.026
 2154SOL    HW2 7362   4.273   5.689   5.106
 2155SOL     OW 7363   6.337   3.840   6.792
 2155SOL    HW1 7364   6.248   3.798   6.807
 2155SOL    HW2 7365   6.399   3.773   6.752
 2156SOL     OW 7366   1.090   1.177   1.629
 2156SOL    HW1 7367   1.080   1.200   1.725
 2156SOL    HW2 7368   1.002   1.146   1.593
 2157SOL     OW 7369   0.724   1.252   4.693
 2157SOL    HW1 7370   0.753   1.242   4.598
 2157SOL    HW2 7371   0.751   1.171   4.745
 2158SOL     OW 7372   4.583   6.269   2.418
 2158SOL    HW1 7373   4.657   6.294   2.480
 2158SOL    HW2 7374   4.620   6.251   2.327
 2159SOL     OW 7375   2.137   6.496   5.077
 2159SOL    HW1 7376   2.205   6.449   5.020
 2159SOL    HW2 7377   2.157   6.478   5.173
 2160SOL     OW 7378   2.966   3.139   0.582
 2160SOL    HW1 7379   2.904   3.202   0.629
 2160SOL    HW2 7380   3.046   3.189   0.549
 2161SOL     OW 7381   5.078   2.426   3.781
 2161SOL    HW1 7382   5.151   2.477   3.826
 2161SOL    HW2 7383   5.108   2.333   3.761
 2162SOL     OW 7384   1.191   1.385   6.995
 2162SOL    HW1 7385   1.265   1.424   0.031
 2162SOL    HW2 7386   1.208   1.406   6.899
 2163SOL     OW 7387   2.740   2.509   0.509
 2163SOL    HW1 7388   2.647   2.541   0.492
 2163SOL    HW2 7389   2.804   2.585   0.496
 2164SOL     OW 7390   0.938   0.246   1.488
 2164SOL    HW1 7391   0.840   0.226   1.485
 2164SOL    HW2 7392   0.970   0.266   1.395
 2165SOL     OW 7393   2.798   6.981   1.564
 2165SOL    HW1 7394   2.857   0.042   1.569
 2165SOL    HW2 7395   2.788   6.941   1.655
 2166SOL     OW 7396   6.098   2.434   6.348
 2166SOL    HW1 7397   6.035   2.384   6.289
 2166SOL    HW2 7398   6.047   2.493   6.411
 2167SOL     OW 7399   2.521   0.482   1.873
 2167SOL    HW1 7400   2.598   0.482   1.937
 2167SOL    HW2 7401   2.549   0.522   1.786
 2168SOL     OW 7402   5.989   5.783   4.804
 2168SOL    HW1 7403   6.068   5.733   4.839
 2168SOL    HW2 7404   5.917   5.785   4.874
 2169SOL     OW 7405   5.698   2.220   5.045
 2169SOL    HW1 7406   5.720   2.138   5.099
 2169SOL    HW2 7407   5.616   2.203   4.991
 2170SOL     OW 7408   5.716   5.112   4.512
 2170SOL    HW1 7409   5.683   5.206   4.508
 2170SOL    HW2 7410   5.663   5.055   4.449
 2171SOL     OW 7411   6.508   2.551   0.413
 2171SOL    HW1 7412   6.414   2.564   0.384
 2171SOL    HW2 7413   6.552   2.481   0.357
 2172SOL     OW 7414   2.441   0.716   0.960
 2172SOL    HW1 7415   2.427   0.617   0.965
 2172SOL    HW2 7416   2.504   0.737   0.885
 2173SOL     OW 7417   4.927   1.800   5.152
 2173SOL    HW1 7418   4.954   1.788   5.248
 2173SOL    HW2 7419   5.004   1.777   5.093
 2174SOL     OW 7420   1.149   5.506   4.696
 2174SOL    HW1 7421   1.239   5.472   4.669
 2174SOL    HW2 7422   1.148   5.606   4.690
 2175SOL     OW 7423   2.079   6.523   5.440
 2175SOL    HW1 7424   2.149   6.575   5.393
 2175SOL    HW2 7425   2.081   6.544   5.538
 2176SOL     OW 7426   1.974   2.293   2.132
 2176SOL    HW1 7427   1.941   2.254   2.219
 2176SOL    HW2 7428   1.987   2.392   2.143
 2177SOL     OW 7429   6.626   1.161   2.314
 2177SOL    HW1 7430   6.694   1.227   2.348
 2177SOL    HW2 7431   6.649   1.136   2.220
 2178SOL     OW 7432   0.929   5.223   0.784
 2178SOL    HW1 7433   0.967   5.236   0.693
 2178SOL    HW2 7434   0.868   5.144   0.784
 2179SOL     OW 7435   1.015   4.802   4.093
 2179SOL    HW1 7436   0.962   4.787   4.176
 2179SOL    HW2 7437   0.966   4.867   4.034
 2180SOL     OW 7438   4.264   3.232   1.843
 2180SOL    HW1 7439   4.226   3.316   1.882
 2180SOL    HW2 7440   4.312   3.182   1.914
 2181SOL     OW 7441   4.614   6.292   0.384
 2181SOL    HW1 7442   4.541   6.272   0.449
 2181SOL    HW2 7443   4.598   6.243   0.299
 2182SOL     OW 7444   5.578   2.004   0.386
 2182SOL    HW1 7445   5.638   2.084   0.394
 2182SOL    HW2 7446   5.554   1.972   0.478
 2183SOL     OW 7447   2.587   2.718   1.201
 2183SOL    HW1 7448   2.622   2.636   1.157
 2183SOL    HW2 7449   2.621   2.722   1.295
 2184SOL     OW 7450   4.379   3.007   5.993
 2184SOL    HW1 7451   4.468   2.964   6.008
 2184SOL    HW2 7452   4.347   2.989   5.900
 2185SOL     OW 7453   1.324   0.676   1.069
 2185SOL    HW1 7454   1.372   0.638   0.991
 2185SOL    HW2 7455   1.381   0.745   1.113
 2186SOL     OW 7456   0.055   4.948   2.666
 2186SOL    HW1 7457   0.106   4.871   2.704
 2186SOL    HW2 7458   0.012   4.921   2.580
 2187SOL     OW 7459   1.012   1.557   6.681
 2187SOL    HW1 7460   0.962   1.591   6.761
 2187SOL    HW2 7461   1.107   1.539   6.706
 2188SOL     OW 7462   5.062   0.878   3.519
 2188SOL    HW1 7463   4.970   0.917   3.528
 2188SOL    HW2 7464   5.055   0.784   3.484
 2189SOL     OW 7465   2.775   0.379   6.802
 2189SOL    HW1 7466   2.800   0.475   6.795
 2189SOL    HW2 7467   2.794   0.345   6.894
 2190SOL     OW 7468   4.973   2.167   1.403
 2190SOL    HW1 7469   5.064   2.146   1.367
 2190SOL    HW2 7470   4.928   2.234   1.344
 2191SOL     OW 7471   2.902   2.056   6.887
 2191SOL    HW1 7472   2.901   1.957   6.902
 2191SOL    HW2 7473   2.984   2.080   6.835
 2192SOL     OW 7474   3.963   5.151   3.523
 2192SOL    HW1 7475   3.979   5.129   3.619
 2192SOL    HW2 7476   4.047   5.137   3.471
 2193SOL     OW 7477   0.593   5.258   5.745
 2193SOL    HW1 7478   0.676   5.223   5.702
 2193SOL    HW2 7479   0.523   5.187   5.747
 2194SOL     OW 7480   3.317   0.104   1.380
 2194SOL    HW1 7481   3.233   0.135   1.336
 2194SOL    HW2 7482   3.354   0.025   1.330
 2195SOL     OW 7483   1.357   5.036   2.506
 2195SOL    HW1 7484   1.453   5.060   2.496
 2195SOL    HW2 7485   1.303   5.085   2.437
 2196SOL     OW 7486   4.487   2.775   6.662
 2196SOL    HW1 7487   4.506   2.703   6.594
 2196SOL    HW2 7488   4.391   2.800   6.658
 2197SOL     OW 7489   4.162   4.398   0.436
 2197SOL    HW1 7490   4.083   4.375   0.492
 2197SOL    HW2 7491   4.141   4.383   0.339
 2198SOL     OW 7492   6.198   4.544   0.305
 2198SOL    HW1 7493   6.285   4.593   0.301
 2198SOL    HW2 7494   6.215   4.448   0.330
 2199SOL     OW 7495   4.241   0.539   2.311
 2199SOL    HW1 7496   4.227   0.498   2.401
 2199SOL    HW2 7497   4.160   0.525   2.255
 2200SOL     OW 7498   2.302   6.871   4.637
 2200SOL    HW1 7499   2.271   6.793   4.583
 2200SOL    HW2 7500   2.364   6.927   4.582
 2201SOL     OW 7501   4.826   4.043   2.654
 2201SOL    HW1 7502   4.811   4.103   2.732
 2201SOL    HW2 7503   4.835   4.099   2.571
 2202SOL     OW 7504   4.909   5.850   3.770
 2202SOL    HW1 7505   4.887   5.758   3.804
 2202SOL    HW2 7506   4.920   5.912   3.847
 2203SOL     OW 7507   3.345   2.102   2.517
 2203SOL    HW1 7508   3.394   2.187   2.497
 2203SOL    HW2 7509   3.298   2.070   2.435
 2204SOL     OW 7510   2.769   2.494   1.175
 2204SOL    HW1 7511   2.716   2.411   1.160
 2204SOL    HW2 7512   2.818   2.487   1.262
 2205SOL     OW 7513   2.065   0.542   1.365
 2205SOL    HW1 7514   1.990   0.503   1.311
 2205SOL    HW2 7515   2.120   0.602   1.307
 2206SOL     OW 7516   2.113   2.851   0.548
 2206SOL    HW1 7517   2.014   2.858   0.543
 2206SOL    HW2 7518   2.155   2.932   0.507
 2207SOL     OW 7519   0.556   4.189   4.485
 2207SOL    HW1 7520   0.592   4.275   4.523
 2207SOL    HW2 7521   0.515   4.135   4.559
 2208SOL     OW 7522   6.685   4.798   1.784
 2208SOL    HW1 7523   6.755   4.728   1.774
 2208SOL    HW2 7524   6.663   4.836   1.694
 2209SOL     OW 7525   1.308   6.552   1.403
 2209SOL    HW1 7526   1.333   6.459   1.377
 2209SOL    HW2 7527   1.212   6.553   1.432
 2210SOL     OW 7528   1.199   5.612   3.770
 2210SOL    HW1 7529   1.214   5.548   3.695
 2210SOL    HW2 7530   1.143   5.568   3.841
 2211SOL     OW 7531   0.382   1.459   5.672
 2211SOL    HW1 7532   0.463   1.424   5.626
 2211SOL    HW2 7533   0.396   1.556   5.694
 2212SOL     OW 7534   2.051   6.998   6.831
 2212SOL    HW1 7535   1.979   6.945   6.875
 2212SOL    HW2 7536   2.090   6.945   6.756
 2213SOL     OW 7537   3.248   1.301   3.394
 2213SOL    HW1 7538   3.325   1.271   3.337
 2213SOL    HW2 7539   3.211   1.223   3.445
 2214SOL     OW 7540   4.123   0.145   5.481
 2214SOL    HW1 7541   4.210   0.124   5.437
 2214SOL    HW2 7542   4.139   0.212   5.554
 2215SOL     OW 7543   5.716   2.826   4.751
 2215SOL    HW1 7544   5.763   2.914   4.760
 2215SOL    HW2 7545   5.662   2.808   4.833
 2216SOL     OW 7546   2.144   0.389   2.149
 2216SOL    HW1 7547   2.155   0.483   2.181
 2216SOL    HW2 7548   2.087   0.388   2.067
 2217SOL     OW 7549   4.330   1.014   2.133
 2217SOL    HW1 7550   4.318   1.065   2.218
 2217SOL    HW2 7551   4.300   1.070   2.055
 2218SOL     OW 7552   0.933   6.483   2.580
 2218SOL    HW1 7553   0.998   6.531   2.522
 2218SOL    HW2 7554   0.861   6.444   2.523
 2219SOL     OW 7555   1.342   1.916   2.756
 2219SOL    HW1 7556   1.256   1.869   2.741
 2219SOL    HW2 7557   1.352   1.991   2.690
 2220SOL     OW 7558   0.838   0.513   1.203
 2220SOL    HW1 7559   0.768   0.547   1.140
 2220SOL    HW2 7560   0.826   0.414   1.214
 2221SOL     OW 7561   0.296   1.595   0.255
 2221SOL    HW1 7562   0.204   1.624   0.282
 2221SOL    HW2 7563   0.308   1.498   0.278
 2222SOL     OW 7564   5.854   5.843   3.221
 2222SOL    HW1 7565   5.951   5.861   3.207
 2222SOL    HW2 7566   5.843   5.763   3.279
 2223SOL     OW 7567   5.997   5.314   1.309
 2223SOL    HW1 7568   5.995   5.291   1.212
 2223SOL    HW2 7569   5.905   5.337   1.339
 2224SOL     OW 7570   0.665   4.862   2.054
 2224SOL    HW1 7571   0.753   4.897   2.084
 2224SOL    HW2 7572   0.596   4.934   2.061
 2225SOL     OW 7573   0.409   4.567   1.157
 2225SOL    HW1 7574   0.344   4.511   1.105
 2225SOL    HW2 7575   0.361   4.647   1.194
 2226SOL     OW 7576   4.275   3.845   1.402
 2226SOL    HW1 7577   4.215   3.879   1.475
 2226SOL    HW2 7578   4.325   3.765   1.435
 2227SOL     OW 7579   0.710   3.044   4.549
 2227SOL    HW1 7580   0.798   3.016   4.510
 2227SOL    HW2 7581   0.654   2.963   4.566
 2228SOL     OW 7582   2.728   5.046   4.770
 2228SOL    HW1 7583   2.804   4.992   4.735
 2228SOL    HW2 7584   2.727   5.135   4.723
 2229SOL     OW 7585   5.706   6.978   3.209
 2229SOL    HW1 7586   5.660   6.906   3.156
 2229SOL    HW2 7587   5.779   7.018   3.154
 2230SOL     OW 7588   3.045   5.191   0.765
 2230SOL    HW1 7589   2.957   5.152   0.790
 2230SOL    HW2 7590   3.070   5.262   0.831
 2231SOL     OW 7591   2.757   5.747   1.209
 2231SOL    HW1 7592   2.767   5.676   1.278
 2231SOL    HW2 7593   2.664   5.744   1.171
 2232SOL     OW 7594   6.256   2.833   3.671
 2232SOL    HW1 7595   6.161   2.825   3.702
 2232SOL    HW2 7596   6.314   2.859   3.747
 2233SOL     OW 7597   2.937   2.008   6.488
 2233SOL    HW1 7598   2.874   1.953   6.542
 2233SOL    HW2 7599   2.920   2.105   6.505
 2234SOL     OW 7600   3.302   2.230   1.334
 2234SOL    HW1 7601   3.288   2.151   1.394
 2234SOL    HW2 7602   3.400   2.241   1.315
 2235SOL     OW 7603   1.894   0.932   1.439
 2235SOL    HW1 7604   1.969   0.870   1.417
 2235SOL    HW2 7605   1.884   1.000   1.367
 2236SOL     OW 7606   7.005   4.049   5.979
 2236SOL    HW1 7607   0.017   4.116   6.046
 2236SOL    HW2 7608   0.013   4.077   5.888
 2237SOL     OW 7609   6.245   2.895   4.174
 2237SOL    HW1 7610   6.200   2.858   4.255
 2237SOL    HW2 7611   6.230   2.994   4.170
 2238SOL     OW 7612   6.629   6.335   1.809
 2238SOL    HW1 7613   6.662   6.250   1.848
 2238SOL    HW2 7614   6.578   6.386   1.878
 2239SOL     OW 7615   5.655   5.328   2.735
 2239SOL    HW1 7616   5.629   5.420   2.707
 2239SOL    HW2 7617   5.668   5.325   2.834
 2240SOL     OW 7618   5.580   3.612   1.912
 2240SOL    HW1 7619   5.630   3.561   1.842
 2240SOL    HW2 7620   5.496   3.649   1.872
 2241SOL     OW 7621   0.871   6.767   2.372
 2241SOL    HW1 7622   0.790   6.800   2.422
 2241SOL    HW2 7623   0.847   6.685   2.320
 2242SOL     OW 7624   4.541   1.712   2.681
 2242SOL    HW1 7625   4.522   1.754   2.769
 2242SOL    HW2 7626   4.634   1.735   2.651
 2243SOL     OW 7627   2.910   6.329   5.578
 2243SOL    HW1 7628   2.828   6.324   5.635
 2243SOL    HW2 7629   2.957   6.241   5.579
 2244SOL     OW 7630   2.802   0.707   5.334
 2244SOL    HW1 7631   2.703   0.698   5.322
 2244SOL    HW2 7632   2.845   0.617   5.328
 2245SOL     OW 7633   0.205   1.960   2.112
 2245SOL    HW1 7634   0.248   2.043   2.076
 2245SOL    HW2 7635   0.135   1.986   2.179
 2246SOL     OW 7636   1.295   4.737   4.810
 2246SOL    HW1 7637   1.384   4.691   4.807
 2246SOL    HW2 7638   1.243   4.703   4.889
 2247SOL     OW 7639   1.958   1.399   5.535
 2247SOL    HW1 7640   1.877   1.457   5.540
 2247SOL    HW2 7641   1.993   1.399   5.441
 2248SOL     OW 7642   4.582   4.342   5.157
 2248SOL    HW1 7643   4.483   4.332   5.166
 2248SOL    HW2 7644   4.603   4.395   5.075
 2249SOL     OW 7645   4.253   5.466   4.841
 2249SOL    HW1 7646   4.334   5.516   4.808
 2249SOL    HW2 7647   4.192   5.449   4.764
 2250SOL     OW 7648   5.317   5.225   0.469
 2250SOL    HW1 7649   5.352   5.182   0.552
 2250SOL    HW2 7650   5.339   5.323   0.470
 2251SOL     OW 7651   0.194   0.554   6.138
 2251SOL    HW1 7652   0.139   0.632   6.165
 2251SOL    HW2 7653   0.285   0.585   6.109
 2252SOL     OW 7654   3.691   1.342   5.621
 2252SOL    HW1 7655   3.771   1.399   5.640
 2252SOL    HW2 7656   3.687   1.266   5.686
 2253SOL     OW 7657   1.478   2.556   5.965
 2253SOL    HW1 7658   1.473   2.535   6.062
 2253SOL    HW2 7659   1.487   2.472   5.912
 2254SOL     OW 7660   1.783   3.455   5.657
 2254SOL    HW1 7661   1.836   3.405   5.589
 2254SOL    HW2 7662   1.842   3.481   5.733
 2255SOL     OW 7663   5.290   3.195   0.602
 2255SOL    HW1 7664   5.273   3.124   0.534
 2255SOL    HW2 7665   5.307   3.153   0.691
 2256SOL     OW 7666   3.416   4.903   2.093
 2256SOL    HW1 7667   3.445   4.996   2.070
 2256SOL    HW2 7668   3.493   4.841   2.081
 2257SOL     OW 7669   1.951   3.576   4.022
 2257SOL    HW1 7670   1.857   3.550   3.998
 2257SOL    HW2 7671   1.961   3.576   4.121
 2258SOL     OW 7672   2.007   5.397   5.211
 2258SOL    HW1 7673   2.022   5.301   5.236
 2258SOL    HW2 7674   2.092   5.447   5.221
 2259SOL     OW 7675   6.588   3.083   6.501
 2259SOL    HW1 7676   6.607   3.168   6.451
 2259SOL    HW2 7677   6.516   3.099   6.569
 2260SOL     OW 7678   4.766   4.069   0.902
 2260SOL    HW1 7679   4.845   4.093   0.958
 2260SOL    HW2 7680   4.733   3.979   0.927
 2261SOL     OW 7681   3.422   6.482   5.067
 2261SOL    HW1 7682   3.505   6.470   5.120
 2261SOL    HW2 7683   3.421   6.417   4.991
 2262SOL     OW 7684   3.400   1.694   3.352
 2262SOL    HW1 7685   3.420   1.689   3.450
 2262SOL    HW2 7686   3.382   1.790   3.327
 2263SOL     OW 7687   6.999   4.293   5.501
 2263SOL    HW1 7688   6.980   4.362   5.431
 2263SOL    HW2 7689   0.003   4.206   5.457
 2264SOL     OW 7690   3.480   4.138   3.628
 2264SOL    HW1 7691   3.551   4.113   3.694
 2264SOL    HW2 7692   3.401   4.175   3.676
 2265SOL     OW 7693   0.565   6.766   2.934
 2265SOL    HW1 7694   0.605   6.733   2.849
 2265SOL    HW2 7695   0.561   6.866   2.933
 2266SOL     OW 7696   5.929   6.900   6.811
 2266SOL    HW1 7697   5.912   6.802   6.818
 2266SOL    HW2 7698   5.850   6.951   6.846
 2267SOL     OW 7699   5.325   1.994   5.375
 2267SOL    HW1 7700   5.314   2.082   5.329
 2267SOL    HW2 7701   5.357   1.926   5.309
 2268SOL     OW 7702   6.394   5.053   6.860
 2268SOL    HW1 7703   6.325   4.984   6.879
 2268SOL    HW2 7704   6.396   5.119   6.935
 2269SOL     OW 7705   0.365   5.930   4.026
 2269SOL    HW1 7706   0.319   5.882   4.101
 2269SOL    HW2 7707   0.306   6.003   3.991
 2270SOL     OW 7708   4.127   3.483   2.763
 2270SOL    HW1 7709   4.135   3.423   2.684
 2270SOL    HW2 7710   4.116   3.578   2.733
 2271SOL     OW 7711   0.582   4.590   2.705
 2271SOL    HW1 7712   0.589   4.689   2.710
 2271SOL    HW2 7713   0.551   4.553   2.793
 2272SOL     OW 7714   4.731   2.184   6.125
 2272SOL    HW1 7715   4.743   2.121   6.048
 2272SOL    HW2 7716   4.784   2.267   6.110
 2273SOL     OW 7717   0.566   0.647   3.707
 2273SOL    HW1 7718   0.532   0.733   3.668
 2273SOL    HW2 7719   0.527   0.635   3.799
 2274SOL     OW 7720   1.369   3.724   3.003
 2274SOL    HW1 7721   1.456   3.735   2.955
 2274SOL    HW2 7722   1.295   3.712   2.936
 2275SOL     OW 7723   4.967   6.169   3.576
 2275SOL    HW1 7724   5.023   6.158   3.494
 2275SOL    HW2 7725   4.907   6.090   3.586
 2276SOL     OW 7726   3.411   5.396   1.867
 2276SOL    HW1 7727   3.449   5.486   1.844
 2276SOL    HW2 7728   3.368   5.356   1.787
 2277SOL     OW 7729   3.739   3.308   1.046
 2277SOL    HW1 7730   3.704   3.392   1.004
 2277SOL    HW2 7731   3.680   3.231   1.020
 2278SOL     OW 7732   5.144   6.770   1.052
 2278SOL    HW1 7733   5.171   6.675   1.069
 2278SOL    HW2 7734   5.157   6.792   0.955
 2279SOL     OW 7735   5.239   4.078   5.004
 2279SOL    HW1 7736   5.165   4.140   5.029
 2279SOL    HW2 7737   5.324   4.107   5.048
 2280SOL     OW 7738   5.786   6.873   6.230
 2280SOL    HW1 7739   5.866   6.855   6.172
 2280SOL    HW2 7740   5.710   6.814   6.201
 2281SOL     OW 7741   3.333   2.899   0.336
 2281SOL    HW1 7742   3.249   2.886   0.283
 2281SOL    HW2 7743   3.412   2.871   0.282
 2282SOL     OW 7744   4.418   5.853   2.294
 2282SOL    HW1 7745   4.395   5.949   2.278
 2282SOL    HW2 7746   4.347   5.795   2.254
 2283SOL     OW 7747   7.011   3.811   1.827
 2283SOL    HW1 7748   6.965   3.751   1.893
 2283SOL    HW2 7749   6.943   3.852   1.767
 2284SOL     OW 7750   2.580   2.364   2.149
 2284SOL    HW1 7751   2.574   2.272   2.189
 2284SOL    HW2 7752   2.613   2.357   2.055
 2285SOL     OW 7753   1.859   3.737   6.422
 2285SOL    HW1 7754   1.925   3.740   6.347
 2285SOL    HW2 7755   1.890   3.671   6.490
 2286SOL     OW 7756   5.168   6.880   4.360
 2286SOL    HW1 7757   5.215   6.857   4.275
 2286SOL    HW2 7758   5.217   6.955   4.406
 2287SOL     OW 7759   2.214   2.732   1.273
 2287SOL    HW1 7760   2.173   2.641   1.279
 2287SOL    HW2 7761   2.276   2.746   1.350
 2288SOL     OW 7762   2.014   5.935   4.345
 2288SOL    HW1 7763   1.975   5.916   4.255
 2288SOL    HW2 7764   2.063   5.854   4.378
 2289SOL     OW 7765   4.422   1.606   0.526
 2289SOL    HW1 7766   4.341   1.575   0.576
 2289SOL    HW2 7767   4.410   1.589   0.429
 2290SOL     OW 7768   3.208   3.381   3.051
 2290SOL    HW1 7769   3.260   3.410   2.970
 2290SOL    HW2 7770   3.271   3.345   3.120
 2291SOL     OW 7771   1.347   2.919   6.574
 2291SOL    HW1 7772   1.384   2.865   6.649
 2291SOL    HW2 7773   1.254   2.889   6.554
 2292SOL     OW 7774   5.289   1.635   2.628
 2292SOL    HW1 7775   5.314   1.727   2.601
 2292SOL    HW2 7776   5.222   1.598   2.563
 2293SOL     OW 7777   0.395   0.464   0.342
 2293SOL    HW1 7778   0.315   0.512   0.305
 2293SOL    HW2 7779   0.437   0.409   0.270
 2294SOL     OW 7780   6.907   0.830   5.595
 2294SOL    HW1 7781   7.000   0.863   5.579
 2294SOL    HW2 7782   6.900   0.735   5.567
 2295SOL     OW 7783   5.871   6.223   1.181
 2295SOL    HW1 7784   5.885   6.203   1.084
 2295SOL    HW2 7785   5.903   6.316   1.201
 2296SOL     OW 7786   3.702   5.077   3.906
 2296SOL    HW1 7787   3.701   5.061   4.004
 2296SOL    HW2 7788   3.636   5.148   3.882
 2297SOL     OW 7789   5.071   4.039   5.415
 2297SOL    HW1 7790   5.094   4.039   5.318
 2297SOL    HW2 7791   5.127   3.971   5.463
 2298SOL     OW 7792   3.413   3.854   4.106
 2298SOL    HW1 7793   3.460   3.885   4.189
 2298SOL    HW2 7794   3.343   3.921   4.080
 2299SOL     OW 7795   5.610   3.088   4.265
 2299SOL    HW1 7796   5.592   2.995   4.298
 2299SOL    HW2 7797   5.535   3.148   4.291
 2300SOL     OW 7798   4.862   6.544   2.219
 2300SOL    HW1 7799   4.882   6.448   2.241
 2300SOL    HW2 7800   4.809   6.548   2.134
 2301SOL     OW 7801   3.822   2.915   4.895
 2301SOL    HW1 7802   3.838   2.964   4.981
 2301SOL    HW2 7803   3.817   2.817   4.913
 2302SOL     OW 7804   6.388   2.683   5.860
 2302SOL    HW1 7805   6.353   2.597   5.823
 2302SOL    HW2 7806   6.488   2.685   5.852
 2303SOL     OW 7807   2.833   2.573   0.103
 2303SOL    HW1 7808   2.823   2.665   0.141
 2303SOL    HW2 7809   2.893   2.520   0.163
 2304SOL     OW 7810   6.468   6.350   2.481
 2304SOL    HW1 7811   6.409   6.276   2.451
 2304SOL    HW2 7812   6.530   6.376   2.406
 2305SOL     OW 7813   2.784   0.110   4.789
 2305SOL    HW1 7814   2.711   0.042   4.789
 2305SOL    HW2 7815   2.862   0.075   4.737
 2306SOL     OW 7816   1.412   4.991   4.883
 2306SOL    HW1 7817   1.336   5.054   4.867
 2306SOL    HW2 7818   1.397   4.906   4.833
 2307SOL     OW 7819   6.475   3.260   5.372
 2307SOL    HW1 7820   6.562   3.261   5.420
 2307SOL    HW2 7821   6.447   3.165   5.355
 2308SOL     OW 7822   1.461   5.088   1.699
 2308SOL    HW1 7823   1.450   5.122   1.605
 2308SOL    HW2 7824   1.555   5.107   1.730
 2309SOL     OW 7825   1.902   0.392   5.076
 2309SOL    HW1 7826   1.970   0.409   5.004
 2309SOL    HW2 7827   1.869   0.298   5.069
 2310SOL     OW 7828   4.098   0.211   1.118
 2310SOL    HW1 7829   4.079   0.141   1.187
 2310SOL    HW2 7830   4.178   0.265   1.145
 2311SOL     OW 7831   2.684   5.196   1.142
 2311SOL    HW1 7832   2.719   5.115   1.189
 2311SOL    HW2 7833   2.585   5.198   1.149
 2312SOL     OW 7834   3.423   5.155   1.971
 2312SOL    HW1 7835   3.479   5.115   1.898
 2312SOL    HW2 7836   3.413   5.253   1.955
 2313SOL     OW 7837   5.313   5.675   1.124
 2313SOL    HW1 7838   5.365   5.721   1.196
 2313SOL    HW2 7839   5.374   5.651   1.049
 2314SOL     OW 7840   1.715   4.998   4.617
 2314SOL    HW1 7841   1.774   4.919   4.633
 2314SOL    HW2 7842   1.704   5.013   4.519
 2315SOL     OW 7843   4.641   2.680   6.343
 2315SOL    HW1 7844   4.566   2.740   6.372
 2315SOL    HW2 7845   4.726   2.731   6.338
 2316SOL     OW 7846   5.805   3.675   2.068
 2316SOL    HW1 7847   5.884   3.648   2.013
 2316SOL    HW2 7848   5.721   3.657   2.017
 2317SOL     OW 7849   0.181   6.027   3.429
 2317SOL    HW1 7850   0.209   6.104   3.372
 2317SOL    HW2 7851   0.203   5.941   3.382
 2318SOL     OW 7852   6.536   1.001   3.963
 2318SOL    HW1 7853   6.567   1.095   3.983
 2318SOL    HW2 7854   6.448   0.985   4.007
 2319SOL     OW 7855   0.856   5.573   2.799
 2319SOL    HW1 7856   0.760   5.596   2.813
 2319SOL    HW2 7857   0.880   5.492   2.852
 2320SOL     OW 7858   6.487   5.238   5.600
 2320SOL    HW1 7859   6.464   5.325   5.643
 2320SOL    HW2 7860   6.409   5.207   5.544
 2321SOL     OW 7861   3.687   5.041   4.916
 2321SOL    HW1 7862   3.673   5.101   4.838
 2321SOL    HW2 7863   3.598   5.011   4.951
 2322SOL     OW 7864   3.247   0.850   5.701
 2322SOL    HW1 7865   3.218   0.895   5.617
 2322SOL    HW2 7866   3.181   0.779   5.725
 2323SOL     OW 7867   5.121   3.717   2.060
 2323SOL    HW1 7868   5.190   3.705   2.132
 2323SOL    HW2 7869   5.133   3.646   1.991
 2324SOL     OW 7870   0.085   5.150   3.468
 2324SOL    HW1 7871   7.020   5.128   3.516
 2324SOL    HW2 7872   0.126   5.231   3.509
 2325SOL     OW 7873   0.500   2.254   0.756
 2325SOL    HW1 7874   0.544   2.319   0.693
 2325SOL    HW2 7875   0.405   2.282   0.771
 2326SOL     OW 7876   1.512   4.153   0.156
 2326SOL    HW1 7877   1.541   4.142   0.251
 2326SOL    HW2 7878   1.507   4.064   0.112
 2327SOL     OW 7879   5.468   1.877   3.575
 2327SOL    HW1 7880   5.430   1.941   3.507
 2327SOL    HW2 7881   5.500   1.795   3.529
 2328SOL     OW 7882   6.171   6.686   3.878
 2328SOL    HW1 7883   6.112   6.627   3.823
 2328SOL    HW2 7884   6.257   6.639   3.897
 2329SOL     OW 7885   6.403   5.689   3.207
 2329SOL    HW1 7886   6.331   5.622   3.189
 2329SOL    HW2 7887   6.409   5.704   3.306
 2330SOL     OW 7888   0.367   3.517   1.812
 2330SOL    HW1 7889   0.327   3.441   1.762
 2330SOL    HW2 7890   0.321   3.602   1.786
 2331SOL     OW 7891   0.988   4.970   5.932
 2331SOL    HW1 7892   0.893   4.942   5.946
 2331SOL    HW2 7893   1.028   4.915   5.858
 2332SOL     OW 7894   5.417   2.537   4.370
 2332SOL    HW1 7895   5.428   2.634   4.349
 2332SOL    HW2 7896   5.352   2.496   4.306
 2333SOL     OW 7897   2.632   4.643   3.366
 2333SOL    HW1 7898   2.622   4.612   3.461
 2333SOL    HW2 7899   2.558   4.605   3.311
 2334SOL     OW 7900   3.012   0.456   0.560
 2334SOL    HW1 7901   3.105   0.456   0.522
 2334SOL    HW2 7902   3.000   0.377   0.619
 2335SOL     OW 7903   4.583   5.128   4.318
 2335SOL    HW1 7904   4.624   5.202   4.371
 2335SOL    HW2 7905   4.496   5.101   4.359
 2336SOL     OW 7906   4.415   2.208   5.595
 2336SOL    HW1 7907   4.463   2.127   5.630
 2336SOL    HW2 7908   4.343   2.235   5.659
 2337SOL     OW 7909   5.822   0.498   4.229
 2337SOL    HW1 7910   5.886   0.459   4.163
 2337SOL    HW2 7911   5.830   0.449   4.316
 2338SOL     OW 7912   1.755   0.322   6.743
 2338SOL    HW1 7913   1.764   0.257   6.668
 2338SOL    HW2 7914   1.701   0.401   6.712
 2339SOL     OW 7915   4.662   4.291   6.324
 2339SOL    HW1 7916   4.743   4.346   6.342
 2339SOL    HW2 7917   4.633   4.246   6.409
 2340SOL     OW 7918   3.930   5.421   3.678
 2340SOL    HW1 7919   3.940   5.325   3.652
 2340SOL    HW2 7920   3.860   5.430   3.748
 2341SOL     OW 7921   6.087   4.966   6.162
 2341SOL    HW1 7922   6.159   4.899   6.179
 2341SOL    HW2 7923   6.002   4.917   6.138
 2342SOL     OW 7924   6.406   0.219   5.242
 2342SOL    HW1 7925   6.460   0.169   5.310
 2342SOL    HW2 7926   6.364   0.299   5.285
 2343SOL     OW 7927   1.096   0.077   0.634
 2343SOL    HW1 7928   1.179   0.110   0.588
 2343SOL    HW2 7929   1.022   0.067   0.567
 2344SOL     OW 7930   2.229   1.329   3.184
 2344SOL    HW1 7931   2.166   1.284   3.247
 2344SOL    HW2 7932   2.289   1.261   3.142
 2345SOL     OW 7933   1.344   1.572   3.298
 2345SOL    HW1 7934   1.436   1.567   3.258
 2345SOL    HW2 7935   1.318   1.667   3.311
 2346SOL     OW 7936   5.343   3.365   5.737
 2346SOL    HW1 7937   5.338   3.336   5.832
 2346SOL    HW2 7938   5.263   3.333   5.687
 2347SOL     OW 7939   1.224   3.956   1.001
 2347SOL    HW1 7940   1.190   3.871   0.960
 2347SOL    HW2 7941   1.155   3.993   1.062
 2348SOL     OW 7942   2.710   5.688   2.044
 2348SOL    HW1 7943   2.750   5.777   2.066
 2348SOL    HW2 7944   2.619   5.701   2.005
 2349SOL     OW 7945   4.442   4.630   5.915
 2349SOL    HW1 7946   4.361   4.574   5.932
 2349SOL    HW2 7947   4.523   4.572   5.915
 2350SOL     OW 7948   1.810   5.873   5.526
 2350SOL    HW1 7949   1.901   5.831   5.526
 2350SOL    HW2 7950   1.818   5.969   5.554
 2351SOL     OW 7951   2.446   5.591   3.267
 2351SOL    HW1 7952   2.351   5.580   3.239
 2351SOL    HW2 7953   2.470   5.688   3.266
 2352SOL     OW 7954   5.955   4.045   1.776
 2352SOL    HW1 7955   6.044   4.089   1.765
 2352SOL    HW2 7956   5.937   3.986   1.698
 2353SOL     OW 7957   3.041   3.655   6.178
 2353SOL    HW1 7958   2.946   3.638   6.150
 2353SOL    HW2 7959   3.043   3.726   6.248
 2354SOL     OW 7960   3.955   2.640   1.503
 2354SOL    HW1 7961   3.867   2.640   1.550
 2354SOL    HW2 7962   3.987   2.546   1.491
 2355SOL     OW 7963   6.872   1.108   1.239
 2355SOL    HW1 7964   6.888   1.155   1.151
 2355SOL    HW2 7965   6.862   1.176   1.311
 2356SOL     OW 7966   2.817   5.110   3.561
 2356SOL    HW1 7967   2.860   5.172   3.626
 2356SOL    HW2 7968   2.810   5.154   3.472
 2357SOL     OW 7969   6.530   4.269   0.866
 2357SOL    HW1 7970   6.553   4.178   0.900
 2357SOL    HW2 7971   6.536   4.335   0.941
 2358SOL     OW 7972   3.762   2.168   5.513
 2358SOL    HW1 7973   3.763   2.087   5.454
 2358SOL    HW2 7974   3.677   2.219   5.498
 2359SOL     OW 7975   1.731   1.920   5.930
 2359SOL    HW1 7976   1.723   1.835   5.879
 2359SOL    HW2 7977   1.752   1.995   5.866
 2360SOL     OW 7978   3.474   4.847   6.800
 2360SOL    HW1 7979   3.465   4.877   6.895
 2360SOL    HW2 7980   3.565   4.870   6.766
 2361SOL     OW 7981   4.101   5.555   1.772
 2361SOL    HW1 7982   4.050   5.591   1.850
 2361SOL    HW2 7983   4.194   5.592   1.773
 2362SOL     OW 7984   3.960   5.153   3.815
 2362SOL    HW1 7985   4.022   5.075   3.810
 2362SOL    HW2 7986   3.873   5.124   3.855
 2363SOL     OW 7987   1.638   4.077   0.371
 2363SOL    HW1 7988   1.709   4.008   0.354
 2363SOL    HW2 7989   1.609   4.071   0.467
 2364SOL     OW 7990   3.603   1.129   2.894
 2364SOL    HW1 7991   3.624   1.090   2.984
 2364SOL    HW2 7992   3.513   1.098   2.864
 2365SOL     OW 7993   4.745   4.170   3.480
 2365SOL    HW1 7994   4.822   4.231   3.467
 2365SOL    HW2 7995   4.678   4.185   3.407
 2366SOL     OW 7996   2.718   4.916   5.020
 2366SOL    HW1 7997   2.715   4.946   4.925
 2366SOL    HW2 7998   2.730   4.817   5.023
 2367SOL     OW 7999   5.664   5.372   6.005
 2367SOL    HW1 8000   5.616   5.355   6.091
 2367SOL    HW2 8001   5.605   5.424   5.943
 2368SOL     OW 8002   6.024   7.019   4.465
 2368SOL    HW1 8003   5.941   7.001   4.517
 2368SOL    HW2 8004   6.057   0.092   4.484
 2369SOL     OW 8005   3.113   2.193   4.480
 2369SOL    HW1 8006   3.211   2.183   4.492
 2369SOL    HW2 8007   3.067   2.183   4.568
 2370SOL     OW 8008   5.855   2.447   1.846
 2370SOL    HW1 8009   5.878   2.412   1.937
 2370SOL    HW2 8010   5.919   2.519   1.820
 2371SOL     OW 8011   0.760   6.107   3.008
 2371SOL    HW1 8012   0.832   6.051   2.966
 2371SOL    HW2 8013   0.749   6.192   2.957
 2372SOL     OW 8014   6.223   6.264   6.699
 2372SOL    HW1 8015   6.323   6.258   6.705
 2372SOL    HW2 8016   6.194   6.359   6.708
 2373SOL     OW 8017   6.427   5.114   6.187
 2373SOL    HW1 8018   6.346   5.083   6.138
 2373SOL    HW2 8019   6.418   5.091   6.284
 2374SOL     OW 8020   6.297   6.164   2.381
 2374SOL    HW1 8021   6.289   6.186   2.284
 2374SOL    HW2 8022   6.215   6.117   2.411
 2375SOL     OW 8023   1.563   0.619   4.145
 2375SOL    HW1 8024   1.490   0.643   4.080
 2375SOL    HW2 8025   1.600   0.702   4.185
 2376SOL     OW 8026   5.450   1.884   2.901
 2376SOL    HW1 8027   5.355   1.897   2.928
 2376SOL    HW2 8028   5.471   1.786   2.901
 2377SOL     OW 8029   4.839   4.035   5.762
 2377SOL    HW1 8030   4.823   3.988   5.675
 2377SOL    HW2 8031   4.938   4.044   5.776
 2378SOL     OW 8032   0.014   1.065   0.131
 2378SOL    HW1 8033   6.939   1.054   0.101
 2378SOL    HW2 8034   0.075   1.060   0.052
 2379SOL     OW 8035   6.405   5.231   2.142
 2379SOL    HW1 8036   6.312   5.196   2.132
 2379SOL    HW2 8037   6.416   5.274   2.231
 2380SOL     OW 8038   4.787   6.049   5.857
 2380SOL    HW1 8039   4.720   6.083   5.791
 2380SOL    HW2 8040   4.875   6.094   5.842
 2381SOL     OW 8041   2.154   4.525   4.500
 2381SOL    HW1 8042   2.062   4.564   4.492
 2381SOL    HW2 8043   2.212   4.587   4.553
 2382SOL     OW 8044   6.943   5.586   2.468
 2382SOL    HW1 8045   6.995   5.551   2.546
 2382SOL    HW2 8046   6.975   5.541   2.385
 2383SOL     OW 8047   5.170   4.668   5.945
 2383SOL    HW1 8048   5.070   4.672   5.941
 2383SOL    HW2 8049   5.200   4.573   5.935
 2384SOL     OW 8050   0.123   1.746   3.034
 2384SOL    HW1 8051   0.119   1.718   3.131
 2384SOL    HW2 8052   0.036   1.787   3.008
 2385SOL     OW 8053   0.486   1.312   0.664
 2385SOL    HW1 8054   0.575   1.288   0.625
 2385SOL    HW2 8055   0.423   1.335   0.590
 2386SOL     OW 8056   6.040   6.041   4.398
 2386SOL    HW1 8057   5.993   6.036   4.310
 2386SOL    HW2 8058   6.041   5.950   4.441
 2387SOL     OW 8059   0.716   1.446   3.631
 2387SOL    HW1 8060   0.707   1.440   3.532
 2387SOL    HW2 8061   0.768   1.527   3.655
 2388SOL     OW 8062   0.298   2.625   5.389
 2388SOL    HW1 8063   0.374   2.632   5.453
 2388SOL    HW2 8064   0.301   2.537   5.341
 2389SOL     OW 8065   4.141   4.923   3.745
 2389SOL    HW1 8066   4.233   4.961   3.758
 2389SOL    HW2 8067   4.143   4.857   3.670
 2390SOL     OW 8068   5.087   3.036   5.969
 2390SOL    HW1 8069   5.170   2.981   5.977
 2390SOL    HW2 8070   5.070   3.082   6.057
 2391SOL     OW 8071   3.117   4.132   5.713
 2391SOL    HW1 8072   3.138   4.039   5.743
 2391SOL    HW2 8073   3.024   4.134   5.675
 2392SOL     OW 8074   4.574   4.258   5.482
 2392SOL    HW1 8075   4.519   4.183   5.444
 2392SOL    HW2 8076   4.671   4.233   5.480
 2393SOL     OW 8077   4.121   4.531   1.312
 2393SOL    HW1 8078   4.156   4.585   1.389
 2393SOL    HW2 8079   4.137   4.434   1.329
 2394SOL     OW 8080   0.533   2.029   3.928
 2394SOL    HW1 8081   0.569   1.939   3.904
 2394SOL    HW2 8082   0.543   2.043   4.027
 2395SOL     OW 8083   0.852   2.339   4.412
 2395SOL    HW1 8084   0.840   2.273   4.338
 2395SOL    HW2 8085   0.764   2.355   4.457
 2396SOL     OW 8086   0.593   0.384   5.789
 2396SOL    HW1 8087   0.658   0.383   5.713
 2396SOL    HW2 8088   0.639   0.415   5.872
 2397SOL     OW 8089   0.152   3.657   5.039
 2397SOL    HW1 8090   0.121   3.580   5.095
 2397SOL    HW2 8091   0.165   3.626   4.945
 2398SOL     OW 8092   3.664   6.613   4.235
 2398SOL    HW1 8093   3.610   6.528   4.232
 2398SOL    HW2 8094   3.619   6.682   4.178
 2399SOL     OW 8095   3.227   2.011   3.542
 2399SOL    HW1 8096   3.302   2.031   3.605
 2399SOL    HW2 8097   3.244   2.058   3.455
 2400SOL     OW 8098   1.643   4.365   0.721
 2400SOL    HW1 8099   1.574   4.411   0.777
 2400SOL    HW2 8100   1.598   4.320   0.644
 2401SOL     OW 8101   1.668   0.130   6.561
 2401SOL    HW1 8102   1.657   0.195   6.487
 2401SOL    HW2 8103   1.766   0.112   6.576
 2402SOL     OW 8104   1.274   4.216   1.833
 2402SOL    HW1 8105   1.204   4.274   1.791
 2402SOL    HW2 8106   1.335   4.272   1.889
 2403SOL     OW 8107   4.097   3.533   4.012
 2403SOL    HW1 8108   4.054   3.503   4.098
 2403SOL    HW2 8109   4.144   3.455   3.970
 2404SOL     OW 8110   6.055   0.882   1.069
 2404SOL    HW1 8111   6.013   0.949   1.009
 2404SOL    HW2 8112   6.101   0.929   1.144
 2405SOL     OW 8113   1.946   3.298   0.556
 2405SOL    HW1 8114   1.895   3.342   0.629
 2405SOL    HW2 8115   1.971   3.205   0.583
 2406SOL     OW 8116   2.911   6.081   4.472
 2406SOL    HW1 8117   2.915   6.124   4.382
 2406SOL    HW2 8118   2.816   6.069   4.499
 2407SOL     OW 8119   2.363   1.058   3.342
 2407SOL    HW1 8120   2.363   1.048   3.243
 2407SOL    HW2 8121   2.429   0.996   3.383
 2408SOL     OW 8122   3.507   6.190   5.581
 2408SOL    HW1 8123   3.450   6.202   5.662
 2408SOL    HW2 8124   3.557   6.274   5.562
 2409SOL     OW 8125   1.460   3.477   0.121
 2409SOL    HW1 8126   1.383   3.420   0.149
 2409SOL    HW2 8127   1.516   3.500   0.200
 2410SOL     OW 8128   0.500   2.815   4.506
 2410SOL    HW1 8129   0.494   2.715   4.501
 2410SOL    HW2 8130   0.479   2.845   4.599
 2411SOL     OW 8131   3.267   2.452   0.370
 2411SOL    HW1 8132   3.328   2.377   0.345
 2411SOL    HW2 8133   3.246   2.507   0.288
 2412SOL     OW 8134   3.448   1.927   6.034
 2412SOL    HW1 8135   3.401   1.979   5.963
 2412SOL    HW2 8136   3.471   1.988   6.110
 2413SOL     OW 8137   0.332   3.478   0.120
 2413SOL    HW1 8138   0.421   3.449   0.154
 2413SOL    HW2 8139   0.309   3.428   0.036
 2414SOL     OW 8140   6.115   1.954   5.071
 2414SOL    HW1 8141   6.208   1.920   5.060
 2414SOL    HW2 8142   6.108   2.047   5.035
 2415SOL     OW 8143   2.649   5.517   6.560
 2415SOL    HW1 8144   2.613   5.489   6.472
 2415SOL    HW2 8145   2.574   5.538   6.622
 2416SOL     OW 8146   6.970   3.365   2.328
 2416SOL    HW1 8147   6.959   3.405   2.419
 2416SOL    HW2 8148   6.930   3.273   2.328
 2417SOL     OW 8149   3.128   2.638   1.713
 2417SOL    HW1 8150   3.175   2.721   1.744
 2417SOL    HW2 8151   3.083   2.594   1.791
 2418SOL     OW 8152   4.756   4.233   6.855
 2418SOL    HW1 8153   4.851   4.214   6.877
 2418SOL    HW2 8154   4.699   4.218   6.936
 2419SOL     OW 8155   2.975   0.402   3.397
 2419SOL    HW1 8156   2.972   0.415   3.496
 2419SOL    HW2 8157   3.070   0.386   3.368
 2420SOL     OW 8158   1.565   4.053   2.371
 2420SOL    HW1 8159   1.600   4.109   2.295
 2420SOL    HW2 8160   1.468   4.033   2.355
 2421SOL     OW 8161   3.225   6.897   3.291
 2421SOL    HW1 8162   3.211   6.963   3.364
 2421SOL    HW2 8163   3.158   6.913   3.218
 2422SOL     OW 8164   4.371   5.538   0.897
 2422SOL    HW1 8165   4.422   5.459   0.863
 2422SOL    HW2 8166   4.420   5.622   0.872
 2423SOL     OW 8167   2.521   5.856   2.702
 2423SOL    HW1 8168   2.463   5.837   2.782
 2423SOL    HW2 8169   2.527   5.775   2.645
 2424SOL     OW 8170   5.371   7.006   6.399
 2424SOL    HW1 8171   5.407   0.077   6.419
 2424SOL    HW2 8172   5.436   6.936   6.429
 2425SOL     OW 8173   5.309   5.613   4.817
 2425SOL    HW1 8174   5.295   5.702   4.860
 2425SOL    HW2 8175   5.284   5.541   4.882
 2426SOL     OW 8176   2.106   3.106   5.555
 2426SOL    HW1 8177   2.136   3.032   5.615
 2426SOL    HW2 8178   2.139   3.089   5.462
 2427SOL     OW 8179   5.723   0.705   0.181
 2427SOL    HW1 8180   5.812   0.745   0.156
 2427SOL    HW2 8181   5.719   0.694   0.280
 2428SOL     OW 8182   0.842   0.862   3.021
 2428SOL    HW1 8183   0.814   0.827   3.110
 2428SOL    HW2 8184   0.851   0.961   3.025
 2429SOL     OW 8185   5.580   4.830   1.338
 2429SOL    HW1 8186   5.593   4.846   1.435
 2429SOL    HW2 8187   5.485   4.805   1.320
 2430SOL     OW 8188   6.115   0.858   6.431
 2430SOL    HW1 8189   6.079   0.926   6.367
 2430SOL    HW2 8190   6.072   0.869   6.520
 2431SOL     OW 8191   0.453   3.162   2.140
 2431SOL    HW1 8192   0.417   3.255   2.130
 2431SOL    HW2 8193   0.522   3.161   2.212
 2432SOL     OW 8194   2.832   5.460   1.937
 2432SOL    HW1 8195   2.781   5.418   1.862
 2432SOL    HW2 8196   2.778   5.536   1.974
 2433SOL     OW 8197   6.984   4.035   5.356
 2433SOL    HW1 8198   0.038   3.998   5.300
 2433SOL    HW2 8199   6.925   3.960   5.388
 2434SOL     OW 8200   4.247   0.842   2.390
 2434SOL    HW1 8201   4.236   0.748   2.359
 2434SOL    HW2 8202   4.162   0.893   2.373
 2435SOL     OW 8203   6.193   6.807   6.781
 2435SOL    HW1 8204   6.255   6.884   6.770
 2435SOL    HW2 8205   6.099   6.837   6.764
 2436SOL     OW 8206   1.201   1.866   1.554
 2436SOL    HW1 8207   1.158   1.948   1.592
 2436SOL    HW2 8208   1.139   1.823   1.488
 2437SOL     OW 8209   0.088   4.146   2.917
 2437SOL    HW1 8210   0.174   4.180   2.955
 2437SOL    HW2 8211   0.097   4.049   2.895
 2438SOL     OW 8212   3.321   1.299   4.814
 2438SOL    HW1 8213   3.239   1.320   4.867
 2438SOL    HW2 8214   3.339   1.201   4.817
 2439SOL     OW 8215   1.476   6.081   1.411
 2439SOL    HW1 8216   1.480   6.139   1.493
 2439SOL    HW2 8217   1.443   6.135   1.334
 2440SOL     OW 8218   5.589   1.242   5.354
 2440SOL    HW1 8219   5.549   1.158   5.318
 2440SOL    HW2 8220   5.517   1.312   5.362
 2441SOL     OW 8221   5.984   0.341   0.558
 2441SOL    HW1 8222   6.052   0.269   0.570
 2441SOL    HW2 8223   5.905   0.321   0.616
 2442SOL     OW 8224   5.110   2.803   1.399
 2442SOL    HW1 8225   5.120   2.851   1.486
 2442SOL    HW2 8226   5.013   2.790   1.378
 2443SOL     OW 8227   1.009   3.156   1.991
 2443SOL    HW1 8228   1.014   3.182   1.894
 2443SOL    HW2 8229   1.100   3.161   2.032
 2444SOL     OW 8230   3.307   5.868   2.261
 2444SOL    HW1 8231   3.242   5.816   2.317
 2444SOL    HW2 8232   3.256   5.927   2.198
 2445SOL     OW 8233   0.668   2.935   1.429
 2445SOL    HW1 8234   0.645   2.861   1.492
 2445SOL    HW2 8235   0.624   2.920   1.341
 2446SOL     OW 8236   1.370   5.476   1.403
 2446SOL    HW1 8237   1.332   5.444   1.317
 2446SOL    HW2 8238   1.409   5.398   1.453
 2447SOL     OW 8239   2.588   6.821   0.075
 2447SOL    HW1 8240   2.587   6.793   6.999
 2447SOL    HW2 8241   2.609   6.918   0.081
 2448SOL     OW 8242   5.831   1.341   4.520
 2448SOL    HW1 8243   5.735   1.350   4.492
 2448SOL    HW2 8244   5.884   1.299   4.447
 2449SOL     OW 8245   1.593   4.331   1.635
 2449SOL    HW1 8246   1.593   4.238   1.672
 2449SOL    HW2 8247   1.674   4.380   1.667
 2450SOL     OW 8248   1.450   6.786   5.959
 2450SOL    HW1 8249   1.432   6.769   6.056
 2450SOL    HW2 8250   1.496   6.874   5.948
 2451SOL     OW 8251   0.544   6.256   4.684
 2451SOL    HW1 8252   0.643   6.258   4.668
 2451SOL    HW2 8253   0.515   6.163   4.702
 2452SOL     OW 8254   2.164   2.248   3.365
 2452SOL    HW1 8255   2.104   2.173   3.336
 2452SOL    HW2 8256   2.123   2.335   3.338
 2453SOL     OW 8257   0.391   0.749   6.085
 2453SOL    HW1 8258   0.374   0.813   6.161
 2453SOL    HW2 8259   0.489   0.734   6.077
 2454SOL     OW 8260   3.592   5.548   1.316
 2454SOL    HW1 8261   3.507   5.573   1.270
 2454SOL    HW2 8262   3.654   5.505   1.250
 2455SOL     OW 8263   4.209   2.663   0.798
 2455SOL    HW1 8264   4.134   2.655   0.733
 2455SOL    HW2 8265   4.175   2.646   0.891
 2456SOL     OW 8266   0.842   4.410   6.270
 2456SOL    HW1 8267   0.753   4.385   6.309
 2456SOL    HW2 8268   0.879   4.488   6.320
 2457SOL     OW 8269   4.631   2.159   4.939
 2457SOL    HW1 8270   4.729   2.149   4.956
 2457SOL    HW2 8271   4.616   2.194   4.847
 2458SOL     OW 8272   0.715   0.516   2.150
 2458SOL    HW1 8273   0.618   0.515   2.127
 2458SOL    HW2 8274   0.730   0.471   2.237
 2459SOL     OW 8275   2.844   0.169   0.394
 2459SOL    HW1 8276   2.902   0.183   0.474
 2459SOL    HW2 8277   2.901   0.165   0.312
 2460SOL     OW 8278   1.393   1.087   4.802
 2460SOL    HW1 8279   1.382   1.051   4.895
 2460SOL    HW2 8280   1.353   1.023   4.737
 2461SOL     OW 8281   4.716   0.029   3.519
 2461SOL    HW1 8282   4.792   0.060   3.462
 2461SOL    HW2 8283   4.630   0.059   3.480
 2462SOL     OW 8284   0.190   3.939   0.492
 2462SOL    HW1 8285   0.145   3.905   0.410
 2462SOL    HW2 8286   0.241   4.023   0.470
 2463SOL     OW 8287   6.954   0.623   6.975
 2463SOL    HW1 8288   0.011   0.686   6.980
 2463SOL    HW2 8289   6.981   0.534   7.010
 2464SOL     OW 8290   0.838   2.922   3.334
 2464SOL    HW1 8291   0.901   2.966   3.271
 2464SOL    HW2 8292   0.746   2.922   3.295
 2465SOL     OW 8293   6.939   6.191   5.484
 2465SOL    HW1 8294   6.987   6.105   5.502
 2465SOL    HW2 8295   6.868   6.175   5.416
 2466SOL     OW 8296   0.479   2.489   2.190
 2466SOL    HW1 8297   0.387   2.485   2.230
 2466SOL    HW2 8298   0.506   2.584   2.177
 2467SOL     OW 8299   5.787   2.004   5.167
 2467SOL    HW1 8300   5.782   2.017   5.266
 2467SOL    HW2 8301   5.785   1.906   5.146
 2468SOL     OW 8302   3.078   6.549   5.617
 2468SOL    HW1 8303   3.128   6.515   5.698
 2468SOL    HW2 8304   3.004   6.486   5.595
 2469SOL     OW 8305   3.640   2.272   5.980
 2469SOL    HW1 8306   3.555   2.308   5.941
 2469SOL    HW2 8307   3.671   2.194   5.925
 2470SOL     OW 8308   2.893   4.543   5.970
 2470SOL    HW1 8309   2.952   4.476   5.924
 2470SOL    HW2 8310   2.883   4.518   6.066
 2471SOL     OW 8311   3.236   5.959   1.981
 2471SOL    HW1 8312   3.303   5.903   1.931
 2471SOL    HW2 8313   3.235   6.051   1.942
 2472SOL     OW 8314   4.198   1.717   3.889
 2472SOL    HW1 8315   4.268   1.786   3.907
 2472SOL    HW2 8316   4.217   1.672   3.802
 2473SOL     OW 8317   0.433   3.974   4.984
 2473SOL    HW1 8318   0.493   3.899   5.014
 2473SOL    HW2 8319   0.479   4.026   4.912
 2474SOL     OW 8320   1.299   5.658   1.753
 2474SOL    HW1 8321   1.393   5.642   1.722
 2474SOL    HW2 8322   1.252   5.718   1.689
 2475SOL     OW 8323   4.706   0.946   0.650
 2475SOL    HW1 8324   4.725   0.877   0.580
 2475SOL    HW2 8325   4.681   1.032   0.605
 2476SOL     OW 8326   5.598   0.622   6.831
 2476SOL    HW1 8327   5.694   0.593   6.822
 2476SOL    HW2 8328   5.568   0.663   6.744
 2477SOL     OW 8329   3.823   0.305   3.583
 2477SOL    HW1 8330   3.919   0.290   3.606
 2477SOL    HW2 8331   3.770   0.223   3.603
 2478SOL     OW 8332   4.578   0.158   3.739
 2478SOL    HW1 8333   4.677   0.172   3.735
 2478SOL    HW2 8334   4.556   0.062   3.724
 2479SOL     OW 8335   6.897   3.666   6.647
 2479SOL    HW1 8336   6.935   3.705   6.731
 2479SOL    HW2 8337   6.960   3.597   6.611
 2480SOL     OW 8338   3.507   2.717   1.802
 2480SOL    HW1 8339   3.413   2.746   1.821
 2480SOL    HW2 8340   3.551   2.689   1.887
 2481SOL     OW 8341   3.315   0.060   0.927
 2481SOL    HW1 8342   3.375   0.091   1.000
 2481SOL    HW2 8343   3.296   6.982   0.939
 2482SOL     OW 8344   5.880   3.184   6.563
 2482SOL    HW1 8345   5.855   3.099   6.517
 2482SOL    HW2 8346   5.827   3.260   6.523
 2483SOL     OW 8347   0.827   2.676   0.937
 2483SOL    HW1 8348   0.767   2.752   0.912
 2483SOL    HW2 8349   0.913   2.713   0.974
 2484SOL     OW 8350   5.198   1.519   1.264
 2484SOL    HW1 8351   5.223   1.452   1.334
 2484SOL    HW2 8352   5.187   1.609   1.307
 2485SOL     OW 8353   6.120   2.336   5.991
 2485SOL    HW1 8354   6.040   2.396   5.985
 2485SOL    HW2 8355   6.108   2.270   6.065
 2486SOL     OW 8356   0.370   4.127   5.381
 2486SOL    HW1 8357   0.330   4.148   5.292
 2486SOL    HW2 8358   0.365   4.208   5.439
 2487SOL     OW 8359   4.355   5.840   0.233
 2487SOL    HW1 8360   4.292   5.762   0.229
 2487SOL    HW2 8361   4.380   5.857   0.329
 2488SOL     OW 8362   6.569   3.750   1.463
 2488SOL    HW1 8363   6.592   3.654   1.448
 2488SOL    HW2 8364   6.652   3.805   1.461
 2489SOL     OW 8365   0.141   6.557   4.397
 2489SOL    HW1 8366   0.194   6.537   4.315
 2489SOL    HW2 8367   0.180   6.637   4.443
 2490SOL     OW 8368   2.838   6.234   2.405
 2490SOL    HW1 8369   2.840   6.334   2.408
 2490SOL    HW2 8370   2.921   6.200   2.362
 2491SOL     OW 8371   3.891   4.806   1.543
 2491SOL    HW1 8372   3.898   4.848   1.453
 2491SOL    HW2 8373   3.938   4.863   1.610
 2492SOL     OW 8374   6.759   4.489   1.016
 2492SOL    HW1 8375   6.791   4.553   1.085
 2492SOL    HW2 8376   6.693   4.535   0.957
 2493SOL     OW 8377   6.515   6.710   1.740
 2493SOL    HW1 8378   6.485   6.638   1.802
 2493SOL    HW2 8379   6.549   6.669   1.655
 2494SOL     OW 8380   5.951   3.615   1.845
 2494SOL    HW1 8381   5.936   3.536   1.786
 2494SOL    HW2 8382   6.033   3.664   1.816
 2495SOL     OW 8383   6.540   4.902   3.990
 2495SOL    HW1 8384   6.515   4.806   3.978
 2495SOL    HW2 8385   6.457   4.958   3.993
 2496SOL     OW 8386   6.113   4.946   6.496
 2496SOL    HW1 8387   6.162   5.022   6.453
 2496SOL    HW2 8388   6.068   4.978   6.580
 2497SOL     OW 8389   0.267   6.960   2.021
 2497SOL    HW1 8390   0.297   6.994   2.111
 2497SOL    HW2 8391   0.235   0.016   1.965
 2498SOL     OW 8392   2.151   3.213   6.093
 2498SOL    HW1 8393   2.225   3.152   6.064
 2498SOL    HW2 8394   2.190   3.297   6.131
 2499SOL     OW 8395   6.682   3.259   1.609
 2499SOL    HW1 8396   6.769   3.210   1.605
 2499SOL    HW2 8397   6.694   3.345   1.658
 2500SOL     OW 8398   3.585   4.251   6.885
 2500SOL    HW1 8399   3.662   4.314   6.888
 2500SOL    HW2 8400   3.611   4.163   6.925
 2501SOL     OW 8401   6.228   5.795   0.467
 2501SOL    HW1 8402   6.235   5.706   0.424
 2501SOL    HW2 8403   6.236   5.785   0.567
 2502SOL     OW 8404   2.922   5.705   4.679
 2502SOL    HW1 8405   2.848   5.692   4.614
 2502SOL    HW2 8406   2.914   5.796   4.721
 2503SOL     OW 8407   2.476   6.634   5.769
 2503SOL    HW1 8408   2.515   6.548   5.736
 2503SOL    HW2 8409   2.414   6.672   5.700
 2504SOL     OW 8410   3.160   5.671   2.405
 2504SOL    HW1 8411   3.129   5.593   2.350
 2504SOL    HW2 8412   3.126   5.660   2.498
 2505SOL     OW 8413   6.979   5.645   2.906
 2505SOL    HW1 8414   7.009   5.584   2.979
 2505SOL    HW2 8415   6.943   5.730   2.945
 2506SOL     OW 8416   5.169   5.235   5.625
 2506SOL    HW1 8417   5.075   5.206   5.609
 2506SOL    HW2 8418   5.209   5.267   5.539
 2507SOL     OW 8419   0.072   3.496   0.496
 2507SOL    HW1 8420   0.005   3.432   0.533
 2507SOL    HW2 8421   0.115   3.547   0.570
 2508SOL     OW 8422   3.886   1.887   3.668
 2508SOL    HW1 8423   3.985   1.884   3.658
 2508SOL    HW2 8424   3.849   1.794   3.668
 2509SOL     OW 8425   0.282   3.628   5.738
 2509SOL    HW1 8426   0.209   3.567   5.706
 2509SOL    HW2 8427   0.245   3.693   5.804
 2510SOL     OW 8428   3.249   4.083   1.733
 2510SOL    HW1 8429   3.218   3.993   1.701
 2510SOL    HW2 8430   3.172   4.146   1.732
 2511SOL     OW 8431   2.496   0.984   5.218
 2511SOL    HW1 8432   2.555   1.037   5.157
 2511SOL    HW2 8433   2.544   0.965   5.303
 2512SOL     OW 8434   3.815   4.909   4.723
 2512SOL    HW1 8435   3.786   4.814   4.714
 2512SOL    HW2 8436   3.766   4.952   4.799
 2513SOL     OW 8437   2.321   6.235   6.334
 2513SOL    HW1 8438   2.377   6.294   6.275
 2513SOL    HW2 8439   2.370   6.149   6.350
 2514SOL     OW 8440   1.289   3.016   3.237
 2514SOL    HW1 8441   1.264   3.071   3.317
 2514SOL    HW2 8442   1.387   3.022   3.221
 2515SOL     OW 8443   1.699   1.448   1.458
 2515SOL    HW1 8444   1.766   1.493   1.517
 2515SOL    HW2 8445   1.657   1.372   1.508
 2516SOL     OW 8446   5.465   1.787   3.269
 2516SOL    HW1 8447   5.561   1.813   3.280
 2516SOL    HW2 8448   5.456   1.727   3.189
 2517SOL     OW 8449   1.104   0.912   4.245
 2517SOL    HW1 8450   1.042   0.991   4.244
 2517SOL    HW2 8451   1.058   0.834   4.286
 2518SOL     OW 8452   2.786   4.660   1.275
 2518SOL    HW1 8453   2.731   4.696   1.350
 2518SOL    HW2 8454   2.756   4.567   1.253
 2519SOL     OW 8455   1.655   1.429   0.545
 2519SOL    HW1 8456   1.629   1.388   0.458
 2519SOL    HW2 8457   1.607   1.516   0.557
 2520SOL     OW 8458   3.399   2.684   1.253
 2520SOL    HW1 8459   3.302   2.677   1.231
 2520SOL    HW2 8460   3.425   2.611   1.315
 2521SOL     OW 8461   4.497   1.468   5.363
 2521SOL    HW1 8462   4.490   1.539   5.292
 2521SOL    HW2 8463   4.583   1.417   5.350
 2522SOL     OW 8464   0.617   1.831   5.380
 2522SOL    HW1 8465   0.589   1.849   5.286
 2522SOL    HW2 8466   0.548   1.867   5.443
 2523SOL     OW 8467   1.672   4.864   0.087
 2523SOL    HW1 8468   1.745   4.933   0.086
 2523SOL    HW2 8469   1.686   4.799   0.013
 2524SOL     OW 8470   1.551   6.688   3.904
 2524SOL    HW1 8471   1.562   6.664   4.001
 2524SOL    HW2 8472   1.488   6.766   3.897
 2525SOL     OW 8473   0.560   2.526   4.185
 2525SOL    HW1 8474   0.586   2.604   4.129
 2525SOL    HW2 8475   0.583   2.441   4.136
 2526SOL     OW 8476   1.160   6.086   0.492
 2526SOL    HW1 8477   1.067   6.081   0.456
 2526SOL    HW2 8478   1.225   6.080   0.417
 2527SOL     OW 8479   5.152   5.282   6.843
 2527SOL    HW1 8480   5.195   5.292   6.754
 2527SOL    HW2 8481   5.222   5.265   6.913
 2528SOL     OW 8482   4.668   4.960   6.781
 2528SOL    HW1 8483   4.735   5.033   6.794
 2528SOL    HW2 8484   4.695   4.880   6.834
 2529SOL     OW 8485   0.325   7.014   6.141
 2529SOL    HW1 8486   0.302   0.059   6.069
 2529SOL    HW2 8487   0.322   6.921   6.104
 2530SOL     OW 8488   2.507   5.998   5.557
 2530SOL    HW1 8489   2.444   6.056   5.610
 2530SOL    HW2 8490   2.478   5.998   5.461
 2531SOL     OW 8491   6.216   5.362   5.980
 2531SOL    HW1 8492   6.299   5.384   6.032
 2531SOL    HW2 8493   6.142   5.338   6.044
 2532SOL     OW 8494   0.423   6.948   0.890
 2532SOL    HW1 8495   0.482   6.940   0.810
 2532SOL    HW2 8496   0.478   6.962   0.972
 2533SOL     OW 8497   5.378   0.533   3.039
 2533SOL    HW1 8498   5.432   0.450   3.054
 2533SOL    HW2 8499   5.417   0.609   3.091
 2534SOL     OW 8500   4.814   1.794   1.998
 2534SOL    HW1 8501   4.799   1.787   1.900
 2534SOL    HW2 8502   4.818   1.702   2.038
 2535SOL     OW 8503   3.563   2.825   6.149
 2535SOL    HW1 8504   3.494   2.843   6.080
 2535SOL    HW2 8505   3.649   2.869   6.123
 2536SOL     OW 8506   1.477   0.840   6.747
 2536SOL    HW1 8507   1.510   0.909   6.683
 2536SOL    HW2 8508   1.413   0.881   6.811
 2537SOL     OW 8509   4.159   1.267   0.034
 2537SOL    HW1 8510   4.153   1.354   7.006
 2537SOL    HW2 8511   4.158   1.192   6.987
 2538SOL     OW 8512   6.751   3.653   3.764
 2538SOL    HW1 8513   6.737   3.714   3.687
 2538SOL    HW2 8514   6.688   3.677   3.838
 2539SOL     OW 8515   5.353   1.217   4.540
 2539SOL    HW1 8516   5.272   1.221   4.480
 2539SOL    HW2 8517   5.425   1.165   4.495
 2540SOL     OW 8518   3.405   1.619   2.755
 2540SOL    HW1 8519   3.305   1.614   2.748
 2540SOL    HW2 8520   3.438   1.697   2.702
 2541SOL     OW 8521   3.449   6.542   5.504
 2541SOL    HW1 8522   3.415   6.476   5.437
 2541SOL    HW2 8523   3.404   6.630   5.489
 2542SOL     OW 8524   1.141   4.740   0.047
 2542SOL    HW1 8525   1.111   4.801   6.993
 2542SOL    HW2 8526   1.181   4.795   0.120
 2543SOL     OW 8527   0.886   1.969   4.553
 2543SOL    HW1 8528   0.965   2.020   4.589
 2543SOL    HW2 8529   0.882   1.879   4.597
 2544SOL     OW 8530   1.061   5.221   0.510
 2544SOL    HW1 8531   1.102   5.280   0.440
 2544SOL    HW2 8532   1.134   5.175   0.561
 2545SOL     OW 8533   2.009   6.320   2.958
 2545SOL    HW1 8534   2.095   6.291   3.001
 2545SOL    HW2 8535   2.029   6.360   2.869
 2546SOL     OW 8536   6.172   1.478   0.831
 2546SOL    HW1 8537   6.160   1.381   0.809
 2546SOL    HW2 8538   6.086   1.515   0.868
 2547SOL     OW 8539   0.152   3.889   5.203
 2547SOL    HW1 8540   0.199   3.954   5.144
 2547SOL    HW2 8541   0.140   3.802   5.154
 2548SOL     OW 8542   0.285   6.530   4.183
 2548SOL    HW1 8543   0.219   6.585   4.132
 2548SOL    HW2 8544   0.377   6.568   4.172
 2549SOL     OW 8545   0.369   0.857   1.818
 2549SOL    HW1 8546   0.422   0.776   1.792
 2549SOL    HW2 8547   0.333   0.845   1.910
 2550SOL     OW 8548   5.850   6.364   0.368
 2550SOL    HW1 8549   5.809   6.442   0.320
 2550SOL    HW2 8550   5.950   6.368   0.359
 2551SOL     OW 8551   2.107   4.002   6.856
 2551SOL    HW1 8552   2.087   4.048   6.943
 2551SOL    HW2 8553   2.151   4.067   6.794
 2552SOL     OW 8554   3.076   5.298   3.375
 2552SOL    HW1 8555   3.091   5.243   3.293
 2552SOL    HW2 8556   2.989   5.272   3.417
 2553SOL     OW 8557   4.135   3.662   6.096
 2553SOL    HW1 8558   4.102   3.733   6.158
 2553SOL    HW2 8559   4.156   3.702   6.007
 2554SOL     OW 8560   1.319   1.741   0.816
 2554SOL    HW1 8561   1.227   1.755   0.779
 2554SOL    HW2 8562   1.361   1.830   0.834
 2555SOL     OW 8563   5.262   2.520   5.229
 2555SOL    HW1 8564   5.229   2.494   5.319
 2555SOL    HW2 8565   5.360   2.540   5.234
 2556SOL     OW 8566   3.650   5.729   1.053
 2556SOL    HW1 8567   3.632   5.633   1.072
 2556SOL    HW2 8568   3.711   5.737   0.974
 2557SOL     OW 8569   2.258   4.032   6.364
 2557SOL    HW1 8570   2.166   4.071   6.371
 2557SOL    HW2 8571   2.323   4.106   6.343
 2558SOL     OW 8572   4.582   1.156   5.459
 2558SOL    HW1 8573   4.631   1.154   5.372
 2558SOL    HW2 8574   4.485   1.175   5.443
 2559SOL     OW 8575   0.398   4.850   5.409
 2559SOL    HW1 8576   0.455   4.779   5.365
 2559SOL    HW2 8577   0.456   4.910   5.464
 2560SOL     OW 8578   5.877   1.804   5.865
 2560SOL    HW1 8579   5.790   1.773   5.902
 2560SOL    HW2 8580   5.929   1.852   5.936
 2561SOL     OW 8581   2.553   5.531   4.770
 2561SOL    HW1 8582   2.455   5.548   4.767
 2561SOL    HW2 8583   2.578   5.497   4.861
 2562SOL     OW 8584   1.960   3.788   0.423
 2562SOL    HW1 8585   1.949   3.788   0.323
 2562SOL    HW2 8586   1.990   3.697   0.453
 2563SOL     OW 8587   2.429   1.365   0.247
 2563SOL    HW1 8588   2.427   1.279   0.299
 2563SOL    HW2 8589   2.335   1.392   0.226
 2564SOL     OW 8590   1.985   5.066   1.617
 2564SOL    HW1 8591   2.051   5.124   1.568
 2564SOL    HW2 8592   2.034   5.003   1.678
 2565SOL     OW 8593   1.350   0.550   1.501
 2565SOL    HW1 8594   1.264   0.563   1.552
 2565SOL    HW2 8595   1.423   0.527   1.565
 2566SOL     OW 8596   2.279   6.632   6.951
 2566SOL    HW1 8597   2.334   6.690   6.891
 2566SOL    HW2 8598   2.304   6.649   0.027
 2567SOL     OW 8599   1.857   6.659   0.623
 2567SOL    HW1 8600   1.876   6.605   0.541
 2567SOL    HW2 8601   1.760   6.652   0.646
 2568SOL     OW 8602   4.435   2.029   0.125
 2568SOL    HW1 8603   4.451   2.103   0.059
 2568SOL    HW2 8604   4.347   1.986   0.106
 2569SOL     OW 8605   3.486   0.420   3.911
 2569SOL    HW1 8606   3.401   0.470   3.896
 2569SOL    HW2 8607   3.561   0.485   3.926
 2570SOL     OW 8608   5.546   1.716   6.084
 2570SOL    HW1 8609   5.465   1.749   6.133
 2570SOL    HW2 8610   5.540   1.742   5.988
 2571SOL     OW 8611   1.727   5.063   3.572
 2571SOL    HW1 8612   1.740   5.052   3.671
 2571SOL    HW2 8613   1.642   5.017   3.545
 2572SOL     OW 8614   2.660   4.983   3.145
 2572SOL    HW1 8615   2.676   4.891   3.111
 2572SOL    HW2 8616   2.586   4.982   3.212
 2573SOL     OW 8617   0.337   0.913   1.242
 2573SOL    HW1 8618   0.323   0.960   1.155
 2573SOL    HW2 8619   0.433   0.917   1.267
 2574SOL     OW 8620   5.945   3.439   0.568
 2574SOL    HW1 8621   5.952   3.389   0.654
 2574SOL    HW2 8622   6.017   3.408   0.505
 2575SOL     OW 8623   6.630   5.750   6.871
 2575SOL    HW1 8624   6.662   5.754   6.777
 2575SOL    HW2 8625   6.538   5.788   6.876
 2576SOL     OW 8626   5.255   5.936   3.806
 2576SOL    HW1 8627   5.222   5.842   3.813
 2576SOL    HW2 8628   5.214   5.992   3.878
 2577SOL     OW 8629   2.739   4.669   2.297
 2577SOL    HW1 8630   2.710   4.579   2.331
 2577SOL    HW2 8631   2.832   4.663   2.260
 2578SOL     OW 8632   3.581   1.841   3.836
 2578SOL    HW1 8633   3.564   1.883   3.926
 2578SOL    HW2 8634   3.503   1.784   3.811
 2579SOL     OW 8635   0.517   6.809   3.645
 2579SOL    HW1 8636   0.477   6.849   3.727
 2579SOL    HW2 8637   0.478   6.853   3.564
 2580SOL     OW 8638   2.510   2.854   0.069
 2580SOL    HW1 8639   2.421   2.821   0.039
 2580SOL    HW2 8640   2.570   2.777   0.087
 2581SOL     OW 8641   2.667   0.235   5.628
 2581SOL    HW1 8642   2.597   0.193   5.569
 2581SOL    HW2 8643   2.723   0.297   5.573
 2582SOL     OW 8644   6.878   3.439   1.292
 2582SOL    HW1 8645   6.900   3.512   1.356
 2582SOL    HW2 8646   6.961   3.407   1.248
 2583SOL     OW 8647   6.122   6.615   1.060
 2583SOL    HW1 8648   6.118   6.709   1.095
 2583SOL    HW2 8649   6.099   6.614   0.963
 2584SOL     OW 8650   4.684   4.613   5.254
 2584SOL    HW1 8651   4.721   4.572   5.171
 2584SOL    HW2 8652   4.664   4.542   5.321
 2585SOL     OW 8653   3.190   4.908   6.721
 2585SOL    HW1 8654   3.288   4.885   6.726
 2585SOL    HW2 8655   3.179   5.007   6.718
 2586SOL     OW 8656   1.424   0.745   5.214
 2586SOL    HW1 8657   1.508   0.700   5.244
 2586SOL    HW2 8658   1.383   0.793   5.292
 2587SOL     OW 8659   6.564   1.760   3.251
 2587SOL    HW1 8660   6.536   1.670   3.219
 2587SOL    HW2 8661   6.599   1.753   3.345
 2588SOL     OW 8662   4.541   1.417   4.679
 2588SOL    HW1 8663   4.510   1.484   4.747
 2588SOL    HW2 8664   4.471   1.408   4.608
 2589SOL     OW 8665   1.518   6.985   0.208
 2589SOL    HW1 8666   1.596   6.924   0.198
 2589SOL    HW2 8667   1.434   6.931   0.212
 2590SOL     OW 8668   2.738   5.321   7.012
 2590SOL    HW1 8669   2.749   5.248   0.060
 2590SOL    HW2 8670   2.776   5.406   0.028
 2591SOL     OW 8671   5.807   5.317   4.169
 2591SOL    HW1 8672   5.733   5.383   4.172
 2591SOL    HW2 8673   5.884   5.350   4.224
 2592SOL     OW 8674   2.894   4.458   6.587
 2592SOL    HW1 8675   2.943   4.532   6.541
 2592SOL    HW2 8676   2.796   4.466   6.567
 2593SOL     OW 8677   2.725   4.673   0.697
 2593SOL    HW1 8678   2.687   4.644   0.609
 2593SOL    HW2 8679   2.665   4.643   0.771
 2594SOL     OW 8680   2.207   4.001   4.439
 2594SOL    HW1 8681   2.186   4.087   4.486
 2594SOL    HW2 8682   2.182   3.924   4.497
 2595SOL     OW 8683   1.949   0.625   3.298
 2595SOL    HW1 8684   1.864   0.667   3.329
 2595SOL    HW2 8685   1.956   0.532   3.336
 2596SOL     OW 8686   0.845   2.079   0.229
 2596SOL    HW1 8687   0.875   2.131   0.149
 2596SOL    HW2 8688   0.745   2.076   0.231
 2597SOL     OW 8689   0.263   5.943   6.610
 2597SOL    HW1 8690   0.195   5.928   6.538
 2597SOL    HW2 8691   0.224   5.915   6.698
 2598SOL     OW 8692   5.824   2.676   2.377
 2598SOL    HW1 8693   5.860   2.657   2.468
 2598SOL    HW2 8694   5.756   2.608   2.352
 2599SOL     OW 8695   2.231   6.899   2.396
 2599SOL    HW1 8696   2.224   6.809   2.438
 2599SOL    HW2 8697   2.322   6.911   2.357
 2600SOL     OW 8698   6.339   3.916   4.357
 2600SOL    HW1 8699   6.409   3.897   4.288
 2600SOL    HW2 8700   6.258   3.861   4.338
 2601SOL     OW 8701   0.601   1.983   2.848
 2601SOL    HW1 8702   0.669   2.040   2.803
 2601SOL    HW2 8703   0.530   1.958   2.782
 2602SOL     OW 8704   1.887   5.563   3.935
 2602SOL    HW1 8705   1.983   5.544   3.920
 2602SOL    HW2 8706   1.845   5.596   3.851
 2603SOL     OW 8707   2.894   0.660   2.788
 2603SOL    HW1 8708   2.855   0.655   2.880
 2603SOL    HW2 8709   2.896   0.568   2.748
 2604SOL     OW 8710   4.607   1.953   2.857
 2604SOL    HW1 8711   4.706   1.939   2.852
 2604SOL    HW2 8712   4.582   2.034   2.804
 2605SOL     OW 8713   1.130   3.906   2.146
 2605SOL    HW1 8714   1.041   3.861   2.155
 2605SOL    HW2 8715   1.150   3.920   2.049
 2606SOL     OW 8716   4.316   3.928   0.720
 2606SOL    HW1 8717   4.297   3.830   0.732
 2606SOL    HW2 8718   4.234   3.973   0.683
 2607SOL     OW 8719   2.679   2.196   1.147
 2607SOL    HW1 8720   2.776   2.177   1.132
 2607SOL    HW2 8721   2.624   2.133   1.092
 2608SOL     OW 8722   2.432   5.760   6.323
 2608SOL    HW1 8723   2.525   5.727   6.309
 2608SOL    HW2 8724   2.373   5.728   6.249
 2609SOL     OW 8725   6.916   0.679   1.319
 2609SOL    HW1 8726   6.916   0.739   1.239
 2609SOL    HW2 8727   6.864   0.722   1.393
 2610SOL     OW 8728   1.420   4.887   4.515
 2610SOL    HW1 8729   1.351   4.834   4.466
 2610SOL    HW2 8730   1.445   4.840   4.599
 2611SOL     OW 8731   5.713   6.694   6.601
 2611SOL    HW1 8732   5.633   6.637   6.623
 2611SOL    HW2 8733   5.776   6.694   6.679
 2612SOL     OW 8734   6.150   0.190   5.721
 2612SOL    HW1 8735   6.207   0.235   5.653
 2612SOL    HW2 8736   6.073   0.249   5.745
 2613SOL     OW 8737   1.270   5.553   6.993
 2613SOL    HW1 8738   1.321   5.470   6.972
 2613SOL    HW2 8739   1.333   5.625   0.002
 2614SOL     OW 8740   0.078   1.716   0.018
 2614SOL    HW1 8741   0.086   1.684   0.113
 2614SOL    HW2 8742   7.002   1.734   7.017
 2615SOL     OW 8743   1.006   3.197   0.388
 2615SOL    HW1 8744   0.951   3.173   0.308
 2615SOL    HW2 8745   1.007   3.296   0.399
 2616SOL     OW 8746   1.282   0.546   5.542
 2616SOL    HW1 8747   1.221   0.568   5.618
 2616SOL    HW2 8748   1.350   0.479   5.572
 2617SOL     OW 8749   5.244   0.224   1.104
 2617SOL    HW1 8750   5.329   0.276   1.105
 2617SOL    HW2 8751   5.212   0.209   1.197
 2618SOL     OW 8752   2.279   6.625   6.435
 2618SOL    HW1 8753   2.335   6.556   6.481
 2618SOL    HW2 8754   2.182   6.603   6.448
 2619SOL     OW 8755   4.586   1.104   2.526
 2619SOL    HW1 8756   4.510   1.168   2.541
 2619SOL    HW2 8757   4.653   1.146   2.465
 2620SOL     OW 8758   6.553   6.795   1.299
 2620SOL    HW1 8759   6.630   6.817   1.239
 2620SOL    HW2 8760   6.584   6.736   1.374
 2621SOL     OW 8761   1.995   6.200   2.197
 2621SOL    HW1 8762   2.028   6.257   2.121
 2621SOL    HW2 8763   1.930   6.253   2.252
 2622SOL     OW 8764   3.601   3.321   6.078
 2622SOL    HW1 8765   3.659   3.333   5.997
 2622SOL    HW2 8766   3.629   3.239   6.127
 2623SOL     OW 8767   0.609   6.620   3.469
 2623SOL    HW1 8768   0.708   6.635   3.474
 2623SOL    HW2 8769   0.563   6.684   3.531
 2624SOL     OW 8770   0.182   1.887   4.267
 2624SOL    HW1 8771   0.264   1.938   4.294
 2624SOL    HW2 8772   0.177   1.802   4.319
 2625SOL     OW 8773   1.586   5.216   5.992
 2625SOL    HW1 8774   1.554   5.306   5.964
 2625SOL    HW2 8775   1.510   5.151   5.987
 2626SOL     OW 8776   6.897   5.248   6.005
 2626SOL    HW1 8777   6.807   5.251   6.048
 2626SOL    HW2 8778   6.888   5.215   5.911
 2627SOL     OW 8779   1.721   6.971   5.630
 2627SOL    HW1 8780   1.634   7.005   5.592
 2627SOL    HW2 8781   1.733   6.876   5.603
 2628SOL     OW 8782   0.753   4.636   1.948
 2628SOL    HW1 8783   0.739   4.614   1.851
 2628SOL    HW2 8784   0.699   4.717   1.972
 2629SOL     OW 8785   3.204   3.524   3.494
 2629SOL    HW1 8786   3.236   3.575   3.414
 2629SOL    HW2 8787   3.121   3.567   3.530
 2630SOL     OW 8788   3.821   0.877   4.116
 2630SOL    HW1 8789   3.895   0.837   4.169
 2630SOL    HW2 8790   3.757   0.924   4.177
 2631SOL     OW 8791   6.095   0.852   0.460
 2631SOL    HW1 8792   6.042   0.771   0.433
 2631SOL    HW2 8793   6.142   0.889   0.380
 2632SOL     OW 8794   5.465   4.057   2.384
 2632SOL    HW1 8795   5.443   4.151   2.359
 2632SOL    HW2 8796   5.381   4.008   2.409
 2633SOL     OW 8797   0.150   2.971   6.190
 2633SOL    HW1 8798   0.061   2.934   6.218
 2633SOL    HW2 8799   0.153   2.974   6.090
 2634SOL     OW 8800   6.655   1.004   5.718
 2634SOL    HW1 8801   6.619   0.969   5.804
 2634SOL    HW2 8802   6.673   0.928   5.655
 2635SOL     OW 8803   5.489   4.973   3.583
 2635SOL    HW1 8804   5.587   4.957   3.590
 2635SOL    HW2 8805   5.458   5.027   3.662
 2636SOL     OW 8806   3.711   6.240   5.341
 2636SOL    HW1 8807   3.703   6.293   5.425
 2636SOL    HW2 8808   3.803   6.200   5.335
 2637SOL     OW 8809   0.992   1.716   3.230
 2637SOL    HW1 8810   0.967   1.623   3.207
 2637SOL    HW2 8811   1.009   1.768   3.147
 2638SOL     OW 8812   1.034   6.527   4.520
 2638SOL    HW1 8813   1.056   6.431   4.537
 2638SOL    HW2 8814   1.058   6.550   4.426
 2639SOL     OW 8815   4.203   4.683   5.376
 2639SOL    HW1 8816   4.122   4.632   5.404
 2639SOL    HW2 8817   4.199   4.776   5.412
 2640SOL     OW 8818   1.324   6.649   4.487
 2640SOL    HW1 8819   1.394   6.654   4.416
 2640SOL    HW2 8820   1.255   6.581   4.461
 2641SOL     OW 8821   5.645   2.865   6.381
 2641SOL    HW1 8822   5.744   2.872   6.396
 2641SOL    HW2 8823   5.623   2.889   6.287
 2642SOL     OW 8824   6.408   1.390   3.629
 2642SOL    HW1 8825   6.338   1.337   3.676
 2642SOL    HW2 8826   6.489   1.332   3.614
 2643SOL     OW 8827   2.528   4.864   3.606
 2643SOL    HW1 8828   2.594   4.797   3.570
 2643SOL    HW2 8829   2.481   4.908   3.530
 2644SOL     OW 8830   4.810   4.961   4.370
 2644SOL    HW1 8831   4.794   4.862   4.380
 2644SOL    HW2 8832   4.731   5.004   4.327
 2645SOL     OW 8833   5.065   5.374   2.997
 2645SOL    HW1 8834   5.118   5.459   3.002
 2645SOL    HW2 8835   5.107   5.305   3.055
 2646SOL     OW 8836   0.633   2.824   6.892
 2646SOL    HW1 8837   0.661   2.865   6.806
 2646SOL    HW2 8838   0.590   2.735   6.875
 2647SOL     OW 8839   5.207   0.942   1.624
 2647SOL    HW1 8840   5.142   1.004   1.668
 2647SOL    HW2 8841   5.232   0.869   1.688
 2648SOL     OW 8842   1.150   6.948   6.579
 2648SOL    HW1 8843   1.231   6.989   6.622
 2648SOL    HW2 8844   1.078   6.938   6.647
 2649SOL     OW 8845   5.026   2.171   2.126
 2649SOL    HW1 8846   5.095   2.099   2.117
 2649SOL    HW2 8847   4.976   2.180   2.040
 2650SOL     OW 8848   3.165   6.336   4.349
 2650SOL    HW1 8849   3.084   6.297   4.304
 2650SOL    HW2 8850   3.159   6.321   4.447
 2651SOL     OW 8851   3.965   2.169   4.479
 2651SOL    HW1 8852   3.952   2.167   4.579
 2651SOL    HW2 8853   4.048   2.117   4.456
 2652SOL     OW 8854   4.670   4.613   5.661
 2652SOL    HW1 8855   4.758   4.579   5.629
 2652SOL    HW2 8856   4.638   4.557   5.737
 2653SOL     OW 8857   2.633   5.647   0.168
 2653SOL    HW1 8858   2.718   5.604   0.198
 2653SOL    HW2 8859   2.595   5.703   0.243
 2654SOL     OW 8860   6.452   0.852   0.333
 2654SOL    HW1 8861   6.546   0.818   0.339
 2654SOL    HW2 8862   6.436   0.917   0.407
 2655SOL     OW 8863   4.895   6.100   2.460
 2655SOL    HW1 8864   4.955   6.021   2.473
 2655SOL    HW2 8865   4.853   6.124   2.547
 2656SOL     OW 8866   3.924   6.270   2.943
 2656SOL    HW1 8867   3.885   6.346   2.995
 2656SOL    HW2 8868   3.985   6.306   2.872
 2657SOL     OW 8869   1.322   3.951   0.429
 2657SOL    HW1 8870   1.372   3.883   0.375
 2657SOL    HW2 8871   1.386   4.003   0.485
 2658SOL     OW 8872   3.909   5.239   6.907
 2658SOL    HW1 8873   3.857   5.169   6.858
 2658SOL    HW2 8874   4.001   5.246   6.868
 2659SOL     OW 8875   0.003   2.102   4.665
 2659SOL    HW1 8876   7.001   2.087   4.762
 2659SOL    HW2 8877   6.998   2.020   4.613
 2660SOL     OW 8878   0.677   2.182   2.466
 2660SOL    HW1 8879   0.739   2.112   2.429
 2660SOL    HW2 8880   0.586   2.170   2.426
 2661SOL     OW 8881   1.821   0.934   0.735
 2661SOL    HW1 8882   1.785   1.025   0.713
 2661SOL    HW2 8883   1.846   0.887   0.651
 2662SOL     OW 8884   2.162   0.644   2.243
 2662SOL    HW1 8885   2.116   0.731   2.222
 2662SOL    HW2 8886   2.247   0.638   2.190
 2663SOL     OW 8887   4.331   6.498   0.719
 2663SOL    HW1 8888   4.369   6.537   0.803
 2663SOL    HW2 8889   4.393   6.516   0.643
 2664SOL     OW 8890   4.423   3.732   5.463
 2664SOL    HW1 8891   4.398   3.763   5.555
 2664SOL    HW2 8892   4.523   3.722   5.458
 2665SOL     OW 8893   1.831   3.681   4.605
 2665SOL    HW1 8894   1.770   3.619   4.555
 2665SOL    HW2 8895   1.807   3.776   4.584
 2666SOL     OW 8896   1.990   3.693   2.202
 2666SOL    HW1 8897   1.913   3.757   2.196
 2666SOL    HW2 8898   2.060   3.719   2.135
 2667SOL     OW 8899   6.749   3.370   4.677
 2667SOL    HW1 8900   6.773   3.467   4.687
 2667SOL    HW2 8901   6.671   3.349   4.736
 2668SOL     OW 8902   6.462   0.596   4.011
 2668SOL    HW1 8903   6.389   0.566   4.073
 2668SOL    HW2 8904   6.538   0.531   4.014
 2669SOL     OW 8905   2.507   0.420   6.914
 2669SOL    HW1 8906   2.512   0.462   7.004
 2669SOL    HW2 8907   2.599   0.402   6.879
 2670SOL     OW 8908   0.373   6.911   6.742
 2670SOL    HW1 8909   0.274   6.921   6.749
 2670SOL    HW2 8910   0.398   6.817   6.766
 2671SOL     OW 8911   5.143   4.524   6.330
 2671SOL    HW1 8912   5.050   4.558   6.321
 2671SOL    HW2 8913   5.151   4.434   6.286
 2672SOL     OW 8914   3.348   0.481   1.874
 2672SOL    HW1 8915   3.440   0.484   1.834
 2672SOL    HW2 8916   3.313   0.574   1.884
 2673SOL     OW 8917   4.304   0.218   2.518
 2673SOL    HW1 8918   4.267   0.309   2.537
 2673SOL    HW2 8919   4.301   0.163   2.601
 2674SOL     OW 8920   0.301   4.947   2.066
 2674SOL    HW1 8921   0.209   4.987   2.057
 2674SOL    HW2 8922   0.365   4.998   2.010
 2675SOL     OW 8923   5.628   0.015   4.155
 2675SOL    HW1 8924   5.708   0.068   4.182
 2675SOL    HW2 8925   5.657   6.942   4.131
 2676SOL     OW 8926   3.862   3.975   3.100
 2676SOL    HW1 8927   3.774   4.019   3.119
 2676SOL    HW2 8928   3.905   3.948   3.186
 2677SOL     OW 8929   2.458   4.838   1.417
 2677SOL    HW1 8930   2.428   4.877   1.329
 2677SOL    HW2 8931   2.386   4.851   1.485
 2678SOL     OW 8932   4.059   1.866   2.816
 2678SOL    HW1 8933   4.100   1.940   2.870
 2678SOL    HW2 8934   4.125   1.834   2.749
 2679SOL     OW 8935   2.214   3.939   3.239
 2679SOL    HW1 8936   2.307   3.974   3.247
 2679SOL    HW2 8937   2.172   3.974   3.155
 2680SOL     OW 8938   6.530   1.498   0.269
 2680SOL    HW1 8939   6.537   1.401   0.293
 2680SOL    HW2 8940   6.557   1.554   0.348
 2681SOL     OW 8941   2.241   1.727   5.036
 2681SOL    HW1 8942   2.320   1.777   5.001
 2681SOL    HW2 8943   2.228   1.749   5.133
 2682SOL     OW 8944   4.150   3.951   1.625
 2682SOL    HW1 8945   4.117   4.046   1.622
 2682SOL    HW2 8946   4.072   3.889   1.627
 2683SOL     OW 8947   2.503   4.808   2.242
 2683SOL    HW1 8948   2.581   4.763   2.287
 2683SOL    HW2 8949   2.525   4.824   2.146
 2684SOL     OW 8950   6.596   6.543   3.569
 2684SOL    HW1 8951   6.574   6.502   3.658
 2684SOL    HW2 8952   6.536   6.620   3.552
 2685SOL     OW 8953   1.354   5.757   5.766
 2685SOL    HW1 8954   1.365   5.658   5.755
 2685SOL    HW2 8955   1.257   5.781   5.759
 2686SOL     OW 8956   0.780   1.613   5.028
 2686SOL    HW1 8957   0.846   1.549   5.067
 2686SOL    HW2 8958   0.812   1.707   5.043
 2687SOL     OW 8959   4.161   1.895   1.518
 2687SOL    HW1 8960   4.173   1.825   1.589
 2687SOL    HW2 8961   4.205   1.865   1.434
 2688SOL     OW 8962   3.900   2.839   6.113
 2688SOL    HW1 8963   3.988   2.797   6.092
 2688SOL    HW2 8964   3.864   2.882   6.031
 2689SOL     OW 8965   0.960   3.812   3.313
 2689SOL    HW1 8966   0.992   3.844   3.224
 2689SOL    HW2 8967   1.036   3.811   3.377
 2690SOL     OW 8968   4.230   1.506   5.802
 2690SOL    HW1 8969   4.248   1.579   5.868
 2690SOL    HW2 8970   4.298   1.510   5.729
 2691SOL     OW 8971   6.550   4.132   4.241
 2691SOL    HW1 8972   6.476   4.128   4.174
 2691SOL    HW2 8973   6.561   4.226   4.272
 2692SOL     OW 8974   2.682   5.775   2.345
 2692SOL    HW1 8975   2.665   5.872   2.326
 2692SOL    HW2 8976   2.768   5.748   2.304
 2693SOL     OW 8977   2.123   5.491   3.073
 2693SOL    HW1 8978   2.205   5.455   3.028
 2693SOL    HW2 8979   2.106   5.584   3.041
 2694SOL     OW 8980   2.932   0.574   3.073
 2694SOL    HW1 8981   2.968   0.530   3.155
 2694SOL    HW2 8982   2.834   0.591   3.084
 2695SOL     OW 8983   7.000   5.511   3.142
 2695SOL    HW1 8984   0.031   5.436   3.184
 2695SOL    HW2 8985   6.929   5.543   3.204
 2696SOL     OW 8986   5.714   4.478   6.102
 2696SOL    HW1 8987   5.672   4.436   6.182
 2696SOL    HW2 8988   5.643   4.502   6.035
 2697SOL     OW 8989   4.486   2.444   0.059
 2697SOL    HW1 8990   4.548   2.501   0.004
 2697SOL    HW2 8991   4.428   2.389   7.019
 2698SOL     OW 8992   1.942   4.283   6.152
 2698SOL    HW1 8993   1.961   4.237   6.239
 2698SOL    HW2 8994   1.844   4.279   6.133
 2699SOL     OW 8995   2.980   6.250   2.063
 2699SOL    HW1 8996   2.895   6.297   2.087
 2699SOL    HW2 8997   2.961   6.154   2.043
 2700SOL     OW 8998   3.535   1.722   1.860
 2700SOL    HW1 8999   3.524   1.821   1.868
 2700SOL    HW2 9000   3.632   1.700   1.847
 2701SOL     OW 9001   5.165   2.986   5.007
 2701SOL    HW1 9002   5.166   3.082   4.979
 2701SOL    HW2 9003   5.228   2.971   5.082
 2702SOL     OW 9004   2.634   0.859   4.669
 2702SOL    HW1 9005   2.629   0.861   4.769
 2702SOL    HW2 9006   2.728   0.838   4.640
 2703SOL     OW 9007   1.719   6.667   2.695
 2703SOL    HW1 9008   1.670   6.622   2.770
 2703SOL    HW2 9009   1.664   6.744   2.661
 2704SOL     OW 9010   5.307   0.280   3.808
 2704SOL    HW1 9011   5.311   0.273   3.908
 2704SOL    HW2 9012   5.380   0.224   3.768
 2705SOL     OW 9013   0.309   0.220   5.540
 2705SOL    HW1 9014   0.290   0.296   5.478
 2705SOL    HW2 9015   0.365   0.252   5.616
 2706SOL     OW 9016   7.010   3.447   3.632
 2706SOL    HW1 9017   7.015   3.534   3.582
 2706SOL    HW2 9018   6.916   3.412   3.630
 2707SOL     OW 9019   4.253   1.115   3.229
 2707SOL    HW1 9020   4.218   1.026   3.202
 2707SOL    HW2 9021   4.287   1.164   3.149
 2708SOL     OW 9022   6.200   3.339   6.450
 2708SOL    HW1 9023   6.151   3.261   6.411
 2708SOL    HW2 9024   6.195   3.416   6.387
 2709SOL     OW 9025   5.158   1.335   5.100
 2709SOL    HW1 9026   5.063   1.361   5.087
 2709SOL    HW2 9027   5.217   1.416   5.089
 2710SOL     OW 9028   1.210   2.739   3.974
 2710SOL    HW1 9029   1.124   2.744   3.922
 2710SOL    HW2 9030   1.244   2.645   3.973
 2711SOL     OW 9031   3.158   1.244   1.982
 2711SOL    HW1 9032   3.178   1.221   1.887
 2711SOL    HW2 9033   3.208   1.182   2.043
 2712SOL     OW 9034   3.940   5.939   2.160
 2712SOL    HW1 9035   3.883   5.882   2.220
 2712SOL    HW2 9036   3.888   6.020   2.132
 2713SOL     OW 9037   3.996   4.820   6.154
 2713SOL    HW1 9038   3.915   4.877   6.140
 2713SOL    HW2 9039   4.076   4.878   6.171
 2714SOL     OW 9040   2.980   4.777   6.154
 2714SOL    HW1 9041   2.883   4.755   6.164
 2714SOL    HW2 9042   2.999   4.867   6.191
 2715SOL     OW 9043   4.055   0.920   6.819
 2715SOL    HW1 9044   4.026   0.832   6.782
 2715SOL    HW2 9045   4.037   0.992   6.752
 2716SOL     OW 9046   3.465   1.235   3.226
 2716SOL    HW1 9047   3.558   1.200   3.214
 2716SOL    HW2 9048   3.451   1.315   3.167
 2717SOL     OW 9049   0.761   1.095   2.559
 2717SOL    HW1 9050   0.763   0.996   2.575
 2717SOL    HW2 9051   0.846   1.136   2.593
 2718SOL     OW 9052   6.957   0.777   5.905
 2718SOL    HW1 9053   6.953   0.771   5.805
 2718SOL    HW2 9054   0.025   0.817   5.932
 2719SOL     OW 9055   1.939   4.147   2.216
 2719SOL    HW1 9056   1.934   4.230   2.273
 2719SOL    HW2 9057   1.850   4.130   2.174
 2720SOL     OW 9058   2.509   6.486   6.632
 2720SOL    HW1 9059   2.594   6.480   6.580
 2720SOL    HW2 9060   2.495   6.401   6.683
 2721SOL     OW 9061   3.239   6.308   1.699
 2721SOL    HW1 9062   3.156   6.361   1.685
 2721SOL    HW2 9063   3.263   6.308   1.796
 2722SOL     OW 9064   4.407   6.457   0.005
 2722SOL    HW1 9065   4.447   6.373   6.988
 2722SOL    HW2 9066   4.315   6.438   0.039
 2723SOL     OW 9067   3.189   6.524   6.153
 2723SOL    HW1 9068   3.247   6.576   6.215
 2723SOL    HW2 9069   3.225   6.431   6.143
 2724SOL     OW 9070   1.005   6.538   1.165
 2724SOL    HW1 9071   0.922   6.577   1.125
 2724SOL    HW2 9072   1.010   6.562   1.262
 2725SOL     OW 9073   6.200   3.763   5.085
 2725SOL    HW1 9074   6.198   3.850   5.134
 2725SOL    HW2 9075   6.213   3.688   5.150
 2726SOL     OW 9076   6.678   1.889   2.217
 2726SOL    HW1 9077   6.660   1.969   2.160
 2726SOL    HW2 9078   6.774   1.887   2.243
 2727SOL     OW 9079   1.736   5.027   3.841
 2727SOL    HW1 9080   1.644   5.000   3.871
 2727SOL    HW2 9081   1.786   5.067   3.917
 2728SOL     OW 9082   5.213   4.890   5.769
 2728SOL    HW1 9083   5.303   4.934   5.770
 2728SOL    HW2 9084   5.212   4.813   5.833
 2729SOL     OW 9085   5.596   6.848   6.422
 2729SOL    HW1 9086   5.663   6.901   6.369
 2729SOL    HW2 9087   5.644   6.794   6.491
 2730SOL     OW 9088   0.966   6.191   2.057
 2730SOL    HW1 9089   0.873   6.155   2.054
 2730SOL    HW2 9090   0.990   6.212   2.152
 2731SOL     OW 9091   3.561   3.763   3.899
 2731SOL    HW1 9092   3.485   3.714   3.858
 2731SOL    HW2 9093   3.528   3.820   3.974
 2732SOL     OW 9094   5.385   0.889   2.027
 2732SOL    HW1 9095   5.316   0.835   2.075
 2732SOL    HW2 9096   5.419   0.838   1.948
 2733SOL     OW 9097   1.146   6.626   6.911
 2733SOL    HW1 9098   1.131   6.549   6.973
 2733SOL    HW2 9099   1.076   6.695   6.927
 2734SOL     OW 9100   3.492   6.593   1.887
 2734SOL    HW1 9101   3.478   6.553   1.796
 2734SOL    HW2 9102   3.520   6.520   1.950
 2735SOL     OW 9103   0.738   1.516   2.018
 2735SOL    HW1 9104   0.800   1.564   1.956
 2735SOL    HW2 9105   0.649   1.503   1.973
 2736SOL     OW 9106   5.686   4.444   3.045
 2736SOL    HW1 9107   5.712   4.421   2.951
 2736SOL    HW2 9108   5.633   4.368   3.084
 2737SOL     OW 9109   2.560   1.262   5.546
 2737SOL    HW1 9110   2.558   1.313   5.460
 2737SOL    HW2 9111   2.502   1.180   5.537
 2738SOL     OW 9112   5.271   6.538   1.671
 2738SOL    HW1 9113   5.272   6.632   1.707
 2738SOL    HW2 9114   5.303   6.539   1.576
 2739SOL     OW 9115   6.195   5.640   1.563
 2739SOL    HW1 9116   6.274   5.688   1.523
 2739SOL    HW2 9117   6.195   5.653   1.662
 2740SOL     OW 9118   6.482   5.520   3.889
 2740SOL    HW1 9119   6.444   5.609   3.866
 2740SOL    HW2 9120   6.582   5.525   3.885
 2741SOL     OW 9121   1.305   1.615   5.440
 2741SOL    HW1 9122   1.272   1.542   5.500
 2741SOL    HW2 9123   1.389   1.586   5.395
 2742SOL     OW 9124   3.016   5.936   1.431
 2742SOL    HW1 9125   3.019   6.001   1.507
 2742SOL    HW2 9126   2.999   5.844   1.467
 2743SOL     OW 9127   5.536   3.331   2.709
 2743SOL    HW1 9128   5.536   3.284   2.621
 2743SOL    HW2 9129   5.445   3.368   2.727
 2744SOL     OW 9130   2.882   3.598   3.021
 2744SOL    HW1 9131   2.901   3.696   3.020
 2744SOL    HW2 9132   2.788   3.582   2.991
 2745SOL     OW 9133   0.809   6.554   0.116
 2745SOL    HW1 9134   0.807   6.471   0.172
 2745SOL    HW2 9135   0.748   6.622   0.155
 2746SOL     OW 9136   1.610   1.464   3.457
 2746SOL    HW1 9137   1.602   1.537   3.388
 2746SOL    HW2 9138   1.525   1.412   3.459
 2747SOL     OW 9139   3.953   5.224   0.576
 2747SOL    HW1 9140   3.989   5.302   0.525
 2747SOL    HW2 9141   4.028   5.178   0.623
 2748SOL     OW 9142   4.599   6.683   1.202
 2748SOL    HW1 9143   4.619   6.692   1.105
 2748SOL    HW2 9144   4.500   6.690   1.217
 2749SOL     OW 9145   3.272   3.304   6.948
 2749SOL    HW1 9146   3.176   3.330   6.959
 2749SOL    HW2 9147   3.282   3.206   6.965
 2750SOL     OW 9148   2.367   6.139   1.957
 2750SOL    HW1 9149   2.297   6.106   2.020
 2750SOL    HW2 9150   2.322   6.174   1.874
 2751SOL     OW 9151   6.095   3.757   0.836
 2751SOL    HW1 9152   6.104   3.779   0.933
 2751SOL    HW2 9153   6.005   3.787   0.803
 2752SOL     OW 9154   4.070   4.750   6.932
 2752SOL    HW1 9155   4.118   4.777   6.848
 2752SOL    HW2 9156   4.129   4.689   6.985
 2753SOL     OW 9157   6.026   6.007   5.425
 2753SOL    HW1 9158   5.952   6.066   5.459
 2753SOL    HW2 9159   6.111   6.060   5.422
 2754SOL     OW 9160   1.154   6.910   6.077
 2754SOL    HW1 9161   1.179   6.858   6.159
 2754SOL    HW2 9162   1.062   6.949   6.089
 2755SOL     OW 9163   2.537   0.551   2.688
 2755SOL    HW1 9164   2.612   0.500   2.646
 2755SOL    HW2 9165   2.465   0.566   2.621
 2756SOL     OW 9166   4.753   6.417   0.578
 2756SOL    HW1 9167   4.842   6.378   0.599
 2756SOL    HW2 9168   4.707   6.361   0.509
 2757SOL     OW 9169   0.437   5.355   1.286
 2757SOL    HW1 9170   0.427   5.371   1.187
 2757SOL    HW2 9171   0.495   5.426   1.325
 2758SOL     OW 9172   4.766   0.760   5.875
 2758SOL    HW1 9173   4.720   0.847   5.894
 2758SOL    HW2 9174   4.863   0.776   5.856
 2759SOL     OW 9175   5.558   5.843   4.922
 2759SOL    HW1 9176   5.530   5.867   4.829
 2759SOL    HW2 9177   5.527   5.913   4.985
 2760SOL     OW 9178   2.688   5.469   3.192
 2760SOL    HW1 9179   2.612   5.528   3.222
 2760SOL    HW2 9180   2.652   5.379   3.166
 2761SOL     OW 9181   2.471   6.008   3.026
 2761SOL    HW1 9182   2.475   6.010   3.126
 2761SOL    HW2 9183   2.455   5.915   2.994
 2762SOL     OW 9184   0.760   6.590   4.857
 2762SOL    HW1 9185   0.809   6.667   4.899
 2762SOL    HW2 9186   0.720   6.619   4.770
 2763SOL     OW 9187   5.910   1.933   2.009
 2763SOL    HW1 9188   5.863   1.848   1.985
 2763SOL    HW2 9189   5.846   2.009   2.004
 2764SOL     OW 9190   6.287   1.335   2.215
 2764SOL    HW1 9191   6.266   1.428   2.246
 2764SOL    HW2 9192   6.248   1.269   2.279
 2765SOL     OW 9193   6.035   1.314   1.800
 2765SOL    HW1 9194   5.949   1.351   1.764
 2765SOL    HW2 9195   6.037   1.215   1.786
 2766SOL     OW 9196   6.077   0.898   2.455
 2766SOL    HW1 9197   6.113   0.974   2.399
 2766SOL    HW2 9198   6.004   0.931   2.513
 2767SOL     OW 9199   5.608   4.136   6.251
 2767SOL    HW1 9200   5.527   4.129   6.192
 2767SOL    HW2 9201   5.596   4.211   6.315
 2768SOL     OW 9202   5.615   1.169   6.775
 2768SOL    HW1 9203   5.644   1.258   6.809
 2768SOL    HW2 9204   5.681   1.099   6.805
 2769SOL     OW 9205   0.606   3.946   1.453
 2769SOL    HW1 9206   0.518   3.901   1.468
 2769SOL    HW2 9207   0.659   3.894   1.386
 2770SOL     OW 9208   0.221   5.761   1.343
 2770SOL    HW1 9209   0.306   5.801   1.310
 2770SOL    HW2 9210   0.184   5.699   1.273
 2771SOL     OW 9211   4.683   1.150   1.663
 2771SOL    HW1 9212   4.723   1.077   1.608
 2771SOL    HW2 9213   4.670   1.118   1.757
 2772SOL     OW 9214   3.162   2.646   6.256
 2772SOL    HW1 9215   3.098   2.682   6.188
 2772SOL    HW2 9216   3.117   2.645   6.346
 2773SOL     OW 9217   3.863   3.701   6.372
 2773SOL    HW1 9218   3.867   3.673   6.276
 2773SOL    HW2 9219   3.768   3.696   6.404
 2774SOL     OW 9220   5.814   3.575   2.705
 2774SOL    HW1 9221   5.874   3.654   2.692
 2774SOL    HW2 9222   5.842   3.502   2.643
 2775SOL     OW 9223   6.692   6.149   1.463
 2775SOL    HW1 9224   6.678   6.247   1.476
 2775SOL    HW2 9225   6.788   6.132   1.440
 2776SOL     OW 9226   2.655   5.877   6.121
 2776SOL    HW1 9227   2.648   5.870   6.022
 2776SOL    HW2 9228   2.694   5.793   6.158
 2777SOL     OW 9229   3.183   1.115   2.617
 2777SOL    HW1 9230   3.158   1.168   2.536
 2777SOL    HW2 9231   3.214   1.178   2.689
 2778SOL     OW 9232   2.178   2.093   5.696
 2778SOL    HW1 9233   2.192   2.086   5.794
 2778SOL    HW2 9234   2.262   2.126   5.652
 2779SOL     OW 9235   5.817   0.966   6.835
 2779SOL    HW1 9236   5.746   0.939   6.900
 2779SOL    HW2 9237   5.899   0.996   6.885
 2780SOL     OW 9238   4.900   5.132   6.804
 2780SOL    HW1 9239   4.859   5.172   6.722
 2780SOL    HW2 9240   4.985   5.181   6.826
 2781SOL     OW 9241   5.186   4.628   0.550
 2781SOL    HW1 9242   5.243   4.708   0.568
 2781SOL    HW2 9243   5.180   4.614   0.451
 2782SOL     OW 9244   2.540   2.202   5.817
 2782SOL    HW1 9245   2.578   2.187   5.725
 2782SOL    HW2 9246   2.601   2.262   5.869
 2783SOL     OW 9247   0.152   4.768   5.554
 2783SOL    HW1 9248   0.239   4.800   5.515
 2783SOL    HW2 9249   0.104   4.713   5.485
 2784SOL     OW 9250   2.056   1.506   2.048
 2784SOL    HW1 9251   2.083   1.601   2.060
 2784SOL    HW2 9252   1.959   1.496   2.066
 2785SOL     OW 9253   6.351   0.866   0.897
 2785SOL    HW1 9254   6.409   0.907   0.826
 2785SOL    HW2 9255   6.268   0.921   0.908
 2786SOL     OW 9256   4.134   6.622   1.069
 2786SOL    HW1 9257   4.224   6.667   1.068
 2786SOL    HW2 9258   4.121   6.578   1.157
 2787SOL     OW 9259   2.340   2.842   5.663
 2787SOL    HW1 9260   2.391   2.756   5.664
 2787SOL    HW2 9261   2.275   2.843   5.739
 2788SOL     OW 9262   1.067   3.768   0.623
 2788SOL    HW1 9263   1.025   3.679   0.605
 2788SOL    HW2 9264   1.157   3.773   0.579
 2789SOL     OW 9265   0.620   2.299   4.059
 2789SOL    HW1 9266   0.704   2.267   4.016
 2789SOL    HW2 9267   0.569   2.220   4.096
 2790SOL     OW 9268   3.944   5.700   2.938
 2790SOL    HW1 9269   3.986   5.791   2.941
 2790SOL    HW2 9270   3.850   5.705   2.970
 2791SOL     OW 9271   1.542   3.033   4.417
 2791SOL    HW1 9272   1.529   3.058   4.320
 2791SOL    HW2 9273   1.616   2.967   4.425
 2792SOL     OW 9274   1.056   2.259   5.404
 2792SOL    HW1 9275   1.081   2.194   5.476
 2792SOL    HW2 9276   1.040   2.349   5.444
 2793SOL     OW 9277   4.563   1.344   3.604
 2793SOL    HW1 9278   4.628   1.339   3.680
 2793SOL    HW2 9279   4.592   1.416   3.540
 2794SOL     OW 9280   1.023   0.636   1.049
 2794SOL    HW1 9281   0.987   0.584   1.127
 2794SOL    HW2 9282   1.123   0.641   1.055
 2795SOL     OW 9283   2.738   4.116   1.405
 2795SOL    HW1 9284   2.795   4.199   1.412
 2795SOL    HW2 9285   2.675   4.126   1.328
 2796SOL     OW 9286   5.250   3.919   2.488
 2796SOL    HW1 9287   5.166   3.962   2.456
 2796SOL    HW2 9288   5.265   3.942   2.584
 2797SOL     OW 9289   4.738   4.680   4.739
 2797SOL    HW1 9290   4.803   4.643   4.673
 2797SOL    HW2 9291   4.653   4.703   4.693
 2798SOL     OW 9292   0.934   3.732   4.124
 2798SOL    HW1 9293   0.877   3.748   4.043
 2798SOL    HW2 9294   1.024   3.700   4.095
 2799SOL     OW 9295   6.470   4.862   5.843
 2799SOL    HW1 9296   6.520   4.857   5.929
 2799SOL    HW2 9297   6.420   4.949   5.838
 2800SOL     OW 9298   2.996   4.181   6.538
 2800SOL    HW1 9299   2.941   4.262   6.560
 2800SOL    HW2 9300   2.983   4.157   6.442
 2801SOL     OW 9301   5.464   5.869   1.957
 2801SOL    HW1 9302   5.420   5.942   1.904
 2801SOL    HW2 9303   5.413   5.784   1.948
 2802SOL     OW 9304   4.562   1.609   6.115
 2802SOL    HW1 9305   4.572   1.693   6.167
 2802SOL    HW2 9306   4.472   1.608   6.071
 2803SOL     OW 9307   3.085   6.606   6.509
 2803SOL    HW1 9308   3.045   6.616   6.418
 2803SOL    HW2 9309   3.018   6.631   6.579
 2804SOL     OW 9310   0.017   4.382   3.297
 2804SOL    HW1 9311   6.980   4.342   3.225
 2804SOL    HW2 9312   0.088   4.440   3.256
 2805SOL     OW 9313   5.700   3.478   0.168
 2805SOL    HW1 9314   5.617   3.521   0.131
 2805SOL    HW2 9315   5.702   3.492   0.267
 2806SOL     OW 9316   6.379   5.379   3.243
 2806SOL    HW1 9317   6.305   5.419   3.297
 2806SOL    HW2 9318   6.350   5.374   3.147
 2807SOL     OW 9319   4.413   4.797   3.310
 2807SOL    HW1 9320   4.499   4.764   3.347
 2807SOL    HW2 9321   4.415   4.789   3.210
 2808SOL     OW 9322   5.418   0.419   4.408
 2808SOL    HW1 9323   5.367   0.495   4.449
 2808SOL    HW2 9324   5.359   0.339   4.402
 2809SOL     OW 9325   5.133   2.611   0.930
 2809SOL    HW1 9326   5.130   2.527   0.875
 2809SOL    HW2 9327   5.044   2.624   0.974
 2810SOL     OW 9328   2.072   6.885   5.444
 2810SOL    HW1 9329   2.050   6.925   5.533
 2810SOL    HW2 9330   2.145   6.938   5.400
 2811SOL     OW 9331   6.688   1.740   3.503
 2811SOL    HW1 9332   6.664   1.802   3.578
 2811SOL    HW2 9333   6.788   1.732   3.498
 2812SOL     OW 9334   4.939   3.590   2.244
 2812SOL    HW1 9335   4.977   3.674   2.207
 2812SOL    HW2 9336   4.855   3.611   2.294
 2813SOL     OW 9337   5.953   0.797   6.641
 2813SOL    HW1 9338   5.934   0.712   6.690
 2813SOL    HW2 9339   5.932   0.875   6.700
 2814SOL     OW 9340   4.727   3.973   5.247
 2814SOL    HW1 9341   4.628   3.976   5.260
 2814SOL    HW2 9342   4.762   4.066   5.238
 2815SOL     OW 9343   0.564   0.804   5.325
 2815SOL    HW1 9344   0.508   0.788   5.244
 2815SOL    HW2 9345   0.651   0.757   5.315
 2816SOL     OW 9346   5.696   6.675   3.519
 2816SOL    HW1 9347   5.644   6.759   3.503
 2816SOL    HW2 9348   5.721   6.670   3.616
 2817SOL     OW 9349   0.908   1.656   1.870
 2817SOL    HW1 9350   0.880   1.726   1.804
 2817SOL    HW2 9351   0.998   1.679   1.907
 2818SOL     OW 9352   7.002   4.581   5.101
 2818SOL    HW1 9353   0.008   4.485   5.113
 2818SOL    HW2 9354   0.002   4.632   5.185
 2819SOL     OW 9355   0.105   3.085   1.381
 2819SOL    HW1 9356   0.165   3.154   1.420
 2819SOL    HW2 9357   0.065   3.119   1.296
 2820SOL     OW 9358   6.799   3.183   3.887
 2820SOL    HW1 9359   6.888   3.196   3.932
 2820SOL    HW2 9360   6.787   3.086   3.866
 2821SOL     OW 9361   1.438   4.472   4.415
 2821SOL    HW1 9362   1.384   4.390   4.400
 2821SOL    HW2 9363   1.387   4.552   4.383
 2822SOL     OW 9364   5.063   1.928   6.917
 2822SOL    HW1 9365   4.987   1.867   6.893
 2822SOL    HW2 9366   5.086   1.916   7.014
 2823SOL     OW 9367   1.803   6.497   3.052
 2823SOL    HW1 9368   1.874   6.429   3.034
 2823SOL    HW2 9369   1.733   6.457   3.111
 2824SOL     OW 9370   3.162   1.513   5.349
 2824SOL    HW1 9371   3.254   1.473   5.344
 2824SOL    HW2 9372   3.168   1.612   5.351
 2825SOL     OW 9373   6.259   5.916   1.303
 2825SOL    HW1 9374   6.311   5.934   1.386
 2825SOL    HW2 9375   6.299   5.967   1.227
 2826SOL     OW 9376   4.748   1.549   4.352
 2826SOL    HW1 9377   4.747   1.645   4.321
 2826SOL    HW2 9378   4.778   1.545   4.447
 2827SOL     OW 9379   5.500   0.983   5.245
 2827SOL    HW1 9380   5.499   0.885   5.227
 2827SOL    HW2 9381   5.448   1.031   5.174
 2828SOL     OW 9382   3.750   1.246   5.365
 2828SOL    HW1 9383   3.722   1.274   5.457
 2828SOL    HW2 9384   3.728   1.149   5.353
 2829SOL     OW 9385   2.427   6.810   6.282
 2829SOL    HW1 9386   2.385   6.738   6.337
 2829SOL    HW2 9387   2.405   6.794   6.185
 2830SOL     OW 9388   3.996   3.459   0.008
 2830SOL    HW1 9389   4.081   3.431   0.053
 2830SOL    HW2 9390   4.011   3.543   6.977
 2831SOL     OW 9391   5.785   6.235   4.461
 2831SOL    HW1 9392   5.873   6.226   4.414
 2831SOL    HW2 9393   5.796   6.292   4.542
 2832SOL     OW 9394   0.305   0.968   2.393
 2832SOL    HW1 9395   0.306   0.968   2.493
 2832SOL    HW2 9396   0.327   1.060   2.360
 2833SOL     OW 9397   6.249   2.982   2.015
 2833SOL    HW1 9398   6.207   3.023   1.934
 2833SOL    HW2 9399   6.199   2.900   2.041
 2834SOL     OW 9400   3.935   1.458   5.362
 2834SOL    HW1 9401   3.972   1.488   5.274
 2834SOL    HW2 9402   3.856   1.398   5.346
 2835SOL     OW 9403   0.133   6.552   2.682
 2835SOL    HW1 9404   0.037   6.524   2.678
 2835SOL    HW2 9405   0.168   6.569   2.590
 2836SOL     OW 9406   6.593   0.699   1.268
 2836SOL    HW1 9407   6.634   0.653   1.347
 2836SOL    HW2 9408   6.611   0.798   1.274
 2837SOL     OW 9409   5.239   3.920   3.630
 2837SOL    HW1 9410   5.299   3.894   3.705
 2837SOL    HW2 9411   5.203   4.012   3.645
 2838SOL     OW 9412   3.320   4.936   2.757
 2838SOL    HW1 9413   3.278   4.872   2.693
 2838SOL    HW2 9414   3.284   4.921   2.849
 2839SOL     OW 9415   5.219   2.111   1.251
 2839SOL    HW1 9416   5.294   2.062   1.295
 2839SOL    HW2 9417   5.250   2.149   1.164
 2840SOL     OW 9418   6.844   1.408   5.301
 2840SOL    HW1 9419   6.894   1.322   5.299
 2840SOL    HW2 9420   6.905   1.482   5.328
 2841SOL     OW 9421   0.637   6.323   1.285
 2841SOL    HW1 9422   0.638   6.410   1.335
 2841SOL    HW2 9423   0.728   6.305   1.248
 2842SOL     OW 9424   0.354   3.826   2.918
 2842SOL    HW1 9425   0.448   3.816   2.950
 2842SOL    HW2 9426   0.297   3.858   2.994
 2843SOL     OW 9427   3.953   0.991   4.444
 2843SOL    HW1 9428   4.002   0.999   4.357
 2843SOL    HW2 9429   3.877   0.927   4.434
 2844SOL     OW 9430   0.528   4.094   6.556
 2844SOL    HW1 9431   0.561   4.003   6.583
 2844SOL    HW2 9432   0.438   4.109   6.597
 2845SOL     OW 9433   0.266   4.815   5.795
 2845SOL    HW1 9434   0.217   4.786   5.712
 2845SOL    HW2 9435   0.256   4.914   5.807
 2846SOL     OW 9436   4.961   2.030   6.267
 2846SOL    HW1 9437   4.891   2.098   6.246
 2846SOL    HW2 9438   5.017   2.062   6.344
 2847SOL     OW 9439   5.719   4.525   4.409
 2847SOL    HW1 9440   5.808   4.485   4.390
 2847SOL    HW2 9441   5.719   4.622   4.384
 2848SOL     OW 9442   0.883   5.659   4.651
 2848SOL    HW1 9443   0.862   5.565   4.679
 2848SOL    HW2 9444   0.978   5.681   4.676
 2849SOL     OW 9445   2.820   2.108   1.441
 2849SOL    HW1 9446   2.903   2.159   1.420
 2849SOL    HW2 9447   2.797   2.050   1.363
 2850SOL     OW 9448   3.524   0.488   0.365
 2850SOL    HW1 9449   3.521   0.586   0.383
 2850SOL    HW2 9450   3.441   0.445   0.402
 2851SOL     OW 9451   1.388   4.287   5.514
 2851SOL    HW1 9452   1.473   4.237   5.498
 2851SOL    HW2 9453   1.310   4.229   5.493
 2852SOL     OW 9454   0.070   3.488   6.593
 2852SOL    HW1 9455   0.110   3.560   6.536
 2852SOL    HW2 9456   0.121   3.403   6.579
 2853SOL     OW 9457   3.554   3.520   0.931
 2853SOL    HW1 9458   3.495   3.468   0.869
 2853SOL    HW2 9459   3.499   3.587   0.981
 2854SOL     OW 9460   2.538   1.069   3.884
 2854SOL    HW1 9461   2.518   1.167   3.873
 2854SOL    HW2 9462   2.560   1.030   3.795
 2855SOL     OW 9463   2.262   0.822   5.231
 2855SOL    HW1 9464   2.221   0.898   5.180
 2855SOL    HW2 9465   2.353   0.848   5.262
 2856SOL     OW 9466   2.314   2.821   5.243
 2856SOL    HW1 9467   2.365   2.868   5.315
 2856SOL    HW2 9468   2.336   2.863   5.155
 2857SOL     OW 9469   3.113   3.419   1.809
 2857SOL    HW1 9470   3.059   3.474   1.746
 2857SOL    HW2 9471   3.095   3.449   1.903
 2858SOL     OW 9472   0.156   3.917   2.685
 2858SOL    HW1 9473   0.223   3.896   2.757
 2858SOL    HW2 9474   0.066   3.930   2.727
 2859SOL     OW 9475   5.443   0.380   1.148
 2859SOL    HW1 9476   5.535   0.342   1.154
 2859SOL    HW2 9477   5.427   0.443   1.224
 2860SOL     OW 9478   3.933   1.662   2.281
 2860SOL    HW1 9479   3.936   1.676   2.182
 2860SOL    HW2 9480   3.842   1.630   2.308
 2861SOL     OW 9481   3.774   5.638   5.732
 2861SOL    HW1 9482   3.836   5.562   5.718
 2861SOL    HW2 9483   3.683   5.604   5.756
 2862SOL     OW 9484   6.033   1.365   3.897
 2862SOL    HW1 9485   6.009   1.451   3.942
 2862SOL    HW2 9486   5.987   1.289   3.943
 2863SOL     OW 9487   6.536   2.160   6.670
 2863SOL    HW1 9488   6.499   2.253   6.677
 2863SOL    HW2 9489   6.461   2.094   6.679
 2864SOL     OW 9490   3.497   1.332   0.516
 2864SOL    HW1 9491   3.478   1.417   0.468
 2864SOL    HW2 9492   3.562   1.349   0.590
 2865SOL     OW 9493   4.835   4.266   5.207
 2865SOL    HW1 9494   4.887   4.329   5.148
 2865SOL    HW2 9495   4.737   4.279   5.192
 2866SOL     OW 9496   0.397   6.368   6.650
 2866SOL    HW1 9497   0.462   6.309   6.602
 2866SOL    HW2 9498   0.340   6.312   6.710
 2867SOL     OW 9499   6.499   3.932   3.865
 2867SOL    HW1 9500   6.583   3.985   3.850
 2867SOL    HW2 9501   6.449   3.925   3.779
 2868SOL     OW 9502   1.599   3.861   5.336
 2868SOL    HW1 9503   1.597   3.835   5.239
 2868SOL    HW2 9504   1.661   3.800   5.385
 2869SOL     OW 9505   5.988   1.154   2.236
 2869SOL    HW1 9506   5.986   1.061   2.201
 2869SOL    HW2 9507   5.953   1.217   2.166
 2870SOL     OW 9508   5.755   2.316   2.589
 2870SOL    HW1 9509   5.845   2.357   2.599
 2870SOL    HW2 9510   5.751   2.265   2.503
 2871SOL     OW 9511   1.645   2.091   6.144
 2871SOL    HW1 9512   1.694   2.031   6.080
 2871SOL    HW2 9513   1.577   2.144   6.095
 2872SOL     OW 9514   2.590   0.194   3.732
 2872SOL    HW1 9515   2.675   0.142   3.736
 2872SOL    HW2 9516   2.590   0.251   3.650
 2873SOL     OW 9517   0.535   5.771   1.852
 2873SOL    HW1 9518   0.499   5.861   1.829
 2873SOL    HW2 9519   0.487   5.701   1.799
 2874SOL     OW 9520   6.285   2.775   2.562
 2874SOL    HW1 9521   6.232   2.819   2.489
 2874SOL    HW2 9522   6.261   2.815   2.650
 2875SOL     OW 9523   3.724   5.059   6.762
 2875SOL    HW1 9524   3.743   4.961   6.755
 2875SOL    HW2 9525   3.668   5.088   6.685
 2876SOL     OW 9526   0.104   0.930   1.391
 2876SOL    HW1 9527   0.022   0.942   1.335
 2876SOL    HW2 9528   0.181   0.907   1.332
 2877SOL     OW 9529   3.305   2.781   5.420
 2877SOL    HW1 9530   3.320   2.873   5.385
 2877SOL    HW2 9531   3.361   2.767   5.502
 2878SOL     OW 9532   2.671   4.438   5.533
 2878SOL    HW1 9533   2.759   4.408   5.495
 2878SOL    HW2 9534   2.687   4.491   5.616
 2879SOL     OW 9535   5.088   4.213   0.558
 2879SOL    HW1 9536   4.995   4.206   0.594
 2879SOL    HW2 9537   5.154   4.215   0.633
 2880SOL     OW 9538   1.183   6.277   1.492
 2880SOL    HW1 9539   1.114   6.320   1.551
 2880SOL    HW2 9540   1.141   6.202   1.441
 2881SOL     OW 9541   7.017   6.429   0.603
 2881SOL    HW1 9542   6.944   6.373   0.564
 2881SOL    HW2 9543   0.002   6.415   0.702
 2882SOL     OW 9544   0.087   2.927   3.280
 2882SOL    HW1 9545   0.107   3.017   3.241
 2882SOL    HW2 9546   0.056   2.937   3.375
 2883SOL     OW 9547   3.758   0.308   2.180
 2883SOL    HW1 9548   3.687   0.322   2.250
 2883SOL    HW2 9549   3.793   0.397   2.151
 2884SOL     OW 9550   0.988   5.832   3.386
 2884SOL    HW1 9551   1.052   5.834   3.309
 2884SOL    HW2 9552   0.977   5.738   3.418
 2885SOL     OW 9553   1.054   2.671   3.118
 2885SOL    HW1 9554   0.968   2.621   3.132
 2885SOL    HW2 9555   1.071   2.730   3.197
 2886SOL     OW 9556   2.691   2.140   6.269
 2886SOL    HW1 9557   2.604   2.154   6.221
 2886SOL    HW2 9558   2.745   2.223   6.265
 2887SOL     OW 9559   1.421   0.688   4.868
 2887SOL    HW1 9560   1.360   0.741   4.926
 2887SOL    HW2 9561   1.467   0.618   4.923
 2888SOL     OW 9562   5.943   4.749   6.894
 2888SOL    HW1 9563   6.022   4.691   6.877
 2888SOL    HW2 9564   5.974   4.844   6.907
 2889SOL     OW 9565   0.174   0.055   1.751
 2889SOL    HW1 9566   0.273   0.042   1.741
 2889SOL    HW2 9567   0.152   0.151   1.740
 2890SOL     OW 9568   3.907   0.774   1.954
 2890SOL    HW1 9569   3.936   0.736   1.866
 2890SOL    HW2 9570   3.945   0.866   1.964
 2891SOL     OW 9571   2.469   4.883   3.952
 2891SOL    HW1 9572   2.492   4.916   3.860
 2891SOL    HW2 9573   2.393   4.818   3.945
 2892SOL     OW 9574   4.451   3.920   6.350
 2892SOL    HW1 9575   4.410   4.009   6.331
 2892SOL    HW2 9576   4.481   3.878   6.265
 2893SOL     OW 9577   2.340   0.343   5.056
 2893SOL    HW1 9578   2.408   0.408   5.090
 2893SOL    HW2 9579   2.259   0.346   5.115
 2894SOL     OW 9580   3.748   2.737   7.007
 2894SOL    HW1 9581   3.788   2.695   6.925
 2894SOL    HW2 9582   3.821   2.779   0.042
 2895SOL     OW 9583   3.672   3.578   6.173
 2895SOL    HW1 9584   3.763   3.536   6.166
 2895SOL    HW2 9585   3.603   3.514   6.139
 2896SOL     OW 9586   2.442   4.961   0.889
 2896SOL    HW1 9587   2.505   4.992   0.818
 2896SOL    HW2 9588   2.406   4.871   0.866
 2897SOL     OW 9589   1.987   5.868   3.892
 2897SOL    HW1 9590   1.938   5.787   3.926
 2897SOL    HW2 9591   2.078   5.841   3.861
 2898SOL     OW 9592   3.745   5.547   2.054
 2898SOL    HW1 9593   3.696   5.462   2.068
 2898SOL    HW2 9594   3.696   5.622   2.099
 2899SOL     OW 9595   6.639   6.950   0.258
 2899SOL    HW1 9596   6.566   7.011   0.225
 2899SOL    HW2 9597   6.610   6.905   0.342
 2900SOL     OW 9598   1.432   5.229   5.718
 2900SOL    HW1 9599   1.521   5.198   5.684
 2900SOL    HW2 9600   1.411   5.183   5.804
 2901SOL     OW 9601   2.782   0.570   1.643
 2901SOL    HW1 9602   2.809   0.593   1.736
 2901SOL    HW2 9603   2.842   0.498   1.607
 2902SOL     OW 9604   5.400   5.903   0.879
 2902SOL    HW1 9605   5.433   5.986   0.834
 2902SOL    HW2 9606   5.440   5.896   0.970
 2903SOL     OW 9607   2.128   1.210   1.837
 2903SOL    HW1 9608   2.218   1.222   1.879
 2903SOL    HW2 9609   2.130   1.132   1.775
 2904SOL     OW 9610   2.282   2.552   5.161
 2904SOL    HW1 9611   2.266   2.647   5.189
 2904SOL    HW2 9612   2.298   2.549   5.062
 2905SOL     OW 9613   1.776   2.136   1.988
 2905SOL    HW1 9614   1.727   2.069   2.045
 2905SOL    HW2 9615   1.814   2.207   2.047
 2906SOL     OW 9616   5.385   5.614   1.994
 2906SOL    HW1 9617   5.288   5.611   1.973
 2906SOL    HW2 9618   5.438   5.587   1.913
 2907SOL     OW 9619   6.726   1.512   4.315
 2907SOL    HW1 9620   6.676   1.558   4.389
 2907SOL    HW2 9621   6.749   1.419   4.344
 2908SOL     OW 9622   3.564   6.169   4.462
 2908SOL    HW1 9623   3.504   6.235   4.506
 2908SOL    HW2 9624   3.516   6.081   4.454
 2909SOL     OW 9625   1.169   5.773   4.671
 2909SOL    HW1 9626   1.268   5.758   4.676
 2909SOL    HW2 9627   1.151   5.859   4.623
 2910SOL     OW 9628   4.444   5.994   6.357
 2910SOL    HW1 9629   4.479   6.084   6.330
 2910SOL    HW2 9630   4.445   5.987   6.457
 2911SOL     OW 9631   1.993   4.690   3.057
 2911SOL    HW1 9632   1.970   4.774   3.008
 2911SOL    HW2 9633   1.949   4.692   3.147
 2912SOL     OW 9634   2.758   6.376   0.358
 2912SOL    HW1 9635   2.701   6.419   0.428
 2912SOL    HW2 9636   2.712   6.380   0.270
 2913SOL     OW 9637   1.727   3.824   2.582
 2913SOL    HW1 9638   1.819   3.793   2.559
 2913SOL    HW2 9639   1.728   3.922   2.603
 2914SOL     OW 9640   5.258   5.660   5.898
 2914SOL    HW1 9641   5.202   5.609   5.832
 2914SOL    HW2 9642   5.203   5.732   5.940
 2915SOL     OW 9643   4.567   1.641   3.592
 2915SOL    HW1 9644   4.478   1.653   3.547
 2915SOL    HW2 9645   4.640   1.675   3.533
 2916SOL     OW 9646   5.452   5.697   5.182
 2916SOL    HW1 9647   5.520   5.753   5.230
 2916SOL    HW2 9648   5.426   5.742   5.097
 2917SOL     OW 9649   4.641   0.443   1.974
 2917SOL    HW1 9650   4.576   0.482   2.040
 2917SOL    HW2 9651   4.698   0.516   1.937
 2918SOL     OW 9652   0.427   3.720   3.643
 2918SOL    HW1 9653   0.354   3.652   3.654
 2918SOL    HW2 9654   0.515   3.678   3.666
 2919SOL     OW 9655   5.950   5.969   0.598
 2919SOL    HW1 9656   5.884   6.023   0.546
 2919SOL    HW2 9657   5.960   6.009   0.690
 2920SOL     OW 9658   3.894   2.208   2.914
 2920SOL    HW1 9659   3.949   2.263   2.851
 2920SOL    HW2 9660   3.936   2.209   3.004
 2921SOL     OW 9661   6.829   0.516   2.563
 2921SOL    HW1 9662   6.749   0.540   2.508
 2921SOL    HW2 9663   6.865   0.599   2.607
 2922SOL     OW 9664   4.360   0.133   5.374
 2922SOL    HW1 9665   4.448   0.106   5.413
 2922SOL    HW2 9666   4.349   0.093   5.283
 2923SOL     OW 9667   6.268   4.713   2.022
 2923SOL    HW1 9668   6.171   4.710   2.046
 2923SOL    HW2 9669   6.278   4.755   1.932
 2924SOL     OW 9670   0.471   1.567   5.379
 2924SOL    HW1 9671   0.454   1.535   5.286
 2924SOL    HW2 9672   0.521   1.654   5.375
 2925SOL     OW 9673   5.637   3.268   1.452
 2925SOL    HW1 9674   5.622   3.177   1.489
 2925SOL    HW2 9675   5.638   3.334   1.527
 2926SOL     OW 9676   6.980   2.033   4.924
 2926SOL    HW1 9677   6.909   1.963   4.937
 2926SOL    HW2 9678   0.047   2.000   4.961
 2927SOL     OW 9679   0.908   2.797   2.612
 2927SOL    HW1 9680   0.941   2.725   2.674
 2927SOL    HW2 9681   0.810   2.808   2.623
 2928SOL     OW 9682   5.680   0.047   0.688
 2928SOL    HW1 9683   5.722   0.137   0.702
 2928SOL    HW2 9684   5.652   0.010   0.777
 2929SOL     OW 9685   0.244   6.770   6.030
 2929SOL    HW1 9686   0.215   6.703   6.098
 2929SOL    HW2 9687   0.232   6.732   5.938
 2930SOL     OW 9688   3.807   6.765   4.535
 2930SOL    HW1 9689   3.725   6.710   4.546
 2930SOL    HW2 9690   3.786   6.846   4.479
 2931SOL     OW 9691   4.396   6.873   6.402
 2931SOL    HW1 9692   4.357   6.964   6.388
 2931SOL    HW2 9693   4.355   6.831   6.483
 2932SOL     OW 9694   1.005   3.996   1.475
 2932SOL    HW1 9695   0.951   3.924   1.432
 2932SOL    HW2 9696   0.967   4.019   1.564
 2933SOL     OW 9697   5.329   2.029   3.365
 2933SOL    HW1 9698   5.384   2.005   3.284
 2933SOL    HW2 9699   5.244   1.975   3.364
 2934SOL     OW 9700   2.515   0.863   0.040
 2934SOL    HW1 9701   2.557   0.923   0.108
 2934SOL    HW2 9702   2.585   0.832   6.995
 2935SOL     OW 9703   5.851   2.623   1.161
 2935SOL    HW1 9704   5.880   2.563   1.236
 2935SOL    HW2 9705   5.898   2.597   1.077
 2936SOL     OW 9706   4.782   5.932   0.224
 2936SOL    HW1 9707   4.790   5.926   0.124
 2936SOL    HW2 9708   4.773   5.840   0.262
 2937SOL     OW 9709   3.513   5.241   6.759
 2937SOL    HW1 9710   3.569   5.314   6.721
 2937SOL    HW2 9711   3.570   5.180   6.813
 2938SOL     OW 9712   4.654   5.416   5.071
 2938SOL    HW1 9713   4.572   5.358   5.068
 2938SOL    HW2 9714   4.626   5.512   5.078
 2939SOL     OW 9715   6.859   6.486   5.389
 2939SOL    HW1 9716   6.791   6.508   5.460
 2939SOL    HW2 9717   6.839   6.395   5.353
 2940SOL     OW 9718   5.178   6.934   5.030
 2940SOL    HW1 9719   5.234   6.878   5.091
 2940SOL    HW2 9720   5.228   6.954   4.947
 2941SOL     OW 9721   1.775   1.886   5.477
 2941SOL    HW1 9722   1.833   1.865   5.556
 2941SOL    HW2 9723   1.731   1.974   5.490
 2942SOL     OW 9724   3.218   6.552   2.972
 2942SOL    HW1 9725   3.255   6.533   3.063
 2942SOL    HW2 9726   3.256   6.638   2.938
 2943SOL     OW 9727   6.149   4.025   3.512
 2943SOL    HW1 9728   6.097   3.941   3.528
 2943SOL    HW2 9729   6.095   4.103   3.541
 2944SOL     OW 9730   4.172   5.939   5.806
 2944SOL    HW1 9731   4.127   5.936   5.717
 2944SOL    HW2 9732   4.200   5.847   5.833
 2945SOL     OW 9733   3.127   3.049   3.155
 2945SOL    HW1 9734   3.156   3.134   3.112
 2945SOL    HW2 9735   3.047   3.066   3.212
 2946SOL     OW 9736   6.974   5.829   6.708
 2946SOL    HW1 9737   6.902   5.877   6.658
 2946SOL    HW2 9738   6.950   5.824   6.805
 2947SOL     OW 9739   6.432   4.516   0.567
 2947SOL    HW1 9740   6.387   4.584   0.625
 2947SOL    HW2 9741   6.524   4.548   0.544
 2948SOL     OW 9742   5.708   4.340   4.607
 2948SOL    HW1 9743   5.797   4.338   4.654
 2948SOL    HW2 9744   5.702   4.422   4.551
 2949SOL     OW 9745   1.267   6.574   0.591
 2949SOL    HW1 9746   1.285   6.639   0.665
 2949SOL    HW2 9747   1.310   6.607   0.506
 2950SOL     OW 9748   5.396   3.348   4.298
 2950SOL    HW1 9749   5.369   3.427   4.244
 2950SOL    HW2 9750   5.470   3.373   4.360
 2951SOL     OW 9751   0.639   1.376   1.460
 2951SOL    HW1 9752   0.706   1.341   1.526
 2951SOL    HW2 9753   0.637   1.316   1.380
 2952SOL     OW 9754   1.734   4.087   2.675
 2952SOL    HW1 9755   1.785   4.124   2.597
 2952SOL    HW2 9756   1.721   4.158   2.744
 2953SOL     OW 9757   4.568   2.497   2.110
 2953SOL    HW1 9758   4.646   2.545   2.071
 2953SOL    HW2 9759   4.570   2.506   2.210
 2954SOL     OW 9760   6.531   6.792   2.923
 2954SOL    HW1 9761   6.530   6.698   2.889
 2954SOL    HW2 9762   6.593   6.799   3.001
 2955SOL     OW 9763   0.731   3.068   0.506
 2955SOL    HW1 9764   0.707   3.101   0.415
 2955SOL    HW2 9765   0.698   3.132   0.575
 2956SOL     OW 9766   6.942   5.197   2.639
 2956SOL    HW1 9767   7.000   5.277   2.651
 2956SOL    HW2 9768   6.998   5.114   2.645
 2957SOL     OW 9769   0.900   3.766   2.093
 2957SOL    HW1 9770   0.836   3.788   2.167
 2957SOL    HW2 9771   0.852   3.770   2.005
 2958SOL     OW 9772   2.038   4.526   6.016
 2958SOL    HW1 9773   2.123   4.546   6.064
 2958SOL    HW2 9774   1.996   4.444   6.053
 2959SOL     OW 9775   4.555   5.449   6.719
 2959SOL    HW1 9776   4.551   5.527   6.656
 2959SOL    HW2 9777   4.469   5.397   6.713
 2960SOL     OW 9778   1.786   1.652   0.265
 2960SOL    HW1 9779   1.746   1.689   0.181
 2960SOL    HW2 9780   1.716   1.601   0.316
 2961SOL     OW 9781   5.603   3.755   3.871
 2961SOL    HW1 9782   5.669   3.781   3.801
 2961SOL    HW2 9783   5.633   3.671   3.915
 2962SOL     OW 9784   4.582   0.582   3.412
 2962SOL    HW1 9785   4.493   0.564   3.370
 2962SOL    HW2 9786   4.592   0.525   3.493
 2963SOL     OW 9787   2.200   1.773   5.305
 2963SOL    HW1 9788   2.231   1.694   5.359
 2963SOL    HW2 9789   2.193   1.853   5.364
 2964SOL     OW 9790   3.123   6.328   0.585
 2964SOL    HW1 9791   3.215   6.339   0.547
 2964SOL    HW2 9792   3.059   6.306   0.511
 2965SOL     OW 9793   0.304   1.779   6.313
 2965SOL    HW1 9794   0.336   1.754   6.222
 2965SOL    HW2 9795   0.328   1.708   6.379
 2966SOL     OW 9796   4.967   4.714   4.221
 2966SOL    HW1 9797   5.038   4.764   4.271
 2966SOL    HW2 9798   4.905   4.780   4.178
 2967SOL     OW 9799   5.981   2.815   3.781
 2967SOL    HW1 9800   5.964   2.766   3.867
 2967SOL    HW2 9801   5.911   2.788   3.714
 2968SOL     OW 9802   0.626   4.182   3.542
 2968SOL    HW1 9803   0.680   4.112   3.589
 2968SOL    HW2 9804   0.532   4.150   3.531
 2969SOL     OW 9805   5.065   2.160   4.702
 2969SOL    HW1 9806   5.099   2.076   4.743
 2969SOL    HW2 9807   5.078   2.157   4.603
 2970SOL     OW 9808   1.048   4.237   6.383
 2970SOL    HW1 9809   0.972   4.272   6.328
 2970SOL    HW2 9810   1.129   4.295   6.369
 2971SOL     OW 9811   5.197   2.088   2.698
 2971SOL    HW1 9812   5.220   2.060   2.791
 2971SOL    HW2 9813   5.215   2.013   2.635
 2972SOL     OW 9814   6.917   3.365   5.407
 2972SOL    HW1 9815   6.872   3.455   5.413
 2972SOL    HW2 9816   6.863   3.297   5.456
 2973SOL     OW 9817   5.093   6.392   3.954
 2973SOL    HW1 9818   5.142   6.310   3.983
 2973SOL    HW2 9819   5.099   6.401   3.855
 2974SOL     OW 9820   6.714   4.206   2.679
 2974SOL    HW1 9821   6.761   4.294   2.686
 2974SOL    HW2 9822   6.615   4.221   2.686
 2975SOL     OW 9823   0.325   0.470   5.442
 2975SOL    HW1 9824   0.423   0.473   5.426
 2975SOL    HW2 9825   0.297   0.553   5.491
 2976SOL     OW 9826   3.703   0.937   2.502
 2976SOL    HW1 9827   3.645   1.011   2.467
 2976SOL    HW2 9828   3.698   0.859   2.440
 2977SOL     OW 9829   3.011   6.557   3.919
 2977SOL    HW1 9830   3.040   6.608   4.000
 2977SOL    HW2 9831   3.070   6.478   3.906
 2978SOL     OW 9832   5.546   4.703   0.031
 2978SOL    HW1 9833   5.489   4.755   0.096
 2978SOL    HW2 9834   5.546   4.750   6.962
 2979SOL     OW 9835   4.141   0.437   3.300
 2979SOL    HW1 9836   4.227   0.454   3.348
 2979SOL    HW2 9837   4.087   0.521   3.298
 2980SOL     OW 9838   0.292   5.931   4.471
 2980SOL    HW1 9839   0.288   5.848   4.416
 2980SOL    HW2 9840   0.372   5.985   4.444
 2981SOL     OW 9841   2.135   1.123   5.949
 2981SOL    HW1 9842   2.096   1.031   5.961
 2981SOL    HW2 9843   2.123   1.151   5.854
 2982SOL     OW 9844   4.683   6.238   2.144
 2982SOL    HW1 9845   4.690   6.274   2.051
 2982SOL    HW2 9846   4.750   6.165   2.156
 2983SOL     OW 9847   6.648   0.874   3.697
 2983SOL    HW1 9848   6.616   0.781   3.717
 2983SOL    HW2 9849   6.600   0.939   3.755
 2984SOL     OW 9850   5.513   5.581   1.766
 2984SOL    HW1 9851   5.456   5.610   1.689
 2984SOL    HW2 9852   5.592   5.641   1.774
 2985SOL     OW 9853   6.296   2.436   2.966
 2985SOL    HW1 9854   6.305   2.397   2.874
 2985SOL    HW2 9855   6.209   2.406   3.006
 2986SOL     OW 9856   1.660   3.525   5.174
 2986SOL    HW1 9857   1.735   3.528   5.107
 2986SOL    HW2 9858   1.677   3.451   5.239
 2987SOL     OW 9859   4.229   1.969   4.646
 2987SOL    HW1 9860   4.135   1.933   4.648
 2987SOL    HW2 9861   4.226   2.069   4.649
 2988SOL     OW 9862   1.214   0.305   1.657
 2988SOL    HW1 9863   1.156   0.385   1.641
 2988SOL    HW2 9864   1.267   0.319   1.740
 2989SOL     OW 9865   0.145   4.984   1.178
 2989SOL    HW1 9866   0.147   5.059   1.244
 2989SOL    HW2 9867   0.070   5.000   1.113
 2990SOL     OW 9868   3.906   1.251   1.412
 2990SOL    HW1 9869   3.944   1.250   1.320
 2990SOL    HW2 9870   3.930   1.167   1.459
 2991SOL     OW 9871   0.005   3.860   0.291
 2991SOL    HW1 9872   0.056   3.778   0.265
 2991SOL    HW2 9873   6.943   3.834   0.343
 2992SOL     OW 9874   3.385   5.290   6.178
 2992SOL    HW1 9875   3.289   5.304   6.155
 2992SOL    HW2 9876   3.409   5.194   6.167
 2993SOL     OW 9877   1.601   5.495   1.118
 2993SOL    HW1 9878   1.604   5.395   1.128
 2993SOL    HW2 9879   1.615   5.537   1.208
 2994SOL     OW 9880   4.887   6.791   6.911
 2994SOL    HW1 9881   4.946   6.871   6.900
 2994SOL    HW2 9882   4.847   6.792   7.003
 2995SOL     OW 9883   1.656   1.502   6.401
 2995SOL    HW1 9884   1.591   1.534   6.332
 2995SOL    HW2 9885   1.689   1.580   6.454
 2996SOL     OW 9886   4.262   4.974   6.136
 2996SOL    HW1 9887   4.251   5.074   6.140
 2996SOL    HW2 9888   4.321   4.951   6.058
 2997SOL     OW 9889   5.533   6.754   0.989
 2997SOL    HW1 9890   5.601   6.821   0.959
 2997SOL    HW2 9891   5.445   6.773   0.945
 2998SOL     OW 9892   6.109   5.753   4.337
 2998SOL    HW1 9893   6.025   5.729   4.288
 2998SOL    HW2 9894   6.110   5.709   4.426
 2999SOL     OW 9895   3.379   0.182   3.262
 2999SOL    HW1 9896   3.452   0.247   3.283
 2999SOL    HW2 9897   3.414   0.111   3.200
 3000SOL     OW 9898   1.125   2.810   5.846
 3000SOL    HW1 9899   1.089   2.840   5.757
 3000SOL    HW2 9900   1.053   2.767   5.899
 3001SOL     OW 9901   4.919   6.806   5.614
 3001SOL    HW1 9902   4.986   6.777   5.683
 3001SOL    HW2 9903   4.883   6.896   5.637
 3002SOL     OW 9904   3.651   0.261   6.045
 3002SOL    HW1 9905   3.746   0.250   6.074
 3002SOL    HW2 9906   3.603   0.320   6.110
 3003SOL     OW 9907   2.814   6.629   5.804
 3003SOL    HW1 9908   2.746   6.562   5.775
 3003SOL    HW2 9909   2.830   6.694   5.730
 3004SOL     OW 9910   5.871   3.150   4.396
 3004SOL    HW1 9911   5.887   3.073   4.458
 3004SOL    HW2 9912   5.777   3.146   4.362
 3005SOL     OW 9913   4.177   2.955   1.156
 3005SOL    HW1 9914   4.174   3.053   1.171
 3005SOL    HW2 9915   4.241   2.934   1.082
 3006SOL     OW 9916   5.518   0.729   1.548
 3006SOL    HW1 9917   5.516   0.829   1.541
 3006SOL    HW2 9918   5.598   0.701   1.601
 3007SOL     OW 9919   6.060   4.846   3.066
 3007SOL    HW1 9920   6.139   4.903   3.089
 3007SOL    HW2 9921   6.017   4.882   2.983
 3008SOL     OW 9922   3.316   6.467   5.744
 3008SOL    HW1 9923   3.394   6.472   5.681
 3008SOL    HW2 9924   3.286   6.560   5.766
 3009SOL     OW 9925   1.438   6.864   3.267
 3009SOL    HW1 9926   1.351   6.909   3.288
 3009SOL    HW2 9927   1.465   6.806   3.343
 3010SOL     OW 9928   3.507   6.178   2.842
 3010SOL    HW1 9929   3.594   6.129   2.841
 3010SOL    HW2 9930   3.481   6.198   2.937
 3011SOL     OW 9931   5.380   0.233   0.162
 3011SOL    HW1 9932   5.472   0.271   0.173
 3011SOL    HW2 9933   5.320   0.268   0.235
 3012SOL     OW 9934   0.549   3.896   3.163
 3012SOL    HW1 9935   0.468   3.875   3.219
 3012SOL    HW2 9936   0.604   3.965   3.210
 3013SOL     OW 9937   5.813   4.951   2.196
 3013SOL    HW1 9938   5.800   4.956   2.295
 3013SOL    HW2 9939   5.798   5.042   2.157
 3014SOL     OW 9940   4.451   0.870   4.203
 3014SOL    HW1 9941   4.486   0.872   4.109
 3014SOL    HW2 9942   4.522   0.898   4.267
 3015SOL     OW 9943   3.112   2.342   0.631
 3015SOL    HW1 9944   3.190   2.369   0.688
 3015SOL    HW2 9945   3.146   2.301   0.546
 3016SOL     OW 9946   3.708   6.991   3.257
 3016SOL    HW1 9947   3.621   6.942   3.263
 3016SOL    HW2 9948   3.756   6.984   3.344
 3017SOL     OW 9949   0.598   6.065   1.342
 3017SOL    HW1 9950   0.622   6.150   1.295
 3017SOL    HW2 9951   0.659   6.051   1.419
 3018SOL     OW 9952   4.151   6.290   0.026
 3018SOL    HW1 9953   4.241   6.254   0.004
 3018SOL    HW2 9954   4.095   6.217   0.068
 3019SOL     OW 9955   3.969   6.853   1.135
 3019SOL    HW1 9956   4.040   6.905   1.088
 3019SOL    HW2 9957   4.004   6.764   1.162
 3020SOL     OW 9958   2.624   3.234   0.938
 3020SOL    HW1 9959   2.584   3.160   0.886
 3020SOL    HW2 9960   2.558   3.266   1.006
 3021SOL     OW 9961   2.191   2.324   0.088
 3021SOL    HW1 9962   2.255   2.293   0.018
 3021SOL    HW2 9963   2.209   2.419   0.111
 3022SOL     OW 9964   5.155   6.885   2.625
 3022SOL    HW1 9965   5.140   6.872   2.723
 3022SOL    HW2 9966   5.249   6.860   2.601
 3023SOL     OW 9967   4.713   5.798   2.455
 3023SOL    HW1 9968   4.658   5.837   2.382
 3023SOL    HW2 9969   4.810   5.813   2.435
 3024SOL     OW 9970   3.298   0.185   0.069
 3024SOL    HW1 9971   3.248   0.266   0.039
 3024SOL    HW2 9972   3.346   0.145   7.010
 3025SOL     OW 9973   2.288   2.950   1.131
 3025SOL    HW1 9974   2.271   2.872   1.192
 3025SOL    HW2 9975   2.386   2.960   1.118
 3026SOL     OW 9976   2.238   4.008   0.987
 3026SOL    HW1 9977   2.288   4.095   0.982
 3026SOL    HW2 9978   2.139   4.027   0.982
 3027SOL     OW 9979   1.992   2.046   3.267
 3027SOL    HW1 9980   1.958   1.959   3.304
 3027SOL    HW2 9981   2.039   2.029   3.181
 3028SOL     OW 9982   1.432   6.292   5.552
 3028SOL    HW1 9983   1.380   6.343   5.483
 3028SOL    HW2 9984   1.392   6.201   5.563
 3029SOL     OW 9985   5.793   5.748   5.013
 3029SOL    HW1 9986   5.714   5.795   4.973
 3029SOL    HW2 9987   5.773   5.725   5.108
 3030SOL     OW 9988   1.204   1.853   5.471
 3030SOL    HW1 9989   1.238   1.764   5.439
 3030SOL    HW2 9990   1.106   1.860   5.452
 3031SOL     OW 9991   0.429   4.875   6.332
 3031SOL    HW1 9992   0.524   4.901   6.314
 3031SOL    HW2 9993   0.411   4.784   6.294
 3032SOL     OW 9994   5.329   0.340   5.797
 3032SOL    HW1 9995   5.381   0.297   5.723
 3032SOL    HW2 9996   5.280   0.269   5.848
 3033SOL     OW 9997   0.064   4.001   6.799
 3033SOL    HW1 9998   0.020   3.995   6.709
 3033SOL    HW2 9999   0.085   3.909   6.831
 3034SOL     OW10000   2.702   6.050   4.671
 3034SOL    HW110001   2.679   6.128   4.728
 3034SOL    HW210002   2.624   6.026   4.613
 3035SOL     OW10003   5.544   1.266   0.153
 3035SOL    HW110004   5.468   1.322   0.121
 3035SOL    HW210005   5.615   1.325   0.192
 3036SOL     OW10006   1.075   4.237   0.128
 3036SOL    HW110007   1.096   4.310   0.063
 3036SOL    HW210008   1.116   4.151   0.097
 3037SOL     OW10009   6.471   6.460   5.108
 3037SOL    HW110010   6.509   6.383   5.159
 3037SOL    HW210011   6.431   6.426   5.022
 3038SOL     OW10012   5.542   6.726   6.188
 3038SOL    HW110013   5.443   6.715   6.177
 3038SOL    HW210014   5.563   6.751   6.282
 3039SOL     OW10015   0.678   4.566   1.691
 3039SOL    HW110016   0.586   4.533   1.706
 3039SOL    HW210017   0.722   4.512   1.618
 3040SOL     OW10018   2.873   3.365   0.112
 3040SOL    HW110019   2.894   3.272   0.081
 3040SOL    HW210020   2.895   3.373   0.210
 3041SOL     OW10021   2.127   2.406   6.015
 3041SOL    HW110022   2.151   2.314   6.044
 3041SOL    HW210023   2.188   2.435   5.942
 3042SOL     OW10024   4.404   0.555   2.088
 3042SOL    HW110025   4.378   0.554   2.185
 3042SOL    HW210026   4.333   0.509   2.035
 3043SOL     OW10027   0.822   5.680   0.809
 3043SOL    HW110028   0.737   5.632   0.789
 3043SOL    HW210029   0.865   5.708   0.723
 3044SOL     OW10030   3.365   4.496   6.074
 3044SOL    HW110031   3.419   4.578   6.091
 3044SOL    HW210032   3.426   4.417   6.063
 3045SOL     OW10033   5.706   2.345   2.930
 3045SOL    HW110034   5.789   2.389   2.895
 3045SOL    HW210035   5.638   2.415   2.952
 3046SOL     OW10036   1.654   2.555   5.684
 3046SOL    HW110037   1.748   2.547   5.716
 3046SOL    HW210038   1.601   2.611   5.749
 3047SOL     OW10039   6.260   5.096   2.487
 3047SOL    HW110040   6.236   5.109   2.583
 3047SOL    HW210041   6.193   5.145   2.430
 3048SOL     OW10042   3.051   2.965   1.549
 3048SOL    HW110043   3.129   2.904   1.537
 3048SOL    HW210044   3.083   3.059   1.562
 3049SOL     OW10045   0.962   0.174   2.463
 3049SOL    HW110046   1.039   0.228   2.498
 3049SOL    HW210047   0.995   0.086   2.430
 3050SOL     OW10048   4.556   5.761   3.907
 3050SOL    HW110049   4.618   5.753   3.985
 3050SOL    HW210050   4.520   5.671   3.883
 3051SOL     OW10051   2.735   4.831   0.141
 3051SOL    HW110052   2.834   4.818   0.147
 3051SOL    HW210053   2.705   4.809   0.048
 3052SOL     OW10054   3.943   6.692   3.238
 3052SOL    HW110055   4.042   6.700   3.233
 3052SOL    HW210056   3.907   6.758   3.304
 3053SOL     OW10057   5.705   6.616   0.301
 3053SOL    HW110058   5.702   6.711   0.269
 3053SOL    HW210059   5.709   6.615   0.400
 3054SOL     OW10060   0.877   3.238   0.146
 3054SOL    HW110061   0.813   3.209   0.075
 3054SOL    HW210062   0.961   3.272   0.103
 3055SOL     OW10063   5.558   6.436   3.577
 3055SOL    HW110064   5.568   6.373   3.501
 3055SOL    HW210065   5.603   6.523   3.555
 3056SOL     OW10066   6.908   0.575   0.644
 3056SOL    HW110067   6.834   0.596   0.707
 3056SOL    HW210068   6.986   0.634   0.663
 3057SOL     OW10069   5.876   5.051   2.454
 3057SOL    HW110070   5.803   5.051   2.523
 3057SOL    HW210071   5.939   4.976   2.472
 3058SOL     OW10072   6.562   5.281   1.715
 3058SOL    HW110073   6.607   5.199   1.750
 3058SOL    HW210074   6.508   5.323   1.788
 3059SOL     OW10075   1.702   2.244   4.687
 3059SOL    HW110076   1.741   2.301   4.759
 3059SOL    HW210077   1.727   2.282   4.598
 3060SOL     OW10078   6.300   6.619   1.549
 3060SOL    HW110079   6.343   6.530   1.537
 3060SOL    HW210080   6.358   6.678   1.606
 3061SOL     OW10081   0.501   0.187   5.948
 3061SOL    HW110082   0.541   0.260   5.891
 3061SOL    HW210083   0.401   0.190   5.939
 3062SOL     OW10084   3.090   6.628   0.721
 3062SOL    HW110085   3.143   6.638   0.636
 3062SOL    HW210086   2.995   6.607   0.699
 3063SOL     OW10087   2.025   5.109   1.148
 3063SOL    HW110088   1.955   5.122   1.077
 3063SOL    HW210089   2.115   5.130   1.110
 3064SOL     OW10090   5.970   3.963   3.027
 3064SOL    HW110091   5.957   3.994   3.121
 3064SOL    HW210092   5.886   3.920   2.994
 3065SOL     OW10093   1.707   1.052   0.359
 3065SOL    HW110094   1.727   1.127   0.296
 3065SOL    HW210095   1.689   0.968   0.307
 3066SOL     OW10096   6.201   4.724   1.483
 3066SOL    HW110097   6.154   4.669   1.553
 3066SOL    HW210098   6.192   4.821   1.506
 3067SOL     OW10099   4.740   6.762   4.049
 3067SOL    HW110100   4.800   6.750   4.128
 3067SOL    HW210101   4.698   6.853   4.052
 3068SOL     OW10102   5.732   5.072   0.946
 3068SOL    HW110103   5.820   5.028   0.930
 3068SOL    HW210104   5.726   5.102   1.041
 3069SOL     OW10105   0.460   5.976   2.232
 3069SOL    HW110106   0.477   5.886   2.193
 3069SOL    HW210107   0.461   5.969   2.332
 3070SOL     OW10108   3.324   1.214   4.172
 3070SOL    HW110109   3.395   1.151   4.203
 3070SOL    HW210110   3.237   1.165   4.164
 3071SOL     OW10111   5.429   0.062   3.594
 3071SOL    HW110112   5.360   0.018   3.651
 3071SOL    HW210113   5.505   0.092   3.651
 3072SOL     OW10114   0.574   6.709   2.166
 3072SOL    HW110115   0.572   6.738   2.262
 3072SOL    HW210116   0.493   6.655   2.146
 3073SOL     OW10117   1.345   3.690   5.647
 3073SOL    HW110118   1.338   3.780   5.603
 3073SOL    HW210119   1.264   3.674   5.702
 3074SOL     OW10120   4.749   3.221   6.045
 3074SOL    HW110121   4.837   3.174   6.032
 3074SOL    HW210122   4.761   3.294   6.112
 3075SOL     OW10123   1.505   5.695   0.963
 3075SOL    HW110124   1.539   5.637   1.037
 3075SOL    HW210125   1.582   5.727   0.908
 3076SOL     OW10126   6.269   0.729   5.097
 3076SOL    HW110127   6.361   0.708   5.130
 3076SOL    HW210128   6.218   0.777   5.169
 3077SOL     OW10129   5.283   4.576   4.590
 3077SOL    HW110130   5.319   4.488   4.561
 3077SOL    HW210131   5.358   4.641   4.600
 3078SOL     OW10132   1.437   3.760   1.781
 3078SOL    HW110133   1.499   3.688   1.812
 3078SOL    HW210134   1.365   3.720   1.725
 3079SOL     OW10135   6.876   2.107   5.362
 3079SOL    HW110136   6.809   2.121   5.288
 3079SOL    HW210137   6.954   2.056   5.327
 3080SOL     OW10138   6.392   5.184   0.683
 3080SOL    HW110139   6.373   5.114   0.614
 3080SOL    HW210140   6.451   5.146   0.754
 3081SOL     OW10141   0.331   4.599   5.116
 3081SOL    HW110142   0.285   4.648   5.042
 3081SOL    HW210143   0.297   4.632   5.204
 3082SOL     OW10144   3.320   0.090   2.616
 3082SOL    HW110145   3.406   0.125   2.655
 3082SOL    HW210146   3.328   7.012   2.603
 3083SOL     OW10147   3.154   0.671   2.049
 3083SOL    HW110148   3.093   0.667   1.970
 3083SOL    HW210149   3.135   0.594   2.110
 3084SOL     OW10150   5.215   5.982   4.785
 3084SOL    HW110151   5.252   5.976   4.692
 3084SOL    HW210152   5.188   6.077   4.803
 3085SOL     OW10153   0.627   5.725   2.740
 3085SOL    HW110154   0.630   5.682   2.650
 3085SOL    HW210155   0.676   5.812   2.737
 3086SOL     OW10156   4.741   1.127   3.768
 3086SOL    HW110157   4.693   1.179   3.838
 3086SOL    HW210158   4.783   1.046   3.809
 3087SOL     OW10159   6.430   4.037   2.900
 3087SOL    HW110160   6.354   4.095   2.932
 3087SOL    HW210161   6.427   4.030   2.800
 3088SOL     OW10162   2.634   4.741   5.545
 3088SOL    HW110163   2.535   4.743   5.530
 3088SOL    HW210164   2.655   4.787   5.631
 3089SOL     OW10165   1.456   2.708   0.206
 3089SOL    HW110166   1.395   2.785   0.227
 3089SOL    HW210167   1.549   2.743   0.191
 3090SOL     OW10168   1.074   1.721   1.358
 3090SOL    HW110169   1.011   1.740   1.283
 3090SOL    HW210170   1.123   1.636   1.341
 3091SOL     OW10171   2.970   0.201   0.686
 3091SOL    HW110172   3.009   0.109   0.684
 3091SOL    HW210173   3.014   0.254   0.758
 3092SOL     OW10174   5.570   0.162   1.334
 3092SOL    HW110175   5.635   0.220   1.285
 3092SOL    HW210176   5.488   0.148   1.278
 3093SOL     OW10177   5.741   5.479   5.198
 3093SOL    HW110178   5.694   5.464   5.285
 3093SOL    HW210179   5.674   5.481   5.124
 3094SOL     OW10180   3.039   6.080   5.673
 3094SOL    HW110181   3.071   6.008   5.735
 3094SOL    HW210182   3.078   6.066   5.582
 3095SOL     OW10183   2.825   4.755   4.746
 3095SOL    HW110184   2.830   4.696   4.827
 3095SOL    HW210185   2.769   4.710   4.676
 3096SOL     OW10186   0.511   0.841   5.593
 3096SOL    HW110187   0.515   0.843   5.493
 3096SOL    HW210188   0.432   0.788   5.622
 3097SOL     OW10189   1.213   3.201   0.184
 3097SOL    HW110190   1.193   3.126   0.121
 3097SOL    HW210191   1.152   3.194   0.263
 3098SOL     OW10192   2.632   2.849   0.804
 3098SOL    HW110193   2.725   2.880   0.781
 3098SOL    HW210194   2.600   2.897   0.885
 3099SOL     OW10195   1.045   5.721   5.489
 3099SOL    HW110196   1.014   5.704   5.395
 3099SOL    HW210197   1.058   5.819   5.503
 3100SOL     OW10198   6.829   6.815   6.731
 3100SOL    HW110199   6.808   6.904   6.773
 3100SOL    HW210200   6.851   6.829   6.635
 3101SOL     OW10201   4.739   0.249   6.700
 3101SOL    HW110202   4.689   0.262   6.786
 3101SOL    HW210203   4.832   0.286   6.709
 3102SOL     OW10204   2.062   4.429   0.899
 3102SOL    HW110205   2.147   4.477   0.876
 3102SOL    HW210206   1.992   4.450   0.831
 3103SOL     OW10207   4.186   2.801   1.583
 3103SOL    HW110208   4.102   2.758   1.552
 3103SOL    HW210209   4.226   2.747   1.658
 3104SOL     OW10210   5.973   5.971   4.105
 3104SOL    HW110211   6.059   6.014   4.075
 3104SOL    HW210212   5.896   6.017   4.062
 3105SOL     OW10213   5.629   6.484   4.384
 3105SOL    HW110214   5.673   6.563   4.428
 3105SOL    HW210215   5.673   6.400   4.417
 3106SOL     OW10216   0.096   2.557   3.396
 3106SOL    HW110217   0.068   2.593   3.485
 3106SOL    HW210218   0.047   2.605   3.323
 3107SOL     OW10219   2.591   0.706   4.153
 3107SOL    HW110220   2.602   0.621   4.204
 3107SOL    HW210221   2.567   0.685   4.058
 3108SOL     OW10222   2.682   1.313   3.563
 3108SOL    HW110223   2.642   1.324   3.472
 3108SOL    HW210224   2.771   1.359   3.566
 3109SOL     OW10225   4.932   5.720   2.979
 3109SOL    HW110226   4.914   5.737   2.883
 3109SOL    HW210227   4.844   5.709   3.027
 3110SOL     OW10228   1.384   3.168   2.524
 3110SOL    HW110229   1.305   3.185   2.582
 3110SOL    HW210230   1.441   3.251   2.520
 3111SOL     OW10231   0.415   5.550   3.663
 3111SOL    HW110232   0.508   5.574   3.691
 3111SOL    HW210233   0.418   5.490   3.583
 3112SOL     OW10234   4.387   3.767   6.605
 3112SOL    HW110235   4.434   3.680   6.588
 3112SOL    HW210236   4.383   3.820   6.520
 3113SOL     OW10237   2.878   6.717   3.596
 3113SOL    HW110238   2.889   6.692   3.500
 3113SOL    HW210239   2.967   6.746   3.633
 3114SOL     OW10240   6.572   5.078   0.926
 3114SOL    HW110241   6.503   5.093   0.997
 3114SOL    HW210242   6.631   5.001   0.953
 3115SOL     OW10243   3.142   4.174   1.021
 3115SOL    HW110244   3.143   4.074   1.025
 3115SOL    HW210245   3.168   4.204   0.929
 3116SOL     OW10246   6.333   2.472   0.895
 3116SOL    HW110247   6.393   2.451   0.972
 3116SOL    HW210248   6.383   2.525   0.826
 3117SOL     OW10249   3.889   3.059   5.142
 3117SOL    HW110250   3.792   3.076   5.126
 3117SOL    HW210251   3.936   3.146   5.157
 3118SOL     OW10252   6.334   3.988   1.012
 3118SOL    HW110253   6.427   3.952   1.016
 3118SOL    HW210254   6.312   4.016   0.919
 3119SOL     OW10255   2.265   4.157   5.533
 3119SOL    HW110256   2.289   4.253   5.518
 3119SOL    HW210257   2.220   4.121   5.451
 3120SOL     OW10258   2.947   5.447   5.094
 3120SOL    HW110259   3.027   5.442   5.153
 3120SOL    HW210260   2.868   5.480   5.146
 3121SOL     OW10261   6.401   0.537   2.418
 3121SOL    HW110262   6.412   0.496   2.327
 3121SOL    HW210263   6.415   0.467   2.488
 3122SOL     OW10264   3.169   5.564   6.958
 3122SOL    HW110265   3.103   5.606   6.895
 3122SOL    HW210266   3.260   5.567   6.917
 3123SOL     OW10267   3.201   6.333   3.895
 3123SOL    HW110268   3.174   6.258   3.836
 3123SOL    HW210269   3.300   6.340   3.898
 3124SOL     OW10270   4.005   1.213   5.572
 3124SOL    HW110271   4.002   1.290   5.509
 3124SOL    HW210272   3.988   1.128   5.523
 3125SOL     OW10273   6.974   1.662   5.701
 3125SOL    HW110274   6.922   1.576   5.707
 3125SOL    HW210275   6.925   1.726   5.643
 3126SOL     OW10276   4.400   6.177   6.955
 3126SOL    HW110277   4.488   6.130   6.951
 3126SOL    HW210278   4.327   6.109   6.960
 3127SOL     OW10279   0.833   1.654   4.196
 3127SOL    HW110280   0.739   1.685   4.201
 3127SOL    HW210281   0.869   1.668   4.104
 3128SOL     OW10282   1.844   1.012   1.136
 3128SOL    HW110283   1.900   1.086   1.173
 3128SOL    HW210284   1.769   1.051   1.082
 3129SOL     OW10285   0.092   3.542   4.775
 3129SOL    HW110286   0.004   3.589   4.788
 3129SOL    HW210287   0.075   3.450   4.739
 3130SOL     OW10288   1.635   4.741   2.112
 3130SOL    HW110289   1.605   4.683   2.188
 3130SOL    HW210290   1.559   4.800   2.083
 3131SOL     OW10291   0.148   3.433   3.090
 3131SOL    HW110292   0.084   3.504   3.119
 3131SOL    HW210293   0.098   3.358   3.047
 3132SOL     OW10294   5.353   5.917   5.808
 3132SOL    HW110295   5.297   5.952   5.733
 3132SOL    HW210296   5.343   5.817   5.812
 3133SOL     OW10297   2.900   1.794   3.349
 3133SOL    HW110298   2.939   1.811   3.259
 3133SOL    HW210299   2.864   1.701   3.353
 3134SOL     OW10300   4.960   3.177   2.078
 3134SOL    HW110301   4.965   3.193   2.176
 3134SOL    HW210302   4.881   3.119   2.058
 3135SOL     OW10303   3.375   1.945   3.250
 3135SOL    HW110304   3.361   1.935   3.152
 3135SOL    HW210305   3.322   2.023   3.284
 3136SOL     OW10306   5.704   5.983   5.211
 3136SOL    HW110307   5.750   6.058   5.259
 3136SOL    HW210308   5.643   6.020   5.142
 3137SOL     OW10309   5.483   2.175   3.549
 3137SOL    HW110310   5.411   2.152   3.484
 3137SOL    HW210311   5.570   2.137   3.518
 3138SOL     OW10312   5.777   1.346   4.972
 3138SOL    HW110313   5.832   1.323   5.052
 3138SOL    HW210314   5.819   1.423   4.923
 3139SOL     OW10315   4.904   6.033   5.227
 3139SOL    HW110316   4.861   6.079   5.305
 3139SOL    HW210317   4.886   6.085   5.144
 3140SOL     OW10318   6.718   6.067   6.790
 3140SOL    HW110319   6.650   6.040   6.859
 3140SOL    HW210320   6.804   6.090   6.836
 3141SOL     OW10321   0.945   5.436   0.177
 3141SOL    HW110322   0.971   5.344   0.149
 3141SOL    HW210323   1.020   5.499   0.157
 3142SOL     OW10324   4.597   6.507   6.450
 3142SOL    HW110325   4.637   6.553   6.529
 3142SOL    HW210326   4.510   6.550   6.426
 3143SOL     OW10327   6.610   1.404   0.632
 3143SOL    HW110328   6.662   1.370   0.710
 3143SOL    HW210329   6.672   1.448   0.567
 3144SOL     OW10330   1.999   2.741   6.264
 3144SOL    HW110331   1.965   2.753   6.171
 3144SOL    HW210332   1.923   2.747   6.329
 3145SOL     OW10333   3.219   6.187   2.755
 3145SOL    HW110334   3.288   6.245   2.798
 3145SOL    HW210335   3.200   6.220   2.662
 3146SOL     OW10336   1.217   7.003   3.347
 3146SOL    HW110337   1.179   0.076   3.347
 3146SOL    HW210338   1.143   6.937   3.360
 3147SOL     OW10339   4.895   3.951   0.158
 3147SOL    HW110340   4.901   3.852   0.162
 3147SOL    HW210341   4.976   3.988   0.112
 3148SOL     OW10342   3.222   5.200   4.644
 3148SOL    HW110343   3.158   5.210   4.568
 3148SOL    HW210344   3.232   5.288   4.691
 3149SOL     OW10345   3.632   0.609   5.957
 3149SOL    HW110346   3.688   0.691   5.957
 3149SOL    HW210347   3.691   0.528   5.965
 3150SOL     OW10348   5.536   6.748   4.893
 3150SOL    HW110349   5.442   6.765   4.863
 3150SOL    HW210350   5.594   6.824   4.865
 3151SOL     OW10351   4.416   1.226   6.181
 3151SOL    HW110352   4.349   1.206   6.109
 3151SOL    HW210353   4.430   1.144   6.237
 3152SOL     OW10354   1.387   5.991   1.052
 3152SOL    HW110355   1.315   5.985   1.121
 3152SOL    HW210356   1.412   5.899   1.021
 3153SOL     OW10357   6.851   4.497   2.096
 3153SOL    HW110358   6.951   4.502   2.102
 3153SOL    HW210359   6.815   4.448   2.175
 3154SOL     OW10360   5.641   2.247   5.867
 3154SOL    HW110361   5.648   2.148   5.863
 3154SOL    HW210362   5.546   2.273   5.884
 3155SOL     OW10363   5.622   5.385   1.120
 3155SOL    HW110364   5.612   5.286   1.111
 3155SOL    HW210365   5.647   5.407   1.215
 3156SOL     OW10366   3.459   3.321   3.564
 3156SOL    HW110367   3.529   3.289   3.501
 3156SOL    HW210368   3.439   3.418   3.547
 3157SOL     OW10369   2.102   3.812   4.634
 3157SOL    HW110370   2.084   3.867   4.715
 3157SOL    HW210371   2.020   3.759   4.611
 3158SOL     OW10372   4.927   6.372   0.947
 3158SOL    HW110373   4.935   6.273   0.943
 3158SOL    HW210374   4.877   6.399   1.029
 3159SOL     OW10375   5.183   5.348   0.195
 3159SOL    HW110376   5.202   5.266   0.249
 3159SOL    HW210377   5.086   5.370   0.200
 3160SOL     OW10378   5.017   4.166   6.905
 3160SOL    HW110379   5.065   4.101   6.963
 3160SOL    HW210380   5.077   4.195   6.830
 3161SOL     OW10381   0.967   1.900   3.008
 3161SOL    HW110382   0.973   1.895   2.909
 3161SOL    HW210383   0.873   1.881   3.037
 3162SOL     OW10384   0.437   5.762   6.508
 3162SOL    HW110385   0.408   5.756   6.412
 3162SOL    HW210386   0.371   5.817   6.559
 3163SOL     OW10387   3.186   3.892   5.837
 3163SOL    HW110388   3.147   3.839   5.763
 3163SOL    HW210389   3.216   3.831   5.910
 3164SOL     OW10390   5.364   5.213   7.003
 3164SOL    HW110391   5.339   5.117   7.013
 3164SOL    HW210392   5.323   5.266   0.057
 3165SOL     OW10393   0.443   1.501   1.565
 3165SOL    HW110394   0.370   1.441   1.531
 3165SOL    HW210395   0.531   1.472   1.526
 3166SOL     OW10396   5.435   3.479   6.188
 3166SOL    HW110397   5.499   3.552   6.167
 3166SOL    HW210398   5.486   3.396   6.211
 3167SOL     OW10399   1.147   5.447   1.829
 3167SOL    HW110400   1.196   5.523   1.788
 3167SOL    HW210401   1.211   5.375   1.854
 3168SOL     OW10402   5.526   3.469   1.068
 3168SOL    HW110403   5.490   3.481   1.161
 3168SOL    HW210404   5.584   3.547   1.044
 3169SOL     OW10405   1.117   2.088   5.631
 3169SOL    HW110406   1.036   2.071   5.687
 3169SOL    HW210407   1.163   2.002   5.612
 3170SOL     OW10408   4.305   0.925   6.935
 3170SOL    HW110409   4.283   0.916   0.012
 3170SOL    HW210410   4.222   0.915   6.881
 3171SOL     OW10411   5.826   6.520   3.332
 3171SOL    HW110412   5.905   6.568   3.295
 3171SOL    HW210413   5.779   6.578   3.398
 3172SOL     OW10414   6.092   0.098   4.926
 3172SOL    HW110415   6.171   0.058   4.880
 3172SOL    HW210416   6.099   0.083   5.024
 3173SOL     OW10417   1.926   0.624   1.694
 3173SOL    HW110418   1.960   0.679   1.618
 3173SOL    HW210419   1.914   0.682   1.774
 3174SOL     OW10420   2.227   2.916   6.214
 3174SOL    HW110421   2.146   2.861   6.233
 3174SOL    HW210422   2.243   2.979   6.289
 3175SOL     OW10423   0.629   6.799   0.410
 3175SOL    HW110424   0.629   6.797   0.310
 3175SOL    HW210425   0.537   6.820   0.444
 3176SOL     OW10426   0.623   4.834   6.634
 3176SOL    HW110427   0.640   4.784   6.549
 3176SOL    HW210428   0.525   4.835   6.653
 3177SOL     OW10429   6.155   6.412   6.116
 3177SOL    HW110430   6.196   6.464   6.191
 3177SOL    HW210431   6.218   6.338   6.090
 3178SOL     OW10432   1.162   3.148   1.554
 3178SOL    HW110433   1.207   3.158   1.466
 3178SOL    HW210434   1.125   3.237   1.583
 3179SOL     OW10435   2.227   1.624   2.858
 3179SOL    HW110436   2.325   1.636   2.850
 3179SOL    HW210437   2.195   1.663   2.945
 3180SOL     OW10438   5.508   0.938   6.383
 3180SOL    HW110439   5.550   0.931   6.474
 3180SOL    HW210440   5.437   1.008   6.385
 3181SOL     OW10441   0.475   1.237   2.997
 3181SOL    HW110442   0.566   1.239   3.039
 3181SOL    HW210443   0.462   1.319   2.942
 3182SOL     OW10444   1.912   4.862   5.216
 3182SOL    HW110445   1.862   4.804   5.281
 3182SOL    HW210446   1.948   4.806   5.142
 3183SOL     OW10447   3.650   3.623   1.673
 3183SOL    HW110448   3.733   3.586   1.632
 3183SOL    HW210449   3.673   3.705   1.725
 3184SOL     OW10450   2.152   1.809   2.473
 3184SOL    HW110451   2.221   1.868   2.516
 3184SOL    HW210452   2.181   1.714   2.479
 3185SOL     OW10453   6.937   6.841   5.603
 3185SOL    HW110454   6.845   6.821   5.638
 3185SOL    HW210455   6.968   6.765   5.545
 3186SOL     OW10456   2.760   0.705   1.898
 3186SOL    HW110457   2.753   0.620   1.949
 3186SOL    HW210458   2.823   0.767   1.944
 3187SOL     OW10459   2.949   4.355   0.049
 3187SOL    HW110460   2.964   4.396   6.979
 3187SOL    HW210461   3.037   4.329   0.089
 3188SOL     OW10462   4.185   6.386   3.298
 3188SOL    HW110463   4.124   6.317   3.260
 3188SOL    HW210464   4.278   6.349   3.302
 3189SOL     OW10465   1.078   6.746   2.189
 3189SOL    HW110466   1.122   6.810   2.126
 3189SOL    HW210467   1.015   6.797   2.248
 3190SOL     OW10468   0.361   6.091   1.998
 3190SOL    HW110469   0.384   6.056   2.089
 3190SOL    HW210470   0.295   6.166   2.008
 3191SOL     OW10471   3.707   0.876   1.080
 3191SOL    HW110472   3.626   0.819   1.087
 3191SOL    HW210473   3.700   0.935   0.999
 3192SOL     OW10474   0.133   3.112   2.679
 3192SOL    HW110475   0.211   3.058   2.710
 3192SOL    HW210476   0.131   3.114   2.579
 3193SOL     OW10477   4.796   3.446   6.524
 3193SOL    HW110478   4.783   3.426   6.621
 3193SOL    HW210479   4.738   3.522   6.497
 3194SOL     OW10480   0.734   3.265   6.177
 3194SOL    HW110481   0.676   3.187   6.197
 3194SOL    HW210482   0.777   3.299   6.261
 3195SOL     OW10483   0.587   3.478   3.382
 3195SOL    HW110484   0.505   3.495   3.328
 3195SOL    HW210485   0.574   3.396   3.438
 3196SOL     OW10486   6.995   0.004   5.803
 3196SOL    HW110487   6.975   6.957   5.731
 3196SOL    HW210488   6.936   0.084   5.791
 3197SOL     OW10489   1.185   4.357   3.972
 3197SOL    HW110490   1.219   4.451   3.982
 3197SOL    HW210491   1.089   4.354   3.998
 3198SOL     OW10492   6.842   1.703   6.669
 3198SOL    HW110493   6.896   1.787   6.664
 3198SOL    HW210494   6.800   1.695   6.759
 3199SOL     OW10495   3.774   2.026   2.510
 3199SOL    HW110496   3.824   1.947   2.545
 3199SOL    HW210497   3.755   2.013   2.413
 3200SOL     OW10498   6.710   2.315   1.219
 3200SOL    HW110499   6.797   2.360   1.241
 3200SOL    HW210500   6.726   2.219   1.199
 3201SOL     OW10501   4.874   4.245   2.866
 3201SOL    HW110502   4.799   4.310   2.853
 3201SOL    HW210503   4.930   4.274   2.944
 3202SOL     OW10504   2.106   5.790   1.399
 3202SOL    HW110505   2.068   5.827   1.314
 3202SOL    HW210506   2.071   5.841   1.477
 3203SOL     OW10507   6.362   6.981   1.376
 3203SOL    HW110508   6.412   0.031   1.326
 3203SOL    HW210509   6.404   6.892   1.360
 3204SOL     OW10510   6.503   5.668   1.956
 3204SOL    HW110511   6.457   5.586   1.921
 3204SOL    HW210512   6.480   5.746   1.897
 3205SOL     OW10513   0.707   3.716   3.383
 3205SOL    HW110514   0.791   3.732   3.331
 3205SOL    HW210515   0.659   3.636   3.347
 3206SOL     OW10516   1.232   6.990   6.873
 3206SOL    HW110517   1.318   6.951   6.841
 3206SOL    HW210518   1.219   0.061   6.834
 3207SOL     OW10519   0.376   1.028   3.937
 3207SOL    HW110520   0.324   0.990   4.014
 3207SOL    HW210521   0.375   1.128   3.943
 3208SOL     OW10522   5.963   6.814   5.011
 3208SOL    HW110523   5.924   6.732   4.969
 3208SOL    HW210524   5.923   6.828   5.101
 3209SOL     OW10525   2.311   0.629   3.323
 3209SOL    HW110526   2.375   0.700   3.351
 3209SOL    HW210527   2.272   0.586   3.404
 3210SOL     OW10528   0.225   4.533   3.153
 3210SOL    HW110529   0.192   4.575   3.069
 3210SOL    HW210530   0.264   4.604   3.212
 3211SOL     OW10531   1.418   4.460   1.884
 3211SOL    HW110532   1.399   4.526   1.812
 3211SOL    HW210533   1.516   4.461   1.905
 3212SOL     OW10534   4.726   2.398   5.914
 3212SOL    HW110535   4.667   2.465   5.870
 3212SOL    HW210536   4.681   2.308   5.913
 3213SOL     OW10537   6.127   6.499   1.999
 3213SOL    HW110538   6.105   6.510   2.096
 3213SOL    HW210539   6.063   6.552   1.943
 3214SOL     OW10540   3.906   5.069   6.282
 3214SOL    HW110541   3.920   5.134   6.356
 3214SOL    HW210542   3.901   5.118   6.195
 3215SOL     OW10543   6.256   0.792   6.862
 3215SOL    HW110544   6.237   0.702   6.822
 3215SOL    HW210545   6.234   0.863   6.795
 3216SOL     OW10546   5.485   6.989   4.377
 3216SOL    HW110547   5.440   0.051   4.412
 3216SOL    HW210548   5.513   7.004   4.282
 3217SOL     OW10549   6.834   3.828   1.376
 3217SOL    HW110550   6.889   3.752   1.411
 3217SOL    HW210551   6.895   3.899   1.341
 3218SOL     OW10552   2.531   0.687   2.367
 3218SOL    HW110553   2.564   0.771   2.411
 3218SOL    HW210554   2.539   0.696   2.268
 3219SOL     OW10555   6.673   0.020   4.128
 3219SOL    HW110556   6.609   0.053   4.058
 3219SOL    HW210557   6.634   0.034   4.219
 3220SOL     OW10558   6.098   3.009   5.195
 3220SOL    HW110559   6.082   2.918   5.159
 3220SOL    HW210560   6.015   3.044   5.238
 3221SOL     OW10561   4.135   0.243   3.090
 3221SOL    HW110562   4.104   0.162   3.140
 3221SOL    HW210563   4.137   0.321   3.152
 3222SOL     OW10564   5.835   2.977   2.948
 3222SOL    HW110565   5.736   2.982   2.930
 3222SOL    HW210566   5.872   3.070   2.954
 3223SOL     OW10567   2.349   5.321   5.093
 3223SOL    HW110568   2.330   5.258   5.169
 3223SOL    HW210569   2.306   5.287   5.010
 3224SOL     OW10570   4.363   5.416   0.402
 3224SOL    HW110571   4.357   5.482   0.476
 3224SOL    HW210572   4.438   5.440   0.341
 3225SOL     OW10573   2.617   2.961   1.044
 3225SOL    HW110574   2.631   2.876   1.094
 3225SOL    HW210575   2.691   3.025   1.066
 3226SOL     OW10576   0.594   0.251   3.862
 3226SOL    HW110577   0.683   0.293   3.881
 3226SOL    HW210578   0.590   0.220   3.767
 3227SOL     OW10579   2.723   1.333   5.750
 3227SOL    HW110580   2.701   1.255   5.809
 3227SOL    HW210581   2.688   1.315   5.658
 3228SOL     OW10582   4.838   2.996   4.995
 3228SOL    HW110583   4.905   3.059   5.034
 3228SOL    HW210584   4.768   2.976   5.064
 3229SOL     OW10585   4.123   2.157   5.106
 3229SOL    HW110586   4.037   2.111   5.125
 3229SOL    HW210587   4.185   2.094   5.060
 3230SOL     OW10588   0.862   0.403   3.099
 3230SOL    HW110589   0.889   0.307   3.108
 3230SOL    HW210590   0.811   0.431   3.180
 3231SOL     OW10591   6.254   5.408   0.976
 3231SOL    HW110592   6.293   5.453   1.057
 3231SOL    HW210593   6.277   5.462   0.894
 3232SOL     OW10594   2.186   4.840   3.476
 3232SOL    HW110595   2.188   4.841   3.376
 3232SOL    HW210596   2.138   4.758   3.507
 3233SOL     OW10597   0.784   4.381   1.513
 3233SOL    HW110598   0.871   4.430   1.502
 3233SOL    HW210599   0.736   4.379   1.425
 3234SOL     OW10600   6.868   1.615   4.904
 3234SOL    HW110601   6.805   1.560   4.959
 3234SOL    HW210602   6.835   1.618   4.809
 3235SOL     OW10603   5.571   0.203   2.895
 3235SOL    HW110604   5.654   0.259   2.893
 3235SOL    HW210605   5.534   0.194   2.802
 3236SOL     OW10606   0.791   3.004   2.084
 3236SOL    HW110607   0.854   3.076   2.055
 3236SOL    HW210608   0.712   3.002   2.024
 3237SOL     OW10609   3.190   6.801   4.405
 3237SOL    HW110610   3.238   6.889   4.406
 3237SOL    HW210611   3.236   6.739   4.342
 3238SOL     OW10612   6.608   6.654   6.736
 3238SOL    HW110613   6.700   6.690   6.720
 3238SOL    HW210614   6.578   6.679   6.827
 3239SOL     OW10615   0.292   6.447   5.914
 3239SOL    HW110616   0.295   6.473   5.818
 3239SOL    HW210617   0.336   6.358   5.926
 3240SOL     OW10618   0.544   1.054   4.334
 3240SOL    HW110619   0.623   1.050   4.395
 3240SOL    HW210620   0.559   1.124   4.264
 3241SOL     OW10621   5.072   1.062   4.606
 3241SOL    HW110622   4.993   1.062   4.545
 3241SOL    HW210623   5.156   1.073   4.552
 3242SOL     OW10624   3.382   6.466   0.213
 3242SOL    HW110625   3.448   6.504   0.279
 3242SOL    HW210626   3.292   6.506   0.229
 3243SOL     OW10627   3.377   5.864   0.628
 3243SOL    HW110628   3.312   5.846   0.702
 3243SOL    HW210629   3.345   5.818   0.544
 3244SOL     OW10630   2.621   6.199   5.951
 3244SOL    HW110631   2.554   6.132   5.982
 3244SOL    HW210632   2.659   6.247   6.030
 3245SOL     OW10633   3.302   2.457   6.106
 3245SOL    HW110634   3.311   2.363   6.138
 3245SOL    HW210635   3.243   2.508   6.169
 3246SOL     OW10636   5.163   6.348   3.690
 3246SOL    HW110637   5.073   6.305   3.687
 3246SOL    HW210638   5.221   6.308   3.619
 3247SOL     OW10639   0.159   1.667   4.405
 3247SOL    HW110640   0.228   1.626   4.345
 3247SOL    HW210641   0.133   1.601   4.476
 3248SOL     OW10642   5.912   4.212   2.170
 3248SOL    HW110643   6.011   4.213   2.181
 3248SOL    HW210644   5.882   4.122   2.141
 3249SOL     OW10645   2.895   4.335   5.350
 3249SOL    HW110646   2.885   4.416   5.293
 3249SOL    HW210647   2.882   4.253   5.295
 3250SOL     OW10648   4.256   6.471   1.755
 3250SOL    HW110649   4.344   6.444   1.714
 3250SOL    HW210650   4.240   6.417   1.838
 3251SOL     OW10651   2.973   1.309   3.778
 3251SOL    HW110652   2.885   1.343   3.813
 3251SOL    HW210653   3.007   1.371   3.708
 3252SOL     OW10654   3.179   2.134   3.314
 3252SOL    HW110655   3.105   2.093   3.261
 3252SOL    HW210656   3.159   2.230   3.333
 3253SOL     OW10657   4.806   3.533   0.652
 3253SOL    HW110658   4.727   3.478   0.624
 3253SOL    HW210659   4.794   3.564   0.746
 3254SOL     OW10660   5.382   5.136   2.485
 3254SOL    HW110661   5.452   5.074   2.521
 3254SOL    HW210662   5.422   5.226   2.467
 3255SOL     OW10663   3.976   4.898   0.618
 3255SOL    HW110664   4.050   4.886   0.551
 3255SOL    HW210665   3.889   4.871   0.576
 3256SOL     OW10666   6.258   6.176   5.362
 3256SOL    HW110667   6.235   6.274   5.357
 3256SOL    HW210668   6.326   6.155   5.293
 3257SOL     OW10669   2.240   1.787   1.258
 3257SOL    HW110670   2.182   1.828   1.329
 3257SOL    HW210671   2.255   1.691   1.279
 3258SOL     OW10672   5.622   6.840   1.630
 3258SOL    HW110673   5.635   6.916   1.694
 3258SOL    HW210674   5.624   6.875   1.537
 3259SOL     OW10675   6.057   6.250   3.037
 3259SOL    HW110676   6.047   6.211   2.946
 3259SOL    HW210677   6.019   6.187   3.105
 3260SOL     OW10678   1.349   3.113   6.916
 3260SOL    HW110679   1.428   3.068   6.876
 3260SOL    HW210680   1.318   3.187   6.857
 3261SOL     OW10681   4.490   0.278   3.421
 3261SOL    HW110682   4.540   0.360   3.393
 3261SOL    HW210683   4.393   0.300   3.428
 3262SOL     OW10684   3.264   1.426   3.688
 3262SOL    HW110685   3.228   1.413   3.596
 3262SOL    HW210686   3.331   1.355   3.708
 3263SOL     OW10687   3.355   5.460   2.180
 3263SOL    HW110688   3.391   5.554   2.178
 3263SOL    HW210689   3.281   5.452   2.114
 3264SOL     OW10690   5.414   4.588   6.289
 3264SOL    HW110691   5.325   4.593   6.333
 3264SOL    HW210692   5.410   4.633   6.200
 3265SOL     OW10693   4.291   0.889   6.623
 3265SOL    HW110694   4.300   0.900   6.524
 3265SOL    HW210695   4.209   0.835   6.643
 3266SOL     OW10696   0.615   1.714   6.187
 3266SOL    HW110697   0.621   1.619   6.157
 3266SOL    HW210698   0.615   1.718   6.287
 3267SOL     OW10699   4.519   2.236   1.206
 3267SOL    HW110700   4.527   2.236   1.305
 3267SOL    HW210701   4.607   2.216   1.165
 3268SOL     OW10702   1.273   4.402   6.315
 3268SOL    HW110703   1.246   4.497   6.329
 3268SOL    HW210704   1.368   4.390   6.341
 3269SOL     OW10705   4.987   3.094   0.257
 3269SOL    HW110706   5.063   3.077   0.321
 3269SOL    HW210707   4.919   3.022   0.267
 3270SOL     OW10708   0.723   5.837   4.798
 3270SOL    HW110709   0.764   5.927   4.786
 3270SOL    HW210710   0.783   5.767   4.759
 3271SOL     OW10711   6.052   1.919   0.940
 3271SOL    HW110712   6.086   1.900   1.032
 3271SOL    HW210713   6.122   1.968   0.888
 3272SOL     OW10714   5.020   6.813   0.274
 3272SOL    HW110715   5.110   6.858   0.280
 3272SOL    HW210716   4.994   6.780   0.365
 3273SOL     OW10717   0.077   6.861   2.577
 3273SOL    HW110718   0.006   6.922   2.612
 3273SOL    HW210719   0.039   6.770   2.562
 3274SOL     OW10720   3.804   1.742   6.638
 3274SOL    HW110721   3.722   1.738   6.581
 3274SOL    HW210722   3.845   1.833   6.631
 3275SOL     OW10723   3.518   0.715   6.844
 3275SOL    HW110724   3.553   0.622   6.840
 3275SOL    HW210725   3.437   0.718   6.902
 3276SOL     OW10726   3.139   6.572   0.271
 3276SOL    HW110727   3.047   6.607   0.252
 3276SOL    HW210728   3.171   6.607   0.359
 3277SOL     OW10729   0.130   6.338   5.665
 3277SOL    HW110730   0.220   6.344   5.622
 3277SOL    HW210731   0.064   6.301   5.600
 3278SOL     OW10732   1.724   1.159   0.596
 3278SOL    HW110733   1.709   1.104   0.514
 3278SOL    HW210734   1.710   1.256   0.575
 3279SOL     OW10735   2.142   0.108   1.101
 3279SOL    HW110736   2.079   0.160   1.044
 3279SOL    HW210737   2.101   0.093   1.191
 3280SOL     OW10738   1.812   5.395   5.426
 3280SOL    HW110739   1.783   5.484   5.461
 3280SOL    HW210740   1.887   5.408   5.361
 3281SOL     OW10741   2.893   5.855   0.116
 3281SOL    HW110742   2.870   5.803   0.198
 3281SOL    HW210743   2.926   5.793   0.045
 3282SOL     OW10744   1.822   5.399   2.456
 3282SOL    HW110745   1.724   5.399   2.436
 3282SOL    HW210746   1.861   5.487   2.429
 3283SOL     OW10747   1.973   6.770   3.648
 3283SOL    HW110748   2.053   6.748   3.704
 3283SOL    HW210749   1.940   6.686   3.604
 3284SOL     OW10750   0.124   4.214   6.189
 3284SOL    HW110751   0.073   4.205   6.275
 3284SOL    HW210752   0.208   4.264   6.204
 3285SOL     OW10753   6.686   2.465   4.664
 3285SOL    HW110754   6.732   2.536   4.718
 3285SOL    HW210755   6.750   2.392   4.642
 3286SOL     OW10756   3.601   4.593   5.622
 3286SOL    HW110757   3.519   4.607   5.566
 3286SOL    HW210758   3.643   4.505   5.599
 3287SOL     OW10759   0.515   5.555   1.641
 3287SOL    HW110760   0.547   5.463   1.660
 3287SOL    HW210761   0.555   5.587   1.555
 3288SOL     OW10762   1.545   6.636   0.154
 3288SOL    HW110763   1.619   6.642   0.221
 3288SOL    HW210764   1.487   6.557   0.176
 3289SOL     OW10765   1.290   5.582   4.398
 3289SOL    HW110766   1.342   5.647   4.452
 3289SOL    HW210767   1.244   5.517   4.458
 3290SOL     OW10768   6.899   5.695   1.981
 3290SOL    HW110769   6.893   5.602   1.943
 3290SOL    HW210770   6.812   5.718   2.026
 3291SOL     OW10771   1.636   0.050   1.477
 3291SOL    HW110772   1.669   0.144   1.483
 3291SOL    HW210773   1.591   0.036   1.389
 3292SOL     OW10774   0.511   5.741   5.512
 3292SOL    HW110775   0.591   5.788   5.475
 3292SOL    HW210776   0.537   5.690   5.594
 3293SOL     OW10777   6.529   0.524   3.166
 3293SOL    HW110778   6.460   0.452   3.154
 3293SOL    HW210779   6.612   0.498   3.116
 3294SOL     OW10780   0.681   0.223   6.846
 3294SOL    HW110781   0.768   0.188   6.880
 3294SOL    HW210782   0.648   0.166   6.772
 3295SOL     OW10783   1.339   2.283   6.251
 3295SOL    HW110784   1.438   2.281   6.267
 3295SOL    HW210785   1.304   2.374   6.272
 3296SOL     OW10786   0.726   6.541   1.961
 3296SOL    HW110787   0.809   6.537   1.905
 3296SOL    HW210788   0.667   6.614   1.927
 3297SOL     OW10789   3.042   2.378   5.846
 3297SOL    HW110790   3.071   2.391   5.751
 3297SOL    HW210791   3.046   2.280   5.869
 3298SOL     OW10792   5.813   3.405   3.253
 3298SOL    HW110793   5.819   3.455   3.167
 3298SOL    HW210794   5.725   3.357   3.258
 3299SOL     OW10795   1.056   0.516   4.907
 3299SOL    HW110796   1.020   0.543   4.818
 3299SOL    HW210797   0.993   0.547   4.979
 3300SOL     OW10798   6.520   0.171   4.466
 3300SOL    HW110799   6.493   0.080   4.434
 3300SOL    HW210800   6.598   0.203   4.412
 3301SOL     OW10801   0.879   4.181   2.955
 3301SOL    HW110802   0.814   4.229   3.013
 3301SOL    HW210803   0.948   4.245   2.921
 3302SOL     OW10804   0.825   4.980   3.925
 3302SOL    HW110805   0.767   4.925   3.866
 3302SOL    HW210806   0.768   5.039   3.983
 3303SOL     OW10807   3.400   3.875   3.556
 3303SOL    HW110808   3.303   3.874   3.579
 3303SOL    HW210809   3.445   3.951   3.604
 3304SOL     OW10810   0.902   6.694   3.779
 3304SOL    HW110811   0.864   6.607   3.810
 3304SOL    HW210812   0.917   6.753   3.859
 3305SOL     OW10813   1.221   0.818   1.644
 3305SOL    HW110814   1.190   0.794   1.552
 3305SOL    HW210815   1.169   0.896   1.677
 3306SOL     OW10816   1.044   3.706   2.429
 3306SOL    HW110817   1.002   3.777   2.485
 3306SOL    HW210818   0.980   3.630   2.417
 3307SOL     OW10819   0.738   6.157   0.617
 3307SOL    HW110820   0.639   6.144   0.607
 3307SOL    HW210821   0.757   6.196   0.708
 3308SOL     OW10822   5.106   6.025   0.700
 3308SOL    HW110823   5.072   5.951   0.642
 3308SOL    HW210824   5.037   6.048   0.769
 3309SOL     OW10825   1.667   5.800   2.737
 3309SOL    HW110826   1.568   5.782   2.743
 3309SOL    HW210827   1.714   5.750   2.809
 3310SOL     OW10828   1.102   6.769   1.642
 3310SOL    HW110829   1.106   6.869   1.645
 3310SOL    HW210830   1.165   6.731   1.710
 3311SOL     OW10831   3.748   6.306   0.725
 3311SOL    HW110832   3.661   6.260   0.707
 3311SOL    HW210833   3.822   6.255   0.682
 3312SOL     OW10834   2.218   3.096   0.070
 3312SOL    HW110835   2.276   3.147   0.134
 3312SOL    HW210836   2.207   3.149   7.006
 3313SOL     OW10837   6.680   5.790   5.014
 3313SOL    HW110838   6.734   5.826   4.937
 3313SOL    HW210839   6.625   5.713   4.982
 3314SOL     OW10840   0.863   3.382   6.372
 3314SOL    HW110841   0.847   3.437   6.454
 3314SOL    HW210842   0.935   3.423   6.317
 3315SOL     OW10843   6.725   3.442   2.794
 3315SOL    HW110844   6.738   3.399   2.884
 3315SOL    HW210845   6.652   3.394   2.745
 3316SOL     OW10846   4.600   0.553   0.495
 3316SOL    HW110847   4.603   0.597   0.584
 3316SOL    HW210848   4.584   0.455   0.507
 3317SOL     OW10849   4.660   2.377   1.689
 3317SOL    HW110850   4.591   2.383   1.761
 3317SOL    HW210851   4.721   2.300   1.708
 3318SOL     OW10852   2.301   5.574   5.176
 3318SOL    HW110853   2.308   5.475   5.161
 3318SOL    HW210854   2.322   5.595   5.271
 3319SOL     OW10855   0.095   5.872   6.416
 3319SOL    HW110856   0.003   5.851   6.450
 3319SOL    HW210857   0.105   5.835   6.324
 3320SOL     OW10858   0.232   2.164   5.702
 3320SOL    HW110859   0.194   2.123   5.784
 3320SOL    HW210860   0.232   2.098   5.627
 3321SOL     OW10861   3.277   4.094   3.823
 3321SOL    HW110862   3.243   4.045   3.743
 3321SOL    HW210863   3.214   4.082   3.899
 3322SOL     OW10864   4.811   1.971   0.956
 3322SOL    HW110865   4.773   2.063   0.958
 3322SOL    HW210866   4.882   1.965   0.887
 3323SOL     OW10867   2.742   5.115   0.175
 3323SOL    HW110868   2.787   5.137   0.262
 3323SOL    HW210869   2.737   5.016   0.164
 3324SOL     OW10870   0.478   2.844   0.390
 3324SOL    HW110871   0.572   2.811   0.389
 3324SOL    HW210872   0.459   2.886   0.479
 3325SOL     OW10873   1.797   3.200   0.330
 3325SOL    HW110874   1.763   3.149   0.252
 3325SOL    HW210875   1.857   3.141   0.385
 3326SOL     OW10876   6.477   0.622   1.745
 3326SOL    HW110877   6.411   0.547   1.748
 3326SOL    HW210878   6.442   0.698   1.800
 3327SOL     OW10879   2.988   6.970   2.039
 3327SOL    HW110880   3.037   0.011   2.101
 3327SOL    HW210881   3.054   6.922   1.981
 3328SOL     OW10882   4.291   0.728   2.889
 3328SOL    HW110883   4.275   0.630   2.875
 3328SOL    HW210884   4.259   0.779   2.809
 3329SOL     OW10885   5.207   1.148   5.759
 3329SOL    HW110886   5.176   1.088   5.685
 3329SOL    HW210887   5.279   1.209   5.726
 3330SOL     OW10888   6.676   5.389   3.239
 3330SOL    HW110889   6.577   5.397   3.253
 3330SOL    HW210890   6.699   5.421   3.147
 3331SOL     OW10891   2.121   3.458   2.933
 3331SOL    HW110892   2.063   3.530   2.896
 3331SOL    HW210893   2.177   3.496   3.007
 3332SOL     OW10894   3.339   4.982   1.041
 3332SOL    HW110895   3.418   4.957   1.098
 3332SOL    HW210896   3.370   5.000   0.948
 3333SOL     OW10897   2.618   3.214   1.558
 3333SOL    HW110898   2.684   3.289   1.558
 3333SOL    HW210899   2.664   3.129   1.584
 3334SOL     OW10900   1.956   1.981   1.834
 3334SOL    HW110901   1.901   2.026   1.905
 3334SOL    HW210902   1.977   2.047   1.762
 3335SOL     OW10903   3.811   3.997   5.150
 3335SOL    HW110904   3.717   3.987   5.118
 3335SOL    HW210905   3.849   3.907   5.170
 3336SOL     OW10906   5.067   5.305   4.405
 3336SOL    HW110907   5.163   5.278   4.401
 3336SOL    HW210908   5.015   5.237   4.456
 3337SOL     OW10909   3.129   2.925   2.513
 3337SOL    HW110910   3.203   2.892   2.572
 3337SOL    HW210911   3.043   2.882   2.539
 3338SOL     OW10912   2.759   2.534   1.666
 3338SOL    HW110913   2.772   2.454   1.607
 3338SOL    HW210914   2.820   2.528   1.745
 3339SOL     OW10915   1.936   0.160   6.572
 3339SOL    HW110916   1.971   0.183   6.481
 3339SOL    HW210917   2.009   0.120   6.627
 3340SOL     OW10918   3.669   0.899   4.371
 3340SOL    HW110919   3.622   0.813   4.389
 3340SOL    HW210920   3.613   0.975   4.403
 3341SOL     OW10921   1.381   4.314   2.458
 3341SOL    HW110922   1.377   4.218   2.485
 3341SOL    HW210923   1.344   4.371   2.531
 3342SOL     OW10924   6.351   0.876   2.729
 3342SOL    HW110925   6.441   0.898   2.768
 3342SOL    HW210926   6.314   0.795   2.775
 3343SOL     OW10927   4.628   5.206   0.201
 3343SOL    HW110928   4.598   5.199   0.296
 3343SOL    HW210929   4.610   5.120   0.154
 3344SOL     OW10930   0.646   3.235   2.302
 3344SOL    HW110931   0.609   3.298   2.370
 3344SOL    HW210932   0.672   3.149   2.346
 3345SOL     OW10933   5.515   5.459   6.680
 3345SOL    HW110934   5.529   5.379   6.739
 3345SOL    HW210935   5.470   5.531   6.732
 3346SOL     OW10936   1.859   1.252   0.210
 3346SOL    HW110937   1.781   1.283   0.156
 3346SOL    HW210938   1.927   1.325   0.215
 3347SOL     OW10939   0.432   3.801   5.967
 3347SOL    HW110940   0.383   3.725   6.012
 3347SOL    HW210941   0.368   3.875   5.949
 3348SOL     OW10942   3.142   4.307   5.981
 3348SOL    HW110943   3.111   4.306   5.886
 3348SOL    HW210944   3.241   4.320   5.984
 3349SOL     OW10945   1.866   5.653   3.233
 3349SOL    HW110946   1.937   5.647   3.163
 3349SOL    HW210947   1.895   5.603   3.315
 3350SOL     OW10948   2.115   5.068   4.272
 3350SOL    HW110949   2.086   4.977   4.301
 3350SOL    HW210950   2.181   5.105   4.337
 3351SOL     OW10951   5.299   1.304   1.453
 3351SOL    HW110952   5.398   1.291   1.459
 3351SOL    HW210953   5.267   1.350   1.536
 3352SOL     OW10954   5.953   1.250   0.202
 3352SOL    HW110955   5.959   1.318   0.129
 3352SOL    HW210956   5.938   1.160   0.162
 3353SOL     OW10957   4.057   0.486   0.605
 3353SOL    HW110958   4.090   0.566   0.656
 3353SOL    HW210959   4.077   0.403   0.658
 3354SOL     OW10960   3.100   4.046   6.044
 3354SOL    HW110961   3.114   4.144   6.035
 3354SOL    HW210962   3.139   3.999   5.965
 3355SOL     OW10963   1.746   0.173   5.105
 3355SOL    HW110964   1.686   0.147   5.028
 3355SOL    HW210965   1.730   0.110   5.181
 3356SOL     OW10966   1.927   0.641   6.156
 3356SOL    HW110967   1.984   0.577   6.207
 3356SOL    HW210968   1.885   0.593   6.079
 3357SOL     OW10969   3.618   2.859   2.323
 3357SOL    HW110970   3.524   2.891   2.311
 3357SOL    HW210971   3.634   2.779   2.265
 3358SOL     OW10972   6.993   1.234   1.642
 3358SOL    HW110973   0.069   1.206   1.630
 3358SOL    HW210974   6.963   1.284   1.562
 3359SOL     OW10975   0.637   6.873   5.000
 3359SOL    HW110976   0.545   6.859   4.964
 3359SOL    HW210977   0.700   6.893   4.925
 3360SOL     OW10978   1.994   4.342   4.222
 3360SOL    HW110979   2.083   4.297   4.230
 3360SOL    HW210980   1.992   4.398   4.140
 3361SOL     OW10981   6.192   6.975   5.256
 3361SOL    HW110982   6.117   0.022   5.260
 3361SOL    HW210983   6.277   0.003   5.232
 3362SOL     OW10984   3.330   0.469   4.233
 3362SOL    HW110985   3.315   0.390   4.174
 3362SOL    HW210986   3.390   0.534   4.187
 3363SOL     OW10987   5.889   3.875   0.307
 3363SOL    HW110988   5.940   3.825   0.377
 3363SOL    HW210989   5.870   3.814   0.230
 3364SOL     OW10990   1.593   3.749   3.410
 3364SOL    HW110991   1.592   3.667   3.353
 3364SOL    HW210992   1.550   3.825   3.361
 3365SOL     OW10993   1.442   3.868   3.233
 3365SOL    HW110994   1.419   3.961   3.207
 3365SOL    HW210995   1.415   3.805   3.160
 3366SOL     OW10996   5.596   3.353   4.910
 3366SOL    HW110997   5.562   3.331   4.819
 3366SOL    HW210998   5.692   3.382   4.903
 3367SOL     OW10999   3.131   3.914   3.579
 3367SOL    HW111000   3.066   3.869   3.640
 3367SOL    HW211001   3.090   3.920   3.487
 3368SOL     OW11002   2.092   0.313   2.432
 3368SOL    HW111003   2.104   0.333   2.335
 3368SOL    HW211004   2.003   0.346   2.462
 3369SOL     OW11005   5.281   2.256   0.944
 3369SOL    HW111006   5.246   2.167   0.916
 3369SOL    HW211007   5.233   2.328   0.894
 3370SOL     OW11008   0.492   5.592   2.927
 3370SOL    HW111009   0.523   5.656   2.856
 3370SOL    HW211010   0.512   5.630   3.017
 3371SOL     OW11011   2.454   2.652   1.997
 3371SOL    HW111012   2.481   2.586   1.927
 3371SOL    HW211013   2.527   2.658   2.066
 3372SOL     OW11014   6.699   4.033   2.896
 3372SOL    HW111015   6.604   4.003   2.900
 3372SOL    HW211016   6.711   4.096   2.819
 3373SOL     OW11017   0.295   3.369   2.026
 3373SOL    HW111018   0.263   3.285   1.981
 3373SOL    HW211019   0.335   3.431   1.958
 3374SOL     OW11020   0.378   6.917   4.157
 3374SOL    HW111021   0.447   6.956   4.218
 3374SOL    HW211022   0.397   6.820   4.142
 3375SOL     OW11023   0.229   5.767   5.777
 3375SOL    HW111024   0.264   5.681   5.813
 3375SOL    HW211025   0.132   5.776   5.800
 3376SOL     OW11026   3.334   2.894   4.394
 3376SOL    HW111027   3.286   2.915   4.479
 3376SOL    HW211028   3.274   2.839   4.335
 3377SOL     OW11029   6.703   5.111   3.887
 3377SOL    HW111030   6.661   5.024   3.913
 3377SOL    HW211031   6.647   5.156   3.818
 3378SOL     OW11032   1.297   6.687   0.353
 3378SOL    HW111033   1.198   6.686   0.336
 3378SOL    HW211034   1.346   6.680   0.266
 3379SOL     OW11035   6.759   4.285   3.425
 3379SOL    HW111036   6.808   4.312   3.342
 3379SOL    HW211037   6.692   4.355   3.448
 3380SOL     OW11038   2.675   4.522   0.357
 3380SOL    HW111039   2.589   4.570   0.374
 3380SOL    HW211040   2.673   4.434   0.404
 3381SOL     OW11041   2.324   3.447   5.887
 3381SOL    HW111042   2.316   3.386   5.809
 3381SOL    HW211043   2.343   3.540   5.855
 3382SOL     OW11044   6.788   3.590   0.340
 3382SOL    HW111045   6.801   3.660   0.410
 3382SOL    HW211046   6.810   3.628   0.250
 3383SOL     OW11047   4.200   4.917   0.401
 3383SOL    HW111048   4.217   4.961   0.312
 3383SOL    HW211049   4.161   4.826   0.386
 3384SOL     OW11050   2.790   3.410   6.865
 3384SOL    HW111051   2.779   3.322   6.819
 3384SOL    HW211052   2.840   3.397   6.951
 3385SOL     OW11053   6.748   2.338   4.019
 3385SOL    HW111054   6.772   2.333   3.922
 3385SOL    HW211055   6.808   2.402   4.065
 3386SOL     OW11056   0.200   5.156   4.843
 3386SOL    HW111057   0.133   5.195   4.781
 3386SOL    HW211058   0.291   5.191   4.822
 3387SOL     OW11059   6.022   1.324   3.215
 3387SOL    HW111060   5.922   1.325   3.202
 3387SOL    HW211061   6.065   1.383   3.147
 3388SOL     OW11062   6.782   3.797   0.894
 3388SOL    HW111063   6.858   3.790   0.959
 3388SOL    HW211064   6.817   3.783   0.801
 3389SOL     OW11065   5.436   5.726   6.484
 3389SOL    HW111066   5.522   5.712   6.434
 3389SOL    HW211067   5.457   5.739   6.581
 3390SOL     OW11068   3.133   5.557   6.601
 3390SOL    HW111069   3.181   5.641   6.627
 3390SOL    HW211070   3.198   5.489   6.570
 3391SOL     OW11071   5.830   4.072   4.001
 3391SOL    HW111072   5.787   3.986   4.027
 3391SOL    HW211073   5.811   4.092   3.904
 3392SOL     OW11074   4.927   0.020   5.967
 3392SOL    HW111075   4.839   7.012   6.006
 3392SOL    HW211076   5.000   6.985   6.008
 3393SOL     OW11077   4.019   6.217   0.637
 3393SOL    HW111078   4.053   6.163   0.713
 3393SOL    HW211079   4.039   6.314   0.652
 3394SOL     OW11080   2.656   5.415   1.713
 3394SOL    HW111081   2.638   5.318   1.700
 3394SOL    HW211082   2.605   5.468   1.646
 3395SOL     OW11083   2.288   6.883   3.342
 3395SOL    HW111084   2.251   6.790   3.352
 3395SOL    HW211085   2.355   6.884   3.267
 3396SOL     OW11086   4.506   0.453   4.323
 3396SOL    HW111087   4.547   0.385   4.384
 3396SOL    HW211088   4.572   0.527   4.308
 3397SOL     OW11089   2.214   5.643   6.573
 3397SOL    HW111090   2.180   5.713   6.510
 3397SOL    HW211091   2.160   5.559   6.562
 3398SOL     OW11092   6.296   2.356   4.988
 3398SOL    HW111093   6.338   2.352   4.897
 3398SOL    HW211094   6.339   2.430   5.041
 3399SOL     OW11095   6.476   6.526   1.947
 3399SOL    HW111096   6.399   6.466   1.969
 3399SOL    HW211097   6.516   6.562   2.031
 3400SOL     OW11098   4.287   2.999   5.747
 3400SOL    HW111099   4.292   2.960   5.655
 3400SOL    HW211100   4.270   3.097   5.741
 3401SOL     OW11101   6.716   3.911   5.351
 3401SOL    HW111102   6.632   3.956   5.320
 3401SOL    HW211103   6.754   3.857   5.276
 3402SOL     OW11104   6.812   3.606   0.700
 3402SOL    HW111105   6.721   3.586   0.663
 3402SOL    HW211106   6.814   3.583   0.797
 3403SOL     OW11107   5.390   0.076   6.797
 3403SOL    HW111108   5.335   0.003   6.757
 3403SOL    HW211109   5.332   0.138   6.849
 3404SOL     OW11110   5.041   4.105   4.640
 3404SOL    HW111111   5.138   4.099   4.666
 3404SOL    HW211112   5.019   4.200   4.617
 3405SOL     OW11113   4.518   6.070   0.218
 3405SOL    HW111114   4.455   5.993   0.225
 3405SOL    HW211115   4.611   6.039   0.239
 3406SOL     OW11116   2.830   5.632   1.614
 3406SOL    HW111117   2.753   5.692   1.636
 3406SOL    HW211118   2.806   5.537   1.636
 3407SOL     OW11119   0.953   4.479   6.586
 3407SOL    HW111120   0.952   4.381   6.567
 3407SOL    HW211121   0.878   4.502   6.649
 3408SOL     OW11122   5.085   0.391   3.668
 3408SOL    HW111123   5.161   0.348   3.716
 3408SOL    HW211124   5.108   0.401   3.571
 3409SOL     OW11125   4.090   0.742   0.774
 3409SOL    HW111126   4.021   0.710   0.839
 3409SOL    HW211127   4.052   0.817   0.719
 3410SOL     OW11128   6.190   0.445   3.316
 3410SOL    HW111129   6.286   0.421   3.307
 3410SOL    HW211130   6.168   0.519   3.252
 3411SOL     OW11131   6.623   3.119   5.761
 3411SOL    HW111132   6.577   3.190   5.814
 3411SOL    HW211133   6.676   3.060   5.822
 3412SOL     OW11134   5.735   3.233   2.149
 3412SOL    HW111135   5.764   3.304   2.214
 3412SOL    HW211136   5.761   3.143   2.184
 3413SOL     OW11137   6.882   1.341   0.405
 3413SOL    HW111138   6.969   1.365   0.447
 3413SOL    HW211139   6.859   1.408   0.334
 3414SOL     OW11140   3.407   3.244   1.205
 3414SOL    HW111141   3.451   3.207   1.123
 3414SOL    HW211142   3.419   3.181   1.281
 3415SOL     OW11143   2.431   1.415   5.808
 3415SOL    HW111144   2.388   1.503   5.788
 3415SOL    HW211145   2.531   1.424   5.804
 3416SOL     OW11146   6.925   0.076   6.601
 3416SOL    HW111147   6.854   0.123   6.653
 3416SOL    HW211148   6.928   0.112   6.508
 3417SOL     OW11149   6.049   6.707   3.297
 3417SOL    HW111150   6.126   6.749   3.249
 3417SOL    HW211151   6.076   6.688   3.392
 3418SOL     OW11152   4.051   5.051   0.836
 3418SOL    HW111153   4.026   4.988   0.762
 3418SOL    HW211154   3.997   5.030   0.917
 3419SOL     OW11155   2.641   5.546   5.508
 3419SOL    HW111156   2.600   5.457   5.529
 3419SOL    HW211157   2.702   5.573   5.582
 3420SOL     OW11158   4.678   1.528   2.157
 3420SOL    HW111159   4.611   1.483   2.216
 3420SOL    HW211160   4.704   1.616   2.197
 3421SOL     OW11161   0.152   2.218   5.089
 3421SOL    HW111162   0.242   2.262   5.081
 3421SOL    HW211163   0.084   2.286   5.118
 3422SOL     OW11164   2.254   6.135   0.843
 3422SOL    HW111165   2.217   6.225   0.819
 3422SOL    HW211166   2.333   6.115   0.786
 3423SOL     OW11167   1.966   4.753   5.552
 3423SOL    HW111168   2.002   4.726   5.462
 3423SOL    HW211169   2.036   4.802   5.602
 3424SOL     OW11170   5.219   1.384   1.897
 3424SOL    HW111171   5.237   1.371   1.800
 3424SOL    HW211172   5.145   1.451   1.909
 3425SOL     OW11173   6.665   3.350   6.433
 3425SOL    HW111174   6.757   3.352   6.473
 3425SOL    HW211175   6.658   3.419   6.361
 3426SOL     OW11176   6.695   3.274   6.826
 3426SOL    HW111177   6.681   3.232   6.736
 3426SOL    HW211178   6.772   3.230   6.871
 3427SOL     OW11179   1.097   2.204   0.338
 3427SOL    HW111180   1.002   2.183   0.315
 3427SOL    HW211181   1.120   2.163   0.426
 3428SOL     OW11182   4.406   6.513   4.724
 3428SOL    HW111183   4.353   6.443   4.676
 3428SOL    HW211184   4.385   6.509   4.822
 3429SOL     OW11185   4.581   6.678   0.920
 3429SOL    HW111186   4.680   6.665   0.929
 3429SOL    HW211187   4.561   6.774   0.905
 3430SOL     OW11188   2.837   3.970   5.942
 3430SOL    HW111189   2.761   4.035   5.941
 3430SOL    HW211190   2.923   4.020   5.955
 3431SOL     OW11191   0.346   4.916   2.458
 3431SOL    HW111192   0.437   4.886   2.430
 3431SOL    HW211193   0.282   4.839   2.449
 3432SOL     OW11194   0.334   4.657   0.173
 3432SOL    HW111195   0.360   4.561   0.188
 3432SOL    HW211196   0.397   4.698   0.108
 3433SOL     OW11197   2.411   1.161   6.751
 3433SOL    HW111198   2.466   1.104   6.691
 3433SOL    HW211199   2.330   1.192   6.702
 3434SOL     OW11200   3.708   2.591   1.600
 3434SOL    HW111201   3.649   2.658   1.644
 3434SOL    HW211202   3.667   2.500   1.609
 3435SOL     OW11203   1.435   1.591   1.466
 3435SOL    HW111204   1.508   1.523   1.453
 3435SOL    HW211205   1.473   1.671   1.513
 3436SOL     OW11206   3.384   6.721   6.217
 3436SOL    HW111207   3.412   6.726   6.313
 3436SOL    HW211208   3.293   6.760   6.207
 3437SOL     OW11209   1.401   0.013   6.602
 3437SOL    HW111210   1.462   0.090   6.582
 3437SOL    HW211211   1.454   6.958   6.641
 3438SOL     OW11212   2.232   3.735   0.939
 3438SOL    HW111213   2.243   3.834   0.947
 3438SOL    HW211214   2.284   3.701   0.861
 3439SOL     OW11215   2.508   5.576   1.499
 3439SOL    HW111216   2.495   5.675   1.500
 3439SOL    HW211217   2.513   5.544   1.404
 3440SOL     OW11218   3.610   3.789   5.347
 3440SOL    HW111219   3.517   3.754   5.349
 3440SOL    HW211220   3.616   3.870   5.405
 3441SOL     OW11221   5.756   4.940   5.869
 3441SOL    HW111222   5.737   4.940   5.967
 3441SOL    HW211223   5.821   4.867   5.847
 3442SOL     OW11224   2.217   3.245   1.199
 3442SOL    HW111225   2.155   3.243   1.277
 3442SOL    HW211226   2.243   3.151   1.175
 3443SOL     OW11227   0.195   6.028   2.291
 3443SOL    HW111228   0.293   6.015   2.277
 3443SOL    HW211229   0.146   5.945   2.264
 3444SOL     OW11230   6.808   3.913   5.609
 3444SOL    HW111231   6.904   3.897   5.629
 3444SOL    HW211232   6.795   3.919   5.510
 3445SOL     OW11233   6.358   4.950   4.251
 3445SOL    HW111234   6.296   5.028   4.265
 3445SOL    HW211235   6.443   4.982   4.209
 3446SOL     OW11236   4.536   0.876   1.736
 3446SOL    HW111237   4.506   0.859   1.642
 3446SOL    HW211238   4.459   0.862   1.799
 3447SOL     OW11239   5.558   0.656   6.253
 3447SOL    HW111240   5.645   0.702   6.269
 3447SOL    HW211241   5.502   0.711   6.191
 3448SOL     OW11242   1.796   4.380   5.283
 3448SOL    HW111243   1.730   4.369   5.208
 3448SOL    HW211244   1.796   4.475   5.313
 3449SOL     OW11245   0.979   4.472   5.507
 3449SOL    HW111246   0.933   4.516   5.583
 3449SOL    HW211247   1.041   4.537   5.462
 3450SOL     OW11248   2.413   0.065   1.402
 3450SOL    HW111249   2.316   0.054   1.424
 3450SOL    HW211250   2.425   0.146   1.344
 3451SOL     OW11251   1.640   2.031   1.469
 3451SOL    HW111252   1.680   2.099   1.530
 3451SOL    HW211253   1.545   2.054   1.450
 3452SOL     OW11254   4.960   1.145   5.087
 3452SOL    HW111255   4.934   1.122   4.993
 3452SOL    HW211256   5.043   1.201   5.086
 3453SOL     OW11257   4.154   6.314   6.774
 3453SOL    HW111258   4.142   6.285   6.869
 3453SOL    HW211259   4.081   6.379   6.750
 3454SOL     OW11260   0.297   3.235   1.515
 3454SOL    HW111261   0.395   3.234   1.496
 3454SOL    HW211262   0.279   3.290   1.597
 3455SOL     OW11263   0.493   3.545   6.183
 3455SOL    HW111264   0.489   3.459   6.235
 3455SOL    HW211265   0.446   3.533   6.096
 3456SOL     OW11266   4.844   5.358   3.594
 3456SOL    HW111267   4.907   5.291   3.634
 3456SOL    HW211268   4.890   5.410   3.523
 3457SOL     OW11269   3.633   4.247   6.272
 3457SOL    HW111270   3.599   4.186   6.344
 3457SOL    HW211271   3.574   4.239   6.191
 3458SOL     OW11272   4.385   1.298   2.543
 3458SOL    HW111273   4.290   1.275   2.562
 3458SOL    HW211274   4.421   1.354   2.618
 3459SOL     OW11275   5.470   5.830   2.254
 3459SOL    HW111276   5.461   5.843   2.155
 3459SOL    HW211277   5.562   5.856   2.282
 3460SOL     OW11278   3.611   1.856   4.606
 3460SOL    HW111279   3.709   1.873   4.608
 3460SOL    HW211280   3.591   1.767   4.647
 3461SOL     OW11281   5.713   5.057   4.907
 3461SOL    HW111282   5.793   5.080   4.961
 3461SOL    HW211283   5.663   5.141   4.884
 3462SOL     OW11284   1.186   3.861   6.483
 3462SOL    HW111285   1.092   3.827   6.484
 3462SOL    HW211286   1.247   3.789   6.448
 3463SOL     OW11287   5.517   4.057   0.125
 3463SOL    HW111288   5.529   3.983   0.190
 3463SOL    HW211289   5.478   4.137   0.172
 3464SOL     OW11290   0.287   4.318   4.404
 3464SOL    HW111291   0.347   4.370   4.343
 3464SOL    HW211292   0.318   4.328   4.499
 3465SOL     OW11293   0.853   1.737   2.644
 3465SOL    HW111294   0.822   1.652   2.688
 3465SOL    HW211295   0.774   1.795   2.626
 3466SOL     OW11296   0.093   3.258   4.685
 3466SOL    HW111297   0.053   3.195   4.618
 3466SOL    HW211298   0.156   3.208   4.744
 3467SOL     OW11299   1.858   2.366   5.992
 3467SOL    HW111300   1.950   2.373   6.031
 3467SOL    HW211301   1.793   2.417   6.049
 3468SOL     OW11302   3.948   6.081   2.536
 3468SOL    HW111303   4.015   6.134   2.587
 3468SOL    HW211304   3.867   6.138   2.518
 3469SOL     OW11305   5.380   3.427   1.327
 3469SOL    HW111306   5.315   3.464   1.393
 3469SOL    HW211307   5.389   3.329   1.341
 3470SOL     OW11308   0.620   5.600   0.640
 3470SOL    HW111309   0.565   5.527   0.681
 3470SOL    HW211310   0.649   5.573   0.548
 3471SOL     OW11311   4.447   0.499   4.840
 3471SOL    HW111312   4.475   0.417   4.791
 3471SOL    HW211313   4.403   0.473   4.926
 3472SOL     OW11314   4.292   0.984   4.994
 3472SOL    HW111315   4.375   0.959   5.043
 3472SOL    HW211316   4.306   0.969   4.896
 3473SOL     OW11317   4.479   6.469   4.232
 3473SOL    HW111318   4.435   6.541   4.286
 3473SOL    HW211319   4.468   6.382   4.279
 3474SOL     OW11320   5.344   4.289   1.107
 3474SOL    HW111321   5.256   4.323   1.074
 3474SOL    HW211322   5.418   4.344   1.067
 3475SOL     OW11323   1.820   6.505   4.977
 3475SOL    HW111324   1.836   6.535   5.071
 3475SOL    HW211325   1.907   6.481   4.935
 3476SOL     OW11326   4.804   1.469   4.666
 3476SOL    HW111327   4.819   1.568   4.668
 3476SOL    HW211328   4.707   1.450   4.682
 3477SOL     OW11329   4.368   5.603   1.725
 3477SOL    HW111330   4.460   5.586   1.762
 3477SOL    HW211331   4.376   5.647   1.635
 3478SOL     OW11332   4.204   4.772   6.667
 3478SOL    HW111333   4.292   4.756   6.713
 3478SOL    HW211334   4.220   4.818   6.580
 3479SOL     OW11335   1.416   0.397   1.822
 3479SOL    HW111336   1.503   0.444   1.830
 3479SOL    HW211337   1.344   0.450   1.866
 3480SOL     OW11338   1.357   0.437   4.193
 3480SOL    HW111339   1.375   0.364   4.128
 3480SOL    HW211340   1.426   0.509   4.183
 3481SOL     OW11341   2.522   6.727   6.770
 3481SOL    HW111342   2.578   6.796   6.725
 3481SOL    HW211343   2.519   6.644   6.713
 3482SOL     OW11344   0.803   1.802   1.682
 3482SOL    HW111345   0.703   1.801   1.686
 3482SOL    HW211346   0.832   1.843   1.595
 3483SOL     OW11347   4.369   1.381   0.886
 3483SOL    HW111348   4.441   1.358   0.821
 3483SOL    HW211349   4.340   1.476   0.871
 3484SOL     OW11350   3.236   2.915   4.109
 3484SOL    HW111351   3.172   2.845   4.078
 3484SOL    HW211352   3.305   2.931   4.038
 3485SOL     OW11353   6.843   1.636   4.623
 3485SOL    HW111354   6.883   1.725   4.605
 3485SOL    HW211355   6.907   1.564   4.596
 3486SOL     OW11356   4.910   1.239   3.375
 3486SOL    HW111357   4.878   1.224   3.282
 3486SOL    HW211358   4.885   1.162   3.433
 3487SOL     OW11359   0.563   0.749   0.354
 3487SOL    HW111360   0.495   0.677   0.345
 3487SOL    HW211361   0.654   0.708   0.365
 3488SOL     OW11362   5.981   3.694   3.975
 3488SOL    HW111363   6.034   3.627   3.923
 3488SOL    HW211364   5.884   3.668   3.974
 3489SOL     OW11365   2.138   6.438   0.424
 3489SOL    HW111366   2.082   6.355   0.419
 3489SOL    HW211367   2.090   6.513   0.379
 3490SOL     OW11368   4.706   2.503   1.101
 3490SOL    HW111369   4.713   2.443   1.181
 3490SOL    HW211370   4.616   2.491   1.059
 3491SOL     OW11371   0.293   2.879   5.140
 3491SOL    HW111372   0.252   2.788   5.152
 3491SOL    HW211373   0.390   2.869   5.121
 3492SOL     OW11374   5.150   4.967   6.420
 3492SOL    HW111375   5.123   5.056   6.382
 3492SOL    HW211376   5.198   4.914   6.349
 3493SOL     OW11377   0.424   4.985   1.092
 3493SOL    HW111378   0.327   4.958   1.095
 3493SOL    HW211379   0.477   4.912   1.049
 3494SOL     OW11380   3.134   6.254   1.091
 3494SOL    HW111381   3.203   6.207   1.146
 3494SOL    HW211382   3.159   6.248   0.994
 3495SOL     OW11383   5.387   4.153   0.545
 3495SOL    HW111384   5.343   4.146   0.634
 3495SOL    HW211385   5.317   4.163   0.474
 3496SOL     OW11386   0.649   4.903   0.494
 3496SOL    HW111387   0.640   4.988   0.443
 3496SOL    HW211388   0.646   4.825   0.431
 3497SOL     OW11389   4.406   6.415   3.938
 3497SOL    HW111390   4.448   6.410   4.029
 3497SOL    HW211391   4.372   6.324   3.913
 3498SOL     OW11392   1.303   1.901   1.257
 3498SOL    HW111393   1.323   1.997   1.275
 3498SOL    HW211394   1.254   1.862   1.335
 3499SOL     OW11395   6.602   3.493   4.095
 3499SOL    HW111396   6.530   3.460   4.156
 3499SOL    HW211397   6.562   3.538   4.016
 3500SOL     OW11398   6.663   3.180   0.671
 3500SOL    HW111399   6.586   3.242   0.680
 3500SOL    HW211400   6.639   3.091   0.711
 3501SOL     OW11401   1.153   4.491   3.637
 3501SOL    HW111402   1.118   4.400   3.615
 3501SOL    HW211403   1.162   4.500   3.736
 3502SOL     OW11404   1.207   4.207   1.445
 3502SOL    HW111405   1.161   4.124   1.475
 3502SOL    HW211406   1.150   4.287   1.469
 3503SOL     OW11407   3.534   6.675   3.841
 3503SOL    HW111408   3.483   6.697   3.924
 3503SOL    HW211409   3.624   6.719   3.844
 3504SOL     OW11410   2.075   3.077   2.478
 3504SOL    HW111411   2.141   3.042   2.545
 3504SOL    HW211412   2.096   3.039   2.388
 3505SOL     OW11413   4.250   6.239   4.922
 3505SOL    HW111414   4.271   6.147   4.888
 3505SOL    HW211415   4.187   6.232   5.000
 3506SOL     OW11416   5.506   4.793   2.323
 3506SOL    HW111417   5.488   4.793   2.421
 3506SOL    HW211418   5.583   4.855   2.303
 3507SOL     OW11419   0.392   0.476   6.502
 3507SOL    HW111420   0.426   0.481   6.596
 3507SOL    HW211421   0.293   0.492   6.502
 3508SOL     OW11422   5.827   3.690   0.111
 3508SOL    HW111423   5.794   3.600   0.139
 3508SOL    HW211424   5.768   3.726   0.039
 3509SOL     OW11425   6.459   0.521   0.612
 3509SOL    HW111426   6.462   0.478   0.702
 3509SOL    HW211427   6.475   0.619   0.621
 3510SOL     OW11428   2.373   2.545   2.589
 3510SOL    HW111429   2.438   2.502   2.652
 3510SOL    HW211430   2.409   2.540   2.495
 3511SOL     OW11431   0.869   0.439   5.204
 3511SOL    HW111432   0.957   0.391   5.203
 3511SOL    HW211433   0.863   0.495   5.286
 3512SOL     OW11434   3.068   2.882   0.933
 3512SOL    HW111435   3.014   2.798   0.937
 3512SOL    HW211436   3.162   2.860   0.906
 3513SOL     OW11437   5.624   4.356   1.096
 3513SOL    HW111438   5.655   4.432   1.038
 3513SOL    HW211439   5.601   4.391   1.187
 3514SOL     OW11440   1.516   6.666   1.624
 3514SOL    HW111441   1.498   6.567   1.619
 3514SOL    HW211442   1.609   6.685   1.593
 3515SOL     OW11443   3.684   6.153   3.240
 3515SOL    HW111444   3.768   6.185   3.196
 3515SOL    HW211445   3.706   6.116   3.330
 3516SOL     OW11446   2.615   1.090   0.594
 3516SOL    HW111447   2.596   1.159   0.664
 3516SOL    HW211448   2.713   1.081   0.582
 3517SOL     OW11449   0.915   0.327   6.224
 3517SOL    HW111450   0.936   0.240   6.180
 3517SOL    HW211451   0.834   0.317   6.282
 3518SOL     OW11452   4.929   3.340   5.659
 3518SOL    HW111453   4.845   3.309   5.703
 3518SOL    HW211454   5.003   3.277   5.682
 3519SOL     OW11455   3.014   6.309   0.283
 3519SOL    HW111456   2.936   6.337   0.339
 3519SOL    HW211457   3.062   6.391   0.251
 3520SOL     OW11458   3.876   5.182   1.272
 3520SOL    HW111459   3.823   5.210   1.352
 3520SOL    HW211460   3.905   5.263   1.221
 3521SOL     OW11461   5.939   1.795   6.402
 3521SOL    HW111462   5.857   1.797   6.459
 3521SOL    HW211463   5.994   1.876   6.421
 3522SOL     OW11464   3.007   6.116   1.647
 3522SOL    HW111465   2.922   6.090   1.693
 3522SOL    HW211466   3.030   6.210   1.670
 3523SOL     OW11467   2.010   5.106   5.281
 3523SOL    HW111468   2.107   5.093   5.263
 3523SOL    HW211469   1.960   5.022   5.260
 3524SOL     OW11470   2.322   0.289   1.764
 3524SOL    HW111471   2.372   0.362   1.811
 3524SOL    HW211472   2.294   0.319   1.674
 3525SOL     OW11473   1.936   3.638   2.876
 3525SOL    HW111474   1.928   3.734   2.901
 3525SOL    HW211475   1.978   3.631   2.785
 3526SOL     OW11476   3.581   0.387   3.311
 3526SOL    HW111477   3.563   0.485   3.318
 3526SOL    HW211478   3.652   0.361   3.376
 3527SOL     OW11479   5.700   3.141   5.557
 3527SOL    HW111480   5.759   3.063   5.579
 3527SOL    HW211481   5.717   3.214   5.623
 3528SOL     OW11482   1.133   7.020   4.097
 3528SOL    HW111483   1.161   6.985   4.186
 3528SOL    HW211484   1.214   0.026   4.044
 3529SOL     OW11485   3.485   6.112   6.910
 3529SOL    HW111486   3.513   6.207   6.922
 3529SOL    HW211487   3.480   6.091   6.812
 3530SOL     OW11488   1.518   5.758   3.064
 3530SOL    HW111489   1.465   5.774   2.980
 3530SOL    HW211490   1.598   5.703   3.042
 3531SOL     OW11491   5.032   4.393   6.658
 3531SOL    HW111492   5.007   4.359   6.568
 3531SOL    HW211493   4.957   4.449   6.695
 3532SOL     OW11494   1.967   6.617   0.314
 3532SOL    HW111495   1.987   6.704   0.358
 3532SOL    HW211496   1.973   6.628   0.214
 3533SOL     OW11497   1.075   1.269   4.002
 3533SOL    HW111498   1.052   1.312   4.089
 3533SOL    HW211499   1.174   1.255   3.997
 3534SOL     OW11500   4.871   0.525   5.502
 3534SOL    HW111501   4.815   0.492   5.426
 3534SOL    HW211502   4.820   0.516   5.588
 3535SOL     OW11503   4.380   6.294   6.624
 3535SOL    HW111504   4.391   6.198   6.599
 3535SOL    HW211505   4.315   6.301   6.699
 3536SOL     OW11506   1.195   4.124   2.721
 3536SOL    HW111507   1.292   4.102   2.736
 3536SOL    HW211508   1.159   4.171   2.802
 3537SOL     OW11509   2.648   4.519   0.925
 3537SOL    HW111510   2.613   4.482   1.011
 3537SOL    HW211511   2.728   4.466   0.897
 3538SOL     OW11512   3.430   1.064   3.912
 3538SOL    HW111513   3.331   1.063   3.925
 3538SOL    HW211514   3.452   1.109   3.826
 3539SOL     OW11515   5.283   6.369   6.725
 3539SOL    HW111516   5.259   6.409   6.637
 3539SOL    HW211517   5.277   6.269   6.720
 3540SOL     OW11518   2.550   4.136   6.163
 3540SOL    HW111519   2.462   4.180   6.148
 3540SOL    HW211520   2.576   4.085   6.080
 3541SOL     OW11521   2.000   2.874   1.409
 3541SOL    HW111522   2.061   2.862   1.330
 3541SOL    HW211523   2.040   2.828   1.488
 3542SOL     OW11524   5.983   1.377   6.961
 3542SOL    HW111525   6.056   1.444   6.948
 3542SOL    HW211526   6.020   1.285   6.944
 3543SOL     OW11527   0.527   2.487   3.837
 3543SOL    HW111528   0.559   2.581   3.837
 3543SOL    HW211529   0.534   2.449   3.930
 3544SOL     OW11530   3.265   3.883   6.732
 3544SOL    HW111531   3.328   3.881   6.655
 3544SOL    HW211532   3.220   3.973   6.737
 3545SOL     OW11533   4.100   7.007   0.918
 3545SOL    HW111534   4.024   0.024   0.865
 3545SOL    HW211535   4.183   0.039   0.898
 3546SOL     OW11536   6.180   4.230   2.216
 3546SOL    HW111537   6.214   4.169   2.145
 3546SOL    HW211538   6.179   4.182   2.304
 3547SOL     OW11539   1.307   4.038   4.778
 3547SOL    HW111540   1.393   3.995   4.752
 3547SOL    HW211541   1.323   4.134   4.801
 3548SOL     OW11542   5.492   0.542   5.928
 3548SOL    HW111543   5.555   0.521   6.003
 3548SOL    HW211544   5.421   0.471   5.923
 3549SOL     OW11545   2.792   6.596   6.756
 3549SOL    HW111546   2.891   6.594   6.773
 3549SOL    HW211547   2.760   6.691   6.757
 3550SOL     OW11548   5.121   0.951   5.579
 3550SOL    HW111549   5.118   1.002   5.493
 3550SOL    HW211550   5.217   0.936   5.605
 3551SOL     OW11551   5.052   2.189   4.420
 3551SOL    HW111552   4.993   2.205   4.341
 3551SOL    HW211553   5.026   2.252   4.493
 3552SOL     OW11554   6.130   6.658   3.551
 3552SOL    HW111555   6.087   6.578   3.594
 3552SOL    HW211556   6.132   6.734   3.616
 3553SOL     OW11557   5.907   5.713   6.818
 3553SOL    HW111558   5.974   5.739   6.889
 3553SOL    HW211559   5.820   5.758   6.838
 3554SOL     OW11560   5.624   4.319   6.881
 3554SOL    HW111561   5.687   4.333   6.957
 3554SOL    HW211562   5.538   4.366   6.899
 3555SOL     OW11563   3.131   1.826   5.107
 3555SOL    HW111564   3.035   1.799   5.093
 3555SOL    HW211565   3.139   1.925   5.106
 3556SOL     OW11566   5.717   0.903   0.773
 3556SOL    HW111567   5.794   0.866   0.722
 3556SOL    HW211568   5.642   0.922   0.710
 3557SOL     OW11569   5.747   0.183   1.551
 3557SOL    HW111570   5.838   0.204   1.515
 3557SOL    HW211571   5.688   0.152   1.477
 3558SOL     OW11572   3.889   5.240   2.507
 3558SOL    HW111573   3.829   5.193   2.572
 3558SOL    HW211574   3.838   5.311   2.460
 3559SOL     OW11575   4.667   6.898   6.401
 3559SOL    HW111576   4.691   6.922   6.307
 3559SOL    HW211577   4.571   6.869   6.405
 3560SOL     OW11578   1.220   5.272   4.291
 3560SOL    HW111579   1.262   5.352   4.247
 3560SOL    HW211580   1.147   5.302   4.352
 3561SOL     OW11581   4.376   3.572   5.259
 3561SOL    HW111582   4.386   3.629   5.341
 3561SOL    HW211583   4.466   3.543   5.227
 3562SOL     OW11584   2.918   2.113   0.135
 3562SOL    HW111585   2.887   2.038   0.193
 3562SOL    HW211586   2.948   2.077   0.047
 3563SOL     OW11587   6.250   2.429   5.779
 3563SOL    HW111588   6.193   2.395   5.853
 3563SOL    HW211589   6.192   2.448   5.699
 3564SOL     OW11590   6.034   3.383   2.127
 3564SOL    HW111591   5.982   3.427   2.054
 3564SOL    HW211592   5.985   3.302   2.159
 3565SOL     OW11593   4.440   5.971   5.617
 3565SOL    HW111594   4.358   5.946   5.669
 3565SOL    HW211595   4.515   5.911   5.643
 3566SOL     OW11596   1.163   0.241   4.951
 3566SOL    HW111597   1.131   0.336   4.949
 3566SOL    HW211598   1.089   0.181   4.922
 3567SOL     OW11599   0.346   3.317   6.287
 3567SOL    HW111600   0.295   3.323   6.201
 3567SOL    HW211601   0.359   3.220   6.311
 3568SOL     OW11602   5.883   3.653   6.085
 3568SOL    HW111603   5.932   3.650   5.998
 3568SOL    HW211604   5.793   3.693   6.072
 3569SOL     OW11605   0.976   0.132   3.576
 3569SOL    HW111606   1.064   0.139   3.622
 3569SOL    HW211607   0.910   0.087   3.637
 3570SOL     OW11608   5.385   1.461   3.798
 3570SOL    HW111609   5.332   1.394   3.850
 3570SOL    HW211610   5.323   1.515   3.741
 3571SOL     OW11611   6.622   0.061   5.344
 3571SOL    HW111612   6.590   7.001   5.293
 3571SOL    HW211613   6.719   0.050   5.366
 3572SOL     OW11614   6.169   6.188   4.946
 3572SOL    HW111615   6.156   6.126   4.868
 3572SOL    HW211616   6.148   6.281   4.919
 3573SOL     OW11617   0.947   2.178   2.286
 3573SOL    HW111618   0.900   2.245   2.228
 3573SOL    HW211619   0.898   2.091   2.283
 3574SOL     OW11620   6.092   3.717   6.819
 3574SOL    HW111621   6.104   3.651   6.894
 3574SOL    HW211622   6.041   3.796   6.851
 3575SOL     OW11623   6.055   6.116   1.644
 3575SOL    HW111624   6.023   6.210   1.639
 3575SOL    HW211625   6.066   6.080   1.551
 3576SOL     OW11626   0.613   1.742   6.459
 3576SOL    HW111627   0.700   1.792   6.463
 3576SOL    HW211628   0.622   1.657   6.512
 3577SOL     OW11629   1.892   2.819   0.265
 3577SOL    HW111630   1.875   2.853   0.358
 3577SOL    HW211631   1.875   2.720   0.262
 3578SOL     OW11632   3.496   4.706   1.561
 3578SOL    HW111633   3.523   4.697   1.657
 3578SOL    HW211634   3.412   4.760   1.555
 3579SOL     OW11635   0.970   4.182   5.401
 3579SOL    HW111636   1.056   4.135   5.421
 3579SOL    HW211637   0.974   4.276   5.434
 3580SOL     OW11638   6.941   2.219   1.540
 3580SOL    HW111639   0.016   2.212   1.570
 3580SOL    HW211640   6.921   2.314   1.513
 3581SOL     OW11641   6.049   0.849   3.489
 3581SOL    HW111642   5.980   0.886   3.551
 3581SOL    HW211643   6.005   0.820   3.404
 3582SOL     OW11644   6.886   0.568   5.597
 3582SOL    HW111645   6.937   0.538   5.678
 3582SOL    HW211646   6.796   0.525   5.597
 3583SOL     OW11647   2.592   5.417   0.543
 3583SOL    HW111648   2.614   5.346   0.476
 3583SOL    HW211649   2.531   5.378   0.613
 3584SOL     OW11650   5.666   6.774   5.891
 3584SOL    HW111651   5.690   6.695   5.947
 3584SOL    HW211652   5.626   6.845   5.950
 3585SOL     OW11653   2.967   5.124   4.057
 3585SOL    HW111654   3.033   5.063   4.012
 3585SOL    HW211655   2.995   5.139   4.152
 3586SOL     OW11656   0.180   2.014   5.917
 3586SOL    HW111657   0.271   1.990   5.952
 3586SOL    HW211658   0.114   1.946   5.947
 3587SOL     OW11659   3.838   0.210   6.611
 3587SOL    HW111660   3.766   0.149   6.645
 3587SOL    HW211661   3.907   0.222   6.682
 3588SOL     OW11662   2.000   1.385   5.254
 3588SOL    HW111663   1.973   1.481   5.256
 3588SOL    HW211664   2.095   1.378   5.223
 3589SOL     OW11665   2.944   0.449   5.232
 3589SOL    HW111666   2.886   0.479   5.156
 3589SOL    HW211667   3.007   0.378   5.200
 3590SOL     OW11668   1.422   4.978   6.903
 3590SOL    HW111669   1.387   5.070   6.887
 3590SOL    HW211670   1.392   4.947   6.993
 3591SOL     OW11671   4.708   2.127   5.842
 3591SOL    HW111672   4.808   2.132   5.836
 3591SOL    HW211673   4.675   2.052   5.785
 3592SOL     OW11674   5.175   2.776   1.834
 3592SOL    HW111675   5.076   2.785   1.844
 3592SOL    HW211676   5.217   2.774   1.925
 3593SOL     OW11677   0.588   5.095   3.701
 3593SOL    HW111678   0.595   4.995   3.700
 3593SOL    HW211679   0.496   5.122   3.730
 3594SOL     OW11680   3.350   0.883   4.224
 3594SOL    HW111681   3.317   0.900   4.317
 3594SOL    HW211682   3.406   0.961   4.195
 3595SOL     OW11683   2.328   6.204   5.671
 3595SOL    HW111684   2.396   6.276   5.672
 3595SOL    HW211685   2.248   6.234   5.620
 3596SOL     OW11686   0.032   2.970   3.553
 3596SOL    HW111687   0.066   3.062   3.572
 3596SOL    HW211688   6.952   2.971   3.550
 3597SOL     OW11689   3.462   6.234   3.108
 3597SOL    HW111690   3.521   6.172   3.160
 3597SOL    HW211691   3.497   6.328   3.117
 3598SOL     OW11692   1.307   0.165   0.480
 3598SOL    HW111693   1.289   0.098   0.408
 3598SOL    HW211694   1.351   0.246   0.441
 3599SOL     OW11695   0.121   1.778   4.003
 3599SOL    HW111696   0.144   1.822   4.089
 3599SOL    HW211697   0.027   1.802   3.978
 3600SOL     OW11698   6.351   0.546   1.318
 3600SOL    HW111699   6.411   0.558   1.239
 3600SOL    HW211700   6.274   0.610   1.311
 3601SOL     OW11701   6.394   3.592   5.434
 3601SOL    HW111702   6.350   3.507   5.405
 3601SOL    HW211703   6.331   3.668   5.419
 3602SOL     OW11704   1.928   1.803   0.583
 3602SOL    HW111705   1.979   1.778   0.501
 3602SOL    HW211706   1.845   1.852   0.557
 3603SOL     OW11707   4.269   4.735   4.642
 3603SOL    HW111708   4.264   4.819   4.696
 3603SOL    HW211709   4.179   4.692   4.638
 3604SOL     OW11710   0.199   3.126   3.154
 3604SOL    HW111711   0.283   3.107   3.103
 3604SOL    HW211712   0.128   3.159   3.091
 3605SOL     OW11713   6.384   3.175   6.663
 3605SOL    HW111714   6.399   3.173   6.761
 3605SOL    HW211715   6.296   3.218   6.643
 3606SOL     OW11716   1.342   4.333   4.829
 3606SOL    HW111717   1.366   4.356   4.923
 3606SOL    HW211718   1.263   4.388   4.801
 3607SOL     OW11719   4.613   6.697   7.010
 3607SOL    HW111720   4.659   6.770   0.040
 3607SOL    HW211721   4.562   6.640   0.055
 3608SOL     OW11722   0.896   2.570   2.355
 3608SOL    HW111723   0.919   2.516   2.274
 3608SOL    HW211724   0.842   2.650   2.329
 3609SOL     OW11725   6.521   6.722   4.937
 3609SOL    HW111726   6.449   6.701   4.870
 3609SOL    HW211727   6.554   6.637   4.978
 3610SOL     OW11728   1.685   5.963   4.817
 3610SOL    HW111729   1.604   6.005   4.857
 3610SOL    HW211730   1.764   6.023   4.831
 3611SOL     OW11731   3.987   5.216   5.002
 3611SOL    HW111732   4.020   5.178   4.916
 3611SOL    HW211733   3.887   5.223   5.000
 3612SOL     OW11734   1.193   0.055   1.568
 3612SOL    HW111735   1.272   0.007   1.606
 3612SOL    HW211736   1.197   0.152   1.593
 3613SOL     OW11737   5.224   5.813   6.904
 3613SOL    HW111738   5.219   5.908   6.933
 3613SOL    HW211739   5.143   5.791   6.848
 3614SOL     OW11740   3.948   3.102   3.734
 3614SOL    HW111741   3.931   3.056   3.821
 3614SOL    HW211742   3.900   3.054   3.661
 3615SOL     OW11743   6.594   6.444   6.207
 3615SOL    HW111744   6.496   6.448   6.227
 3615SOL    HW211745   6.641   6.516   6.258
 3616SOL     OW11746   6.688   0.945   4.580
 3616SOL    HW111747   6.768   0.993   4.544
 3616SOL    HW211748   6.629   1.010   4.627
 3617SOL     OW11749   6.483   0.592   6.684
 3617SOL    HW111750   6.408   0.613   6.621
 3617SOL    HW211751   6.569   0.587   6.633
 3618SOL     OW11752   2.749   0.906   6.058
 3618SOL    HW111753   2.733   0.914   6.156
 3618SOL    HW211754   2.734   0.811   6.029
 3619SOL     OW11755   5.404   2.758   4.085
 3619SOL    HW111756   5.375   2.833   4.144
 3619SOL    HW211757   5.500   2.736   4.103
 3620SOL     OW11758   6.108   1.209   4.943
 3620SOL    HW111759   6.034   1.156   4.901
 3620SOL    HW211760   6.100   1.305   4.916
 3621SOL     OW11761   1.898   3.354   6.004
 3621SOL    HW111762   1.971   3.288   6.018
 3621SOL    HW211763   1.931   3.429   5.946
 3622SOL     OW11764   0.504   2.547   1.191
 3622SOL    HW111765   0.525   2.645   1.197
 3622SOL    HW211766   0.528   2.513   1.100
 3623SOL     OW11767   6.923   5.419   4.316
 3623SOL    HW111768   6.985   5.344   4.295
 3623SOL    HW211769   6.915   5.428   4.416
 3624SOL     OW11770   2.249   0.604   1.808
 3624SOL    HW111771   2.339   0.644   1.792
 3624SOL    HW211772   2.227   0.541   1.733
 3625SOL     OW11773   0.593   3.179   4.346
 3625SOL    HW111774   0.648   3.152   4.425
 3625SOL    HW211775   0.591   3.279   4.340
 3626SOL     OW11776   2.577   3.756   5.346
 3626SOL    HW111777   2.521   3.786   5.269
 3626SOL    HW211778   2.544   3.667   5.379
 3627SOL     OW11779   3.056   3.707   3.832
 3627SOL    HW111780   3.018   3.758   3.909
 3627SOL    HW211781   3.156   3.711   3.835
 3628SOL     OW11782   3.214   5.285   2.355
 3628SOL    HW111783   3.266   5.354   2.304
 3628SOL    HW211784   3.180   5.325   2.439
 3629SOL     OW11785   6.578   2.387   5.145
 3629SOL    HW111786   6.516   2.429   5.212
 3629SOL    HW211787   6.648   2.453   5.118
 3630SOL     OW11788   5.814   1.934   4.445
 3630SOL    HW111789   5.798   2.001   4.518
 3630SOL    HW211790   5.837   1.845   4.485
 3631SOL     OW11791   2.106   1.198   4.372
 3631SOL    HW111792   2.091   1.111   4.419
 3631SOL    HW211793   2.201   1.227   4.387
 3632SOL     OW11794   4.280   0.534   6.547
 3632SOL    HW111795   4.278   0.525   6.647
 3632SOL    HW211796   4.338   0.463   6.508
 3633SOL     OW11797   2.369   3.030   5.981
 3633SOL    HW111798   2.459   3.070   5.996
 3633SOL    HW211799   2.344   2.973   6.060
 3634SOL     OW11800   2.137   5.982   5.253
 3634SOL    HW111801   2.153   5.915   5.180
 3634SOL    HW211802   2.131   5.934   5.341
 3635SOL     OW11803   2.499   1.422   5.292
 3635SOL    HW111804   2.474   1.375   5.207
 3635SOL    HW211805   2.544   1.509   5.270
 3636SOL     OW11806   1.121   5.700   6.138
 3636SOL    HW111807   1.025   5.673   6.134
 3636SOL    HW211808   1.134   5.785   6.086
 3637SOL     OW11809   5.484   1.310   1.964
 3637SOL    HW111810   5.384   1.307   1.974
 3637SOL    HW211811   5.523   1.221   1.989
 3638SOL     OW11812   6.670   4.938   4.312
 3638SOL    HW111813   6.741   4.977   4.253
 3638SOL    HW211814   6.640   5.007   4.378
 3639SOL     OW11815   2.134   5.136   6.957
 3639SOL    HW111816   2.152   5.149   0.035
 3639SOL    HW211817   2.168   5.215   6.906
 3640SOL     OW11818   3.400   5.969   1.089
 3640SOL    HW111819   3.449   5.883   1.074
 3640SOL    HW211820   3.331   5.981   1.019
 3641SOL     OW11821   2.556   0.635   5.425
 3641SOL    HW111822   2.456   0.635   5.425
 3641SOL    HW211823   2.589   0.707   5.485
 3642SOL     OW11824   5.896   0.126   3.679
 3642SOL    HW111825   5.902   0.051   3.746
 3642SOL    HW211826   5.885   0.088   3.587
 3643SOL     OW11827   2.569   4.628   5.000
 3643SOL    HW111828   2.667   4.624   4.980
 3643SOL    HW211829   2.551   4.585   5.088
 3644SOL     OW11830   0.216   1.158   0.710
 3644SOL    HW111831   0.313   1.179   0.720
 3644SOL    HW211832   0.206   1.076   0.652
 3645SOL     OW11833   3.535   0.664   3.318
 3645SOL    HW111834   3.439   0.666   3.344
 3645SOL    HW211835   3.587   0.727   3.377
 3646SOL     OW11836   0.147   4.717   4.936
 3646SOL    HW111837   0.118   4.685   4.846
 3646SOL    HW211838   0.071   4.709   5.001
 3647SOL     OW11839   2.986   3.074   1.109
 3647SOL    HW111840   3.026   3.009   1.044
 3647SOL    HW211841   2.956   3.024   1.191
 3648SOL     OW11842   2.954   6.465   2.722
 3648SOL    HW111843   3.037   6.499   2.677
 3648SOL    HW211844   2.953   6.365   2.717
 3649SOL     OW11845   3.300   3.504   1.140
 3649SOL    HW111846   3.358   3.423   1.150
 3649SOL    HW211847   3.211   3.477   1.105
 3650SOL     OW11848   0.144   6.964   1.491
 3650SOL    HW111849   0.168   6.957   1.588
 3650SOL    HW211850   0.048   6.989   1.482
 3651SOL     OW11851   1.948   5.629   2.369
 3651SOL    HW111852   2.023   5.564   2.353
 3651SOL    HW211853   1.986   5.714   2.406
 3652SOL     OW11854   4.576   5.448   3.121
 3652SOL    HW111855   4.566   5.380   3.194
 3652SOL    HW211856   4.486   5.468   3.082
 3653SOL     OW11857   0.057   2.705   3.624
 3653SOL    HW111858   0.085   2.800   3.642
 3653SOL    HW211859   0.019   2.666   3.708
 3654SOL     OW11860   1.931   6.852   1.275
 3654SOL    HW111861   1.931   6.950   1.295
 3654SOL    HW211862   1.871   6.834   1.196
 3655SOL     OW11863   1.616   0.512   4.504
 3655SOL    HW111864   1.537   0.573   4.495
 3655SOL    HW211865   1.698   0.557   4.470
 3656SOL     OW11866   2.221   2.527   1.836
 3656SOL    HW111867   2.196   2.447   1.891
 3656SOL    HW211868   2.319   2.523   1.816
 3657SOL     OW11869   4.106   6.032   1.550
 3657SOL    HW111870   4.153   6.058   1.634
 3657SOL    HW211871   4.052   5.949   1.566
 3658SOL     OW11872   1.551   5.724   6.059
 3658SOL    HW111873   1.531   5.725   6.157
 3658SOL    HW211874   1.498   5.795   6.013
 3659SOL     OW11875   2.602   4.407   6.816
 3659SOL    HW111876   2.593   4.473   6.892
 3659SOL    HW211877   2.614   4.457   6.731
 3660SOL     OW11878   4.648   5.540   1.793
 3660SOL    HW111879   4.670   5.443   1.795
 3660SOL    HW211880   4.680   5.580   1.707
 3661SOL     OW11881   4.261   0.905   0.183
 3661SOL    HW111882   4.170   0.887   0.219
 3661SOL    HW211883   4.299   0.987   0.227
 3662SOL     OW11884   3.011   0.058   5.535
 3662SOL    HW111885   3.010   0.142   5.588
 3662SOL    HW211886   3.041   7.002   5.593
 3663SOL     OW11887   1.143   2.707   6.816
 3663SOL    HW111888   1.069   2.731   6.879
 3663SOL    HW211889   1.107   2.702   6.723
 3664SOL     OW11890   4.600   1.262   0.775
 3664SOL    HW111891   4.527   1.228   0.715
 3664SOL    HW211892   4.649   1.185   0.816
 3665SOL     OW11893   0.953   6.705   5.961
 3665SOL    HW111894   0.951   6.738   5.866
 3665SOL    HW211895   1.012   6.764   6.016
 3666SOL     OW11896   1.063   5.270   4.053
 3666SOL    HW111897   1.123   5.273   4.133
 3666SOL    HW211898   1.097   5.201   3.989
 3667SOL     OW11899   6.614   1.695   6.499
 3667SOL    HW111900   6.673   1.734   6.570
 3667SOL    HW211901   6.656   1.612   6.462
 3668SOL     OW11902   1.003   6.295   2.327
 3668SOL    HW111903   0.966   6.384   2.355
 3668SOL    HW211904   1.100   6.305   2.305
 3669SOL     OW11905   6.560   3.110   3.021
 3669SOL    HW111906   6.536   3.014   3.025
 3669SOL    HW211907   6.499   3.163   3.080
 3670SOL     OW11908   1.675   5.937   5.794
 3670SOL    HW111909   1.587   5.931   5.841
 3670SOL    HW211910   1.691   5.852   5.743
 3671SOL     OW11911   1.007   0.402   2.724
 3671SOL    HW111912   0.951   0.325   2.758
 3671SOL    HW211913   1.082   0.366   2.669
 3672SOL     OW11914   0.030   0.808   0.641
 3672SOL    HW111915   7.014   0.833   0.551
 3672SOL    HW211916   0.122   0.771   0.632
 3673SOL     OW11917   5.259   0.266   6.948
 3673SOL    HW111918   5.304   0.312   6.871
 3673SOL    HW211919   5.322   0.265   0.006
 3674SOL     OW11920   1.407   6.257   1.190
 3674SOL    HW111921   1.345   6.238   1.114
 3674SOL    HW211922   1.446   6.349   1.179
 3675SOL     OW11923   1.810   2.046   5.049
 3675SOL    HW111924   1.902   2.028   5.015
 3675SOL    HW211925   1.813   2.124   5.112
 3676SOL     OW11926   2.526   5.496   3.518
 3676SOL    HW111927   2.538   5.399   3.497
 3676SOL    HW211928   2.465   5.538   3.450
 3677SOL     OW11929   6.470   6.860   4.667
 3677SOL    HW111930   6.549   6.851   4.606
 3677SOL    HW211931   6.389   6.820   4.623
 3678SOL     OW11932   0.872   1.685   3.648
 3678SOL    HW111933   0.926   1.726   3.721
 3678SOL    HW211934   0.915   1.706   3.560
 3679SOL     OW11935   0.093   0.802   1.919
 3679SOL    HW111936   0.105   0.803   1.820
 3679SOL    HW211937   0.155   0.868   1.961
 3680SOL     OW11938   6.663   3.238   4.263
 3680SOL    HW111939   6.637   3.268   4.171
 3680SOL    HW211940   6.696   3.316   4.316
 3681SOL     OW11941   6.530   6.187   5.530
 3681SOL    HW111942   6.548   6.242   5.612
 3681SOL    HW211943   6.434   6.194   5.506
 3682SOL     OW11944   0.081   1.943   6.301
 3682SOL    HW111945   0.009   1.932   6.233
 3682SOL    HW211946   0.159   1.886   6.278
 3683SOL     OW11947   5.266   6.428   4.729
 3683SOL    HW111948   5.255   6.528   4.726
 3683SOL    HW211949   5.231   6.389   4.644
 3684SOL     OW11950   1.354   3.571   0.861
 3684SOL    HW111951   1.284   3.642   0.851
 3684SOL    HW211952   1.423   3.581   0.790
 3685SOL     OW11953   6.801   6.319   6.071
 3685SOL    HW111954   6.735   6.349   6.140
 3685SOL    HW211955   6.752   6.280   5.993
 3686SOL     OW11956   6.206   4.204   1.516
 3686SOL    HW111957   6.294   4.210   1.470
 3686SOL    HW211958   6.132   4.216   1.450
 3687SOL     OW11959   3.350   0.691   0.110
 3687SOL    HW111960   3.282   0.759   0.138
 3687SOL    HW211961   3.315   0.599   0.131
 3688SOL     OW11962   1.511   3.735   0.636
 3688SOL    HW111963   1.610   3.752   0.638
 3688SOL    HW211964   1.462   3.822   0.634
 3689SOL     OW11965   2.221   0.438   3.510
 3689SOL    HW111966   2.160   0.395   3.577
 3689SOL    HW211967   2.195   0.408   3.418
 3690SOL     OW11968   6.321   7.003   5.671
 3690SOL    HW111969   6.411   0.028   5.672
 3690SOL    HW211970   6.249   0.052   5.678
 3691SOL     OW11971   3.550   2.868   6.816
 3691SOL    HW111972   3.604   2.890   6.735
 3691SOL    HW211973   3.609   2.824   6.884
 3692SOL     OW11974   1.773   0.144   5.824
 3692SOL    HW111975   1.779   0.057   5.775
 3692SOL    HW211976   1.823   0.214   5.772
 3693SOL     OW11977   2.929   2.137   3.144
 3693SOL    HW111978   2.946   2.183   3.057
 3693SOL    HW211979   2.892   2.203   3.209
 3694SOL     OW11980   1.772   5.907   3.356
 3694SOL    HW111981   1.817   5.822   3.327
 3694SOL    HW211982   1.693   5.885   3.413
 3695SOL     OW11983   1.616   2.420   2.263
 3695SOL    HW111984   1.543   2.473   2.308
 3695SOL    HW211985   1.581   2.329   2.241
 3696SOL     OW11986   3.722   6.644   6.147
 3696SOL    HW111987   3.695   6.552   6.177
 3696SOL    HW211988   3.641   6.702   6.141
 3697SOL     OW11989   6.511   0.330   4.235
 3697SOL    HW111990   6.572   0.331   4.157
 3697SOL    HW211991   6.429   0.383   4.215
 3698SOL     OW11992   3.231   0.404   5.905
 3698SOL    HW111993   3.234   0.461   5.987
 3698SOL    HW211994   3.299   0.436   5.840
 3699SOL     OW11995   0.656   4.335   2.604
 3699SOL    HW111996   0.592   4.291   2.541
 3699SOL    HW211997   0.606   4.399   2.663
 3700SOL     OW11998   0.224   0.151   4.169
 3700SOL    HW111999   0.226   0.076   4.103
 3700SOL    HW212000   0.233   0.115   4.262
 3701SOL     OW12001   6.266   0.747   4.423
 3701SOL    HW112002   6.353   0.796   4.421
 3701SOL    HW212003   6.283   0.649   4.431
 3702SOL     OW12004   3.309   1.124   0.130
 3702SOL    HW112005   3.309   1.217   0.166
 3702SOL    HW212006   3.215   1.090   0.127
 3703SOL     OW12007   4.257   4.275   6.439
 3703SOL    HW112008   4.264   4.329   6.356
 3703SOL    HW212009   4.175   4.302   6.490
 3704SOL     OW12010   1.975   0.069   2.681
 3704SOL    HW112011   1.943   0.163   2.668
 3704SOL    HW212012   1.971   0.046   2.778
 3705SOL     OW12013   5.751   0.831   3.748
 3705SOL    HW112014   5.687   0.808   3.822
 3705SOL    HW212015   5.745   0.761   3.677
 3706SOL     OW12016   1.909   2.290   3.914
 3706SOL    HW112017   2.001   2.320   3.942
 3706SOL    HW212018   1.904   2.285   3.814
 3707SOL     OW12019   4.347   2.733   5.295
 3707SOL    HW112020   4.423   2.735   5.230
 3707SOL    HW212021   4.272   2.679   5.257
 3708SOL     OW12022   5.775   0.485   6.396
 3708SOL    HW112023   5.744   0.459   6.305
 3708SOL    HW212024   5.705   0.463   6.464
 3709SOL     OW12025   3.981   0.789   6.594
 3709SOL    HW112026   4.025   0.731   6.526
 3709SOL    HW212027   3.893   0.821   6.559
 3710SOL     OW12028   0.435   4.709   0.664
 3710SOL    HW112029   0.400   4.731   0.573
 3710SOL    HW212030   0.412   4.783   0.728
 3711SOL     OW12031   6.088   4.784   2.469
 3711SOL    HW112032   6.045   4.760   2.556
 3711SOL    HW212033   6.187   4.785   2.480
 3712SOL     OW12034   2.286   6.859   0.540
 3712SOL    HW112035   2.249   6.946   0.573
 3712SOL    HW212036   2.366   6.876   0.483
 3713SOL     OW12037   3.602   5.670   5.368
 3713SOL    HW112038   3.578   5.750   5.424
 3713SOL    HW212039   3.538   5.596   5.388
 3714SOL     OW12040   3.329   0.392   4.655
 3714SOL    HW112041   3.229   0.391   4.656
 3714SOL    HW212042   3.363   0.324   4.720
 3715SOL     OW12043   5.630   3.856   4.588
 3715SOL    HW112044   5.661   3.849   4.683
 3715SOL    HW212045   5.650   3.948   4.554
 3716SOL     OW12046   0.262   0.498   4.206
 3716SOL    HW112047   0.173   0.454   4.211
 3716SOL    HW212048   0.318   0.453   4.137
 3717SOL     OW12049   5.595   6.807   0.685
 3717SOL    HW112050   5.516   6.815   0.746
 3717SOL    HW212051   5.632   6.899   0.667
 3718SOL     OW12052   0.936   5.210   6.993
 3718SOL    HW112053   0.945   5.286   6.929
 3718SOL    HW212054   0.875   5.141   6.954
 3719SOL     OW12055   3.303   5.071   5.829
 3719SOL    HW112056   3.295   4.998   5.897
 3719SOL    HW212057   3.211   5.096   5.796
 3720SOL     OW12058   6.429   1.683   6.018
 3720SOL    HW112059   6.492   1.622   5.969
 3720SOL    HW212060   6.337   1.645   6.013
 3721SOL     OW12061   4.929   3.657   0.460
 3721SOL    HW112062   4.880   3.617   0.537
 3721SOL    HW212063   5.004   3.714   0.494
 3722SOL     OW12064   6.545   6.102   2.095
 3722SOL    HW112065   6.631   6.150   2.078
 3722SOL    HW212066   6.547   6.063   2.187
 3723SOL     OW12067   4.688   0.683   0.730
 3723SOL    HW112068   4.692   0.781   0.714
 3723SOL    HW212069   4.649   0.666   0.821
 3724SOL     OW12070   1.432   5.941   5.933
 3724SOL    HW112071   1.368   6.006   5.973
 3724SOL    HW212072   1.384   5.881   5.869
 3725SOL     OW12073   0.274   5.960   0.175
 3725SOL    HW112074   0.335   5.886   0.146
 3725SOL    HW212075   0.223   5.994   0.096
 3726SOL     OW12076   5.224   3.795   1.595
 3726SOL    HW112077   5.229   3.841   1.507
 3726SOL    HW212078   5.144   3.827   1.645
 3727SOL     OW12079   2.145   3.495   5.648
 3727SOL    HW112080   2.225   3.436   5.644
 3727SOL    HW212081   2.113   3.515   5.555
 3728SOL     OW12082   1.579   3.068   6.551
 3728SOL    HW112083   1.647   3.066   6.477
 3728SOL    HW212084   1.501   3.011   6.526
 3729SOL     OW12085   0.507   1.942   3.287
 3729SOL    HW112086   0.470   1.939   3.194
 3729SOL    HW212087   0.604   1.918   3.286
 3730SOL     OW12088   3.108   0.920   0.179
 3730SOL    HW112089   3.089   0.889   0.086
 3730SOL    HW212090   3.033   0.893   0.239
 3731SOL     OW12091   4.042   6.547   0.007
 3731SOL    HW112092   4.068   6.453   0.032
 3731SOL    HW212093   3.948   6.564   0.036
 3732SOL     OW12094   2.168   3.789   5.170
 3732SOL    HW112095   2.092   3.839   5.130
 3732SOL    HW212096   2.254   3.821   5.131
 3733SOL     OW12097   2.874   3.730   1.301
 3733SOL    HW112098   2.877   3.637   1.263
 3733SOL    HW212099   2.868   3.796   1.226
 3734SOL     OW12100   5.278   0.899   2.348
 3734SOL    HW112101   5.315   0.991   2.336
 3734SOL    HW212102   5.204   0.884   2.283
 3735SOL     OW12103   3.156   1.512   2.522
 3735SOL    HW112104   3.146   1.563   2.436
 3735SOL    HW212105   3.138   1.572   2.599
 3736SOL     OW12106   5.891   2.322   6.923
 3736SOL    HW112107   5.950   2.365   6.854
 3736SOL    HW212108   5.897   2.373   7.008
 3737SOL     OW12109   4.617   6.560   3.479
 3737SOL    HW112110   4.620   6.483   3.543
 3737SOL    HW212111   4.700   6.616   3.491
 3738SOL     OW12112   6.779   0.024   3.338
 3738SOL    HW112113   6.725   0.105   3.361
 3738SOL    HW212114   6.806   0.029   3.242
 3739SOL     OW12115   0.643   4.600   2.427
 3739SOL    HW112116   0.681   4.511   2.402
 3739SOL    HW212117   0.601   4.594   2.517
 3740SOL     OW12118   5.643   1.217   0.565
 3740SOL    HW112119   5.733   1.218   0.521
 3740SOL    HW212120   5.586   1.288   0.524
 3741SOL     OW12121   4.197   2.443   6.648
 3741SOL    HW112122   4.119   2.384   6.628
 3741SOL    HW212123   4.195   2.522   6.588
 3742SOL     OW12124   3.616   3.191   5.381
 3742SOL    HW112125   3.631   3.199   5.282
 3742SOL    HW212126   3.518   3.192   5.399
 3743SOL     OW12127   0.035   5.134   6.521
 3743SOL    HW112128   0.077   5.207   6.574
 3743SOL    HW212129   0.013   5.167   6.429
 3744SOL     OW12130   6.934   5.867   3.304
 3744SOL    HW112131   7.011   5.827   3.255
 3744SOL    HW212132   6.966   5.945   3.358
 3745SOL     OW12133   4.467   6.059   2.565
 3745SOL    HW112134   4.501   6.116   2.491
 3745SOL    HW212135   4.448   5.967   2.531
 3746SOL     OW12136   4.383   1.724   2.265
 3746SOL    HW112137   4.474   1.691   2.292
 3746SOL    HW212138   4.376   1.821   2.285
 3747SOL     OW12139   2.989   0.151   0.163
 3747SOL    HW112140   3.048   0.217   0.116
 3747SOL    HW212141   3.008   0.059   0.130
 3748SOL     OW12142   5.721   1.032   2.398
 3748SOL    HW112143   5.733   0.954   2.337
 3748SOL    HW212144   5.758   1.114   2.355
 3749SOL     OW12145   1.438   0.236   5.014
 3749SOL    HW112146   1.352   0.235   4.964
 3749SOL    HW212147   1.499   0.166   4.977
 3750SOL     OW12148   6.932   4.448   0.038
 3750SOL    HW112149   6.846   4.417   0.079
 3750SOL    HW212150   7.008   4.395   0.076
 3751SOL     OW12151   1.071   4.313   2.463
 3751SOL    HW112152   1.170   4.325   2.459
 3751SOL    HW212153   1.046   4.222   2.429
 3752SOL     OW12154   5.948   0.292   6.752
 3752SOL    HW112155   6.027   0.285   6.691
 3752SOL    HW212156   5.876   0.229   6.721
 3753SOL     OW12157   6.365   0.066   4.082
 3753SOL    HW112158   6.369   0.161   4.112
 3753SOL    HW212159   6.361   0.006   4.162
 3754SOL     OW12160   2.151   1.814   1.016
 3754SOL    HW112161   2.096   1.731   1.010
 3754SOL    HW212162   2.195   1.820   1.105
 3755SOL     OW12163   2.997   4.888   3.902
 3755SOL    HW112164   2.917   4.837   3.932
 3755SOL    HW212165   2.997   4.894   3.802
 3756SOL     OW12166   2.779   6.314   6.707
 3756SOL    HW112167   2.689   6.276   6.726
 3756SOL    HW212168   2.781   6.411   6.731
 3757SOL     OW12169   0.106   4.711   1.499
 3757SOL    HW112170   0.131   4.615   1.501
 3757SOL    HW212171   0.019   4.721   1.449
 3758SOL     OW12172   2.093   6.864   4.181
 3758SOL    HW112173   2.085   6.914   4.268
 3758SOL    HW212174   2.008   6.814   4.164
 3759SOL     OW12175   5.273   0.021   4.624
 3759SOL    HW112176   5.185   0.049   4.663
 3759SOL    HW212177   5.346   0.036   4.690
 3760SOL     OW12178   0.199   1.141   3.113
 3760SOL    HW112179   0.129   1.115   3.046
 3760SOL    HW212180   0.261   1.208   3.071
 3761SOL     OW12181   5.587   0.966   4.162
 3761SOL    HW112182   5.633   1.001   4.080
 3761SOL    HW212183   5.645   0.898   4.206
 3762SOL     OW12184   6.683   2.489   3.104
 3762SOL    HW112185   6.718   2.410   3.154
 3762SOL    HW212186   6.687   2.570   3.162
 3763SOL     OW12187   0.921   4.658   0.873
 3763SOL    HW112188   0.961   4.606   0.797
 3763SOL    HW212189   0.910   4.598   0.953
 3764SOL     OW12190   2.467   0.568   3.062
 3764SOL    HW112191   2.528   0.647   3.048
 3764SOL    HW212192   2.494   0.495   3.000
 3765SOL     OW12193   5.347   2.978   2.585
 3765SOL    HW112194   5.280   2.910   2.613
 3765SOL    HW212195   5.439   2.940   2.595
 3766SOL     OW12196   1.322   3.562   3.377
 3766SOL    HW112197   1.228   3.552   3.344
 3766SOL    HW212198   1.350   3.658   3.370
 3767SOL     OW12199   1.173   4.966   6.158
 3767SOL    HW112200   1.115   4.982   6.078
 3767SOL    HW212201   1.231   5.045   6.173
 3768SOL     OW12202   0.707   6.466   3.222
 3768SOL    HW112203   0.746   6.540   3.167
 3768SOL    HW212204   0.675   6.503   3.310
 3769SOL     OW12205   5.930   4.757   5.019
 3769SOL    HW112206   6.003   4.797   5.075
 3769SOL    HW212207   5.868   4.830   4.988
 3770SOL     OW12208   1.912   0.731   1.022
 3770SOL    HW112209   1.909   0.664   0.948
 3770SOL    HW212210   1.902   0.823   0.984
 3771SOL     OW12211   6.266   5.185   6.426
 3771SOL    HW112212   6.257   5.268   6.371
 3771SOL    HW212213   6.291   5.209   6.519
 3772SOL     OW12214   1.309   6.233   0.935
 3772SOL    HW112215   1.316   6.134   0.951
 3772SOL    HW212216   1.257   6.249   0.851
 3773SOL     OW12217   5.565   4.626   6.531
 3773SOL    HW112218   5.627   4.549   6.547
 3773SOL    HW212219   5.538   4.628   6.435
 3774SOL     OW12220   6.691   5.062   1.858
 3774SOL    HW112221   6.726   4.972   1.832
 3774SOL    HW212222   6.719   5.083   1.952
 3775SOL     OW12223   4.928   4.895   4.805
 3775SOL    HW112224   4.854   4.826   4.804
 3775SOL    HW212225   4.915   4.955   4.884
 3776SOL     OW12226   3.383   2.829   5.949
 3776SOL    HW112227   3.365   2.731   5.948
 3776SOL    HW212228   3.431   2.855   5.864
 3777SOL     OW12229   2.543   5.915   4.200
 3777SOL    HW112230   2.494   5.903   4.287
 3777SOL    HW212231   2.502   5.990   4.149
 3778SOL     OW12232   3.508   5.596   5.777
 3778SOL    HW112233   3.480   5.544   5.697
 3778SOL    HW212234   3.479   5.549   5.860
 3779SOL     OW12235   6.841   4.928   6.955
 3779SOL    HW112236   6.890   4.854   7.002
 3779SOL    HW212237   6.776   4.889   6.891
 3780SOL     OW12238   5.550   4.006   1.527
 3780SOL    HW112239   5.530   3.910   1.509
 3780SOL    HW212240   5.513   4.062   1.453
 3781SOL     OW12241   2.688   6.275   4.853
 3781SOL    HW112242   2.621   6.325   4.908
 3781SOL    HW212243   2.762   6.242   4.911
 3782SOL     OW12244   4.716   5.818   1.202
 3782SOL    HW112245   4.628   5.863   1.219
 3782SOL    HW212246   4.700   5.722   1.179
 3783SOL     OW12247   5.128   5.674   4.437
 3783SOL    HW112248   5.056   5.717   4.492
 3783SOL    HW212249   5.093   5.655   4.345
 3784SOL     OW12250   6.468   2.192   4.286
 3784SOL    HW112251   6.401   2.265   4.295
 3784SOL    HW212252   6.423   2.103   4.298
 3785SOL     OW12253   1.728   3.390   4.057
 3785SOL    HW112254   1.731   3.293   4.034
 3785SOL    HW212255   1.671   3.439   3.991
 3786SOL     OW12256   2.483   2.562   4.798
 3786SOL    HW112257   2.568   2.616   4.800
 3786SOL    HW212258   2.409   2.615   4.839
 3787SOL     OW12259   4.427   6.944   3.704
 3787SOL    HW112260   4.478   6.864   3.733
 3787SOL    HW212261   4.366   6.974   3.777
 3788SOL     OW12262   5.968   2.978   4.902
 3788SOL    HW112263   5.932   3.031   4.825
 3788SOL    HW212264   6.067   2.971   4.893
 3789SOL     OW12265   1.641   3.059   2.581
 3789SOL    HW112266   1.704   3.055   2.503
 3789SOL    HW212267   1.568   3.124   2.561
 3790SOL     OW12268   0.182   6.788   1.273
 3790SOL    HW112269   0.173   6.851   1.350
 3790SOL    HW212270   0.188   6.694   1.307
 3791SOL     OW12271   4.943   1.398   5.463
 3791SOL    HW112272   4.875   1.369   5.529
 3791SOL    HW212273   4.901   1.403   5.372
 3792SOL     OW12274   6.734   0.659   4.529
 3792SOL    HW112275   6.712   0.609   4.613
 3792SOL    HW212276   6.736   0.757   4.548
 3793SOL     OW12277   4.984   4.942   0.628
 3793SOL    HW112278   4.997   4.847   0.657
 3793SOL    HW212279   5.046   5.001   0.680
 3794SOL     OW12280   0.674   4.299   6.679
 3794SOL    HW112281   0.636   4.389   6.699
 3794SOL    HW212282   0.620   4.255   6.608
 3795SOL     OW12283   2.275   6.161   1.365
 3795SOL    HW112284   2.342   6.089   1.345
 3795SOL    HW212285   2.314   6.250   1.340
 3796SOL     OW12286   5.278   1.346   0.068
 3796SOL    HW112287   5.211   1.396   0.124
 3796SOL    HW212288   5.242   1.335   6.995
 3797SOL     OW12289   1.354   4.510   2.143
 3797SOL    HW112290   1.390   4.430   2.190
 3797SOL    HW212291   1.378   4.506   2.046
 3798SOL     OW12292   1.635   5.830   3.573
 3798SOL    HW112293   1.698   5.887   3.626
 3798SOL    HW212294   1.565   5.792   3.633
 3799SOL     OW12295   6.828   1.130   3.102
 3799SOL    HW112296   6.838   1.145   3.200
 3799SOL    HW212297   6.761   1.057   3.086
 3800SOL     OW12298   5.130   2.555   2.872
 3800SOL    HW112299   5.198   2.489   2.841
 3800SOL    HW212300   5.039   2.517   2.860
 3801SOL     OW12301   5.597   1.382   1.504
 3801SOL    HW112302   5.608   1.422   1.595
 3801SOL    HW212303   5.682   1.337   1.477
 3802SOL     OW12304   6.463   2.805   2.000
 3802SOL    HW112305   6.380   2.852   2.030
 3802SOL    HW212306   6.463   2.797   1.901
 3803SOL     OW12307   3.183   3.164   4.265
 3803SOL    HW112308   3.190   3.066   4.247
 3803SOL    HW212309   3.235   3.186   4.348
 3804SOL     OW12310   4.398   5.831   3.407
 3804SOL    HW112311   4.438   5.909   3.359
 3804SOL    HW212312   4.471   5.766   3.431
 3805SOL     OW12313   2.563   2.530   0.148
 3805SOL    HW112314   2.548   2.474   0.066
 3805SOL    HW212315   2.661   2.532   0.170
 3806SOL     OW12316   3.217   4.651   1.447
 3806SOL    HW112317   3.225   4.748   1.424
 3806SOL    HW212318   3.176   4.641   1.538
 3807SOL     OW12319   1.820   4.665   4.642
 3807SOL    HW112320   1.744   4.647   4.704
 3807SOL    HW212321   1.827   4.592   4.575
 3808SOL     OW12322   3.171   6.863   6.192
 3808SOL    HW112323   3.122   6.842   6.277
 3808SOL    HW212324   3.106   6.895   6.123
 3809SOL     OW12325   5.146   2.505   1.661
 3809SOL    HW112326   5.047   2.520   1.655
 3809SOL    HW212327   5.187   2.578   1.716
 3810SOL     OW12328   5.930   2.326   2.103
 3810SOL    HW112329   5.960   2.252   2.042
 3810SOL    HW212330   5.988   2.328   2.185
 3811SOL     OW12331   0.316   5.381   5.445
 3811SOL    HW112332   0.273   5.468   5.468
 3811SOL    HW212333   0.276   5.308   5.501
 3812SOL     OW12334   4.613   6.016   0.893
 3812SOL    HW112335   4.608   6.112   0.923
 3812SOL    HW212336   4.689   5.970   0.939
 3813SOL     OW12337   6.100   4.387   6.922
 3813SOL    HW112338   6.159   4.467   6.916
 3813SOL    HW212339   6.149   4.310   6.962
 3814SOL     OW12340   6.609   0.479   4.911
 3814SOL    HW112341   6.647   0.454   4.822
 3814SOL    HW212342   6.680   0.467   4.981
 3815SOL     OW12343   6.844   3.672   5.934
 3815SOL    HW112344   6.812   3.766   5.925
 3815SOL    HW212345   6.893   3.662   6.021
 3816SOL     OW12346   0.455   6.107   0.341
 3816SOL    HW112347   0.381   6.062   0.291
 3816SOL    HW212348   0.516   6.038   0.380
 3817SOL     OW12349   4.840   3.985   2.107
 3817SOL    HW112350   4.767   3.925   2.138
 3817SOL    HW212351   4.825   4.010   2.012
 3818SOL     OW12352   5.993   6.478   2.821
 3818SOL    HW112353   6.061   6.523   2.879
 3818SOL    HW212354   5.906   6.473   2.870
 3819SOL     OW12355   6.622   4.512   3.777
 3819SOL    HW112356   6.713   4.513   3.819
 3819SOL    HW212357   6.630   4.483   3.682
 3820SOL     OW12358   3.899   0.093   4.760
 3820SOL    HW112359   3.984   0.141   4.739
 3820SOL    HW212360   3.835   0.102   4.683
 3821SOL     OW12361   2.002   0.225   0.261
 3821SOL    HW112362   1.955   0.215   0.349
 3821SOL    HW212363   1.952   0.291   0.205
 3822SOL     OW12364   4.662   0.585   1.671
 3822SOL    HW112365   4.643   0.608   1.766
 3822SOL    HW212366   4.691   0.666   1.622
 3823SOL     OW12367   4.912   5.833   6.995
 3823SOL    HW112368   4.883   5.761   6.932
 3823SOL    HW212369   4.987   5.799   0.032
 3824SOL     OW12370   2.516   2.839   0.563
 3824SOL    HW112371   2.533   2.923   0.513
 3824SOL    HW212372   2.576   2.835   0.643
 3825SOL     OW12373   1.059   3.699   5.732
 3825SOL    HW112374   1.024   3.655   5.815
 3825SOL    HW212375   1.082   3.794   5.752
 3826SOL     OW12376   5.938   4.029   3.744
 3826SOL    HW112377   5.961   4.113   3.695
 3826SOL    HW212378   6.005   4.013   3.816
 3827SOL     OW12379   0.901   1.090   1.404
 3827SOL    HW112380   0.956   1.007   1.397
 3827SOL    HW212381   0.955   1.169   1.375
 3828SOL     OW12382   3.510   4.172   3.945
 3828SOL    HW112383   3.421   4.159   3.901
 3828SOL    HW212384   3.571   4.097   3.921
 3829SOL     OW12385   0.987   4.020   2.566
 3829SOL    HW112386   1.073   4.058   2.599
 3829SOL    HW212387   0.918   4.023   2.638
 3830SOL     OW12388   6.493   1.099   4.231
 3830SOL    HW112389   6.536   1.082   4.320
 3830SOL    HW212390   6.543   1.172   4.183
 3831SOL     OW12391   4.735   1.987   3.518
 3831SOL    HW112392   4.724   2.064   3.455
 3831SOL    HW212393   4.708   1.902   3.473
 3832SOL     OW12394   6.240   0.742   3.791
 3832SOL    HW112395   6.185   0.825   3.783
 3832SOL    HW212396   6.258   0.722   3.887
 3833SOL     OW12397   0.774   2.018   5.580
 3833SOL    HW112398   0.699   1.951   5.591
 3833SOL    HW212399   0.777   2.078   5.659
 3834SOL     OW12400   4.818   4.173   0.612
 3834SOL    HW112401   4.813   4.097   0.677
 3834SOL    HW212402   4.780   4.144   0.524
 3835SOL     OW12403   4.061   5.331   4.684
 3835SOL    HW112404   3.988   5.396   4.707
 3835SOL    HW212405   4.051   5.249   4.741
 3836SOL     OW12406   0.026   6.547   5.809
 3836SOL    HW112407   0.055   6.641   5.792
 3836SOL    HW212408   0.065   6.487   5.740
 3837SOL     OW12409   4.501   4.819   5.282
 3837SOL    HW112410   4.578   4.759   5.259
 3837SOL    HW212411   4.471   4.867   5.200
 3838SOL     OW12412   0.706   1.166   3.695
 3838SOL    HW112413   0.721   1.261   3.668
 3838SOL    HW212414   0.608   1.152   3.712
 3839SOL     OW12415   3.684   0.584   3.870
 3839SOL    HW112416   3.664   0.682   3.867
 3839SOL    HW212417   3.766   0.569   3.925
 3840SOL     OW12418   2.462   1.426   6.833
 3840SOL    HW112419   2.375   1.475   6.845
 3840SOL    HW212420   2.443   1.331   6.807
 3841SOL     OW12421   5.977   4.681   4.271
 3841SOL    HW112422   5.965   4.588   4.305
 3841SOL    HW212423   5.897   4.736   4.294
 3842SOL     OW12424   1.917   3.109   4.980
 3842SOL    HW112425   1.866   3.023   4.989
 3842SOL    HW212426   1.855   3.181   4.950
 3843SOL     OW12427   5.497   2.841   6.673
 3843SOL    HW112428   5.529   2.821   6.580
 3843SOL    HW212429   5.422   2.906   6.669
 3844SOL     OW12430   0.960   6.412   0.851
 3844SOL    HW112431   0.920   6.326   0.882
 3844SOL    HW212432   1.028   6.393   0.781
 3845SOL     OW12433   2.059   5.667   0.815
 3845SOL    HW112434   2.067   5.693   0.912
 3845SOL    HW212435   2.099   5.739   0.758
 3846SOL     OW12436   1.317   2.593   3.170
 3846SOL    HW112437   1.232   2.632   3.136
 3846SOL    HW212438   1.303   2.558   3.262
 3847SOL     OW12439   7.017   1.565   6.520
 3847SOL    HW112440   6.940   1.616   6.559
 3847SOL    HW212441   0.083   1.599   6.559
 3848SOL     OW12442   5.730   3.446   2.350
 3848SOL    HW112443   5.687   3.535   2.337
 3848SOL    HW212444   5.659   3.378   2.373
 3849SOL     OW12445   6.381   5.358   6.951
 3849SOL    HW112446   6.349   5.291   7.017
 3849SOL    HW212447   6.479   5.374   6.963
 3850SOL     OW12448   2.335   2.154   1.500
 3850SOL    HW112449   2.372   2.199   1.418
 3850SOL    HW212450   2.255   2.101   1.476
 3851SOL     OW12451   0.304   6.127   2.967
 3851SOL    HW112452   0.248   6.205   2.941
 3851SOL    HW212453   0.316   6.067   2.888
 3852SOL     OW12454   2.865   6.034   5.906
 3852SOL    HW112455   2.916   6.078   5.831
 3852SOL    HW212456   2.767   6.041   5.887
 3853SOL     OW12457   2.423   0.560   3.621
 3853SOL    HW112458   2.352   0.503   3.578
 3853SOL    HW212459   2.384   0.647   3.649
 3854SOL     OW12460   1.816   2.261   2.390
 3854SOL    HW112461   1.733   2.311   2.365
 3854SOL    HW212462   1.891   2.326   2.405
 3855SOL     OW12463   4.318   0.420   0.274
 3855SOL    HW112464   4.325   0.347   0.342
 3855SOL    HW212465   4.395   0.482   0.284
 3856SOL     OW12466   0.386   1.784   6.760
 3856SOL    HW112467   0.480   1.754   6.778
 3856SOL    HW212468   0.372   1.874   6.800
 3857SOL     OW12469   1.880   0.840   5.483
 3857SOL    HW112470   1.820   0.899   5.429
 3857SOL    HW212471   1.841   0.749   5.489
 3858SOL     OW12472   4.296   0.684   4.987
 3858SOL    HW112473   4.281   0.595   5.029
 3858SOL    HW212474   4.361   0.737   5.043
 3859SOL     OW12475   5.600   0.398   1.662
 3859SOL    HW112476   5.663   0.359   1.728
 3859SOL    HW212477   5.635   0.384   1.570
 3860SOL     OW12478   1.491   0.048   4.425
 3860SOL    HW112479   1.520   0.135   4.385
 3860SOL    HW212480   1.394   0.053   4.449
 3861SOL     OW12481   4.241   5.926   2.019
 3861SOL    HW112482   4.270   5.835   2.048
 3861SOL    HW212483   4.182   5.966   2.089
 3862SOL     OW12484   1.210   0.133   3.676
 3862SOL    HW112485   1.275   0.160   3.604
 3862SOL    HW212486   1.223   0.191   3.756
 3863SOL     OW12487   4.262   0.548   1.087
 3863SOL    HW112488   4.319   0.621   1.049
 3863SOL    HW212489   4.170   0.583   1.104
 3864SOL     OW12490   2.446   0.010   4.475
 3864SOL    HW112491   2.389   0.034   4.397
 3864SOL    HW212492   2.474   0.094   4.524
 3865SOL     OW12493   3.569   0.848   0.128
 3865SOL    HW112494   3.490   0.790   0.106
 3865SOL    HW212495   3.628   0.856   0.047
 3866SOL     OW12496   2.795   2.654   6.695
 3866SOL    HW112497   2.714   2.601   6.672
 3866SOL    HW212498   2.776   2.751   6.684
 3867SOL     OW12499   0.663   3.917   2.244
 3867SOL    HW112500   0.646   3.819   2.242
 3867SOL    HW212501   0.596   3.964   2.186
 3868SOL     OW12502   4.134   1.366   6.621
 3868SOL    HW112503   4.087   1.281   6.644
 3868SOL    HW212504   4.232   1.355   6.637
 3869SOL     OW12505   6.418   3.162   3.505
 3869SOL    HW112506   6.326   3.155   3.466
 3869SOL    HW212507   6.452   3.070   3.525
 3870SOL     OW12508   6.627   0.245   3.305
 3870SOL    HW112509   6.614   0.228   3.208
 3870SOL    HW212510   6.649   0.342   3.320
 3871SOL     OW12511   3.831   5.662   4.274
 3871SOL    HW112512   3.786   5.574   4.256
 3871SOL    HW212513   3.762   5.729   4.300
 3872SOL     OW12514   3.529   3.568   4.678
 3872SOL    HW112515   3.515   3.655   4.632
 3872SOL    HW212516   3.624   3.562   4.711
 3873SOL     OW12517   4.409   2.122   0.984
 3873SOL    HW112518   4.428   2.165   1.072
 3873SOL    HW212519   4.430   2.187   0.911
 3874SOL     OW12520   3.206   0.450   0.181
 3874SOL    HW112521   3.187   0.442   0.083
 3874SOL    HW212522   3.122   0.430   0.233
 3875SOL     OW12523   1.455   2.088   5.215
 3875SOL    HW112524   1.457   1.988   5.214
 3875SOL    HW212525   1.468   2.121   5.309
 3876SOL     OW12526   4.250   5.936   1.345
 3876SOL    HW112527   4.208   5.966   1.431
 3876SOL    HW212528   4.181   5.892   1.288
 3877SOL     OW12529   6.774   2.362   0.470
 3877SOL    HW112530   6.762   2.274   0.423
 3877SOL    HW212531   6.708   2.368   0.546
 3878SOL     OW12532   3.949   6.560   4.238
 3878SOL    HW112533   3.852   6.553   4.258
 3878SOL    HW212534   3.965   6.542   4.141
 3879SOL     OW12535   4.887   4.955   0.039
 3879SOL    HW112536   4.926   4.868   0.010
 3879SOL    HW212537   4.906   5.024   6.989
 3880SOL     OW12538   4.725   4.178   4.138
 3880SOL    HW112539   4.805   4.131   4.101
 3880SOL    HW212540   4.701   4.137   4.226
 3881SOL     OW12541   1.114   3.913   0.262
 3881SOL    HW112542   1.160   3.916   0.173
 3881SOL    HW212543   1.174   3.954   0.331
 3882SOL     OW12544   0.920   1.514   0.801
 3882SOL    HW112545   0.933   1.551   0.893
 3882SOL    HW212546   0.825   1.530   0.772
 3883SOL     OW12547   4.603   5.725   3.600
 3883SOL    HW112548   4.555   5.758   3.681
 3883SOL    HW212549   4.602   5.625   3.599
 3884SOL     OW12550   1.152   5.771   3.150
 3884SOL    HW112551   1.191   5.854   3.113
 3884SOL    HW212552   1.225   5.706   3.173
 3885SOL     OW12553   5.537   6.696   2.651
 3885SOL    HW112554   5.482   6.759   2.597
 3885SOL    HW212555   5.615   6.746   2.690
 3886SOL     OW12556   3.961   6.697   6.051
 3886SOL    HW112557   3.871   6.673   6.087
 3886SOL    HW212558   3.990   6.785   6.089
 3887SOL     OW12559   0.081   6.553   1.453
 3887SOL    HW112560   0.086   6.587   1.547
 3887SOL    HW212561   7.005   6.540   1.428
 3888SOL     OW12562   5.819   6.353   4.687
 3888SOL    HW112563   5.811   6.444   4.727
 3888SOL    HW212564   5.807   6.284   4.760
 3889SOL     OW12565   5.973   3.557   6.555
 3889SOL    HW112566   6.018   3.627   6.612
 3889SOL    HW212567   6.042   3.502   6.510
 3890SOL     OW12568   5.719   3.852   4.836
 3890SOL    HW112569   5.804   3.838   4.887
 3890SOL    HW212570   5.641   3.830   4.895
 3891SOL     OW12571   5.757   4.933   3.581
 3891SOL    HW112572   5.750   5.024   3.622
 3891SOL    HW212573   5.807   4.872   3.643
 3892SOL     OW12574   6.916   2.475   1.395
 3892SOL    HW112575   6.853   2.538   1.440
 3892SOL    HW212576   7.010   2.505   1.411
 3893SOL     OW12577   4.565   3.253   1.129
 3893SOL    HW112578   4.657   3.214   1.125
 3893SOL    HW212579   4.500   3.182   1.156
 3894SOL     OW12580   4.999   0.310   6.867
 3894SOL    HW112581   4.956   0.397   6.890
 3894SOL    HW212582   5.086   0.303   6.916
 3895SOL     OW12583   1.435   6.660   4.724
 3895SOL    HW112584   1.353   6.682   4.776
 3895SOL    HW212585   1.412   6.644   4.628
 3896SOL     OW12586   1.117   1.133   6.978
 3896SOL    HW112587   1.150   1.224   7.004
 3896SOL    HW212588   1.052   1.100   0.026
 3897SOL     OW12589   4.806   5.702   1.952
 3897SOL    HW112590   4.758   5.652   1.880
 3897SOL    HW212591   4.740   5.749   2.010
 3898SOL     OW12592   3.752   2.614   6.225
 3898SOL    HW112593   3.724   2.675   6.299
 3898SOL    HW212594   3.827   2.656   6.174
 3899SOL     OW12595   4.719   6.916   6.105
 3899SOL    HW112596   4.683   6.823   6.097
 3899SOL    HW212597   4.643   6.981   6.107
 3900SOL     OW12598   5.666   3.464   3.530
 3900SOL    HW112599   5.598   3.534   3.550
 3900SOL    HW212600   5.695   3.472   3.435
 3901SOL     OW12601   3.109   0.602   6.800
 3901SOL    HW112602   3.081   0.686   6.847
 3901SOL    HW212603   3.043   0.581   6.727
 3902SOL     OW12604   6.139   3.369   2.695
 3902SOL    HW112605   6.050   3.377   2.649
 3902SOL    HW212606   6.208   3.420   2.644
 3903SOL     OW12607   3.432   5.645   6.878
 3903SOL    HW112608   3.403   5.728   6.830
 3903SOL    HW212609   3.518   5.663   6.926
 3904SOL     OW12610   1.169   0.225   6.753
 3904SOL    HW112611   1.181   0.279   6.669
 3904SOL    HW212612   1.093   0.263   6.805
 3905SOL     OW12613   0.160   6.116   6.128
 3905SOL    HW112614   0.174   6.083   6.222
 3905SOL    HW212615   0.111   6.204   6.131
 3906SOL     OW12616   5.507   6.108   5.451
 3906SOL    HW112617   5.429   6.069   5.402
 3906SOL    HW212618   5.592   6.084   5.404
 3907SOL     OW12619   5.913   1.901   4.000
 3907SOL    HW112620   5.976   1.966   3.958
 3907SOL    HW212621   5.828   1.898   3.947
 3908SOL     OW12622   0.507   2.257   6.813
 3908SOL    HW112623   0.606   2.257   6.801
 3908SOL    HW212624   0.463   2.258   6.723
 3909SOL     OW12625   5.341   5.480   4.469
 3909SOL    HW112626   5.272   5.553   4.467
 3909SOL    HW212627   5.374   5.469   4.563
 3910SOL     OW12628   3.302   3.630   2.566
 3910SOL    HW112629   3.253   3.611   2.651
 3910SOL    HW212630   3.297   3.728   2.547
 3911SOL     OW12631   5.539   1.477   4.916
 3911SOL    HW112632   5.517   1.500   4.821
 3911SOL    HW212633   5.620   1.419   4.918
 3912SOL     OW12634   5.592   1.802   5.416
 3912SOL    HW112635   5.636   1.886   5.445
 3912SOL    HW212636   5.613   1.729   5.481
 3913SOL     OW12637   1.245   6.657   6.664
 3913SOL    HW112638   1.231   6.657   6.763
 3913SOL    HW212639   1.162   6.689   6.618
 3914SOL     OW12640   3.486   0.289   6.542
 3914SOL    HW112641   3.401   0.339   6.560
 3914SOL    HW212642   3.468   0.216   6.475
 3915SOL     OW12643   4.943   5.300   1.363
 3915SOL    HW112644   4.886   5.370   1.406
 3915SOL    HW212645   5.037   5.332   1.359
 3916SOL     OW12646   0.967   0.049   2.727
 3916SOL    HW112647   0.968   6.970   2.710
 3916SOL    HW212648   1.061   0.084   2.727
 3917SOL     OW12649   1.816   0.133   6.924
 3917SOL    HW112650   1.904   0.101   6.889
 3917SOL    HW212651   1.770   0.188   6.855
 3918SOL     OW12652   5.517   4.064   1.786
 3918SOL    HW112653   5.456   4.141   1.808
 3918SOL    HW212654   5.515   4.048   1.688
 3919SOL     OW12655   3.972   0.036   0.666
 3919SOL    HW112656   3.948   0.069   0.575
 3919SOL    HW212657   3.917   6.976   0.689
 3920SOL     OW12658   2.041   2.901   0.036
 3920SOL    HW112659   2.101   2.980   0.047
 3920SOL    HW212660   1.993   2.883   0.122
 3921SOL     OW12661   0.777   4.111   1.616
 3921SOL    HW112662   0.783   4.205   1.581
 3921SOL    HW212663   0.715   4.058   1.558
 3922SOL     OW12664   0.245   3.753   1.745
 3922SOL    HW112665   0.148   3.769   1.764
 3922SOL    HW212666   0.299   3.817   1.799
 3923SOL     OW12667   0.794   0.600   0.422
 3923SOL    HW112668   0.778   0.653   0.506
 3923SOL    HW212669   0.871   0.537   0.437
 3924SOL     OW12670   6.459   5.103   4.991
 3924SOL    HW112671   6.449   5.073   4.896
 3924SOL    HW212672   6.368   5.111   5.032
 3925SOL     OW12673   1.740   5.091   1.941
 3925SOL    HW112674   1.804   5.025   1.980
 3925SOL    HW212675   1.791   5.171   1.909
 3926SOL     OW12676   4.402   4.570   2.485
 3926SOL    HW112677   4.444   4.529   2.404
 3926SOL    HW212678   4.407   4.506   2.561
 3927SOL     OW12679   0.620   3.040   6.276
 3927SOL    HW112680   0.652   2.983   6.200
 3927SOL    HW212681   0.520   3.039   6.279
 3928SOL     OW12682   4.630   6.030   6.885
 3928SOL    HW112683   4.612   5.935   6.862
 3928SOL    HW212684   4.728   6.049   6.875
 3929SOL     OW12685   0.840   0.741   4.961
 3929SOL    HW112686   0.926   0.791   4.954
 3929SOL    HW212687   0.787   0.776   5.038
 3930SOL     OW12688   2.646   2.131   3.606
 3930SOL    HW112689   2.701   2.208   3.637
 3930SOL    HW212690   2.683   2.046   3.643
 3931SOL     OW12691   6.946   1.641   2.106
 3931SOL    HW112692   6.868   1.611   2.161
 3931SOL    HW212693   6.917   1.712   2.042
 3932SOL     OW12694   0.379   2.906   4.064
 3932SOL    HW112695   0.459   2.848   4.052
 3932SOL    HW212696   0.302   2.851   4.097
 3933SOL     OW12697   1.508   0.163   6.205
 3933SOL    HW112698   1.521   0.094   6.134
 3933SOL    HW212699   1.433   0.135   6.266
 3934SOL     OW12700   6.128   0.070   5.972
 3934SOL    HW112701   6.147   0.091   5.876
 3934SOL    HW212702   6.146   6.993   5.990
 3935SOL     OW12703   3.702   0.471   0.813
 3935SOL    HW112704   3.655   0.505   0.732
 3935SOL    HW212705   3.635   0.453   0.885
 3936SOL     OW12706   6.255   5.890   4.095
 3936SOL    HW112707   6.351   5.895   4.123
 3936SOL    HW212708   6.199   5.859   4.171
 3937SOL     OW12709   0.082   1.599   2.594
 3937SOL    HW112710   0.150   1.592   2.667
 3937SOL    HW212711   7.016   1.558   2.624
 3938SOL     OW12712   7.017   1.111   2.929
 3938SOL    HW112713   6.940   1.112   2.994
 3938SOL    HW212714   7.008   1.188   2.866
 3939SOL     OW12715   2.939   1.854   1.880
 3939SOL    HW112716   2.848   1.855   1.923
 3939SOL    HW212717   2.985   1.768   1.903
 3940SOL     OW12718   4.011   3.223   1.166
 3940SOL    HW112719   3.974   3.300   1.114
 3940SOL    HW212720   3.947   3.147   1.165
 3941SOL     OW12721   4.638   4.442   5.918
 3941SOL    HW112722   4.712   4.459   5.984
 3941SOL    HW212723   4.671   4.380   5.847
 3942SOL     OW12724   6.547   6.657   7.006
 3942SOL    HW112725   6.504   6.569   0.003
 3942SOL    HW212726   6.597   6.686   0.068
 3943SOL     OW12727   0.635   3.147   4.055
 3943SOL    HW112728   0.692   3.229   4.048
 3943SOL    HW212729   0.615   3.128   4.151
 3944SOL     OW12730   4.569   2.252   4.650
 3944SOL    HW112731   4.488   2.310   4.651
 3944SOL    HW212732   4.544   2.160   4.619
 3945SOL     OW12733   0.141   1.641   1.024
 3945SOL    HW112734   0.241   1.642   1.033
 3945SOL    HW212735   0.112   1.554   0.984
 3946SOL     OW12736   4.667   4.474   3.432
 3946SOL    HW112737   4.668   4.398   3.367
 3946SOL    HW212738   4.580   4.473   3.482
 3947SOL     OW12739   4.318   6.256   0.325
 3947SOL    HW112740   4.308   6.204   0.410
 3947SOL    HW212741   4.360   6.197   0.255
 3948SOL     OW12742   6.471   4.778   1.430
 3948SOL    HW112743   6.375   4.760   1.454
 3948SOL    HW212744   6.511   4.697   1.388
 3949SOL     OW12745   4.485   5.966   2.939
 3949SOL    HW112746   4.431   6.021   2.875
 3949SOL    HW212747   4.476   5.869   2.915
 3950SOL     OW12748   1.632   5.682   1.348
 3950SOL    HW112749   1.552   5.709   1.401
 3950SOL    HW212750   1.686   5.616   1.400
 3951SOL     OW12751   4.484   0.855   1.463
 3951SOL    HW112752   4.494   0.888   1.370
 3951SOL    HW212753   4.424   0.774   1.464
 3952SOL     OW12754   0.157   2.876   1.020
 3952SOL    HW112755   0.198   2.789   0.991
 3952SOL    HW212756   0.065   2.859   1.055
 3953SOL     OW12757   4.155   3.461   1.949
 3953SOL    HW112758   4.190   3.516   1.874
 3953SOL    HW212759   4.057   3.449   1.939
 3954SOL     OW12760   4.198   4.923   5.514
 3954SOL    HW112761   4.124   4.969   5.563
 3954SOL    HW212762   4.285   4.940   5.560
 3955SOL     OW12763   3.528   1.458   5.831
 3955SOL    HW112764   3.609   1.443   5.774
 3955SOL    HW212765   3.448   1.421   5.785
 3956SOL     OW12766   1.386   1.184   2.596
 3956SOL    HW112767   1.439   1.100   2.611
 3956SOL    HW212768   1.320   1.168   2.522
 3957SOL     OW12769   3.621   6.882   4.342
 3957SOL    HW112770   3.554   6.945   4.381
 3957SOL    HW212771   3.579   6.792   4.329
 3958SOL     OW12772   6.020   2.466   3.985
 3958SOL    HW112773   6.085   2.535   4.017
 3958SOL    HW212774   5.938   2.468   4.042
 3959SOL     OW12775   4.951   5.133   0.278
 3959SOL    HW112776   4.924   5.085   0.195
 3959SOL    HW212777   4.882   5.119   0.349
 3960SOL     OW12778   5.149   2.138   5.134
 3960SOL    HW112779   5.072   2.186   5.177
 3960SOL    HW212780   5.234   2.187   5.154
 3961SOL     OW12781   5.495   0.146   3.143
 3961SOL    HW112782   5.561   0.106   3.207
 3961SOL    HW212783   5.538   0.159   3.054
 3962SOL     OW12784   0.509   5.552   6.062
 3962SOL    HW112785   0.416   5.521   6.081
 3962SOL    HW212786   0.505   5.635   6.006
 3963SOL     OW12787   5.009   6.251   2.001
 3963SOL    HW112788   5.076   6.319   1.971
 3963SOL    HW212789   4.985   6.268   2.097
 3964SOL     OW12790   4.813   3.794   3.197
 3964SOL    HW112791   4.813   3.805   3.297
 3964SOL    HW212792   4.888   3.733   3.171
 3965SOL     OW12793   5.597   3.403   4.504
 3965SOL    HW112794   5.593   3.501   4.485
 3965SOL    HW212795   5.530   3.380   4.575
 3966SOL     OW12796   3.512   5.502   6.627
 3966SOL    HW112797   3.435   5.487   6.566
 3966SOL    HW212798   3.478   5.531   6.717
 3967SOL     OW12799   1.818   4.309   1.842
 3967SOL    HW112800   1.824   4.211   1.860
 3967SOL    HW212801   1.910   4.347   1.832
 3968SOL     OW12802   4.319   0.588   0.743
 3968SOL    HW112803   4.384   0.622   0.811
 3968SOL    HW212804   4.239   0.647   0.742
 3969SOL     OW12805   1.702   5.608   1.923
 3969SOL    HW112806   1.744   5.665   1.994
 3969SOL    HW212807   1.623   5.656   1.884
 3970SOL     OW12808   5.881   5.847   1.978
 3970SOL    HW112809   5.919   5.790   2.050
 3970SOL    HW212810   5.954   5.874   1.914
 3971SOL     OW12811   2.733   5.812   4.048
 3971SOL    HW112812   2.712   5.839   3.955
 3971SOL    HW212813   2.657   5.838   4.108
 3972SOL     OW12814   1.075   4.076   6.610
 3972SOL    HW112815   1.121   3.994   6.576
 3972SOL    HW212816   1.080   4.148   6.541
 3973SOL     OW12817   1.010   6.070   1.333
 3973SOL    HW112818   0.936   6.048   1.397
 3973SOL    HW212819   0.979   6.141   1.270
 3974SOL     OW12820   2.057   0.875   5.974
 3974SOL    HW112821   2.030   0.805   6.040
 3974SOL    HW212822   2.138   0.845   5.925
 3975SOL     OW12823   5.021   2.140   5.967
 3975SOL    HW112824   5.105   2.184   5.998
 3975SOL    HW212825   4.992   2.071   6.034
 3976SOL     OW12826   2.038   6.323   2.641
 3976SOL    HW112827   2.110   6.277   2.590
 3976SOL    HW212828   1.994   6.391   2.583
 3977SOL     OW12829   1.210   4.167   6.821
 3977SOL    HW112830   1.123   4.145   6.776
 3977SOL    HW212831   1.210   4.264   6.847
 3978SOL     OW12832   6.702   5.233   3.500
 3978SOL    HW112833   6.622   5.176   3.520
 3978SOL    HW212834   6.682   5.292   3.422
 3979SOL     OW12835   3.460   1.037   6.388
 3979SOL    HW112836   3.400   1.092   6.446
 3979SOL    HW212837   3.492   0.957   6.440
 3980SOL     OW12838   6.343   6.497   6.336
 3980SOL    HW112839   6.290   6.415   6.359
 3980SOL    HW212840   6.352   6.555   6.416
 3981SOL     OW12841   5.326   6.091   0.535
 3981SOL    HW112842   5.247   6.051   0.582
 3981SOL    HW212843   5.338   6.186   0.564
 3982SOL     OW12844   1.935   0.171   2.087
 3982SOL    HW112845   2.013   0.130   2.133
 3982SOL    HW212846   1.870   0.100   2.060
 3983SOL     OW12847   4.458   5.148   3.967
 3983SOL    HW112848   4.403   5.231   3.953
 3983SOL    HW212849   4.432   5.106   4.054
 3984SOL     OW12850   6.004   1.855   2.304
 3984SOL    HW112851   6.094   1.896   2.315
 3984SOL    HW212852   5.960   1.892   2.222
 3985SOL     OW12853   3.604   5.110   6.507
 3985SOL    HW112854   3.623   5.016   6.481
 3985SOL    HW212855   3.510   5.133   6.483
 3986SOL     OW12856   5.279   1.895   2.502
 3986SOL    HW112857   5.185   1.892   2.469
 3986SOL    HW212858   5.342   1.881   2.425
 3987SOL     OW12859   3.038   4.843   4.984
 3987SOL    HW112860   2.961   4.783   5.005
 3987SOL    HW212861   3.042   4.858   4.885
 3988SOL     OW12862   4.517   5.619   0.527
 3988SOL    HW112863   4.590   5.559   0.495
 3988SOL    HW212864   4.537   5.650   0.620
 3989SOL     OW12865   6.229   2.319   0.273
 3989SOL    HW112866   6.324   2.318   0.243
 3989SOL    HW212867   6.212   2.239   0.331
 3990SOL     OW12868   4.873   2.821   1.645
 3990SOL    HW112869   4.872   2.813   1.745
 3990SOL    HW212870   4.927   2.901   1.618
 3991SOL     OW12871   0.518   1.106   2.692
 3991SOL    HW112872   0.543   1.083   2.786
 3991SOL    HW212873   0.601   1.122   2.639
 3992SOL     OW12874   3.360   2.025   0.764
 3992SOL    HW112875   3.285   2.023   0.698
 3992SOL    HW212876   3.383   2.119   0.787
 3993SOL     OW12877   1.268   3.188   2.082
 3993SOL    HW112878   1.313   3.266   2.126
 3993SOL    HW212879   1.285   3.105   2.135
 3994SOL     OW12880   2.647   6.913   5.201
 3994SOL    HW112881   2.629   7.011   5.197
 3994SOL    HW212882   2.726   6.896   5.260
 3995SOL     OW12883   1.657   2.892   5.524
 3995SOL    HW112884   1.645   2.981   5.568
 3995SOL    HW212885   1.710   2.833   5.584
 3996SOL     OW12886   0.154   6.511   5.162
 3996SOL    HW112887   0.073   6.496   5.104
 3996SOL    HW212888   0.233   6.466   5.121
 3997SOL     OW12889   5.664   1.278   4.101
 3997SOL    HW112890   5.567   1.252   4.098
 3997SOL    HW212891   5.676   1.350   4.170
 3998SOL     OW12892   3.679   2.155   3.808
 3998SOL    HW112893   3.665   2.163   3.907
 3998SOL    HW212894   3.777   2.152   3.789
 3999SOL     OW12895   6.416   2.348   4.751
 3999SOL    HW112896   6.508   2.385   4.740
 3999SOL    HW212897   6.351   2.401   4.696
 4000SOL     OW12898   3.681   0.088   3.700
 4000SOL    HW112899   3.669   0.107   3.798
 4000SOL    HW212900   3.600   0.039   3.666
 4001SOL     OW12901   1.926   2.182   3.626
 4001SOL    HW112902   1.857   2.112   3.609
 4001SOL    HW212903   2.017   2.140   3.627
 4002SOL     OW12904   2.147   3.761   1.968
 4002SOL    HW112905   2.216   3.832   1.962
 4002SOL    HW212906   2.191   3.671   1.960
 4003SOL     OW12907   3.093   0.184   4.401
 4003SOL    HW112908   3.039   0.262   4.433
 4003SOL    HW212909   3.190   0.201   4.418
 4004SOL     OW12910   6.314   2.092   4.684
 4004SOL    HW112911   6.260   2.108   4.767
 4004SOL    HW212912   6.336   2.180   4.641
 4005SOL     OW12913   5.275   5.353   6.289
 4005SOL    HW112914   5.283   5.452   6.287
 4005SOL    HW212915   5.356   5.312   6.248
 4006SOL     OW12916   3.959   5.586   2.273
 4006SOL    HW112917   3.911   5.537   2.346
 4006SOL    HW212918   3.911   5.672   2.254
 4007SOL     OW12919   6.696   2.397   6.790
 4007SOL    HW112920   6.767   2.365   6.727
 4007SOL    HW212921   6.616   2.428   6.738
 4008SOL     OW12922   2.409   2.404   4.594
 4008SOL    HW112923   2.451   2.481   4.642
 4008SOL    HW212924   2.374   2.434   4.506
 4009SOL     OW12925   4.022   3.817   2.429
 4009SOL    HW112926   4.084   3.892   2.407
 4009SOL    HW212927   4.003   3.765   2.345
 4010SOL     OW12928   2.021   3.574   0.573
 4010SOL    HW112929   2.076   3.536   0.647
 4010SOL    HW212930   1.973   3.499   0.526
 4011SOL     OW12931   1.297   2.418   1.778
 4011SOL    HW112932   1.379   2.379   1.820
 4011SOL    HW212933   1.252   2.348   1.722
 4012SOL     OW12934   6.903   4.209   3.129
 4012SOL    HW112935   6.964   4.170   3.060
 4012SOL    HW212936   6.850   4.135   3.172
 4013SOL     OW12937   4.528   2.454   3.412
 4013SOL    HW112938   4.549   2.508   3.494
 4013SOL    HW212939   4.438   2.411   3.423
 4014SOL     OW12940   5.494   5.948   3.196
 4014SOL    HW112941   5.587   5.961   3.163
 4014SOL    HW212942   5.445   6.036   3.193
 4015SOL     OW12943   5.097   4.077   5.839
 4015SOL    HW112944   5.193   4.075   5.812
 4015SOL    HW212945   5.066   4.171   5.848
 4016SOL     OW12946   3.328   6.279   6.149
 4016SOL    HW112947   3.364   6.245   6.236
 4016SOL    HW212948   3.250   6.222   6.122
 4017SOL     OW12949   6.475   5.647   0.188
 4017SOL    HW112950   6.525   5.597   0.117
 4017SOL    HW212951   6.499   5.611   0.278
 4018SOL     OW12952   3.972   5.728   1.334
 4018SOL    HW112953   3.887   5.779   1.342
 4018SOL    HW212954   4.014   5.745   1.245
 4019SOL     OW12955   5.054   4.919   3.356
 4019SOL    HW112956   5.147   4.955   3.371
 4019SOL    HW212957   5.058   4.819   3.351
 4020SOL     OW12958   5.413   2.241   5.273
 4020SOL    HW112959   5.482   2.274   5.210
 4020SOL    HW212960   5.395   2.310   5.343
 4021SOL     OW12961   3.369   4.451   5.694
 4021SOL    HW112962   3.366   4.501   5.780
 4021SOL    HW212963   3.381   4.354   5.712
 4022SOL     OW12964   4.925   0.338   0.841
 4022SOL    HW112965   4.995   0.298   0.783
 4022SOL    HW212966   4.940   0.437   0.848
 4023SOL     OW12967   5.866   0.776   6.071
 4023SOL    HW112968   5.815   0.842   6.126
 4023SOL    HW212969   5.857   0.798   5.974
 4024SOL     OW12970   4.136   4.750   3.973
 4024SOL    HW112971   4.121   4.800   3.887
 4024SOL    HW212972   4.057   4.762   4.032
 4025SOL     OW12973   0.820   4.669   3.583
 4025SOL    HW112974   0.761   4.590   3.564
 4025SOL    HW212975   0.911   4.652   3.544
 4026SOL     OW12976   5.211   6.082   4.267
 4026SOL    HW112977   5.118   6.107   4.292
 4026SOL    HW212978   5.246   6.014   4.332
 4027SOL     OW12979   4.163   5.053   1.896
 4027SOL    HW112980   4.124   5.051   1.988
 4027SOL    HW212981   4.257   5.020   1.899
 4028SOL     OW12982   2.550   0.452   3.881
 4028SOL    HW112983   2.494   0.487   3.806
 4028SOL    HW212984   2.575   0.357   3.862
 4029SOL     OW12985   1.548   4.617   4.884
 4029SOL    HW112986   1.561   4.539   4.824
 4029SOL    HW212987   1.629   4.630   4.941
 4030SOL     OW12988   0.088   2.282   5.460
 4030SOL    HW112989   0.064   2.282   5.557
 4030SOL    HW212990   0.018   2.230   5.409
 4031SOL     OW12991   3.775   5.571   3.934
 4031SOL    HW112992   3.860   5.556   3.984
 4031SOL    HW212993   3.727   5.650   3.972
 4032SOL     OW12994   4.679   0.079   4.912
 4032SOL    HW112995   4.761   0.054   4.962
 4032SOL    HW212996   4.651   0.004   4.852
 4033SOL     OW12997   2.834   3.757   5.238
 4033SOL    HW112998   2.862   3.672   5.195
 4033SOL    HW212999   2.748   3.743   5.286
 4034SOL     OW13000   6.887   2.629   3.826
 4034SOL    HW113001   6.855   2.536   3.808
 4034SOL    HW213002   6.895   2.642   3.925
 4035SOL     OW13003   0.083   4.889   0.265
 4035SOL    HW113004   0.183   4.892   0.258
 4035SOL    HW213005   0.054   4.922   0.355
 4036SOL     OW13006   6.716   6.722   3.116
 4036SOL    HW113007   6.785   6.780   3.159
 4036SOL    HW213008   6.712   6.634   3.164
 4037SOL     OW13009   6.625   4.026   6.816
 4037SOL    HW113010   6.590   4.020   6.722
 4037SOL    HW213011   6.690   3.952   6.832
 4038SOL     OW13012   5.451   4.784   3.976
 4038SOL    HW113013   5.455   4.746   3.884
 4038SOL    HW213014   5.417   4.714   4.039
 4039SOL     OW13015   4.544   6.295   0.766
 4039SOL    HW113016   4.460   6.348   0.768
 4039SOL    HW213017   4.612   6.342   0.709
 4040SOL     OW13018   3.908   5.992   1.826
 4040SOL    HW113019   3.820   6.039   1.822
 4040SOL    HW213020   3.930   5.954   1.736
 4041SOL     OW13021   1.495   6.889   4.186
 4041SOL    HW113022   1.488   6.914   4.282
 4041SOL    HW213023   1.500   6.972   4.130
 4042SOL     OW13024   5.978   5.069   1.880
 4042SOL    HW113025   5.926   5.127   1.944
 4042SOL    HW213026   5.929   4.983   1.866
 4043SOL     OW13027   6.743   2.868   1.300
 4043SOL    HW113028   6.769   2.940   1.237
 4043SOL    HW213029   6.668   2.900   1.358
 4044SOL     OW13030   6.392   5.711   3.493
 4044SOL    HW113031   6.489   5.707   3.514
 4044SOL    HW213032   6.353   5.795   3.532
 4045SOL     OW13033   2.405   6.048   6.089
 4045SOL    HW113034   2.345   5.969   6.077
 4045SOL    HW213035   2.481   6.024   6.149
 4046SOL     OW13036   1.612   3.234   1.046
 4046SOL    HW113037   1.577   3.320   1.083
 4046SOL    HW213038   1.701   3.214   1.087
 4047SOL     OW13039   3.242   3.624   1.378
 4047SOL    HW113040   3.331   3.649   1.417
 4047SOL    HW213041   3.257   3.570   1.295
 4048SOL     OW13042   5.585   1.417   0.965
 4048SOL    HW113043   5.578   1.341   1.028
 4048SOL    HW213044   5.507   1.417   0.903
 4049SOL     OW13045   6.131   0.868   5.650
 4049SOL    HW113046   6.047   0.849   5.701
 4049SOL    HW213047   6.195   0.792   5.664
 4050SOL     OW13048   2.681   0.550   1.201
 4050SOL    HW113049   2.688   0.451   1.198
 4050SOL    HW213050   2.606   0.581   1.142
 4051SOL     OW13051   3.135   3.506   0.742
 4051SOL    HW113052   3.197   3.581   0.763
 4051SOL    HW213053   3.084   3.526   0.658
 4052SOL     OW13054   1.760   6.265   1.298
 4052SOL    HW113055   1.706   6.184   1.277
 4052SOL    HW213056   1.856   6.239   1.311
 4053SOL     OW13057   3.454   4.917   3.539
 4053SOL    HW113058   3.504   4.855   3.479
 4053SOL    HW213059   3.505   5.002   3.549
 4054SOL     OW13060   5.429   2.068   6.883
 4054SOL    HW113061   5.456   2.137   6.816
 4054SOL    HW213062   5.364   2.108   6.948
 4055SOL     OW13063   3.614   2.092   0.040
 4055SOL    HW113064   3.626   2.041   6.974
 4055SOL    HW213065   3.704   2.116   0.077
 4056SOL     OW13066   4.165   3.400   0.581
 4056SOL    HW113067   4.156   3.499   0.595
 4056SOL    HW213068   4.088   3.353   0.624
 4057SOL     OW13069   5.560   2.529   6.153
 4057SOL    HW113070   5.659   2.542   6.150
 4057SOL    HW213071   5.520   2.563   6.068
 4058SOL     OW13072   0.673   0.370   4.994
 4058SOL    HW113073   0.726   0.412   5.068
 4058SOL    HW213074   0.621   0.292   5.031
 4059SOL     OW13075   0.025   1.770   5.050
 4059SOL    HW113076   6.986   1.720   4.987
 4059SOL    HW213077   0.071   1.706   5.111
 4060SOL     OW13078   4.528   5.479   3.840
 4060SOL    HW113079   4.434   5.448   3.825
 4060SOL    HW213080   4.576   5.484   3.752
 4061SOL     OW13081   2.704   2.960   1.654
 4061SOL    HW113082   2.778   2.933   1.593
 4061SOL    HW213083   2.659   2.879   1.691
 4062SOL     OW13084   2.909   0.108   2.928
 4062SOL    HW113085   2.857   0.022   2.935
 4062SOL    HW213086   3.005   0.086   2.913
 4063SOL     OW13087   2.663   5.388   5.822
 4063SOL    HW113088   2.698   5.475   5.789
 4063SOL    HW213089   2.727   5.315   5.797
 4064SOL     OW13090   6.255   0.030   3.836
 4064SOL    HW113091   6.310   0.032   3.920
 4064SOL    HW213092   6.199   0.113   3.832
 4065SOL     OW13093   6.199   4.691   6.573
 4065SOL    HW113094   6.269   4.639   6.524
 4065SOL    HW213095   6.200   4.786   6.542
 4066SOL     OW13096   5.855   4.843   1.850
 4066SOL    HW113097   5.829   4.793   1.767
 4066SOL    HW213098   5.895   4.780   1.916
 4067SOL     OW13099   6.251   1.134   1.754
 4067SOL    HW113100   6.300   1.212   1.715
 4067SOL    HW213101   6.270   1.128   1.852
 4068SOL     OW13102   5.616   0.628   3.969
 4068SOL    HW113103   5.590   0.565   3.895
 4068SOL    HW213104   5.591   0.587   4.057
 4069SOL     OW13105   6.943   5.602   1.381
 4069SOL    HW113106   6.973   5.679   1.325
 4069SOL    HW213107   6.869   5.631   1.441
 4070SOL     OW13108   1.025   3.688   2.898
 4070SOL    HW113109   1.077   3.603   2.900
 4070SOL    HW213110   0.943   3.676   2.843
 4071SOL     OW13111   2.125   0.081   4.030
 4071SOL    HW113112   2.115   7.005   4.056
 4071SOL    HW213113   2.056   0.105   3.963
 4072SOL     OW13114   0.980   0.202   4.249
 4072SOL    HW113115   1.001   0.118   4.199
 4072SOL    HW213116   0.884   0.201   4.277
 4073SOL     OW13117   2.812   4.916   0.598
 4073SOL    HW113118   2.811   4.836   0.658
 4073SOL    HW213119   2.868   4.896   0.518
 4074SOL     OW13120   1.569   2.852   0.524
 4074SOL    HW113121   1.506   2.882   0.452
 4074SOL    HW213122   1.519   2.800   0.593
 4075SOL     OW13123   5.111   0.502   4.140
 4075SOL    HW113124   5.175   0.502   4.063
 4075SOL    HW213125   5.033   0.443   4.118
 4076SOL     OW13126   1.597   2.923   3.460
 4076SOL    HW113127   1.579   2.826   3.449
 4076SOL    HW213128   1.580   2.970   3.374
 4077SOL     OW13129   2.732   1.658   1.021
 4077SOL    HW113130   2.650   1.605   1.044
 4077SOL    HW213131   2.706   1.735   0.962
 4078SOL     OW13132   5.396   3.848   2.125
 4078SOL    HW113133   5.464   3.888   2.064
 4078SOL    HW213134   5.417   3.875   2.220
 4079SOL     OW13135   6.837   0.979   3.532
 4079SOL    HW113136   6.929   0.953   3.563
 4079SOL    HW213137   6.769   0.940   3.593
 4080SOL     OW13138   3.968   3.095   2.774
 4080SOL    HW113139   4.016   3.086   2.687
 4080SOL    HW213140   4.011   3.167   2.829
 4081SOL     OW13141   2.425   2.207   6.217
 4081SOL    HW113142   2.358   2.159   6.274
 4081SOL    HW213143   2.424   2.305   6.240
 4082SOL     OW13144   1.280   2.507   5.353
 4082SOL    HW113145   1.251   2.505   5.257
 4082SOL    HW213146   1.379   2.501   5.359
 4083SOL     OW13147   5.949   4.961   2.825
 4083SOL    HW113148   5.869   4.901   2.813
 4083SOL    HW213149   5.924   5.038   2.883
 4084SOL     OW13150   4.633   0.547   3.078
 4084SOL    HW113151   4.675   0.630   3.118
 4084SOL    HW213152   4.616   0.562   2.981
 4085SOL     OW13153   3.947   5.093   1.700
 4085SOL    HW113154   3.887   5.131   1.770
 4085SOL    HW213155   4.030   5.058   1.742
 4086SOL     OW13156   6.096   5.305   5.271
 4086SOL    HW113157   6.082   5.403   5.254
 4086SOL    HW213158   6.011   5.265   5.305
 4087SOL     OW13159   1.634   0.300   2.481
 4087SOL    HW113160   1.686   0.297   2.395
 4087SOL    HW213161   1.597   0.392   2.494
 4088SOL     OW13162   0.333   1.911   5.254
 4088SOL    HW113163   0.419   1.889   5.208
 4088SOL    HW213164   0.277   1.969   5.194
 4089SOL     OW13165   1.224   0.707   2.743
 4089SOL    HW113166   1.126   0.722   2.756
 4089SOL    HW213167   1.271   0.715   2.830
 4090SOL     OW13168   2.800   1.842   5.903
 4090SOL    HW113169   2.785   1.745   5.924
 4090SOL    HW213170   2.793   1.897   5.986
 4091SOL     OW13171   3.573   5.921   1.491
 4091SOL    HW113172   3.493   5.959   1.445
 4091SOL    HW213173   3.550   5.902   1.587
 4092SOL     OW13174   5.659   2.612   4.600
 4092SOL    HW113175   5.562   2.600   4.619
 4092SOL    HW213176   5.693   2.691   4.651
 4093SOL     OW13177   5.532   4.313   3.788
 4093SOL    HW113178   5.536   4.330   3.887
 4093SOL    HW213179   5.537   4.400   3.739
 4094SOL     OW13180   6.698   5.939   0.173
 4094SOL    HW113181   6.793   5.955   0.201
 4094SOL    HW213182   6.671   5.847   0.201
 4095SOL     OW13183   1.346   5.104   0.244
 4095SOL    HW113184   1.297   5.186   0.215
 4095SOL    HW213185   1.340   5.093   0.343
 4096SOL     OW13186   0.467   0.376   6.740
 4096SOL    HW113187   0.536   0.313   6.775
 4096SOL    HW213188   0.381   0.327   6.727
 4097SOL     OW13189   6.721   4.175   4.763
 4097SOL    HW113190   6.664   4.212   4.690
 4097SOL    HW213191   6.806   4.227   4.769
 4098SOL     OW13192   1.641   4.420   2.453
 4098SOL    HW113193   1.556   4.367   2.456
 4098SOL    HW213194   1.619   4.518   2.452
 4099SOL     OW13195   5.439   3.851   6.058
 4099SOL    HW113196   5.456   3.949   6.051
 4099SOL    HW213197   5.342   3.835   6.077
 4100SOL     OW13198   1.696   1.229   3.756
 4100SOL    HW113199   1.605   1.270   3.765
 4100SOL    HW213200   1.760   1.275   3.818
 4101SOL     OW13201   6.542   5.282   0.241
 4101SOL    HW113202   6.567   5.189   0.270
 4101SOL    HW213203   6.447   5.283   0.210
 4102SOL     OW13204   1.797   6.418   0.414
 4102SOL    HW113205   1.837   6.481   0.348
 4102SOL    HW213206   1.805   6.324   0.380
 4103SOL     OW13207   1.642   6.603   4.147
 4103SOL    HW113208   1.687   6.519   4.179
 4103SOL    HW213209   1.592   6.645   4.223
 4104SOL     OW13210   2.005   5.632   4.888
 4104SOL    HW113211   1.913   5.668   4.901
 4104SOL    HW213212   2.004   5.533   4.903
 4105SOL     OW13213   4.409   0.247   1.936
 4105SOL    HW113214   4.357   0.331   1.919
 4105SOL    HW213215   4.507   0.269   1.942
 4106SOL     OW13216   1.222   1.006   2.836
 4106SOL    HW113217   1.210   1.012   2.737
 4106SOL    HW213218   1.146   0.956   2.876
 4107SOL     OW13219   1.211   0.546   0.582
 4107SOL    HW113220   1.178   0.525   0.674
 4107SOL    HW213221   1.301   0.504   0.568
 4108SOL     OW13222   6.295   5.769   5.617
 4108SOL    HW113223   6.294   5.770   5.517
 4108SOL    HW213224   6.204   5.791   5.652
 4109SOL     OW13225   5.335   5.747   3.269
 4109SOL    HW113226   5.404   5.817   3.253
 4109SOL    HW213227   5.291   5.763   3.358
 4110SOL     OW13228   5.311   3.129   0.074
 4110SOL    HW113229   5.236   3.128   0.008
 4110SOL    HW213230   5.317   3.219   0.116
 4111SOL     OW13231   6.502   3.673   3.916
 4111SOL    HW113232   6.447   3.634   3.841
 4111SOL    HW213233   6.495   3.773   3.914
 4112SOL     OW13234   4.519   5.928   4.819
 4112SOL    HW113235   4.439   5.947   4.762
 4112SOL    HW213236   4.516   5.983   4.902
 4113SOL     OW13237   4.251   5.203   4.530
 4113SOL    HW113238   4.233   5.205   4.431
 4113SOL    HW213239   4.165   5.218   4.580
 4114SOL     OW13240   0.259   1.169   1.417
 4114SOL    HW113241   0.207   1.087   1.396
 4114SOL    HW213242   0.277   1.173   1.515
 4115SOL     OW13243   4.194   5.831   3.807
 4115SOL    HW113244   4.230   5.843   3.900
 4115SOL    HW213245   4.178   5.921   3.766
 4116SOL     OW13246   4.887   3.826   2.518
 4116SOL    HW113247   4.906   3.753   2.583
 4116SOL    HW213248   4.841   3.902   2.565
 4117SOL     OW13249   1.078   1.411   3.766
 4117SOL    HW113250   1.056   1.349   3.842
 4117SOL    HW213251   1.048   1.369   3.681
 4118SOL     OW13252   0.617   6.762   0.139
 4118SOL    HW113253   0.640   6.851   0.099
 4118SOL    HW213254   0.554   6.714   0.078
 4119SOL     OW13255   0.323   0.421   4.464
 4119SOL    HW113256   0.423   0.422   4.466
 4119SOL    HW213257   0.292   0.415   4.369
 4120SOL     OW13258   2.109   0.759   6.739
 4120SOL    HW113259   2.067   0.800   6.821
 4120SOL    HW213260   2.037   0.732   6.675
 4121SOL     OW13261   0.051   6.809   2.154
 4121SOL    HW113262   0.009   6.871   2.221
 4121SOL    HW213263   0.114   6.861   2.097
 4122SOL     OW13264   0.779   4.758   3.099
 4122SOL    HW113265   0.701   4.817   3.080
 4122SOL    HW213266   0.828   4.791   3.180
 4123SOL     OW13267   5.183   5.105   1.397
 4123SOL    HW113268   5.182   5.025   1.457
 4123SOL    HW213269   5.089   5.128   1.371
 4124SOL     OW13270   6.225   5.576   0.301
 4124SOL    HW113271   6.143   5.587   0.245
 4124SOL    HW213272   6.306   5.581   0.243
 4125SOL     OW13273   6.327   2.179   0.593
 4125SOL    HW113274   6.274   2.242   0.649
 4125SOL    HW213275   6.268   2.138   0.523
 4126SOL     OW13276   1.245   3.430   2.598
 4126SOL    HW113277   1.275   3.513   2.552
 4126SOL    HW213278   1.205   3.453   2.687
 4127SOL     OW13279   4.169   1.708   4.703
 4127SOL    HW113280   4.176   1.650   4.622
 4127SOL    HW213281   4.231   1.786   4.694
 4128SOL     OW13282   0.775   2.934   6.692
 4128SOL    HW113283   0.843   2.959   6.761
 4128SOL    HW213284   0.780   2.998   6.615
 4129SOL     OW13285   2.994   2.044   0.838
 4129SOL    HW113286   3.059   2.109   0.798
 4129SOL    HW213287   2.950   1.991   0.765
 4130SOL     OW13288   6.048   3.183   0.714
 4130SOL    HW113289   6.061   3.161   0.618
 4130SOL    HW213290   6.072   3.104   0.770
 4131SOL     OW13291   5.159   6.884   2.893
 4131SOL    HW113292   5.222   6.954   2.928
 4131SOL    HW213293   5.125   6.829   2.969
 4132SOL     OW13294   0.102   5.634   3.466
 4132SOL    HW113295   0.005   5.634   3.440
 4132SOL    HW213296   0.154   5.692   3.404
 4133SOL     OW13297   5.567   0.535   2.499
 4133SOL    HW113298   5.550   0.617   2.444
 4133SOL    HW213299   5.494   0.469   2.485
 4134SOL     OW13300   1.219   3.683   1.518
 4134SOL    HW113301   1.195   3.597   1.473
 4134SOL    HW213302   1.152   3.703   1.590
 4135SOL     OW13303   6.372   0.799   1.939
 4135SOL    HW113304   6.424   0.824   2.021
 4135SOL    HW213305   6.284   0.760   1.966
 4136SOL     OW13306   1.098   4.980   0.702
 4136SOL    HW113307   1.034   4.965   0.626
 4136SOL    HW213308   1.048   4.977   0.788
 4137SOL     OW13309   1.163   2.953   0.022
 4137SOL    HW113310   1.236   3.006   6.999
 4137SOL    HW213311   1.089   2.939   6.977
 4138SOL     OW13312   4.960   0.518   0.206
 4138SOL    HW113313   4.992   0.613   0.214
 4138SOL    HW213314   4.869   0.517   0.165
 4139SOL     OW13315   2.200   4.104   3.022
 4139SOL    HW113316   2.213   4.016   2.976
 4139SOL    HW213317   2.135   4.160   2.970
 4140SOL     OW13318   1.869   0.179   6.125
 4140SOL    HW113319   1.771   0.182   6.143
 4140SOL    HW213320   1.886   0.185   6.026
 4141SOL     OW13321   5.033   0.533   6.225
 4141SOL    HW113322   5.090   0.593   6.169
 4141SOL    HW213323   4.941   0.573   6.233
 4142SOL     OW13324   0.440   5.472   2.261
 4142SOL    HW113325   0.438   5.402   2.189
 4142SOL    HW213326   0.523   5.527   2.252
 4143SOL     OW13327   5.974   2.976   6.116
 4143SOL    HW113328   6.013   3.001   6.028
 4143SOL    HW213329   6.019   2.894   6.151
 4144SOL     OW13330   6.169   1.165   0.866
 4144SOL    HW113331   6.153   1.141   0.770
 4144SOL    HW213332   6.084   1.154   0.918
 4145SOL     OW13333   6.904   0.679   1.699
 4145SOL    HW113334   6.970   0.636   1.637
 4145SOL    HW213335   6.934   0.772   1.721
 4146SOL     OW13336   5.068   5.963   1.991
 4146SOL    HW113337   5.015   5.938   1.911
 4146SOL    HW213338   5.079   6.063   1.994
 4147SOL     OW13339   4.665   4.840   6.515
 4147SOL    HW113340   4.624   4.895   6.442
 4147SOL    HW213341   4.642   4.880   6.604
 4148SOL     OW13342   2.588   0.966   5.479
 4148SOL    HW113343   2.574   0.938   5.574
 4148SOL    HW213344   2.683   0.997   5.467
 4149SOL     OW13345   1.587   3.946   6.704
 4149SOL    HW113346   1.548   3.994   6.782
 4149SOL    HW213347   1.522   3.947   6.628
 4150SOL     OW13348   5.438   2.310   6.744
 4150SOL    HW113349   5.437   2.385   6.677
 4150SOL    HW213350   5.514   2.324   6.808
 4151SOL     OW13351   2.929   5.944   4.778
 4151SOL    HW113352   2.843   5.977   4.738
 4151SOL    HW213353   2.956   6.006   4.852
 4152SOL     OW13354   2.917   4.318   1.391
 4152SOL    HW113355   3.008   4.341   1.356
 4152SOL    HW213356   2.888   4.388   1.456
 4153SOL     OW13357   6.531   5.877   1.731
 4153SOL    HW113358   6.630   5.881   1.745
 4153SOL    HW213359   6.488   5.956   1.775
 4154SOL     OW13360   1.377   6.278   3.810
 4154SOL    HW113361   1.419   6.193   3.840
 4154SOL    HW213362   1.416   6.307   3.723
 4155SOL     OW13363   0.147   0.790   1.638
 4155SOL    HW113364   0.114   0.840   1.558
 4155SOL    HW213365   0.225   0.840   1.678
 4156SOL     OW13366   0.827   5.381   6.309
 4156SOL    HW113367   0.789   5.466   6.346
 4156SOL    HW213368   0.781   5.359   6.223
 4157SOL     OW13369   5.967   6.369   1.629
 4157SOL    HW113370   5.870   6.345   1.632
 4157SOL    HW213371   5.979   6.453   1.576
 4158SOL     OW13372   0.944   2.778   1.509
 4158SOL    HW113373   0.896   2.804   1.426
 4158SOL    HW213374   0.962   2.859   1.565
 4159SOL     OW13375   2.936   0.113   3.929
 4159SOL    HW113376   2.926   0.082   3.835
 4159SOL    HW213377   2.941   0.213   3.930
 4160SOL     OW13378   0.216   0.193   6.742
 4160SOL    HW113379   0.252   0.178   6.650
 4160SOL    HW213380   0.190   0.106   6.782
 4161SOL     OW13381   3.772   3.361   2.319
 4161SOL    HW113382   3.862   3.404   2.311
 4161SOL    HW213383   3.746   3.321   2.231
 4162SOL     OW13384   5.170   5.751   1.637
 4162SOL    HW113385   5.172   5.699   1.722
 4162SOL    HW213386   5.130   5.841   1.655
 4163SOL     OW13387   3.491   5.707   2.132
 4163SOL    HW113388   3.425   5.749   2.194
 4163SOL    HW213389   3.465   5.729   2.037
 4164SOL     OW13390   6.736   1.114   6.226
 4164SOL    HW113391   6.770   1.190   6.171
 4164SOL    HW213392   6.810   1.075   6.280
 4165SOL     OW13393   4.745   0.772   4.565
 4165SOL    HW113394   4.771   0.792   4.471
 4165SOL    HW213395   4.667   0.710   4.566
 4166SOL     OW13396   5.796   1.581   1.091
 4166SOL    HW113397   5.735   1.509   1.057
 4166SOL    HW213398   5.851   1.617   1.015
 4167SOL     OW13399   3.435   5.899   4.481
 4167SOL    HW113400   3.344   5.940   4.490
 4167SOL    HW213401   3.430   5.803   4.508
 4168SOL     OW13402   5.084   3.424   6.942
 4168SOL    HW113403   5.088   3.454   0.018
 4168SOL    HW213404   5.061   3.326   6.939
 4169SOL     OW13405   5.223   2.723   5.896
 4169SOL    HW113406   5.187   2.775   5.818
 4169SOL    HW213407   5.148   2.700   5.958
 4170SOL     OW13408   0.154   2.386   4.626
 4170SOL    HW113409   0.081   2.322   4.648
 4170SOL    HW213410   0.116   2.467   4.581
 4171SOL     OW13411   0.795   1.642   0.142
 4171SOL    HW113412   0.834   1.733   0.157
 4171SOL    HW213413   0.719   1.628   0.206
 4172SOL     OW13414   2.843   3.390   0.625
 4172SOL    HW113415   2.842   3.488   0.603
 4172SOL    HW213416   2.778   3.372   0.698
 4173SOL     OW13417   5.112   2.739   6.725
 4173SOL    HW113418   5.189   2.705   6.779
 4173SOL    HW213419   5.068   2.662   6.678
 4174SOL     OW13420   3.601   0.474   4.930
 4174SOL    HW113421   3.680   0.533   4.913
 4174SOL    HW213422   3.523   0.507   4.878
 4175SOL     OW13423   0.473   4.452   6.467
 4175SOL    HW113424   0.465   4.522   6.537
 4175SOL    HW213425   0.450   4.491   6.378
 4176SOL     OW13426   5.458   7.012   5.953
 4176SOL    HW113427   5.423   6.953   5.880
 4176SOL    HW213428   5.516   0.063   5.914
 4177SOL     OW13429   4.007   4.869   2.657
 4177SOL    HW113430   3.948   4.869   2.576
 4177SOL    HW213431   3.971   4.935   2.724
 4178SOL     OW13432   3.728   5.736   1.769
 4178SOL    HW113433   3.760   5.657   1.821
 4178SOL    HW213434   3.786   5.749   1.688
 4179SOL     OW13435   5.278   3.150   5.409
 4179SOL    HW113436   5.260   3.077   5.343
 4179SOL    HW213437   5.204   3.218   5.405
 4180SOL     OW13438   4.559   3.847   0.941
 4180SOL    HW113439   4.541   3.922   1.004
 4180SOL    HW213440   4.476   3.825   0.890
 4181SOL     OW13441   4.459   6.871   4.895
 4181SOL    HW113442   4.424   6.867   4.801
 4181SOL    HW213443   4.403   6.813   4.954
 4182SOL     OW13444   6.953   6.459   4.841
 4182SOL    HW113445   6.886   6.391   4.809
 4182SOL    HW213446   7.015   6.481   4.766
 4183SOL     OW13447   4.259   1.632   0.798
 4183SOL    HW113448   4.339   1.677   0.837
 4183SOL    HW213449   4.206   1.698   0.745
 4184SOL     OW13450   3.409   5.686   4.227
 4184SOL    HW113451   3.310   5.689   4.215
 4184SOL    HW213452   3.433   5.618   4.296
 4185SOL     OW13453   5.345   2.903   3.274
 4185SOL    HW113454   5.307   2.811   3.278
 4185SOL    HW213455   5.294   2.958   3.208
 4186SOL     OW13456   1.977   6.235   0.346
 4186SOL    HW113457   1.990   6.160   0.410
 4186SOL    HW213458   1.944   6.199   0.259
 4187SOL     OW13459   1.637   3.313   6.697
 4187SOL    HW113460   1.634   3.223   6.654
 4187SOL    HW213461   1.721   3.321   6.751
 4188SOL     OW13462   4.673   0.071   0.154
 4188SOL    HW113463   4.609   0.134   0.110
 4188SOL    HW213464   4.711   0.114   0.236
 4189SOL     OW13465   5.014   5.177   3.671
 4189SOL    HW113466   4.992   5.092   3.719
 4189SOL    HW213467   5.095   5.163   3.614
 4190SOL     OW13468   6.464   5.713   1.494
 4190SOL    HW113469   6.525   5.634   1.502
 4190SOL    HW213470   6.497   5.786   1.555
 4191SOL     OW13471   4.489   4.395   6.572
 4191SOL    HW113472   4.426   4.334   6.525
 4191SOL    HW213473   4.518   4.468   6.509
 4192SOL     OW13474   1.723   3.567   1.080
 4192SOL    HW113475   1.625   3.581   1.095
 4192SOL    HW213476   1.774   3.643   1.119
 4193SOL     OW13477   0.559   0.478   0.602
 4193SOL    HW113478   0.532   0.463   0.507
 4193SOL    HW213479   0.606   0.566   0.609
 4194SOL     OW13480   4.264   1.407   5.233
 4194SOL    HW113481   4.238   1.316   5.201
 4194SOL    HW213482   4.361   1.408   5.256
 4195SOL     OW13483   3.646   6.488   0.491
 4195SOL    HW113484   3.677   6.405   0.539
 4195SOL    HW213485   3.712   6.561   0.507
 4196SOL     OW13486   6.481   3.137   2.007
 4196SOL    HW113487   6.465   3.226   2.049
 4196SOL    HW213488   6.409   3.074   2.034
 4197SOL     OW13489   3.541   1.381   6.930
 4197SOL    HW113490   3.614   1.319   6.958
 4197SOL    HW213491   3.500   1.347   6.845
 4198SOL     OW13492   0.050   2.219   2.483
 4198SOL    HW113493   7.005   2.171   2.542
 4198SOL    HW213494   0.035   2.317   2.489
 4199SOL     OW13495   0.786   4.017   6.154
 4199SOL    HW113496   0.741   3.985   6.071
 4199SOL    HW213497   0.724   4.076   6.206
 4200SOL     OW13498   4.595   0.798   3.942
 4200SOL    HW113499   4.615   0.787   3.844
 4200SOL    HW213500   4.615   0.712   3.989
 4201SOL     OW13501   5.483   6.776   3.842
 4201SOL    HW113502   5.581   6.796   3.841
 4201SOL    HW213503   5.470   6.679   3.818
 4202SOL     OW13504   5.385   4.173   1.355
 4202SOL    HW113505   5.353   4.243   1.419
 4202SOL    HW213506   5.362   4.200   1.262
 4203SOL     OW13507   6.006   5.363   5.758
 4203SOL    HW113508   5.936   5.293   5.769
 4203SOL    HW213509   6.053   5.377   5.845
 4204SOL     OW13510   1.893   3.095   6.580
 4204SOL    HW113511   1.945   3.011   6.594
 4204SOL    HW213512   1.846   3.091   6.492
 4205SOL     OW13513   3.630   6.073   5.851
 4205SOL    HW113514   3.710   6.131   5.836
 4205SOL    HW213515   3.549   6.131   5.859
 4206SOL     OW13516   2.018   2.213   4.741
 4206SOL    HW113517   1.946   2.146   4.720
 4206SOL    HW213518   1.978   2.291   4.790
 4207SOL     OW13519   1.217   2.220   2.160
 4207SOL    HW113520   1.184   2.180   2.075
 4207SOL    HW213521   1.141   2.228   2.225
 4208SOL     OW13522   1.882   3.223   4.457
 4208SOL    HW113523   1.846   3.140   4.499
 4208SOL    HW213524   1.978   3.208   4.431
 4209SOL     OW13525   6.619   6.605   2.151
 4209SOL    HW113526   6.615   6.696   2.191
 4209SOL    HW213527   6.704   6.595   2.098
 4210SOL     OW13528   3.898   4.053   4.510
 4210SOL    HW113529   3.876   4.021   4.418
 4210SOL    HW213530   3.833   4.124   4.538
 4211SOL     OW13531   4.094   2.396   5.539
 4211SOL    HW113532   4.106   2.495   5.535
 4211SOL    HW213533   4.160   2.357   5.604
 4212SOL     OW13534   6.431   2.367   3.210
 4212SOL    HW113535   6.529   2.357   3.198
 4212SOL    HW213536   6.388   2.385   3.122
 4213SOL     OW13537   3.177   0.915   3.718
 4213SOL    HW113538   3.182   0.980   3.793
 4213SOL    HW213539   3.268   0.903   3.678
 4214SOL     OW13540   6.729   6.078   3.456
 4214SOL    HW113541   6.806   6.097   3.517
 4214SOL    HW213542   6.746   6.120   3.367
 4215SOL     OW13543   4.524   6.613   5.432
 4215SOL    HW113544   4.490   6.676   5.502
 4215SOL    HW213545   4.534   6.662   5.346
 4216SOL     OW13546   2.402   5.775   2.200
 4216SOL    HW113547   2.479   5.720   2.231
 4216SOL    HW213548   2.388   5.852   2.263
 4217SOL     OW13549   1.206   0.747   2.451
 4217SOL    HW113550   1.295   0.787   2.430
 4217SOL    HW213551   1.202   0.724   2.548
 4218SOL     OW13552   2.826   1.193   0.985
 4218SOL    HW113553   2.885   1.273   0.995
 4218SOL    HW213554   2.772   1.181   1.069
 4219SOL     OW13555   4.336   5.507   2.987
 4219SOL    HW113556   4.236   5.500   2.995
 4219SOL    HW213557   4.359   5.595   2.946
 4220SOL     OW13558   5.363   2.214   1.515
 4220SOL    HW113559   5.318   2.239   1.600
 4220SOL    HW213560   5.372   2.114   1.511
 4221SOL     OW13561   0.647   6.118   0.136
 4221SOL    HW113562   0.619   6.024   0.115
 4221SOL    HW213563   0.579   6.161   0.194
 4222SOL     OW13564   4.818   2.910   4.123
 4222SOL    HW113565   4.910   2.890   4.091
 4222SOL    HW213566   4.818   2.998   4.170
 4223SOL     OW13567   4.113   3.800   1.917
 4223SOL    HW113568   4.148   3.885   1.956
 4223SOL    HW213569   4.175   3.769   1.844
 4224SOL     OW13570   4.943   3.645   4.563
 4224SOL    HW113571   4.931   3.558   4.515
 4224SOL    HW213572   4.931   3.630   4.661
 4225SOL     OW13573   0.329   2.338   5.344
 4225SOL    HW113574   0.237   2.317   5.377
 4225SOL    HW213575   0.397   2.296   5.404
 4226SOL     OW13576   1.078   5.880   5.013
 4226SOL    HW113577   1.155   5.817   5.011
 4226SOL    HW213578   0.993   5.829   5.024
 4227SOL     OW13579   5.005   5.195   2.270
 4227SOL    HW113580   4.992   5.269   2.336
 4227SOL    HW213581   4.960   5.112   2.303
 4228SOL     OW13582   1.517   5.446   3.714
 4228SOL    HW113583   1.523   5.409   3.807
 4228SOL    HW213584   1.486   5.541   3.717
 4229SOL     OW13585   6.843   4.532   5.393
 4229SOL    HW113586   6.863   4.579   5.479
 4229SOL    HW213587   6.755   4.564   5.358
 4230SOL     OW13588   0.294   0.738   2.246
 4230SOL    HW113589   0.205   0.694   2.234
 4230SOL    HW213590   0.280   0.831   2.281
 4231SOL     OW13591   6.228   1.453   5.671
 4231SOL    HW113592   6.297   1.502   5.616
 4231SOL    HW213593   6.137   1.485   5.645
 4232SOL     OW13594   1.468   5.704   3.766
 4232SOL    HW113595   1.372   5.685   3.783
 4232SOL    HW213596   1.500   5.776   3.829
 4233SOL     OW13597   4.277   5.040   3.077
 4233SOL    HW113598   4.234   4.974   3.016
 4233SOL    HW213599   4.377   5.029   3.073
 4234SOL     OW13600   3.060   5.350   6.173
 4234SOL    HW113601   3.010   5.328   6.090
 4234SOL    HW213602   3.086   5.447   6.172
 4235SOL     OW13603   0.099   5.994   5.580
 4235SOL    HW113604   0.109   6.037   5.670
 4235SOL    HW213605   0.150   5.908   5.579
 4236SOL     OW13606   0.328   5.391   2.865
 4236SOL    HW113607   0.373   5.481   2.871
 4236SOL    HW213608   0.397   5.320   2.854
 4237SOL     OW13609   0.124   5.173   3.833
 4237SOL    HW113610   0.045   5.173   3.771
 4237SOL    HW213611   0.149   5.079   3.855
 4238SOL     OW13612   2.820   6.889   2.895
 4238SOL    HW113613   2.734   6.840   2.910
 4238SOL    HW213614   2.868   6.849   2.817
 4239SOL     OW13615   4.402   0.814   3.662
 4239SOL    HW113616   4.322   0.757   3.684
 4239SOL    HW213617   4.372   0.895   3.613
 4240SOL     OW13618   6.912   7.005   1.460
 4240SOL    HW113619   6.889   6.927   1.518
 4240SOL    HW213620   6.835   0.049   1.459
 4241SOL     OW13621   6.288   3.589   0.289
 4241SOL    HW113622   6.372   3.540   0.265
 4241SOL    HW213623   6.254   3.556   0.377
 4242SOL     OW13624   2.565   1.970   3.349
 4242SOL    HW113625   2.532   1.937   3.438
 4242SOL    HW213626   2.650   2.020   3.362
 4243SOL     OW13627   4.809   0.085   2.992
 4243SOL    HW113628   4.776   7.016   3.024
 4243SOL    HW213629   4.787   0.096   2.895
 4244SOL     OW13630   3.832   3.407   2.711
 4244SOL    HW113631   3.768   3.351   2.659
 4244SOL    HW213632   3.908   3.435   2.652
 4245SOL     OW13633   6.292   2.312   6.490
 4245SOL    HW113634   6.317   2.238   6.428
 4245SOL    HW213635   6.236   2.380   6.442
 4246SOL     OW13636   1.122   3.465   1.378
 4246SOL    HW113637   1.067   3.441   1.297
 4246SOL    HW213638   1.080   3.427   1.460
 4247SOL     OW13639   0.113   5.905   5.012
 4247SOL    HW113640   0.109   5.887   5.111
 4247SOL    HW213641   0.021   5.923   4.978
 4248SOL     OW13642   1.500   2.780   5.056
 4248SOL    HW113643   1.456   2.862   5.021
 4248SOL    HW213644   1.566   2.804   5.127
 4249SOL     OW13645   5.863   3.844   5.723
 4249SOL    HW113646   5.861   3.751   5.762
 4249SOL    HW213647   5.789   3.853   5.657
 4250SOL     OW13648   0.374   4.693   2.956
 4250SOL    HW113649   0.435   4.616   2.975
 4250SOL    HW213650   0.422   4.779   2.974
 4251SOL     OW13651   5.813   4.123   0.567
 4251SOL    HW113652   5.807   4.198   0.502
 4251SOL    HW213653   5.787   4.156   0.658
 4252SOL     OW13654   0.556   5.515   5.723
 4252SOL    HW113655   0.589   5.420   5.721
 4252SOL    HW213656   0.477   5.522   5.784
 4253SOL     OW13657   4.431   6.382   2.163
 4253SOL    HW113658   4.517   6.370   2.213
 4253SOL    HW213659   4.382   6.460   2.201
 4254SOL     OW13660   2.603   4.443   1.168
 4254SOL    HW113661   2.624   4.346   1.161
 4254SOL    HW213662   2.560   4.462   1.257
 4255SOL     OW13663   0.380   2.047   4.408
 4255SOL    HW113664   0.419   1.970   4.459
 4255SOL    HW213665   0.424   2.132   4.437
 4256SOL     OW13666   1.923   0.323   1.527
 4256SOL    HW113667   1.982   0.404   1.523
 4256SOL    HW213668   1.861   0.331   1.605
 4257SOL     OW13669   3.889   1.890   4.672
 4257SOL    HW113670   3.900   1.832   4.752
 4257SOL    HW213671   3.910   1.838   4.590
 4258SOL     OW13672   5.202   6.421   2.328
 4258SOL    HW113673   5.176   6.489   2.259
 4258SOL    HW213674   5.293   6.443   2.363
 4259SOL     OW13675   2.314   2.796   0.758
 4259SOL    HW113676   2.386   2.797   0.689
 4259SOL    HW213677   2.225   2.806   0.715
 4260SOL     OW13678   4.967   5.237   3.940
 4260SOL    HW113679   4.869   5.221   3.948
 4260SOL    HW213680   4.995   5.229   3.844
 4261SOL     OW13681   1.463   0.092   1.911
 4261SOL    HW113682   1.475   0.032   1.833
 4261SOL    HW213683   1.457   0.187   1.880
 4262SOL     OW13684   0.491   5.341   6.730
 4262SOL    HW113685   0.438   5.278   6.674
 4262SOL    HW213686   0.440   5.364   6.813
 4263SOL     OW13687   3.033   5.042   5.742
 4263SOL    HW113688   3.012   4.960   5.796
 4263SOL    HW213689   3.049   5.016   5.647
 4264SOL     OW13690   7.005   0.739   0.380
 4264SOL    HW113691   0.064   0.719   0.322
 4264SOL    HW213692   6.965   0.654   0.413
 4265SOL     OW13693   6.686   1.973   1.149
 4265SOL    HW113694   6.724   2.022   1.227
 4265SOL    HW213695   6.728   1.882   1.142
 4266SOL     OW13696   2.594   5.072   0.659
 4266SOL    HW113697   2.514   5.020   0.629
 4266SOL    HW213698   2.677   5.020   0.638
 4267SOL     OW13699   1.930   3.892   5.353
 4267SOL    HW113700   1.884   3.822   5.408
 4267SOL    HW213701   1.883   3.903   5.266
 4268SOL     OW13702   1.653   0.721   1.120
 4268SOL    HW113703   1.650   0.735   1.219
 4268SOL    HW213704   1.747   0.723   1.088
 4269SOL     OW13705   3.586   3.040   0.073
 4269SOL    HW113706   3.663   3.045   0.009
 4269SOL    HW213707   3.501   3.053   0.022
 4270SOL     OW13708   3.283   3.007   5.274
 4270SOL    HW113709   3.232   3.032   5.192
 4270SOL    HW213710   3.274   3.079   5.342
 4271SOL     OW13711   0.948   6.834   6.710
 4271SOL    HW113712   0.858   6.846   6.669
 4271SOL    HW213713   0.939   6.835   6.810
 4272SOL     OW13714   6.888   4.978   4.612
 4272SOL    HW113715   6.804   5.031   4.600
 4272SOL    HW213716   6.912   4.974   4.709
 4273SOL     OW13717   5.897   6.681   5.405
 4273SOL    HW113718   5.980   6.723   5.441
 4273SOL    HW213719   5.848   6.747   5.348
 4274SOL     OW13720   1.830   6.944   3.848
 4274SOL    HW113721   1.859   6.885   3.773
 4274SOL    HW213722   1.838   6.895   3.935
 4275SOL     OW13723   0.921   0.049   6.107
 4275SOL    HW113724   0.871   0.065   6.022
 4275SOL    HW213725   0.865   7.012   6.168
 4276SOL     OW13726   1.981   3.776   2.495
 4276SOL    HW113727   2.049   3.848   2.484
 4276SOL    HW213728   1.952   3.743   2.406
 4277SOL     OW13729   6.675   5.802   3.502
 4277SOL    HW113730   6.680   5.898   3.473
 4277SOL    HW213731   6.751   5.781   3.563
 4278SOL     OW13732   0.006   0.248   5.515
 4278SOL    HW113733   6.994   0.335   5.476
 4278SOL    HW213734   0.101   0.257   5.543
 4279SOL     OW13735   3.215   6.041   4.700
 4279SOL    HW113736   3.187   5.986   4.621
 4279SOL    HW213737   3.181   6.000   4.784
 4280SOL     OW13738   4.995   2.707   3.860
 4280SOL    HW113739   4.986   2.652   3.943
 4280SOL    HW213740   4.904   2.738   3.830
 4281SOL     OW13741   2.303   4.325   4.972
 4281SOL    HW113742   2.324   4.228   4.990
 4281SOL    HW213743   2.348   4.382   5.041
 4282SOL     OW13744   1.461   2.517   1.485
 4282SOL    HW113745   1.504   2.455   1.419
 4282SOL    HW213746   1.532   2.567   1.534
 4283SOL     OW13747   1.646   0.379   4.249
 4283SOL    HW113748   1.651   0.467   4.202
 4283SOL    HW213749   1.624   0.393   4.346
 4284SOL     OW13750   6.061   2.270   2.344
 4284SOL    HW113751   6.151   2.230   2.363
 4284SOL    HW213752   6.058   2.364   2.379
 4285SOL     OW13753   1.369   6.415   6.136
 4285SOL    HW113754   1.367   6.373   6.045
 4285SOL    HW213755   1.373   6.343   6.206
 4286SOL     OW13756   5.046   5.634   0.420
 4286SOL    HW113757   5.021   5.540   0.400
 4286SOL    HW213758   5.118   5.635   0.490
 4287SOL     OW13759   5.089   6.221   4.809
 4287SOL    HW113760   5.142   6.302   4.786
 4287SOL    HW213761   5.026   6.200   4.735
 4288SOL     OW13762   1.337   6.446   3.136
 4288SOL    HW113763   1.259   6.410   3.188
 4288SOL    HW213764   1.303   6.489   3.052
 4289SOL     OW13765   5.519   3.188   1.209
 4289SOL    HW113766   5.572   3.219   1.288
 4289SOL    HW213767   5.515   3.261   1.141
 4290SOL     OW13768   2.342   0.928   1.912
 4290SOL    HW113769   2.271   0.884   1.858
 4290SOL    HW213770   2.304   1.008   1.959
 4291SOL     OW13771   6.606   4.045   1.050
 4291SOL    HW113772   6.662   4.106   1.106
 4291SOL    HW213773   6.664   3.976   1.007
 4292SOL     OW13774   6.043   5.139   6.670
 4292SOL    HW113775   5.945   5.158   6.676
 4292SOL    HW213776   6.093   5.224   6.653
 4293SOL     OW13777   0.200   2.772   6.908
 4293SOL    HW113778   0.215   2.849   6.970
 4293SOL    HW213779   0.240   2.793   6.819
 4294SOL     OW13780   4.473   1.491   5.630
 4294SOL    HW113781   4.490   1.468   5.535
 4294SOL    HW213782   4.498   1.587   5.646
 4295SOL     OW13783   3.354   0.266   4.420
 4295SOL    HW113784   3.333   0.337   4.487
 4295SOL    HW213785   3.394   0.308   4.338
 4296SOL     OW13786   2.244   1.464   1.263
 4296SOL    HW113787   2.239   1.438   1.359
 4296SOL    HW213788   2.259   1.383   1.207
 4297SOL     OW13789   5.691   0.636   5.711
 4297SOL    HW113790   5.709   0.724   5.668
 4297SOL    HW213791   5.611   0.644   5.771
 4298SOL     OW13792   3.198   5.607   1.110
 4298SOL    HW113793   3.202   5.564   1.200
 4298SOL    HW213794   3.181   5.705   1.121
 4299SOL     OW13795   0.932   3.735   6.526
 4299SOL    HW113796   0.998   3.660   6.527
 4299SOL    HW213797   0.873   3.726   6.446
 4300SOL     OW13798   5.020   0.984   6.729
 4300SOL    HW113799   5.091   1.051   6.750
 4300SOL    HW213800   4.977   0.952   6.813
 4301SOL     OW13801   2.909   1.470   0.936
 4301SOL    HW113802   2.859   1.437   0.856
 4301SOL    HW213803   2.864   1.551   0.972
 4302SOL     OW13804   1.176   6.254   6.899
 4302SOL    HW113805   1.149   6.167   6.940
 4302SOL    HW213806   1.273   6.270   6.917
 4303SOL     OW13807   0.217   3.481   2.246
 4303SOL    HW113808   0.249   3.432   2.165
 4303SOL    HW213809   0.136   3.435   2.283
 4304SOL     OW13810   2.981   3.805   4.083
 4304SOL    HW113811   3.007   3.751   4.163
 4304SOL    HW213812   3.026   3.894   4.085
 4305SOL     OW13813   6.077   1.699   3.646
 4305SOL    HW113814   6.096   1.790   3.610
 4305SOL    HW213815   6.114   1.630   3.584
 4306SOL     OW13816   6.684   5.055   5.721
 4306SOL    HW113817   6.616   4.997   5.766
 4306SOL    HW213818   6.638   5.118   5.658
 4307SOL     OW13819   5.333   3.789   6.482
 4307SOL    HW113820   5.372   3.881   6.479
 4307SOL    HW213821   5.326   3.758   6.577
 4308SOL     OW13822   5.140   6.289   4.524
 4308SOL    HW113823   5.129   6.350   4.446
 4308SOL    HW213824   5.056   6.236   4.538
 4309SOL     OW13825   1.352   1.537   0.999
 4309SOL    HW113826   1.450   1.530   1.011
 4309SOL    HW213827   1.332   1.585   0.913
 4310SOL     OW13828   1.722   1.629   2.923
 4310SOL    HW113829   1.745   1.676   3.008
 4310SOL    HW213830   1.805   1.607   2.873
 4311SOL     OW13831   1.953   6.263   3.536
 4311SOL    HW113832   2.049   6.288   3.544
 4311SOL    HW213833   1.938   6.215   3.449
 4312SOL     OW13834   2.347   5.097   2.082
 4312SOL    HW113835   2.431   5.132   2.124
 4312SOL    HW213836   2.314   5.163   2.014
 4313SOL     OW13837   4.758   0.797   2.421
 4313SOL    HW113838   4.810   0.874   2.461
 4313SOL    HW213839   4.671   0.831   2.386
 4314SOL     OW13840   4.836   3.092   2.559
 4314SOL    HW113841   4.842   3.183   2.600
 4314SOL    HW213842   4.871   3.024   2.624
 4315SOL     OW13843   2.305   1.044   2.226
 4315SOL    HW113844   2.357   1.097   2.158
 4315SOL    HW213845   2.321   1.082   2.317
 4316SOL     OW13846   5.894   0.524   2.276
 4316SOL    HW113847   5.919   0.453   2.343
 4316SOL    HW213848   5.967   0.533   2.209
 4317SOL     OW13849   3.888   0.991   3.889
 4317SOL    HW113850   3.874   0.963   3.984
 4317SOL    HW213851   3.979   0.963   3.858
 4318SOL     OW13852   0.347   2.648   3.678
 4318SOL    HW113853   0.406   2.598   3.742
 4318SOL    HW213854   0.252   2.619   3.692
 4319SOL     OW13855   2.444   3.373   6.672
 4319SOL    HW113856   2.408   3.363   6.580
 4319SOL    HW213857   2.503   3.454   6.677
 4320SOL     OW13858   0.038   6.011   2.587
 4320SOL    HW113859   0.125   6.002   2.538
 4320SOL    HW213860   6.991   6.055   2.527
 4321SOL     OW13861   0.256   0.340   5.202
 4321SOL    HW113862   0.292   0.247   5.200
 4321SOL    HW213863   0.283   0.386   5.286
 4322SOL     OW13864   5.881   1.073   0.446
 4322SOL    HW113865   5.915   1.116   0.362
 4322SOL    HW213866   5.926   0.984   0.458
 4323SOL     OW13867   6.784   3.259   3.013
 4323SOL    HW113868   6.708   3.195   3.007
 4323SOL    HW213869   6.827   3.251   3.103
 4324SOL     OW13870   6.036   4.061   5.792
 4324SOL    HW113871   5.970   3.997   5.754
 4324SOL    HW213872   6.054   4.038   5.888
 4325SOL     OW13873   2.098   1.509   0.063
 4325SOL    HW113874   2.077   1.495   0.160
 4325SOL    HW213875   2.094   1.421   0.016
 4326SOL     OW13876   5.845   2.385   4.880
 4326SOL    HW113877   5.821   2.330   4.960
 4326SOL    HW213878   5.915   2.338   4.827
 4327SOL     OW13879   6.020   6.634   2.590
 4327SOL    HW113880   5.986   6.573   2.662
 4327SOL    HW213881   6.104   6.595   2.551
 4328SOL     OW13882   5.667   5.443   0.383
 4328SOL    HW113883   5.728   5.479   0.454
 4328SOL    HW213884   5.573   5.467   0.405
 4329SOL     OW13885   3.716   1.759   5.671
 4329SOL    HW113886   3.672   1.849   5.676
 4329SOL    HW213887   3.782   1.750   5.746
 4330SOL     OW13888   1.202   0.332   6.162
 4330SOL    HW113889   1.106   0.322   6.188
 4330SOL    HW213890   1.257   0.268   6.215
 4331SOL     OW13891   5.907   2.898   6.426
 4331SOL    HW113892   5.970   2.887   6.349
 4331SOL    HW213893   5.957   2.934   6.505
 4332SOL     OW13894   5.116   2.952   1.619
 4332SOL    HW113895   5.133   3.035   1.671
 4332SOL    HW213896   5.166   2.876   1.661
 4333SOL     OW13897   5.400   0.551   5.001
 4333SOL    HW113898   5.309   0.577   4.969
 4333SOL    HW213899   5.469   0.583   4.935
 4334SOL     OW13900   4.244   1.485   2.054
 4334SOL    HW113901   4.150   1.516   2.058
 4334SOL    HW213902   4.298   1.549   1.998
 4335SOL     OW13903   3.529   3.974   5.070
 4335SOL    HW113904   3.456   3.944   5.131
 4335SOL    HW213905   3.522   3.926   4.982
 4336SOL     OW13906   1.197   6.276   4.527
 4336SOL    HW113907   1.271   6.294   4.592
 4336SOL    HW213908   1.233   6.283   4.434
 4337SOL     OW13909   0.142   5.641   0.720
 4337SOL    HW113910   0.150   5.551   0.675
 4337SOL    HW213911   0.190   5.709   0.665
 4338SOL     OW13912   6.557   6.182   4.083
 4338SOL    HW113913   6.525   6.256   4.142
 4338SOL    HW213914   6.552   6.211   3.987
 4339SOL     OW13915   6.112   1.256   5.857
 4339SOL    HW113916   6.128   1.327   5.788
 4339SOL    HW213917   6.155   1.283   5.943
 4340SOL     OW13918   5.231   3.504   1.565
 4340SOL    HW113919   5.257   3.600   1.575
 4340SOL    HW213920   5.132   3.499   1.548
 4341SOL     OW13921   1.294   4.406   1.058
 4341SOL    HW113922   1.356   4.435   0.985
 4341SOL    HW213923   1.341   4.342   1.119
 4342SOL     OW13924   1.178   3.269   3.063
 4342SOL    HW113925   1.208   3.177   3.037
 4342SOL    HW213926   1.078   3.272   3.064
 4343SOL     OW13927   2.343   1.085   1.540
 4343SOL    HW113928   2.305   1.003   1.581
 4343SOL    HW213929   2.308   1.096   1.447
 4344SOL     OW13930   2.129   5.295   3.269
 4344SOL    HW113931   2.050   5.234   3.264
 4344SOL    HW213932   2.127   5.360   3.194
 4345SOL     OW13933   1.352   1.993   5.879
 4345SOL    HW113934   1.269   1.939   5.894
 4345SOL    HW213935   1.432   1.932   5.877
 4346SOL     OW13936   2.086   3.270   1.884
 4346SOL    HW113937   2.142   3.348   1.912
 4346SOL    HW213938   2.063   3.278   1.787
 4347SOL     OW13939   5.772   6.559   3.017
 4347SOL    HW113940   5.765   6.551   3.116
 4347SOL    HW213941   5.688   6.601   2.981
 4348SOL     OW13942   1.811   4.004   6.522
 4348SOL    HW113943   1.835   3.912   6.493
 4348SOL    HW213944   1.724   4.001   6.572
 4349SOL     OW13945   0.010   0.616   3.668
 4349SOL    HW113946   0.062   0.678   3.728
 4349SOL    HW213947   0.053   0.614   3.578
 4350SOL     OW13948   5.172   2.182   3.768
 4350SOL    HW113949   5.265   2.191   3.731
 4350SOL    HW213950   5.164   2.096   3.818
 4351SOL     OW13951   2.645   5.832   1.682
 4351SOL    HW113952   2.547   5.844   1.696
 4351SOL    HW213953   2.695   5.903   1.731
 4352SOL     OW13954   6.319   1.147   2.017
 4352SOL    HW113955   6.353   1.063   2.060
 4352SOL    HW213956   6.282   1.208   2.087
 4353SOL     OW13957   3.669   5.609   6.362
 4353SOL    HW113958   3.709   5.518   6.376
 4353SOL    HW213959   3.572   5.599   6.340
 4354SOL     OW13960   2.177   0.447   0.922
 4354SOL    HW113961   2.234   0.445   0.840
 4354SOL    HW213962   2.235   0.455   1.003
 4355SOL     OW13963   5.087   0.916   0.555
 4355SOL    HW113964   5.171   0.967   0.535
 4355SOL    HW213965   5.011   0.956   0.505
 4356SOL     OW13966   3.943   4.398   0.632
 4356SOL    HW113967   3.998   4.450   0.698
 4356SOL    HW213968   3.935   4.303   0.663
 4357SOL     OW13969   6.249   0.365   0.065
 4357SOL    HW113970   6.324   0.411   0.019
 4357SOL    HW213971   6.271   0.354   0.162
 4358SOL     OW13972   0.667   6.989   1.720
 4358SOL    HW113973   0.647   6.964   1.814
 4358SOL    HW213974   0.755   0.017   1.715
 4359SOL     OW13975   6.455   2.629   3.869
 4359SOL    HW113976   6.460   2.729   3.866
 4359SOL    HW213977   6.488   2.597   3.958
 4360SOL     OW13978   1.395   3.428   1.453
 4360SOL    HW113979   1.427   3.334   1.465
 4360SOL    HW213980   1.298   3.428   1.431
 4361SOL     OW13981   4.935   2.028   1.849
 4361SOL    HW113982   4.888   1.966   1.913
 4361SOL    HW213983   5.016   1.984   1.813
 4362SOL     OW13984   6.266   4.207   4.423
 4362SOL    HW113985   6.309   4.133   4.373
 4362SOL    HW213986   6.259   4.288   4.364
 4363SOL     OW13987   5.261   2.215   6.075
 4363SOL    HW113988   5.303   2.275   6.141
 4363SOL    HW213989   5.318   2.134   6.061
 4364SOL     OW13990   3.310   3.842   4.690
 4364SOL    HW113991   3.290   3.936   4.663
 4364SOL    HW213992   3.224   3.795   4.711
 4365SOL     OW13993   3.438   1.490   2.144
 4365SOL    HW113994   3.528   1.519   2.174
 4365SOL    HW213995   3.372   1.564   2.161
 4366SOL     OW13996   5.807   5.455   0.892
 4366SOL    HW113997   5.793   5.402   0.808
 4366SOL    HW213998   5.733   5.435   0.957
 4367SOL     OW13999   1.612   6.246   6.304
 4367SOL    HW114000   1.602   6.206   6.213
 4367SOL    HW214001   1.706   6.235   6.335
 4368SOL     OW14002   5.358   3.746   1.835
 4368SOL    HW114003   5.331   3.803   1.913
 4368SOL    HW214004   5.317   3.782   1.751
 4369SOL     OW14005   4.258   5.665   2.131
 4369SOL    HW114006   4.159   5.653   2.122
 4369SOL    HW214007   4.298   5.584   2.173
 4370SOL     OW14008   5.580   4.461   3.415
 4370SOL    HW114009   5.571   4.560   3.413
 4370SOL    HW214010   5.674   4.435   3.393
 4371SOL     OW14011   6.274   1.983   1.687
 4371SOL    HW114012   6.212   1.907   1.708
 4371SOL    HW214013   6.233   2.042   1.618
 4372SOL     OW14014   4.257   1.346   3.428
 4372SOL    HW114015   4.232   1.440   3.408
 4372SOL    HW214016   4.256   1.291   3.344
 4373SOL     OW14017   6.817   1.829   6.224
 4373SOL    HW114018   6.760   1.845   6.304
 4373SOL    HW214019   6.839   1.916   6.180
 4374SOL     OW14020   2.185   2.409   1.586
 4374SOL    HW114021   2.180   2.450   1.677
 4374SOL    HW214022   2.280   2.384   1.565
 4375SOL     OW14023   2.706   6.574   4.716
 4375SOL    HW114024   2.696   6.482   4.753
 4375SOL    HW214025   2.659   6.580   4.628
 4376SOL     OW14026   5.645   1.060   3.218
 4376SOL    HW114027   5.743   1.040   3.211
 4376SOL    HW214028   5.616   1.113   3.138
 4377SOL     OW14029   5.577   4.363   6.386
 4377SOL    HW114030   5.521   4.431   6.340
 4377SOL    HW214031   5.537   4.341   6.476
 4378SOL     OW14032   1.888   0.350   3.784
 4378SOL    HW114033   1.901   0.341   3.883
 4378SOL    HW214034   1.955   0.416   3.749
 4379SOL     OW14035   2.614   2.205   5.218
 4379SOL    HW114036   2.703   2.206   5.172
 4379SOL    HW214037   2.591   2.298   5.247
 4380SOL     OW14038   0.302   1.124   1.689
 4380SOL    HW114039   0.255   1.098   1.773
 4380SOL    HW214040   0.395   1.087   1.689
 4381SOL     OW14041   2.128   6.358   6.159
 4381SOL    HW114042   2.171   6.311   6.082
 4381SOL    HW214043   2.172   6.330   6.244
 4382SOL     OW14044   0.150   3.408   5.246
 4382SOL    HW114045   0.197   3.471   5.307
 4382SOL    HW214046   0.055   3.396   5.276
 4383SOL     OW14047   5.902   2.872   0.033
 4383SOL    HW114048   5.910   2.911   6.961
 4383SOL    HW214049   5.924   2.775   0.030
 4384SOL     OW14050   5.982   6.669   4.070
 4384SOL    HW114051   5.952   6.573   4.069
 4384SOL    HW214052   6.052   6.682   4.000
 4385SOL     OW14053   5.341   1.136   4.793
 4385SOL    HW114054   5.304   1.043   4.793
 4385SOL    HW214055   5.337   1.174   4.700
 4386SOL     OW14056   1.130   3.356   5.304
 4386SOL    HW114057   1.064   3.422   5.339
 4386SOL    HW214058   1.222   3.395   5.308
 4387SOL     OW14059   6.502   2.095   0.436
 4387SOL    HW114060   6.462   2.139   0.516
 4387SOL    HW214061   6.451   2.011   0.415
 4388SOL     OW14062   5.464   2.653   6.397
 4388SOL    HW114063   5.511   2.589   6.337
 4388SOL    HW214064   5.506   2.744   6.387
 4389SOL     OW14065   0.827   3.776   1.551
 4389SOL    HW114066   0.742   3.789   1.603
 4389SOL    HW214067   0.905   3.786   1.612
 4390SOL     OW14068   6.422   0.917   1.675
 4390SOL    HW114069   6.422   0.873   1.765
 4390SOL    HW214070   6.364   0.999   1.677
 4391SOL     OW14071   2.076   6.343   6.994
 4391SOL    HW114072   2.117   6.358   6.904
 4391SOL    HW214073   2.136   6.380   0.045
 4392SOL     OW14074   1.850   2.403   4.855
 4392SOL    HW114075   1.914   2.433   4.926
 4392SOL    HW214076   1.769   2.462   4.856
 4393SOL     OW14077   4.967   1.054   1.772
 4393SOL    HW114078   5.032   1.092   1.837
 4393SOL    HW214079   4.892   1.010   1.821
 4394SOL     OW14080   0.857   0.595   1.770
 4394SOL    HW114081   0.807   0.508   1.773
 4394SOL    HW214082   0.937   0.586   1.710
 4395SOL     OW14083   2.722   5.473   0.891
 4395SOL    HW114084   2.752   5.492   0.984
 4395SOL    HW214085   2.742   5.377   0.869
 4396SOL     OW14086   2.783   0.235   3.228
 4396SOL    HW114087   2.857   0.289   3.269
 4396SOL    HW214088   2.705   0.232   3.290
 4397SOL     OW14089   3.094   1.798   4.633
 4397SOL    HW114090   3.162   1.760   4.695
 4397SOL    HW214091   3.139   1.849   4.560
 4398SOL     OW14092   2.071   2.954   5.297
 4398SOL    HW114093   2.143   2.894   5.260
 4398SOL    HW214094   2.100   3.049   5.289
 4399SOL     OW14095   2.857   6.871   2.399
 4399SOL    HW114096   2.782   6.838   2.341
 4399SOL    HW214097   2.900   6.950   2.356
 4400SOL     OW14098   1.819   5.467   4.621
 4400SOL    HW114099   1.909   5.426   4.635
 4400SOL    HW214100   1.829   5.566   4.609
 4401SOL     OW14101   3.880   0.372   6.398
 4401SOL    HW114102   3.859   0.317   6.478
 4401SOL    HW214103   3.799   0.427   6.373
 4402SOL     OW14104   1.073   0.636   3.545
 4402SOL    HW114105   1.100   0.556   3.491
 4402SOL    HW214106   1.154   0.692   3.564
 4403SOL     OW14107   1.666   5.148   1.298
 4403SOL    HW114108   1.729   5.225   1.287
 4403SOL    HW214109   1.702   5.086   1.368
 4404SOL     OW14110   0.568   6.485   6.108
 4404SOL    HW114111   0.484   6.437   6.084
 4404SOL    HW214112   0.551   6.584   6.107
 4405SOL     OW14113   1.875   5.471   3.447
 4405SOL    HW114114   1.839   5.380   3.466
 4405SOL    HW214115   1.974   5.465   3.436
 4406SOL     OW14116   6.505   3.883   1.870
 4406SOL    HW114117   6.416   3.856   1.907
 4406SOL    HW214118   6.524   3.978   1.894
 4407SOL     OW14119   5.989   6.264   1.950
 4407SOL    HW114120   5.966   6.274   1.853
 4407SOL    HW214121   6.035   6.347   1.982
 4408SOL     OW14122   4.022   0.780   0.286
 4408SOL    HW114123   3.988   0.790   0.193
 4408SOL    HW214124   3.959   0.722   0.338
 4409SOL     OW14125   2.838   0.368   2.850
 4409SOL    HW114126   2.742   0.386   2.870
 4409SOL    HW214127   2.863   0.278   2.886
 4410SOL     OW14128   1.587   6.710   1.277
 4410SOL    HW114129   1.526   6.682   1.352
 4410SOL    HW214130   1.538   6.771   1.215
 4411SOL     OW14131   3.466   4.551   5.313
 4411SOL    HW114132   3.474   4.457   5.281
 4411SOL    HW214133   3.395   4.557   5.383
 4412SOL     OW14134   4.794   6.284   2.659
 4412SOL    HW114135   4.707   6.331   2.675
 4412SOL    HW214136   4.847   6.284   2.744
 4413SOL     OW14137   4.440   6.178   4.108
 4413SOL    HW114138   4.377   6.186   4.031
 4413SOL    HW214139   4.518   6.122   4.082
 4414SOL     OW14140   4.442   4.194   1.377
 4414SOL    HW114141   4.446   4.293   1.390
 4414SOL    HW214142   4.433   4.148   1.465
 4415SOL     OW14143   2.539   3.002   1.377
 4415SOL    HW114144   2.637   2.992   1.360
 4415SOL    HW214145   2.520   3.095   1.410
 4416SOL     OW14146   4.005   2.160   3.167
 4416SOL    HW114147   4.054   2.202   3.243
 4416SOL    HW214148   3.952   2.082   3.201
 4417SOL     OW14149   0.372   4.091   3.488
 4417SOL    HW114150   0.301   4.039   3.535
 4417SOL    HW214151   0.330   4.167   3.437
 4418SOL     OW14152   6.402   6.773   6.147
 4418SOL    HW114153   6.338   6.800   6.219
 4418SOL    HW214154   6.425   6.676   6.158
 4419SOL     OW14155   6.166   5.526   6.532
 4419SOL    HW114156   6.230   5.589   6.575
 4419SOL    HW214157   6.076   5.569   6.524
 4420SOL     OW14158   3.692   2.054   0.796
 4420SOL    HW114159   3.612   2.113   0.789
 4420SOL    HW214160   3.756   2.092   0.862
 4421SOL     OW14161   1.272   2.316   5.732
 4421SOL    HW114162   1.251   2.220   5.712
 4421SOL    HW214163   1.232   2.374   5.661
 4422SOL     OW14164   6.665   4.241   6.446
 4422SOL    HW114165   6.695   4.198   6.361
 4422SOL    HW214166   6.612   4.175   6.499
 4423SOL     OW14167   5.299   3.985   4.739
 4423SOL    HW114168   5.289   4.022   4.832
 4423SOL    HW214169   5.344   3.896   4.742
 4424SOL     OW14170   5.014   5.875   3.517
 4424SOL    HW114171   4.974   5.854   3.606
 4424SOL    HW214172   5.106   5.912   3.529
 4425SOL     OW14173   1.864   5.328   1.267
 4425SOL    HW114174   1.909   5.243   1.240
 4425SOL    HW214175   1.890   5.401   1.204
 4426SOL     OW14176   0.556   0.473   4.770
 4426SOL    HW114177   0.463   0.460   4.806
 4426SOL    HW214178   0.619   0.412   4.819
 4427SOL     OW14179   2.640   6.308   2.736
 4427SOL    HW114180   2.697   6.386   2.710
 4427SOL    HW214181   2.550   6.316   2.693
 4428SOL     OW14182   5.529   6.834   3.065
 4428SOL    HW114183   5.472   6.781   3.002
 4428SOL    HW214184   5.483   6.920   3.087
 4429SOL     OW14185   2.489   5.874   3.301
 4429SOL    HW114186   2.470   5.928   3.383
 4429SOL    HW214187   2.588   5.870   3.286
 4430SOL     OW14188   4.850   4.201   5.467
 4430SOL    HW114189   4.846   4.241   5.375
 4430SOL    HW214190   4.924   4.134   5.471
 4431SOL     OW14191   3.412   6.696   3.611
 4431SOL    HW114192   3.469   6.657   3.538
 4431SOL    HW214193   3.464   6.698   3.696
 4432SOL     OW14194   1.001   3.577   5.974
 4432SOL    HW114195   0.919   3.542   6.019
 4432SOL    HW214196   1.049   3.640   6.035
 4433SOL     OW14197   0.303   0.683   5.610
 4433SOL    HW114198   0.332   0.652   5.700
 4433SOL    HW214199   0.203   0.690   5.608
 4434SOL     OW14200   0.192   0.274   2.382
 4434SOL    HW114201   0.186   0.365   2.423
 4434SOL    HW214202   0.199   0.206   2.454
 4435SOL     OW14203   2.296   3.587   0.512
 4435SOL    HW114204   2.208   3.551   0.485
 4435SOL    HW214205   2.360   3.582   0.436
 4436SOL     OW14206   3.996   1.706   2.012
 4436SOL    HW114207   3.987   1.645   1.933
 4436SOL    HW214208   3.938   1.786   1.999
 4437SOL     OW14209   0.117   4.048   0.844
 4437SOL    HW114210   0.070   3.966   0.811
 4437SOL    HW214211   0.208   4.052   0.803
 4438SOL     OW14212   3.888   0.845   5.682
 4438SOL    HW114213   3.881   0.898   5.598
 4438SOL    HW214214   3.797   0.813   5.709
 4439SOL     OW14215   2.646   6.738   2.617
 4439SOL    HW114216   2.588   6.819   2.632
 4439SOL    HW214217   2.742   6.763   2.631
 4440SOL     OW14218   1.709   5.249   0.280
 4440SOL    HW114219   1.757   5.227   0.195
 4440SOL    HW214220   1.613   5.268   0.260
 4441SOL     OW14221   0.148   1.364   0.541
 4441SOL    HW114222   0.171   1.292   0.606
 4441SOL    HW214223   0.220   1.371   0.472
 4442SOL     OW14224   1.850   4.585   6.621
 4442SOL    HW114225   1.857   4.490   6.653
 4442SOL    HW214226   1.803   4.587   6.533
 4443SOL     OW14227   0.848   5.641   6.058
 4443SOL    HW114228   0.803   5.568   6.110
 4443SOL    HW214229   0.812   5.644   5.965
 4444SOL     OW14230   5.398   4.477   0.003
 4444SOL    HW114231   5.328   4.503   6.956
 4444SOL    HW214232   5.455   4.557   0.024
 4445SOL     OW14233   6.990   5.441   0.097
 4445SOL    HW114234   6.943   5.420   0.011
 4445SOL    HW214235   6.925   5.439   0.173
 4446SOL     OW14236   5.026   0.973   1.011
 4446SOL    HW114237   4.933   0.981   1.046
 4446SOL    HW214238   5.084   0.929   1.080
 4447SOL     OW14239   4.817   5.561   5.601
 4447SOL    HW114240   4.824   5.559   5.501
 4447SOL    HW214241   4.799   5.469   5.635
 4448SOL     OW14242   3.706   6.346   2.239
 4448SOL    HW114243   3.740   6.272   2.181
 4448SOL    HW214244   3.773   6.366   2.310
 4449SOL     OW14245   3.329   1.156   5.448
 4449SOL    HW114246   3.343   1.057   5.458
 4449SOL    HW214247   3.288   1.192   5.532
 4450SOL     OW14248   3.639   6.830   0.231
 4450SOL    HW114249   3.698   6.783   0.297
 4450SOL    HW214250   3.608   6.916   0.271
 4451SOL     OW14251   5.200   4.391   2.925
 4451SOL    HW114252   5.240   4.477   2.956
 4451SOL    HW214253   5.141   4.409   2.845
 4452SOL     OW14254   4.676   6.151   4.643
 4452SOL    HW114255   4.633   6.196   4.565
 4452SOL    HW214256   4.606   6.115   4.704
 4453SOL     OW14257   6.844   3.807   0.498
 4453SOL    HW114258   6.857   3.722   0.550
 4453SOL    HW214259   6.749   3.837   0.506
 4454SOL     OW14260   1.187   2.161   6.706
 4454SOL    HW114261   1.113   2.100   6.735
 4454SOL    HW214262   1.227   2.126   6.621
 4455SOL     OW14263   0.726   6.641   5.638
 4455SOL    HW114264   0.719   6.543   5.616
 4455SOL    HW214265   0.654   6.666   5.703
 4456SOL     OW14266   2.107   0.359   4.889
 4456SOL    HW114267   2.189   0.349   4.945
 4456SOL    HW214268   2.120   0.434   4.824
 4457SOL     OW14269   1.455   2.189   4.767
 4457SOL    HW114270   1.551   2.198   4.743
 4457SOL    HW214271   1.401   2.253   4.711
 4458SOL     OW14272   1.975   3.553   6.609
 4458SOL    HW114273   1.976   3.596   6.699
 4458SOL    HW214274   2.008   3.459   6.617
 4459SOL     OW14275   1.268   3.054   2.941
 4459SOL    HW114276   1.352   3.086   2.898
 4459SOL    HW214277   1.285   2.965   2.984
 4460SOL     OW14278   0.005   3.078   4.288
 4460SOL    HW114279   0.053   3.130   4.359
 4460SOL    HW214280   0.003   3.131   4.204
 4461SOL     OW14281   2.560   0.935   1.361
 4461SOL    HW114282   2.568   0.965   1.266
 4461SOL    HW214283   2.492   0.862   1.367
 4462SOL     OW14284   6.547   4.727   3.138
 4462SOL    HW114285   6.532   4.784   3.057
 4462SOL    HW214286   6.504   4.638   3.124
 4463SOL     OW14287   6.244   1.647   0.435
 4463SOL    HW114288   6.147   1.626   0.431
 4463SOL    HW214289   6.288   1.585   0.500
 4464SOL     OW14290   0.369   5.235   0.710
 4464SOL    HW114291   0.410   5.311   0.759
 4464SOL    HW214292   0.426   5.154   0.719
 4465SOL     OW14293   3.037   5.816   1.187
 4465SOL    HW114294   3.066   5.877   1.261
 4465SOL    HW214295   2.969   5.752   1.223
 4466SOL     OW14296   1.504   2.354   3.175
 4466SOL    HW114297   1.408   2.349   3.147
 4466SOL    HW214298   1.557   2.402   3.105
 4467SOL     OW14299   4.564   5.991   3.237
 4467SOL    HW114300   4.624   5.927   3.190
 4467SOL    HW214301   4.618   6.069   3.271
 4468SOL     OW14302   1.733   2.869   1.311
 4468SOL    HW114303   1.675   2.951   1.311
 4468SOL    HW214304   1.816   2.888   1.363
 4469SOL     OW14305   3.117   6.218   1.366
 4469SOL    HW114306   3.073   6.129   1.354
 4469SOL    HW214307   3.092   6.279   1.290
 4470SOL     OW14308   2.034   6.661   2.795
 4470SOL    HW114309   1.945   6.616   2.803
 4470SOL    HW214310   2.033   6.723   2.716
 4471SOL     OW14311   1.054   1.324   6.259
 4471SOL    HW114312   1.088   1.236   6.292
 4471SOL    HW214313   0.954   1.326   6.265
 4472SOL     OW14314   1.515   2.767   1.162
 4472SOL    HW114315   1.525   2.673   1.131
 4472SOL    HW214316   1.598   2.796   1.209
 4473SOL     OW14317   0.676   2.850   4.281
 4473SOL    HW114318   0.738   2.926   4.300
 4473SOL    HW214319   0.608   2.844   4.354
 4474SOL     OW14320   3.180   5.859   0.860
 4474SOL    HW114321   3.133   5.816   0.784
 4474SOL    HW214322   3.118   5.864   0.939
 4475SOL     OW14323   1.080   4.051   1.201
 4475SOL    HW114324   1.097   4.050   1.299
 4475SOL    HW214325   0.983   4.030   1.184
 4476SOL     OW14326   4.999   1.490   3.899
 4476SOL    HW114327   5.024   1.410   3.846
 4476SOL    HW214328   4.932   1.465   3.969
 4477SOL     OW14329   1.825   0.662   5.174
 4477SOL    HW114330   1.743   0.668   5.231
 4477SOL    HW214331   1.848   0.566   5.159
 4478SOL     OW14332   1.895   0.452   0.534
 4478SOL    HW114333   1.897   0.363   0.488
 4478SOL    HW214334   1.948   0.519   0.481
 4479SOL     OW14335   1.142   2.996   0.477
 4479SOL    HW114336   1.165   2.997   0.575
 4479SOL    HW214337   1.070   3.063   0.460
 4480SOL     OW14338   0.918   6.214   4.197
 4480SOL    HW114339   0.921   6.298   4.143
 4480SOL    HW214340   0.830   6.167   4.182
 4481SOL     OW14341   2.041   3.771   6.216
 4481SOL    HW114342   2.055   3.779   6.117
 4481SOL    HW214343   2.130   3.774   6.262
 4482SOL     OW14344   2.762   6.150   0.045
 4482SOL    HW114345   2.730   6.094   0.121
 4482SOL    HW214346   2.686   6.203   0.008
 4483SOL     OW14347   1.447   3.207   0.810
 4483SOL    HW114348   1.500   3.187   0.727
 4483SOL    HW214349   1.504   3.260   0.873
 4484SOL     OW14350   2.617   2.100   0.225
 4484SOL    HW114351   2.698   2.119   0.170
 4484SOL    HW214352   2.563   2.028   0.182
 4485SOL     OW14353   5.930   2.296   5.253
 4485SOL    HW114354   5.854   2.254   5.202
 4485SOL    HW214355   5.896   2.373   5.307
 4486SOL     OW14356   4.455   5.249   5.197
 4486SOL    HW114357   4.518   5.212   5.266
 4486SOL    HW214358   4.400   5.321   5.238
 4487SOL     OW14359   0.710   2.893   0.166
 4487SOL    HW114360   0.629   2.839   0.145
 4487SOL    HW214361   0.767   2.843   0.232
 4488SOL     OW14362   6.907   3.902   4.016
 4488SOL    HW114363   6.958   3.822   3.982
 4488SOL    HW214364   6.954   3.940   4.095
 4489SOL     OW14365   4.427   5.692   5.426
 4489SOL    HW114366   4.505   5.701   5.364
 4489SOL    HW214367   4.459   5.697   5.521
 4490SOL     OW14368   5.049   1.809   1.199
 4490SOL    HW114369   5.036   1.752   1.117
 4490SOL    HW214370   4.962   1.852   1.224
 4491SOL     OW14371   1.137   3.220   3.696
 4491SOL    HW114372   1.197   3.211   3.616
 4491SOL    HW214373   1.191   3.251   3.774
 4492SOL     OW14374   6.383   0.396   2.205
 4492SOL    HW114375   6.325   0.324   2.243
 4492SOL    HW214376   6.406   0.374   2.111
 4493SOL     OW14377   5.090   1.816   4.538
 4493SOL    HW114378   5.099   1.879   4.461
 4493SOL    HW214379   5.175   1.816   4.591
 4494SOL     OW14380   1.346   0.358   0.875
 4494SOL    HW114381   1.419   0.421   0.900
 4494SOL    HW214382   1.261   0.408   0.861
 4495SOL     OW14383   4.780   5.651   1.591
 4495SOL    HW114384   4.693   5.669   1.546
 4495SOL    HW214385   4.854   5.657   1.524
 4496SOL     OW14386   3.774   6.275   6.626
 4496SOL    HW114387   3.770   6.329   6.710
 4496SOL    HW214388   3.697   6.211   6.625
 4497SOL     OW14389   4.612   1.295   6.499
 4497SOL    HW114390   4.632   1.360   6.425
 4497SOL    HW214391   4.697   1.267   6.542
 4498SOL     OW14392   0.618   5.528   5.146
 4498SOL    HW114393   0.555   5.456   5.118
 4498SOL    HW214394   0.617   5.537   5.246
 4499SOL     OW14395   6.029   2.195   2.616
 4499SOL    HW114396   6.026   2.213   2.518
 4499SOL    HW214397   6.111   2.143   2.638
 4500SOL     OW14398   3.884   5.496   6.821
 4500SOL    HW114399   3.934   5.551   6.887
 4500SOL    HW214400   3.858   5.408   6.862
 4501SOL     OW14401   5.998   0.834   2.862
 4501SOL    HW114402   6.054   0.755   2.883
 4501SOL    HW214403   5.914   0.804   2.816
 4502SOL     OW14404   6.951   3.955   6.557
 4502SOL    HW114405   6.956   4.037   6.500
 4502SOL    HW214406   7.001   3.880   6.512
 4503SOL     OW14407   3.004   0.908   2.830
 4503SOL    HW114408   3.000   0.921   2.930
 4503SOL    HW214409   2.965   0.819   2.806
 4504SOL     OW14410   6.897   1.446   2.654
 4504SOL    HW114411   6.915   1.348   2.642
 4504SOL    HW214412   6.875   1.465   2.750
 4505SOL     OW14413   5.698   4.794   4.353
 4505SOL    HW114414   5.605   4.829   4.362
 4505SOL    HW214415   5.758   4.838   4.420
 4506SOL     OW14416   5.049   2.693   5.060
 4506SOL    HW114417   5.056   2.660   5.154
 4506SOL    HW214418   5.082   2.787   5.054
 4507SOL     OW14419   6.308   2.815   3.253
 4507SOL    HW114420   6.324   2.909   3.283
 4507SOL    HW214421   6.221   2.810   3.204
 4508SOL     OW14422   0.391   5.725   0.937
 4508SOL    HW114423   0.429   5.649   0.884
 4508SOL    HW214424   0.362   5.798   0.875
 4509SOL     OW14425   4.905   2.818   1.938
 4509SOL    HW114426   4.849   2.899   1.956
 4509SOL    HW214427   4.865   2.739   1.985
 4510SOL     OW14428   4.317   1.169   3.933
 4510SOL    HW114429   4.342   1.218   3.849
 4510SOL    HW214430   4.397   1.159   3.991
 4511SOL     OW14431   0.518   4.145   0.600
 4511SOL    HW114432   0.607   4.186   0.578
 4511SOL    HW214433   0.456   4.157   0.523
 4512SOL     OW14434   3.304   3.229   5.455
 4512SOL    HW114435   3.268   3.191   5.540
 4512SOL    HW214436   3.229   3.261   5.398
 4513SOL     OW14437   1.412   6.473   0.988
 4513SOL    HW114438   1.336   6.533   0.962
 4513SOL    HW214439   1.386   6.378   0.971
 4514SOL     OW14440   3.330   4.612   6.419
 4514SOL    HW114441   3.306   4.520   6.387
 4514SOL    HW214442   3.368   4.606   6.511
 4515SOL     OW14443   4.695   0.885   6.476
 4515SOL    HW114444   4.742   0.869   6.389
 4515SOL    HW214445   4.710   0.808   6.538
 4516SOL     OW14446   3.647   1.408   5.169
 4516SOL    HW114447   3.693   1.344   5.231
 4516SOL    HW214448   3.580   1.462   5.221
 4517SOL     OW14449   3.974   0.967   5.445
 4517SOL    HW114450   4.054   0.908   5.457
 4517SOL    HW214451   3.921   0.935   5.366
 4518SOL     OW14452   0.735   6.830   1.400
 4518SOL    HW114453   0.746   6.794   1.493
 4518SOL    HW214454   0.823   6.864   1.367
 4519SOL     OW14455   4.678   6.726   6.645
 4519SOL    HW114456   4.701   6.787   6.570
 4519SOL    HW214457   4.579   6.725   6.659
 4520SOL     OW14458   3.893   5.453   5.410
 4520SOL    HW114459   3.877   5.551   5.401
 4520SOL    HW214460   3.963   5.424   5.345
 4521SOL     OW14461   4.363   2.215   4.120
 4521SOL    HW114462   4.348   2.265   4.035
 4521SOL    HW214463   4.397   2.123   4.099
 4522SOL     OW14464   5.351   4.132   3.350
 4522SOL    HW114465   5.344   4.063   3.422
 4522SOL    HW214466   5.313   4.219   3.382
 4523SOL     OW14467   0.414   3.443   5.909
 4523SOL    HW114468   0.380   3.523   5.861
 4523SOL    HW214469   0.442   3.373   5.843
 4524SOL     OW14470   1.453   4.118   2.749
 4524SOL    HW114471   1.504   4.100   2.833
 4524SOL    HW214472   1.511   4.098   2.670
 4525SOL     OW14473   3.526   2.347   5.480
 4525SOL    HW114474   3.485   2.426   5.435
 4525SOL    HW214475   3.466   2.268   5.471
 4526SOL     OW14476   0.942   6.797   5.711
 4526SOL    HW114477   0.874   6.746   5.657
 4526SOL    HW214478   1.015   6.830   5.650
 4527SOL     OW14479   6.585   1.002   2.831
 4527SOL    HW114480   6.616   1.009   2.737
 4527SOL    HW214481   6.657   0.960   2.887
 4528SOL     OW14482   4.610   1.109   5.166
 4528SOL    HW114483   4.564   1.020   5.174
 4528SOL    HW214484   4.642   1.122   5.073
 4529SOL     OW14485   2.217   0.638   3.954
 4529SOL    HW114486   2.300   0.607   4.001
 4529SOL    HW214487   2.219   0.738   3.947
 4530SOL     OW14488   3.717   5.826   6.547
 4530SOL    HW114489   3.686   5.898   6.485
 4530SOL    HW214490   3.669   5.741   6.526
 4531SOL     OW14491   1.159   5.459   5.909
 4531SOL    HW114492   1.240   5.476   5.966
 4531SOL    HW214493   1.117   5.546   5.884
 4532SOL     OW14494   5.736   0.766   2.790
 4532SOL    HW114495   5.731   0.678   2.744
 4532SOL    HW214496   5.662   0.825   2.757
 4533SOL     OW14497   2.900   0.354   1.356
 4533SOL    HW114498   2.807   0.328   1.382
 4533SOL    HW214499   2.901   0.451   1.330
 4534SOL     OW14500   4.652   0.741   3.655
 4534SOL    HW114501   4.561   0.781   3.664
 4534SOL    HW214502   4.650   0.646   3.688
 4535SOL     OW14503   2.303   0.944   1.054
 4535SOL    HW114504   2.240   0.966   0.979
 4535SOL    HW214505   2.357   0.863   1.029
 4536SOL     OW14506   3.062   0.308   5.723
 4536SOL    HW114507   2.996   0.381   5.738
 4536SOL    HW214508   3.148   0.331   5.769
 4537SOL     OW14509   2.937   3.636   3.571
 4537SOL    HW114510   2.959   3.666   3.663
 4537SOL    HW214511   2.863   3.569   3.574
 4538SOL     OW14512   0.294   2.004   0.918
 4538SOL    HW114513   0.374   2.056   0.949
 4538SOL    HW214514   0.324   1.924   0.866
 4539SOL     OW14515   1.242   6.290   5.302
 4539SOL    HW114516   1.213   6.219   5.237
 4539SOL    HW214517   1.321   6.339   5.264
 4540SOL     OW14518   0.871   0.914   0.095
 4540SOL    HW114519   0.886   0.869   0.183
 4540SOL    HW214520   0.886   0.849   0.020
 4541SOL     OW14521   4.603   2.780   5.552
 4541SOL    HW114522   4.506   2.797   5.537
 4541SOL    HW214523   4.643   2.742   5.469
 4542SOL     OW14524   6.740   2.135   0.348
 4542SOL    HW114525   6.808   2.062   0.357
 4542SOL    HW214526   6.657   2.111   0.398
 4543SOL     OW14527   4.074   2.565   0.094
 4543SOL    HW114528   4.037   2.654   0.122
 4543SOL    HW214529   4.056   2.497   0.165
 4544SOL     OW14530   5.314   6.369   0.490
 4544SOL    HW114531   5.280   6.439   0.553
 4544SOL    HW214532   5.310   6.404   0.396
 4545SOL     OW14533   2.184   3.065   4.861
 4545SOL    HW114534   2.128   3.098   4.937
 4545SOL    HW214535   2.270   3.029   4.897
 4546SOL     OW14536   2.973   0.761   5.696
 4546SOL    HW114537   2.933   0.670   5.701
 4546SOL    HW214538   2.940   0.807   5.613
 4547SOL     OW14539   7.013   0.112   0.070
 4547SOL    HW114540   7.016   0.085   6.993
 4547SOL    HW214541   6.918   0.123   0.098
 4548SOL     OW14542   2.417   1.541   3.152
 4548SOL    HW114543   2.341   1.482   3.177
 4548SOL    HW214544   2.428   1.540   3.053
 4549SOL     OW14545   6.890   3.875   4.613
 4549SOL    HW114546   6.936   3.828   4.537
 4549SOL    HW214547   6.917   3.971   4.613
 4550SOL     OW14548   1.727   4.903   3.184
 4550SOL    HW114549   1.764   4.834   3.246
 4550SOL    HW214550   1.638   4.935   3.218
 4551SOL     OW14551   1.568   2.514   5.384
 4551SOL    HW114552   1.616   2.426   5.387
 4551SOL    HW214553   1.570   2.557   5.474
 4552SOL     OW14554   5.559   1.714   0.862
 4552SOL    HW114555   5.508   1.629   0.846
 4552SOL    HW214556   5.623   1.729   0.787
 4553SOL     OW14557   6.593   5.262   6.509
 4553SOL    HW114558   6.624   5.332   6.574
 4553SOL    HW214559   6.539   5.305   6.437
 4554SOL     OW14560   6.343   6.636   3.148
 4554SOL    HW114561   6.399   6.577   3.205
 4554SOL    HW214562   6.344   6.729   3.184
 4555SOL     OW14563   1.850   0.833   0.493
 4555SOL    HW114564   1.930   0.793   0.449
 4555SOL    HW214565   1.802   0.892   0.428
 4556SOL     OW14566   5.746   4.465   4.914
 4556SOL    HW114567   5.821   4.517   4.873
 4556SOL    HW214568   5.774   4.433   5.004
 4557SOL     OW14569   6.914   4.910   3.613
 4557SOL    HW114570   6.951   4.872   3.698
 4557SOL    HW214571   6.887   5.005   3.627
 4558SOL     OW14572   1.207   3.565   4.550
 4558SOL    HW114573   1.215   3.662   4.530
 4558SOL    HW214574   1.125   3.528   4.506
 4559SOL     OW14575   6.858   2.934   3.054
 4559SOL    HW114576   6.912   2.951   3.136
 4559SOL    HW214577   6.781   2.997   3.051
 4560SOL     OW14578   6.167   4.258   2.762
 4560SOL    HW114579   6.094   4.268   2.695
 4560SOL    HW214580   6.156   4.327   2.834
 4561SOL     OW14581   3.586   2.122   4.078
 4561SOL    HW114582   3.664   2.137   4.139
 4561SOL    HW214583   3.502   2.153   4.122
 4562SOL     OW14584   3.414   1.246   1.413
 4562SOL    HW114585   3.348   1.180   1.449
 4562SOL    HW214586   3.492   1.197   1.373
 4563SOL     OW14587   0.968   4.700   2.091
 4563SOL    HW114588   0.984   4.646   2.173
 4563SOL    HW214589   0.888   4.665   2.043
 4564SOL     OW14590   1.625   3.598   2.024
 4564SOL    HW114591   1.698   3.654   1.985
 4564SOL    HW214592   1.563   3.655   2.078
 4565SOL     OW14593   1.836   5.613   6.096
 4565SOL    HW114594   1.741   5.644   6.100
 4565SOL    HW214595   1.884   5.643   6.178
 4566SOL     OW14596   6.219   4.773   2.735
 4566SOL    HW114597   6.289   4.775   2.663
 4566SOL    HW214598   6.177   4.864   2.742
 4567SOL     OW14599   0.000   0.352   6.795
 4567SOL    HW114600   0.072   0.287   6.772
 4567SOL    HW214601   0.012   0.384   6.889
 4568SOL     OW14602   1.598   5.135   2.850
 4568SOL    HW114603   1.672   5.168   2.791
 4568SOL    HW214604   1.594   5.035   2.846
 4569SOL     OW14605   2.091   0.942   3.367
 4569SOL    HW114606   2.182   0.963   3.331
 4569SOL    HW214607   2.025   0.946   3.292
 4570SOL     OW14608   5.209   6.377   1.872
 4570SOL    HW114609   5.280   6.312   1.897
 4570SOL    HW214610   5.244   6.439   1.801
 4571SOL     OW14611   3.071   3.129   6.821
 4571SOL    HW114612   3.109   3.039   6.840
 4571SOL    HW214613   3.039   3.170   6.906
 4572SOL     OW14614   2.975   3.502   2.043
 4572SOL    HW114615   2.906   3.551   1.990
 4572SOL    HW214616   2.946   3.406   2.054
 4573SOL     OW14617   2.914   5.559   1.370
 4573SOL    HW114618   2.879   5.592   1.457
 4573SOL    HW214619   3.009   5.530   1.381
 4574SOL     OW14620   4.850   1.159   1.364
 4574SOL    HW114621   4.879   1.250   1.337
 4574SOL    HW214622   4.773   1.165   1.427
 4575SOL     OW14623   0.451   6.987   5.788
 4575SOL    HW114624   0.396   6.996   5.705
 4575SOL    HW214625   0.457   0.056   5.834
 4576SOL     OW14626   2.542   4.967   5.259
 4576SOL    HW114627   2.586   4.989   5.172
 4576SOL    HW214628   2.565   4.873   5.285
 4577SOL     OW14629   0.800   1.937   2.337
 4577SOL    HW114630   0.875   1.892   2.385
 4577SOL    HW214631   0.749   1.870   2.283
 4578SOL     OW14632   1.926   1.843   2.589
 4578SOL    HW114633   1.892   1.934   2.611
 4578SOL    HW214634   2.010   1.851   2.534
 4579SOL     OW14635   5.050   0.816   3.184
 4579SOL    HW114636   5.096   0.791   3.099
 4579SOL    HW214637   4.958   0.777   3.185
 4580SOL     OW14638   0.241   2.276   0.833
 4580SOL    HW114639   0.237   2.195   0.891
 4580SOL    HW214640   0.156   2.328   0.842
 4581SOL     OW14641   3.170   0.854   0.815
 4581SOL    HW114642   3.148   0.874   0.911
 4581SOL    HW214643   3.118   0.775   0.785
 4582SOL     OW14644   5.588   1.410   3.592
 4582SOL    HW114645   5.619   1.490   3.540
 4582SOL    HW214646   5.520   1.439   3.660
 4583SOL     OW14647   1.396   0.400   0.000
 4583SOL    HW114648   1.439   0.331   0.058
 4583SOL    HW214649   1.460   0.474   7.003
 4584SOL     OW14650   1.031   0.674   4.631
 4584SOL    HW114651   0.937   0.693   4.660
 4584SOL    HW214652   1.033   0.667   4.531
 4585SOL     OW14653   2.121   3.543   3.795
 4585SOL    HW114654   2.057   3.567   3.868
 4585SOL    HW214655   2.162   3.454   3.815
 4586SOL     OW14656   5.755   4.807   6.658
 4586SOL    HW114657   5.685   4.748   6.618
 4586SOL    HW214658   5.834   4.751   6.685
 4587SOL     OW14659   2.971   3.280   4.962
 4587SOL    HW114660   3.034   3.202   4.963
 4587SOL    HW214661   2.878   3.249   4.983
 4588SOL     OW14662   3.258   3.685   6.016
 4588SOL    HW114663   3.310   3.600   6.006
 4588SOL    HW214664   3.178   3.668   6.073
 4589SOL     OW14665   6.349   6.739   2.326
 4589SOL    HW114666   6.438   6.741   2.279
 4589SOL    HW214667   6.278   6.710   2.262
 4590SOL     OW14668   3.445   5.512   1.010
 4590SOL    HW114669   3.451   5.515   0.910
 4590SOL    HW214670   3.355   5.545   1.038
 4591SOL     OW14671   1.913   0.639   5.699
 4591SOL    HW114672   1.943   0.556   5.652
 4591SOL    HW214673   1.814   0.646   5.695
 4592SOL     OW14674   1.624   1.939   3.688
 4592SOL    HW114675   1.608   2.033   3.716
 4592SOL    HW214676   1.536   1.892   3.679
 4593SOL     OW14677   1.450   5.690   4.606
 4593SOL    HW114678   1.486   5.783   4.596
 4593SOL    HW214679   1.525   5.625   4.599
 4594SOL     OW14680   1.619   0.448   3.484
 4594SOL    HW114681   1.590   0.376   3.421
 4594SOL    HW214682   1.717   0.466   3.472
 4595SOL     OW14683   5.538   2.147   6.301
 4595SOL    HW114684   5.481   2.226   6.324
 4595SOL    HW214685   5.536   2.081   6.376
 4596SOL     OW14686   6.481   0.934   2.181
 4596SOL    HW114687   6.570   0.977   2.192
 4596SOL    HW214688   6.443   0.913   2.271
 4597SOL     OW14689   3.172   6.371   6.879
 4597SOL    HW114690   3.134   6.298   6.936
 4597SOL    HW214691   3.267   6.388   6.906
 4598SOL     OW14692   1.667   4.715   0.330
 4598SOL    HW114693   1.660   4.798   0.385
 4598SOL    HW214694   1.660   4.738   0.233
 4599SOL     OW14695   2.174   6.035   2.094
 4599SOL    HW114696   2.126   6.085   2.166
 4599SOL    HW214697   2.127   5.948   2.076
 4600SOL     OW14698   0.420   6.207   5.985
 4600SOL    HW114699   0.502   6.215   6.041
 4600SOL    HW214700   0.344   6.173   6.041
 4601SOL     OW14701   1.686   0.967   5.361
 4601SOL    HW114702   1.655   0.894   5.301
 4601SOL    HW214703   1.612   0.994   5.423
 4602SOL     OW14704   3.281   2.548   6.517
 4602SOL    HW114705   3.184   2.569   6.524
 4602SOL    HW214706   3.328   2.623   6.470
 4603SOL     OW14707   4.787   7.008   0.576
 4603SOL    HW114708   4.694   6.974   0.590
 4603SOL    HW214709   4.783   0.075   0.526
 4604SOL     OW14710   6.155   6.735   5.709
 4604SOL    HW114711   6.075   6.768   5.758
 4604SOL    HW214712   6.174   6.795   5.631
 4605SOL     OW14713   3.604   0.559   1.760
 4605SOL    HW114714   3.649   0.510   1.686
 4605SOL    HW214715   3.590   0.655   1.734
 4606SOL     OW14716   6.668   6.551   4.738
 4606SOL    HW114717   6.739   6.498   4.690
 4606SOL    HW214718   6.704   6.641   4.761
 4607SOL     OW14719   2.214   2.351   1.150
 4607SOL    HW114720   2.122   2.321   1.126
 4607SOL    HW214721   2.262   2.277   1.198
 4608SOL     OW14722   6.981   2.821   4.387
 4608SOL    HW114723   7.018   2.895   4.332
 4608SOL    HW214724   6.904   2.779   4.339
 4609SOL     OW14725   4.246   5.807   6.421
 4609SOL    HW114726   4.187   5.863   6.478
 4609SOL    HW214727   4.318   5.864   6.381
 4610SOL     OW14728   5.588   3.917   6.658
 4610SOL    HW114729   5.686   3.908   6.674
 4610SOL    HW214730   5.542   3.833   6.686
 4611SOL     OW14731   1.248   0.974   6.574
 4611SOL    HW114732   1.267   0.882   6.541
 4611SOL    HW214733   1.334   1.023   6.588
 4612SOL     OW14734   1.852   1.296   1.722
 4612SOL    HW114735   1.933   1.285   1.780
 4612SOL    HW214736   1.781   1.343   1.775
 4613SOL     OW14737   1.615   4.773   1.623
 4613SOL    HW114738   1.542   4.793   1.688
 4613SOL    HW214739   1.579   4.777   1.530
 4614SOL     OW14740   6.540   4.229   4.555
 4614SOL    HW114741   6.554   4.293   4.480
 4614SOL    HW214742   6.443   4.209   4.564
 4615SOL     OW14743   1.041   3.274   6.928
 4615SOL    HW114744   1.124   3.312   6.969
 4615SOL    HW214745   0.996   3.345   6.873
 4616SOL     OW14746   6.596   2.726   6.206
 4616SOL    HW114747   6.622   2.652   6.268
 4616SOL    HW214748   6.658   2.804   6.219
 4617SOL     OW14749   6.954   2.781   2.875
 4617SOL    HW114750   6.905   2.843   2.937
 4617SOL    HW214751   6.889   2.737   2.814
 4618SOL     OW14752   2.012   4.130   5.946
 4618SOL    HW114753   1.976   4.193   6.015
 4618SOL    HW214754   1.998   4.168   5.855
 4619SOL     OW14755   4.837   6.120   6.143
 4619SOL    HW114756   4.772   6.087   6.075
 4619SOL    HW214757   4.788   6.164   6.218
 4620SOL     OW14758   0.563   4.842   2.337
 4620SOL    HW114759   0.591   4.750   2.365
 4620SOL    HW214760   0.609   4.866   2.251
 4621SOL     OW14761   3.655   6.995   2.472
 4621SOL    HW114762   3.732   6.982   2.410
 4621SOL    HW214763   3.587   0.034   2.429
 4622SOL     OW14764   5.393   6.058   1.480
 4622SOL    HW114765   5.420   6.152   1.459
 4622SOL    HW214766   5.474   6.001   1.490
 4623SOL     OW14767   2.793   4.781   1.031
 4623SOL    HW114768   2.789   4.739   1.122
 4623SOL    HW214769   2.719   4.744   0.975
 4624SOL     OW14770   4.274   1.222   1.965
 4624SOL    HW114771   4.326   1.218   1.880
 4624SOL    HW214772   4.273   1.315   2.000
 4625SOL     OW14773   1.905   6.290   1.619
 4625SOL    HW114774   1.999   6.323   1.611
 4625SOL    HW214775   1.897   6.228   1.697
 4626SOL     OW14776   4.661   3.700   1.577
 4626SOL    HW114777   4.678   3.799   1.571
 4626SOL    HW214778   4.725   3.659   1.642
 4627SOL     OW14779   5.651   0.009   5.093
 4627SOL    HW114780   5.661   7.002   4.997
 4627SOL    HW214781   5.631   0.107   5.099
 4628SOL     OW14782   5.357   5.316   4.247
 4628SOL    HW114783   5.355   5.356   4.338
 4628SOL    HW214784   5.305   5.374   4.184
 4629SOL     OW14785   2.517   6.231   6.763
 4629SOL    HW114786   2.516   6.133   6.742
 4629SOL    HW214787   2.489   6.245   6.858
 4630SOL     OW14788   2.170   3.111   2.198
 4630SOL    HW114789   2.102   3.179   2.171
 4630SOL    HW214790   2.259   3.134   2.159
 4631SOL     OW14791   6.903   0.634   2.977
 4631SOL    HW114792   6.873   0.553   3.027
 4631SOL    HW214793   7.003   0.633   2.970
 4632SOL     OW14794   3.145   4.849   2.554
 4632SOL    HW114795   3.157   4.920   2.484
 4632SOL    HW214796   3.075   4.784   2.524
 4633SOL     OW14797   4.623   1.012   4.680
 4633SOL    HW114798   4.566   0.932   4.695
 4633SOL    HW214799   4.689   0.993   4.607
 4634SOL     OW14800   2.937   3.909   5.003
 4634SOL    HW114801   2.904   3.847   5.074
 4634SOL    HW214802   2.914   3.873   4.913
 4635SOL     OW14803   4.720   6.595   1.783
 4635SOL    HW114804   4.812   6.623   1.753
 4635SOL    HW214805   4.653   6.621   1.714
 4636SOL     OW14806   2.063   5.362   0.528
 4636SOL    HW114807   2.089   5.266   0.531
 4636SOL    HW214808   2.123   5.415   0.588
 4637SOL     OW14809   2.980   1.397   3.029
 4637SOL    HW114810   2.885   1.420   3.011
 4637SOL    HW214811   3.035   1.481   3.031
 4638SOL     OW14812   3.665   5.134   0.596
 4638SOL    HW114813   3.735   5.173   0.536
 4638SOL    HW214814   3.576   5.173   0.573
 4639SOL     OW14815   3.643   2.182   1.394
 4639SOL    HW114816   3.587   2.100   1.410
 4639SOL    HW214817   3.655   2.231   1.481
 4640SOL     OW14818   6.462   2.663   6.857
 4640SOL    HW114819   6.546   2.716   6.864
 4640SOL    HW214820   6.467   2.583   6.917
 4641SOL     OW14821   1.178   6.091   4.193
 4641SOL    HW114822   1.149   5.997   4.209
 4641SOL    HW214823   1.098   6.149   4.179
 4642SOL     OW14824   0.086   0.949   3.569
 4642SOL    HW114825   0.132   1.025   3.616
 4642SOL    HW214826   0.118   0.943   3.475
 4643SOL     OW14827   0.227   1.887   0.559
 4643SOL    HW114828   0.223   1.836   0.645
 4643SOL    HW214829   0.238   1.985   0.578
 4644SOL     OW14830   1.416   0.874   0.194
 4644SOL    HW114831   1.473   0.830   0.263
 4644SOL    HW214832   1.394   0.967   0.223
 4645SOL     OW14833   1.041   1.847   3.810
 4645SOL    HW114834   0.974   1.919   3.792
 4645SOL    HW214835   1.130   1.888   3.830
 4646SOL     OW14836   2.008   5.274   3.717
 4646SOL    HW114837   1.916   5.237   3.734
 4646SOL    HW214838   2.061   5.208   3.662
 4647SOL     OW14839   1.206   6.543   2.046
 4647SOL    HW114840   1.155   6.623   2.077
 4647SOL    HW214841   1.235   6.490   2.126
 4648SOL     OW14842   2.819   1.807   4.589
 4648SOL    HW114843   2.902   1.789   4.536
 4648SOL    HW214844   2.793   1.723   4.638
 4649SOL     OW14845   6.600   1.075   0.090
 4649SOL    HW114846   6.552   1.128   0.021
 4649SOL    HW214847   6.677   1.026   0.047
 4650SOL     OW14848   5.204   5.904   1.375
 4650SOL    HW114849   5.273   5.974   1.397
 4650SOL    HW214850   5.204   5.835   1.447
 4651SOL     OW14851   6.944   3.201   6.425
 4651SOL    HW114852   0.012   3.209   6.473
 4651SOL    HW214853   6.897   3.118   6.455
 4652SOL     OW14854   0.306   6.575   5.368
 4652SOL    HW114855   0.263   6.574   5.278
 4652SOL    HW214856   0.391   6.629   5.363
 4653SOL     OW14857   5.636   5.162   0.728
 4653SOL    HW114858   5.611   5.091   0.662
 4653SOL    HW214859   5.687   5.120   0.804
 4654SOL     OW14860   1.041   0.134   5.449
 4654SOL    HW114861   1.079   0.216   5.405
 4654SOL    HW214862   0.985   0.161   5.527
 4655SOL     OW14863   4.854   2.892   1.282
 4655SOL    HW114864   4.791   2.892   1.359
 4655SOL    HW214865   4.844   2.977   1.230
 4656SOL     OW14866   0.588   1.005   1.820
 4656SOL    HW114867   0.517   0.935   1.811
 4656SOL    HW214868   0.646   0.983   1.898
 4657SOL     OW14869   4.640   0.350   2.277
 4657SOL    HW114870   4.609   0.440   2.307
 4657SOL    HW214871   4.667   0.354   2.181
 4658SOL     OW14872   1.512   3.091   5.860
 4658SOL    HW114873   1.565   3.013   5.893
 4658SOL    HW214874   1.548   3.175   5.901
 4659SOL     OW14875   1.999   4.739   0.076
 4659SOL    HW114876   1.919   4.681   0.061
 4659SOL    HW214877   2.067   4.689   0.130
 4660SOL     OW14878   1.173   6.536   3.929
 4660SOL    HW114879   1.199   6.559   3.835
 4660SOL    HW214880   1.234   6.585   3.993
 4661SOL     OW14881   0.921   2.409   5.691
 4661SOL    HW114882   0.988   2.461   5.639
 4661SOL    HW214883   0.829   2.426   5.655
 4662SOL     OW14884   2.509   6.967   5.646
 4662SOL    HW114885   2.452   0.027   5.665
 4662SOL    HW214886   2.451   6.888   5.626
 4663SOL     OW14887   1.795   0.337   0.133
 4663SOL    HW114888   1.711   0.285   0.149
 4663SOL    HW214889   1.832   0.314   0.043
 4664SOL     OW14890   6.930   6.593   6.877
 4664SOL    HW114891   7.013   6.629   6.918
 4664SOL    HW214892   6.874   6.669   6.843
 4665SOL     OW14893   1.867   0.387   4.076
 4665SOL    HW114894   1.904   0.470   4.118
 4665SOL    HW214895   1.801   0.346   4.139
 4666SOL     OW14896   2.802   1.954   5.131
 4666SOL    HW114897   2.705   1.979   5.137
 4666SOL    HW214898   2.857   2.037   5.128
 4667SOL     OW14899   6.372   3.640   1.218
 4667SOL    HW114900   6.323   3.677   1.296
 4667SOL    HW214901   6.465   3.618   1.244
 4668SOL     OW14902   4.343   2.128   3.531
 4668SOL    HW114903   4.426   2.123   3.586
 4668SOL    HW214904   4.349   2.063   3.455
 4669SOL     OW14905   5.643   7.019   6.819
 4669SOL    HW114906   5.678   0.031   6.731
 4669SOL    HW214907   5.545   0.018   6.826
 4670SOL     OW14908   0.437   2.577   0.632
 4670SOL    HW114909   0.520   2.528   0.658
 4670SOL    HW214910   0.428   2.578   0.532
 4671SOL     OW14911   0.725   3.698   0.807
 4671SOL    HW114912   0.759   3.775   0.754
 4671SOL    HW214913   0.763   3.613   0.771
 4672SOL     OW14914   2.440   3.909   6.657
 4672SOL    HW114915   2.505   3.847   6.701
 4672SOL    HW214916   2.352   3.863   6.647
 4673SOL     OW14917   5.861   1.034   0.090
 4673SOL    HW114918   5.770   1.012   0.125
 4673SOL    HW214919   5.904   0.950   0.055
 4674SOL     OW14920   1.040   2.227   1.487
 4674SOL    HW114921   1.049   2.217   1.388
 4674SOL    HW214922   1.040   2.324   1.511
 4675SOL     OW14923   2.465   6.066   0.202
 4675SOL    HW114924   2.428   5.973   0.207
 4675SOL    HW214925   2.557   6.068   0.242
 4676SOL     OW14926   0.587   6.225   4.220
 4676SOL    HW114927   0.618   6.187   4.133
 4676SOL    HW214928   0.625   6.317   4.232
 4677SOL     OW14929   4.408   6.979   6.744
 4677SOL    HW114930   4.446   7.007   6.832
 4677SOL    HW214931   4.469   7.007   6.671
 4678SOL     OW14932   2.261   4.374   6.319
 4678SOL    HW114933   2.232   4.355   6.413
 4678SOL    HW214934   2.246   4.471   6.298
 4679SOL     OW14935   2.858   0.337   5.441
 4679SOL    HW114936   2.894   0.399   5.371
 4679SOL    HW214937   2.891   0.244   5.423
 4680SOL     OW14938   2.056   4.823   0.797
 4680SOL    HW114939   2.014   4.905   0.759
 4680SOL    HW214940   2.009   4.797   0.882
 4681SOL     OW14941   0.354   5.380   5.128
 4681SOL    HW114942   0.354   5.417   5.221
 4681SOL    HW214943   0.328   5.452   5.064
 4682SOL     OW14944   4.503   6.558   0.538
 4682SOL    HW114945   4.593   6.516   0.544
 4682SOL    HW214946   4.478   6.571   0.442
 4683SOL     OW14947   6.982   4.131   3.605
 4683SOL    HW114948   6.918   4.128   3.528
 4683SOL    HW214949   0.002   4.223   3.611
 4684SOL     OW14950   1.455   1.072   4.480
 4684SOL    HW114951   1.554   1.071   4.488
 4684SOL    HW214952   1.421   1.166   4.490
 4685SOL     OW14953   4.902   4.554   5.046
 4685SOL    HW114954   4.936   4.640   5.009
 4685SOL    HW214955   4.961   4.525   5.122
 4686SOL     OW14956   4.509   5.501   0.211
 4686SOL    HW114957   4.479   5.579   0.156
 4686SOL    HW214958   4.605   5.481   0.190
 4687SOL     OW14959   5.544   6.477   4.806
 4687SOL    HW114960   5.535   6.541   4.882
 4687SOL    HW214961   5.454   6.439   4.784
 4688SOL     OW14962   0.519   1.994   6.540
 4688SOL    HW114963   0.536   2.004   6.638
 4688SOL    HW214964   0.530   1.898   6.514
 4689SOL     OW14965   1.362   5.488   5.668
 4689SOL    HW114966   1.389   5.499   5.572
 4689SOL    HW214967   1.383   5.395   5.698
 4690SOL     OW14968   1.387   2.553   0.412
 4690SOL    HW114969   1.456   2.508   0.468
 4690SOL    HW214970   1.431   2.619   0.351
 4691SOL     OW14971   3.474   4.735   0.659
 4691SOL    HW114972   3.405   4.667   0.635
 4691SOL    HW214973   3.504   4.722   0.753
 4692SOL     OW14974   0.151   5.201   3.201
 4692SOL    HW114975   0.132   5.206   3.299
 4692SOL    HW214976   0.099   5.125   3.161
 4693SOL     OW14977   0.405   1.045   3.468
 4693SOL    HW114978   0.421   1.125   3.410
 4693SOL    HW214979   0.394   0.964   3.410
 4694SOL     OW14980   1.715   1.732   6.520
 4694SOL    HW114981   1.702   1.797   6.446
 4694SOL    HW214982   1.753   1.779   6.600
 4695SOL     OW14983   3.453   3.089   2.067
 4695SOL    HW114984   3.439   3.071   2.164
 4695SOL    HW214985   3.379   3.147   2.033
 4696SOL     OW14986   6.832   3.293   0.050
 4696SOL    HW114987   6.881   3.276   0.136
 4696SOL    HW214988   6.863   3.379   0.011
 4697SOL     OW14989   0.935   4.596   0.193
 4697SOL    HW114990   1.001   4.633   0.127
 4697SOL    HW214991   0.957   4.629   0.285
 4698SOL     OW14992   5.584   2.947   1.095
 4698SOL    HW114993   5.632   2.968   1.010
 4698SOL    HW214994   5.561   3.032   1.142
 4699SOL     OW14995   6.561   0.274   3.577
 4699SOL    HW114996   6.589   0.265   3.482
 4699SOL    HW214997   6.641   0.293   3.634
 4700SOL     OW14998   4.907   0.682   1.405
 4700SOL    HW114999   4.846   0.655   1.330
 4700SOL    HW215000   4.968   0.755   1.374
 4701SOL     OW15001   1.094   0.855   0.887
 4701SOL    HW115002   1.055   0.946   0.895
 4701SOL    HW215003   1.040   0.791   0.942
 4702SOL     OW15004   3.322   4.197   6.925
 4702SOL    HW115005   3.253   4.193   6.853
 4702SOL    HW215006   3.409   4.227   6.886
 4703SOL     OW15007   1.957   0.929   2.184
 4703SOL    HW115008   1.978   1.004   2.122
 4703SOL    HW215009   1.864   0.941   2.220
 4704SOL     OW15010   4.892   6.749   0.511
 4704SOL    HW115011   4.836   6.824   0.545
 4704SOL    HW215012   4.918   6.689   0.587
 4705SOL     OW15013   3.326   3.587   4.171
 4705SOL    HW115014   3.265   3.601   4.249
 4705SOL    HW215015   3.367   3.674   4.144
 4706SOL     OW15016   4.202   5.308   1.388
 4706SOL    HW115017   4.183   5.211   1.375
 4706SOL    HW215018   4.202   5.329   1.486
 4707SOL     OW15019   3.216   6.237   0.832
 4707SOL    HW115020   3.309   6.201   0.823
 4707SOL    HW215021   3.172   6.240   0.743
 4708SOL     OW15022   2.309   2.209   2.248
 4708SOL    HW115023   2.246   2.281   2.278
 4708SOL    HW215024   2.377   2.247   2.186
 4709SOL     OW15025   4.025   4.303   5.915
 4709SOL    HW115026   4.041   4.206   5.896
 4709SOL    HW215027   3.972   4.311   6.000
 4710SOL     OW15028   5.015   1.982   0.785
 4710SOL    HW115029   5.074   1.998   0.706
 4710SOL    HW215030   5.070   1.951   0.862
 4711SOL     OW15031   2.964   0.324   2.606
 4711SOL    HW115032   3.060   0.300   2.615
 4711SOL    HW215033   2.923   0.334   2.697
 4712SOL     OW15034   1.397   4.857   0.168
 4712SOL    HW115035   1.371   4.948   0.203
 4712SOL    HW215036   1.491   4.860   0.135
 4713SOL     OW15037   2.450   5.643   0.724
 4713SOL    HW115038   2.514   5.578   0.682
 4713SOL    HW215039   2.487   5.736   0.716
 4714SOL     OW15040   3.747   2.391   0.897
 4714SOL    HW115041   3.779   2.485   0.911
 4714SOL    HW215042   3.725   2.349   0.985
 4715SOL     OW15043   6.641   3.786   3.513
 4715SOL    HW115044   6.564   3.722   3.515
 4715SOL    HW215045   6.608   3.877   3.487
 4716SOL     OW15046   3.475   6.127   0.284
 4716SOL    HW115047   3.527   6.154   0.365
 4716SOL    HW215048   3.378   6.120   0.307
 4717SOL     OW15049   1.241   5.758   4.004
 4717SOL    HW115050   1.274   5.663   4.004
 4717SOL    HW215051   1.183   5.773   3.925
 4718SOL     OW15052   5.865   1.436   6.189
 4718SOL    HW115053   5.954   1.409   6.152
 4718SOL    HW215054   5.861   1.535   6.198
 4719SOL     OW15055   4.705   2.817   1.034
 4719SOL    HW115056   4.801   2.803   1.059
 4719SOL    HW215057   4.651   2.834   1.117
 4720SOL     OW15058   2.383   0.898   4.526
 4720SOL    HW115059   2.403   0.890   4.428
 4720SOL    HW215060   2.469   0.893   4.577
 4721SOL     OW15061   1.729   2.233   1.636
 4721SOL    HW115062   1.819   2.201   1.664
 4721SOL    HW215063   1.726   2.333   1.643
 4722SOL     OW15064   2.319   6.674   1.119
 4722SOL    HW115065   2.270   6.758   1.095
 4722SOL    HW215066   2.258   6.612   1.168
 4723SOL     OW15067   2.864   0.082   6.709
 4723SOL    HW115068   2.959   0.077   6.741
 4723SOL    HW215069   2.827   0.173   6.728
 4724SOL     OW15070   4.393   5.139   1.628
 4724SOL    HW115071   4.486   5.167   1.606
 4724SOL    HW215072   4.333   5.219   1.629
 4725SOL     OW15073   5.823   5.992   3.534
 4725SOL    HW115074   5.809   6.086   3.504
 4725SOL    HW215075   5.740   5.958   3.578
 4726SOL     OW15076   0.105   5.372   6.735
 4726SOL    HW115077   0.023   5.349   6.787
 4726SOL    HW215078   0.084   5.445   6.670
 4727SOL     OW15079   0.426   6.651   7.013
 4727SOL    HW115080   0.456   6.660   6.918
 4727SOL    HW215081   0.348   6.589   7.018
 4728SOL     OW15082   0.366   1.307   0.419
 4728SOL    HW115083   0.443   1.348   0.370
 4728SOL    HW215084   0.350   1.214   0.385
 4729SOL     OW15085   3.686   0.433   1.529
 4729SOL    HW115086   3.771   0.473   1.494
 4729SOL    HW215087   3.643   0.378   1.457
 4730SOL     OW15088   1.699   0.337   5.341
 4730SOL    HW115089   1.720   0.338   5.243
 4730SOL    HW215090   1.707   0.244   5.377
 4731SOL     OW15091   5.514   1.704   5.796
 4731SOL    HW115092   5.564   1.617   5.801
 4731SOL    HW215093   5.416   1.685   5.787
 4732SOL     OW15094   0.250   2.189   0.556
 4732SOL    HW115095   0.247   2.231   0.647
 4732SOL    HW215096   0.345   2.186   0.525
 4733SOL     OW15097   6.717   2.920   3.857
 4733SOL    HW115098   6.735   2.828   3.823
 4733SOL    HW215099   6.721   2.920   3.957
 4734SOL     OW15100   4.236   4.492   6.258
 4734SOL    HW115101   4.296   4.571   6.262
 4734SOL    HW215102   4.143   4.520   6.282
 4735SOL     OW15103   0.523   5.233   3.441
 4735SOL    HW115104   0.604   5.236   3.499
 4735SOL    HW215105   0.492   5.327   3.422
 4736SOL     OW15106   1.458   0.906   1.147
 4736SOL    HW115107   1.456   0.946   1.238
 4736SOL    HW215108   1.547   0.863   1.132
 4737SOL     OW15109   2.454   5.772   1.928
 4737SOL    HW115110   2.372   5.783   1.872
 4737SOL    HW215111   2.429   5.776   2.025
 4738SOL     OW15112   6.833   6.214   2.519
 4738SOL    HW115113   6.858   6.280   2.590
 4738SOL    HW215114   6.781   6.260   2.447
 4739SOL     OW15115   4.797   0.752   1.130
 4739SOL    HW115116   4.703   0.721   1.145
 4739SOL    HW215117   4.798   0.852   1.124
 4740SOL     OW15118   0.519   2.353   3.598
 4740SOL    HW115119   0.512   2.394   3.689
 4740SOL    HW215120   0.557   2.420   3.534
 4741SOL     OW15121   3.952   4.083   1.299
 4741SOL    HW115122   4.017   4.069   1.224
 4741SOL    HW215123   3.892   4.003   1.307
 4742SOL     OW15124   3.612   0.046   0.328
 4742SOL    HW115125   3.514   0.061   0.334
 4742SOL    HW215126   3.654   0.121   0.276
 4743SOL     OW15127   2.072   4.914   1.357
 4743SOL    HW115128   2.057   4.998   1.304
 4743SOL    HW215129   2.067   4.936   1.455
 4744SOL     OW15130   2.484   5.605   0.988
 4744SOL    HW115131   2.560   5.541   0.999
 4744SOL    HW215132   2.463   5.616   0.891
 4745SOL     OW15133   1.145   4.424   6.988
 4745SOL    HW115134   1.238   4.429   0.005
 4745SOL    HW215135   1.114   4.516   6.962
 4746SOL     OW15136   4.693   5.734   4.131
 4746SOL    HW115137   4.780   5.734   4.181
 4746SOL    HW215138   4.641   5.652   4.156
 4747SOL     OW15139   1.533   2.047   0.513
 4747SOL    HW115140   1.471   2.122   0.491
 4747SOL    HW215141   1.492   1.961   0.482
 4748SOL     OW15142   1.874   6.615   2.464
 4748SOL    HW115143   1.818   6.628   2.545
 4748SOL    HW215144   1.883   6.703   2.415
 4749SOL     OW15145   2.313   1.542   6.530
 4749SOL    HW115146   2.331   1.617   6.466
 4749SOL    HW215147   2.279   1.579   6.616
 4750SOL     OW15148   5.174   2.539   5.557
 4750SOL    HW115149   5.086   2.507   5.522
 4750SOL    HW215150   5.161   2.626   5.605
 4751SOL     OW15151   4.070   0.564   3.694
 4751SOL    HW115152   4.089   0.635   3.761
 4751SOL    HW215153   3.972   0.552   3.683
 4752SOL     OW15154   4.806   1.942   6.569
 4752SOL    HW115155   4.849   1.853   6.553
 4752SOL    HW215156   4.754   1.969   6.489
 4753SOL     OW15157   3.396   6.232   5.882
 4753SOL    HW115158   3.380   6.233   5.981
 4753SOL    HW215159   3.353   6.313   5.841
 4754SOL     OW15160   4.734   4.718   6.890
 4754SOL    HW115161   4.729   4.702   6.989
 4754SOL    HW215162   4.710   4.634   6.842
 4755SOL     OW15163   1.220   1.419   1.620
 4755SOL    HW115164   1.195   1.323   1.606
 4755SOL    HW215165   1.287   1.447   1.551
 4756SOL     OW15166   6.489   4.019   5.823
 4756SOL    HW115167   6.446   3.985   5.907
 4756SOL    HW215168   6.506   4.117   5.832
 4757SOL     OW15169   1.831   3.815   1.158
 4757SOL    HW115170   1.796   3.837   1.067
 4757SOL    HW215171   1.915   3.866   1.175
 4758SOL     OW15172   2.514   6.335   3.225
 4758SOL    HW115173   2.548   6.254   3.273
 4758SOL    HW215174   2.531   6.325   3.127
 4759SOL     OW15175   0.796   6.028   1.880
 4759SOL    HW115176   0.714   6.066   1.837
 4759SOL    HW215177   0.774   5.999   1.974
 4760SOL     OW15178   1.278   5.703   1.184
 4760SOL    HW115179   1.293   5.654   1.098
 4760SOL    HW215180   1.352   5.680   1.248
 4761SOL     OW15181   6.265   6.331   1.856
 4761SOL    HW115182   6.264   6.346   1.757
 4761SOL    HW215183   6.203   6.396   1.900
 4762SOL     OW15184   1.461   0.436   2.158
 4762SOL    HW115185   1.484   0.343   2.130
 4762SOL    HW215186   1.364   0.440   2.184
 4763SOL     OW15187   5.410   4.590   1.659
 4763SOL    HW115188   5.381   4.685   1.668
 4763SOL    HW215189   5.475   4.568   1.732
 4764SOL     OW15190   4.968   2.875   0.600
 4764SOL    HW115191   4.918   2.790   0.616
 4764SOL    HW215192   4.919   2.951   0.642
 4765SOL     OW15193   3.629   1.643   4.760
 4765SOL    HW115194   3.659   1.621   4.667
 4765SOL    HW215195   3.572   1.568   4.795
 4766SOL     OW15196   0.743   0.390   4.225
 4766SOL    HW115197   0.646   0.370   4.206
 4766SOL    HW215198   0.767   0.477   4.184
 4767SOL     OW15199   2.106   4.202   3.456
 4767SOL    HW115200   2.040   4.129   3.471
 4767SOL    HW215201   2.068   4.289   3.489
 4768SOL     OW15202   4.684   2.566   6.600
 4768SOL    HW115203   4.606   2.512   6.571
 4768SOL    HW215204   4.768   2.530   6.560
 4769SOL     OW15205   2.630   4.283   0.478
 4769SOL    HW115206   2.579   4.213   0.430
 4769SOL    HW215207   2.588   4.301   0.567
 4770SOL     OW15208   0.590   1.318   5.442
 4770SOL    HW115209   0.551   1.407   5.419
 4770SOL    HW215210   0.589   1.259   5.362
 4771SOL     OW15211   1.588   6.840   4.870
 4771SOL    HW115212   1.538   6.790   4.800
 4771SOL    HW215213   1.549   6.820   4.960
 4772SOL     OW15214   2.946   5.202   2.298
 4772SOL    HW115215   3.046   5.205   2.304
 4772SOL    HW215216   2.910   5.150   2.375
 4773SOL     OW15217   2.017   5.246   4.562
 4773SOL    HW115218   2.005   5.182   4.638
 4773SOL    HW215219   2.095   5.218   4.506
 4774SOL     OW15220   1.416   4.403   0.071
 4774SOL    HW115221   1.435   4.465   0.147
 4774SOL    HW215222   1.429   4.308   0.101
 4775SOL     OW15223   6.499   6.611   5.316
 4775SOL    HW115224   6.542   6.578   5.400
 4775SOL    HW215225   6.504   6.541   5.246
 4776SOL     OW15226   7.000   1.349   6.187
 4776SOL    HW115227   6.908   1.339   6.149
 4776SOL    HW215228   0.001   1.446   6.199
 4777SOL     OW15229   1.332   0.449   2.401
 4777SOL    HW115230   1.411   0.430   2.343
 4777SOL    HW215231   1.355   0.518   2.469
 4778SOL     OW15232   2.074   1.276   6.944
 4778SOL    HW115233   2.109   1.186   6.968
 4778SOL    HW215234   2.011   1.268   6.866
 4779SOL     OW15235   5.559   0.383   4.746
 4779SOL    HW115236   5.519   0.470   4.717
 4779SOL    HW215237   5.620   0.399   4.823
 4780SOL     OW15238   5.604   2.748   4.988
 4780SOL    HW115239   5.609   2.648   4.981
 4780SOL    HW215240   5.509   2.777   4.980
 4781SOL     OW15241   2.142   5.747   2.112
 4781SOL    HW115242   2.236   5.749   2.146
 4781SOL    HW215243   2.126   5.660   2.065
 4782SOL     OW15244   6.623   6.927   4.389
 4782SOL    HW115245   6.722   6.915   4.379
 4782SOL    HW215246   6.577   6.844   4.357
 4783SOL     OW15247   6.792   3.376   5.964
 4783SOL    HW115248   6.846   3.367   6.048
 4783SOL    HW215249   6.768   3.472   5.949
 4784SOL     OW15250   5.549   3.123   6.402
 4784SOL    HW115251   5.523   3.027   6.390
 4784SOL    HW215252   5.598   3.134   6.488
 4785SOL     OW15253   0.032   6.717   4.141
 4785SOL    HW115254   6.985   6.643   4.137
 4785SOL    HW215255   0.080   6.714   4.229
 4786SOL     OW15256   1.042   5.504   6.846
 4786SOL    HW115257   1.123   5.543   6.889
 4786SOL    HW215258   1.052   5.505   6.747
 4787SOL     OW15259   3.402   1.403   3.975
 4787SOL    HW115260   3.379   1.326   4.036
 4787SOL    HW215261   3.320   1.457   3.957
 4788SOL     OW15262   6.221   6.106   0.610
 4788SOL    HW115263   6.178   6.054   0.536
 4788SOL    HW215264   6.312   6.069   0.629
 4789SOL     OW15265   5.786   1.222   2.740
 4789SOL    HW115266   5.810   1.257   2.649
 4789SOL    HW215267   5.706   1.271   2.774
 4790SOL     OW15268   6.736   1.930   4.957
 4790SOL    HW115269   6.731   2.004   5.024
 4790SOL    HW215270   6.667   1.945   4.886
 4791SOL     OW15271   6.976   0.441   0.311
 4791SOL    HW115272   6.943   0.440   0.406
 4791SOL    HW215273   0.018   0.364   0.297
 4792SOL     OW15274   2.152   3.235   2.766
 4792SOL    HW115275   2.058   3.237   2.732
 4792SOL    HW215276   2.168   3.314   2.825
 4793SOL     OW15277   0.878   3.295   5.908
 4793SOL    HW115278   0.945   3.255   5.971
 4793SOL    HW215279   0.913   3.383   5.876
 4794SOL     OW15280   4.177   1.600   4.442
 4794SOL    HW115281   4.164   1.501   4.437
 4794SOL    HW215282   4.250   1.628   4.381
 4795SOL     OW15283   6.931   1.060   6.412
 4795SOL    HW115284   0.009   1.061   6.435
 4795SOL    HW215285   6.877   1.057   6.496
 4796SOL     OW15286   4.226   1.149   5.181
 4796SOL    HW115287   4.267   1.121   5.267
 4796SOL    HW215288   4.256   1.088   5.108
 4797SOL     OW15289   1.563   5.252   5.391
 4797SOL    HW115290   1.640   5.258   5.454
 4797SOL    HW215291   1.596   5.246   5.297
 4798SOL     OW15292   4.453   4.695   6.758
 4798SOL    HW115293   4.462   4.599   6.783
 4798SOL    HW215294   4.537   4.744   6.783
 4799SOL     OW15295   4.212   2.817   6.798
 4799SOL    HW115296   4.157   2.897   6.776
 4799SOL    HW215297   4.230   2.815   6.897
 4800SOL     OW15298   0.825   3.977   0.236
 4800SOL    HW115299   0.902   3.967   0.299
 4800SOL    HW215300   0.831   4.065   0.190
 4801SOL     OW15301   5.649   2.580   1.976
 4801SOL    HW115302   5.727   2.541   1.926
 4801SOL    HW215303   5.593   2.633   1.913
 4802SOL     OW15304   6.525   0.837   4.390
 4802SOL    HW115305   6.576   0.815   4.307
 4802SOL    HW215306   6.589   0.865   4.462
 4803SOL     OW15307   5.537   3.815   5.663
 4803SOL    HW115308   5.476   3.737   5.655
 4803SOL    HW215309   5.556   3.833   5.760
 4804SOL     OW15310   4.835   1.525   0.717
 4804SOL    HW115311   4.739   1.550   0.730
 4804SOL    HW215312   4.891   1.571   0.785
 4805SOL     OW15313   6.532   1.216   6.911
 4805SOL    HW115314   6.595   1.293   6.902
 4805SOL    HW215315   6.459   1.224   6.843
 4806SOL     OW15316   0.899   0.997   3.597
 4806SOL    HW115317   0.896   0.898   3.612
 4806SOL    HW215318   0.817   1.039   3.635
 4807SOL     OW15319   0.588   3.622   5.296
 4807SOL    HW115320   0.579   3.687   5.372
 4807SOL    HW215321   0.609   3.671   5.212
 4808SOL     OW15322   3.775   5.917   1.290
 4808SOL    HW115323   3.719   5.852   1.240
 4808SOL    HW215324   3.723   5.954   1.368
 4809SOL     OW15325   3.569   3.921   1.186
 4809SOL    HW115326   3.621   3.920   1.272
 4809SOL    HW215327   3.494   3.987   1.193
 4810SOL     OW15328   0.614   5.117   4.081
 4810SOL    HW115329   0.621   5.193   4.017
 4810SOL    HW215330   0.633   5.150   4.174
 4811SOL     OW15331   3.109   4.030   4.074
 4811SOL    HW115332   3.200   4.068   4.091
 4811SOL    HW215333   3.040   4.093   4.111
 4812SOL     OW15334   1.187   0.157   2.855
 4812SOL    HW115335   1.208   0.090   2.926
 4812SOL    HW215336   1.211   0.249   2.886
 4813SOL     OW15337   6.570   1.405   5.492
 4813SOL    HW115338   6.639   1.386   5.422
 4813SOL    HW215339   6.511   1.325   5.503
 4814SOL     OW15340   5.994   4.157   1.308
 4814SOL    HW115341   5.926   4.170   1.237
 4814SOL    HW215342   6.035   4.066   1.300
 4815SOL     OW15343   5.727   4.710   1.628
 4815SOL    HW115344   5.685   4.636   1.681
 4815SOL    HW215345   5.777   4.671   1.551
 4816SOL     OW15346   2.506   1.653   2.865
 4816SOL    HW115347   2.527   1.748   2.889
 4816SOL    HW215348   2.548   1.630   2.778
 4817SOL     OW15349   4.018   2.579   0.605
 4817SOL    HW115350   4.054   2.544   0.518
 4817SOL    HW215351   3.991   2.502   0.664
 4818SOL     OW15352   3.726   0.589   5.214
 4818SOL    HW115353   3.745   0.510   5.273
 4818SOL    HW215354   3.789   0.663   5.237
 4819SOL     OW15355   3.502   0.051   1.130
 4819SOL    HW115356   3.576   7.005   1.140
 4819SOL    HW215357   3.537   0.134   1.086
 4820SOL     OW15358   5.858   3.953   2.070
 4820SOL    HW115359   5.870   3.966   1.971
 4820SOL    HW215360   5.851   3.855   2.089
 4821SOL     OW15361   0.309   5.074   1.479
 4821SOL    HW115362   0.222   5.113   1.448
 4821SOL    HW215363   0.384   5.121   1.433
 4822SOL     OW15364   1.586   4.566   2.935
 4822SOL    HW115365   1.566   4.643   2.874
 4822SOL    HW215366   1.508   4.504   2.937
 4823SOL     OW15367   1.707   1.167   4.506
 4823SOL    HW115368   1.784   1.143   4.447
 4823SOL    HW215369   1.701   1.266   4.515
 4824SOL     OW15370   5.506   2.746   1.789
 4824SOL    HW115371   5.600   2.744   1.755
 4824SOL    HW215372   5.482   2.839   1.816
 4825SOL     OW15373   0.436   3.107   3.006
 4825SOL    HW115374   0.452   3.199   2.970
 4825SOL    HW215375   0.524   3.064   3.027
 4826SOL     OW15376   6.377   5.896   0.261
 4826SOL    HW115377   6.417   5.814   0.220
 4826SOL    HW215378   6.320   5.871   0.339
 4827SOL     OW15379   5.321   1.137   1.233
 4827SOL    HW115380   5.293   1.214   1.291
 4827SOL    HW215381   5.241   1.078   1.216
 4828SOL     OW15382   5.044   3.534   6.457
 4828SOL    HW115383   4.953   3.496   6.473
 4828SOL    HW215384   5.107   3.498   6.526
 4829SOL     OW15385   3.417   0.344   5.428
 4829SOL    HW115386   3.422   0.280   5.504
 4829SOL    HW215387   3.469   0.427   5.451
 4830SOL     OW15388   3.829   6.893   5.228
 4830SOL    HW115389   3.883   6.810   5.214
 4830SOL    HW215390   3.769   6.908   5.149
 4831SOL     OW15391   6.398   4.053   5.552
 4831SOL    HW115392   6.462   4.035   5.477
 4831SOL    HW215393   6.446   4.039   5.639
 4832SOL     OW15394   1.981   2.841   6.566
 4832SOL    HW115395   1.890   2.807   6.541
 4832SOL    HW215396   2.051   2.786   6.521
 4833SOL     OW15397   4.994   1.562   3.121
 4833SOL    HW115398   4.922   1.618   3.081
 4833SOL    HW215399   5.000   1.475   3.072
 4834SOL     OW15400   5.800   0.767   3.079
 4834SOL    HW115401   5.753   0.764   2.991
 4834SOL    HW215402   5.843   0.856   3.091
 4835SOL     OW15403   2.026   0.202   6.332
 4835SOL    HW115404   2.102   0.139   6.317
 4835SOL    HW215405   1.960   0.194   6.258
 4836SOL     OW15406   5.614   2.899   2.639
 4836SOL    HW115407   5.617   2.912   2.738
 4836SOL    HW215408   5.587   2.805   2.619
 4837SOL     OW15409   1.406   4.255   0.490
 4837SOL    HW115410   1.309   4.265   0.468
 4837SOL    HW215411   1.458   4.328   0.445
 4838SOL     OW15412   2.934   5.926   2.504
 4838SOL    HW115413   2.870   5.954   2.576
 4838SOL    HW215414   2.972   6.007   2.459
 4839SOL     OW15415   0.585   6.242   6.539
 4839SOL    HW115416   0.606   6.153   6.580
 4839SOL    HW215417   0.639   6.254   6.456
 4840SOL     OW15418   6.815   6.417   0.008
 4840SOL    HW115419   6.735   6.382   6.980
 4840SOL    HW215420   6.851   6.497   6.980
 4841SOL     OW15421   2.481   5.633   2.492
 4841SOL    HW115422   2.406   5.649   2.428
 4841SOL    HW215423   2.567   5.658   2.448
 4842SOL     OW15424   3.624   6.359   1.452
 4842SOL    HW115425   3.622   6.386   1.356
 4842SOL    HW215426   3.710   6.312   1.472
 4843SOL     OW15427   0.122   3.161   0.168
 4843SOL    HW115428   0.159   3.072   0.193
 4843SOL    HW215429   0.112   3.218   0.250
 4844SOL     OW15430   6.838   1.826   5.525
 4844SOL    HW115431   6.742   1.812   5.501
 4844SOL    HW215432   6.849   1.916   5.569
 4845SOL     OW15433   5.888   5.480   3.930
 4845SOL    HW115434   5.981   5.515   3.931
 4845SOL    HW215435   5.888   5.385   3.960
 4846SOL     OW15436   1.167   4.653   0.659
 4846SOL    HW115437   1.259   4.654   0.699
 4846SOL    HW215438   1.127   4.745   0.666
 4847SOL     OW15439   4.338   2.392   4.625
 4847SOL    HW115440   4.355   2.395   4.526
 4847SOL    HW215441   4.267   2.324   4.645
 4848SOL     OW15442   2.913   2.169   2.275
 4848SOL    HW115443   2.918   2.225   2.193
 4848SOL    HW215444   3.005   2.136   2.299
 4849SOL     OW15445   1.593   6.119   0.266
 4849SOL    HW115446   1.681   6.078   0.241
 4849SOL    HW215447   1.526   6.101   0.194
 4850SOL     OW15448   3.924   0.611   2.599
 4850SOL    HW115449   3.866   0.621   2.519
 4850SOL    HW215450   3.959   0.700   2.627
 4851SOL     OW15451   4.912   6.968   4.993
 4851SOL    HW115452   5.011   6.954   5.001
 4851SOL    HW215453   4.866   6.879   4.993
 4852SOL     OW15454   1.545   1.783   1.232
 4852SOL    HW115455   1.540   1.688   1.261
 4852SOL    HW215456   1.454   1.824   1.239
 4853SOL     OW15457   2.789   1.423   1.895
 4853SOL    HW115458   2.729   1.476   1.955
 4853SOL    HW215459   2.884   1.442   1.917
 4854SOL     OW15460   4.959   6.905   0.818
 4854SOL    HW115461   4.975   6.985   0.875
 4854SOL    HW215462   4.902   6.931   0.740
 4855SOL     OW15463   0.464   2.495   2.605
 4855SOL    HW115464   0.447   2.586   2.567
 4855SOL    HW215465   0.553   2.462   2.574
 4856SOL     OW15466   2.638   4.585   3.643
 4856SOL    HW115467   2.704   4.580   3.718
 4856SOL    HW215468   2.568   4.514   3.656
 4857SOL     OW15469   0.230   1.658   5.445
 4857SOL    HW115470   0.321   1.623   5.424
 4857SOL    HW215471   0.213   1.742   5.395
 4858SOL     OW15472   0.980   1.258   3.519
 4858SOL    HW115473   1.014   1.257   3.425
 4858SOL    HW215474   0.941   1.169   3.542
 4859SOL     OW15475   2.730   5.554   5.239
 4859SOL    HW115476   2.665   5.597   5.176
 4859SOL    HW215477   2.708   5.580   5.333
 4860SOL     OW15478   4.682   4.714   0.749
 4860SOL    HW115479   4.659   4.804   0.712
 4860SOL    HW215480   4.773   4.687   0.717
 4861SOL     OW15481   5.179   3.846   5.572
 4861SOL    HW115482   5.237   3.765   5.570
 4861SOL    HW215483   5.124   3.846   5.656
 4862SOL     OW15484   1.736   6.512   2.046
 4862SOL    HW115485   1.780   6.539   1.960
 4862SOL    HW215486   1.703   6.418   2.039
 4863SOL     OW15487   6.084   4.338   6.264
 4863SOL    HW115488   6.011   4.281   6.228
 4863SOL    HW215489   6.169   4.319   6.216
 4864SOL     OW15490   2.992   1.517   4.063
 4864SOL    HW115491   3.083   1.511   4.022
 4864SOL    HW215492   2.979   1.439   4.125
 4865SOL     OW15493   1.834   6.541   5.275
 4865SOL    HW115494   1.774   6.471   5.312
 4865SOL    HW215495   1.917   6.546   5.330
 4866SOL     OW15496   6.418   4.407   6.718
 4866SOL    HW115497   6.380   4.315   6.726
 4866SOL    HW215498   6.498   4.415   6.777
 4867SOL     OW15499   5.410   6.872   2.504
 4867SOL    HW115500   5.388   6.970   2.500
 4867SOL    HW215501   5.433   6.839   2.413
 4868SOL     OW15502   0.035   4.632   0.812
 4868SOL    HW115503   0.042   4.643   0.911
 4868SOL    HW215504   0.009   4.538   0.790
 4869SOL     OW15505   0.493   0.984   0.200
 4869SOL    HW115506   0.506   0.894   0.242
 4869SOL    HW215507   0.560   0.997   0.127
 4870SOL     OW15508   0.758   6.007   2.145
 4870SOL    HW115509   0.672   5.999   2.195
 4870SOL    HW215510   0.824   5.942   2.182
 4871SOL     OW15511   1.463   1.873   4.558
 4871SOL    HW115512   1.514   1.940   4.504
 4871SOL    HW215513   1.517   1.848   4.639
 4872SOL     OW15514   5.954   6.853   3.050
 4872SOL    HW115515   5.952   6.813   3.142
 4872SOL    HW215516   6.033   6.819   3.000
 4873SOL     OW15517   6.594   5.892   5.599
 4873SOL    HW115518   6.602   5.983   5.640
 4873SOL    HW215519   6.596   5.900   5.499
 4874SOL     OW15520   5.454   2.643   2.491
 4874SOL    HW115521   5.496   2.584   2.560
 4874SOL    HW215522   5.475   2.607   2.400
 4875SOL     OW15523   5.716   6.427   5.119
 4875SOL    HW115524   5.684   6.333   5.117
 4875SOL    HW215525   5.787   6.437   5.189
 4876SOL     OW15526   1.627   1.074   3.384
 4876SOL    HW115527   1.716   1.110   3.411
 4876SOL    HW215528   1.586   1.023   3.460
 4877SOL     OW15529   0.050   1.997   5.210
 4877SOL    HW115530   0.049   1.915   5.152
 4877SOL    HW215531   0.101   2.070   5.164
 4878SOL     OW15532   0.518   2.828   2.403
 4878SOL    HW115533   0.427   2.810   2.440
 4878SOL    HW215534   0.579   2.855   2.477
 4879SOL     OW15535   5.435   1.610   3.060
 4879SOL    HW115536   5.524   1.580   3.025
 4879SOL    HW215537   5.382   1.530   3.089
 4880SOL     OW15538   6.859   2.535   6.512
 4880SOL    HW115539   6.888   2.439   6.513
 4880SOL    HW215540   6.894   2.581   6.593
 4881SOL     OW15541   1.614   2.749   1.661
 4881SOL    HW115542   1.649   2.843   1.667
 4881SOL    HW215543   1.514   2.750   1.668
 4882SOL     OW15544   4.172   2.074   4.360
 4882SOL    HW115545   4.128   1.993   4.322
 4882SOL    HW215546   4.179   2.145   4.289
 4883SOL     OW15547   6.555   4.300   1.419
 4883SOL    HW115548   6.633   4.245   1.390
 4883SOL    HW215549   6.479   4.286   1.355
 4884SOL     OW15550   2.200   6.551   1.548
 4884SOL    HW115551   2.156   6.562   1.458
 4884SOL    HW215552   2.280   6.492   1.539
 4885SOL     OW15553   1.017   4.189   0.386
 4885SOL    HW115554   1.029   4.201   0.287
 4885SOL    HW215555   1.054   4.267   0.435
 4886SOL     OW15556   2.512   0.759   1.767
 4886SOL    HW115557   2.610   0.775   1.783
 4886SOL    HW215558   2.459   0.834   1.806
 4887SOL     OW15559   6.569   6.656   0.749
 4887SOL    HW115560   6.572   6.706   0.836
 4887SOL    HW215561   6.648   6.681   0.694
 4888SOL     OW15562   3.888   6.432   3.447
 4888SOL    HW115563   3.932   6.396   3.365
 4888SOL    HW215564   3.861   6.357   3.507
 4889SOL     OW15565   6.775   3.024   3.590
 4889SOL    HW115566   6.784   3.007   3.688
 4889SOL    HW215567   6.684   2.995   3.559
 4890SOL     OW15568   0.555   1.494   4.900
 4890SOL    HW115569   0.642   1.537   4.923
 4890SOL    HW215570   0.571   1.420   4.835
 4891SOL     OW15571   2.734   5.671   6.260
 4891SOL    HW115572   2.671   5.594   6.265
 4891SOL    HW215573   2.821   5.647   6.304
 4892SOL     OW15574   5.296   5.832   2.697
 4892SOL    HW115575   5.229   5.781   2.642
 4892SOL    HW215576   5.334   5.906   2.643
 4893SOL     OW15577   0.657   3.589   1.675
 4893SOL    HW115578   0.573   3.574   1.727
 4893SOL    HW215579   0.718   3.510   1.687
 4894SOL     OW15580   5.001   0.511   1.792
 4894SOL    HW115581   5.077   0.529   1.854
 4894SOL    HW215582   4.976   0.596   1.744
 4895SOL     OW15583   6.947   4.611   4.122
 4895SOL    HW115584   7.018   4.682   4.124
 4895SOL    HW215585   6.858   4.652   4.137
 4896SOL     OW15586   1.699   5.020   4.304
 4896SOL    HW115587   1.764   5.095   4.290
 4896SOL    HW215588   1.606   5.055   4.292
 4897SOL     OW15589   1.506   6.427   5.291
 4897SOL    HW115590   1.524   6.526   5.296
 4897SOL    HW215591   1.587   6.377   5.321
 4898SOL     OW15592   4.628   1.955   3.763
 4898SOL    HW115593   4.664   1.971   3.671
 4898SOL    HW215594   4.639   2.037   3.818
 4899SOL     OW15595   6.946   5.980   1.657
 4899SOL    HW115596   0.022   5.954   1.644
 4899SOL    HW215597   6.922   6.051   1.591
 4900SOL     OW15598   3.469   5.847   5.877
 4900SOL    HW115599   3.524   5.918   5.834
 4900SOL    HW215600   3.495   5.758   5.841
 4901SOL     OW15601   0.536   1.685   5.855
 4901SOL    HW115602   0.453   1.674   5.909
 4901SOL    HW215603   0.597   1.749   5.901
 4902SOL     OW15604   1.640   7.008   6.008
 4902SOL    HW115605   1.708   6.944   6.045
 4902SOL    HW215606   1.686   0.072   5.979
 4903SOL     OW15607   5.285   4.310   2.242
 4903SOL    HW115608   5.262   4.230   2.186
 4903SOL    HW215609   5.216   4.381   2.229
 4904SOL     OW15610   2.239   0.131   0.367
 4904SOL    HW115611   2.166   0.155   0.303
 4904SOL    HW215612   2.314   0.088   0.317
 4905SOL     OW15613   3.220   6.534   2.645
 4905SOL    HW115614   3.254   6.522   2.739
 4905SOL    HW215615   3.251   6.623   2.611
 4906SOL     OW15616   4.883   3.338   5.126
 4906SOL    HW115617   4.901   3.332   5.028
 4906SOL    HW215618   4.838   3.425   5.146
 4907SOL     OW15619   4.901   1.691   6.530
 4907SOL    HW115620   4.834   1.644   6.473
 4907SOL    HW215621   4.990   1.646   6.522
 4908SOL     OW15622   3.992   6.530   6.720
 4908SOL    HW115623   3.893   6.535   6.737
 4908SOL    HW215624   4.032   6.622   6.727
 4909SOL     OW15625   4.976   4.623   4.537
 4909SOL    HW115626   5.053   4.687   4.540
 4909SOL    HW215627   4.915   4.648   4.462
 4910SOL     OW15628   4.630   1.708   5.534
 4910SOL    HW115629   4.706   1.645   5.549
 4910SOL    HW215630   4.608   1.711   5.436
 4911SOL     OW15631   6.873   2.724   2.301
 4911SOL    HW115632   6.830   2.662   2.235
 4911SOL    HW215633   6.803   2.785   2.339
 4912SOL     OW15634   5.458   2.187   3.825
 4912SOL    HW115635   5.476   2.188   3.727
 4912SOL    HW215636   5.545   2.187   3.875
 4913SOL     OW15637   0.152   3.056   5.913
 4913SOL    HW115638   0.182   3.004   5.833
 4913SOL    HW215639   0.060   3.092   5.898
 4914SOL     OW15640   4.823   0.448   3.305
 4914SOL    HW115641   4.734   0.485   3.333
 4914SOL    HW215642   4.891   0.520   3.305
 4915SOL     OW15643   3.581   5.195   5.685
 4915SOL    HW115644   3.560   5.244   5.770
 4915SOL    HW215645   3.677   5.206   5.663
 4916SOL     OW15646   6.482   2.460   4.095
 4916SOL    HW115647   6.411   2.439   4.162
 4916SOL    HW215648   6.510   2.375   4.050
 4917SOL     OW15649   4.428   6.565   0.287
 4917SOL    HW115650   4.351   6.622   0.258
 4917SOL    HW215651   4.417   6.473   0.252
 4918SOL     OW15652   6.274   5.129   2.768
 4918SOL    HW115653   6.206   5.167   2.831
 4918SOL    HW215654   6.366   5.148   2.803
 4919SOL     OW15655   3.673   4.080   2.338
 4919SOL    HW115656   3.624   4.167   2.337
 4919SOL    HW215657   3.608   4.005   2.329
 4920SOL     OW15658   6.219   1.122   5.606
 4920SOL    HW115659   6.224   1.174   5.691
 4920SOL    HW215660   6.172   1.035   5.623
 4921SOL     OW15661   0.332   6.847   2.354
 4921SOL    HW115662   0.421   6.814   2.386
 4921SOL    HW215663   0.341   6.943   2.325
 4922SOL     OW15664   3.482   2.202   6.556
 4922SOL    HW115665   3.471   2.228   6.652
 4922SOL    HW215666   3.526   2.276   6.506
 4923SOL     OW15667   3.304   1.671   1.592
 4923SOL    HW115668   3.337   1.617   1.670
 4923SOL    HW215669   3.278   1.609   1.518
 4924SOL     OW15670   2.521   0.513   5.188
 4924SOL    HW115671   2.587   0.546   5.121
 4924SOL    HW215672   2.535   0.561   5.275
 4925SOL     OW15673   5.584   5.913   3.600
 4925SOL    HW115674   5.587   5.819   3.633
 4925SOL    HW215675   5.543   5.915   3.509
 4926SOL     OW15676   5.596   2.585   0.999
 4926SOL    HW115677   5.508   2.592   1.046
 4926SOL    HW215678   5.667   2.629   1.054
 4927SOL     OW15679   3.432   1.426   6.648
 4927SOL    HW115680   3.336   1.402   6.661
 4927SOL    HW215681   3.463   1.394   6.559
 4928SOL     OW15682   6.931   1.932   0.690
 4928SOL    HW115683   6.832   1.922   0.704
 4928SOL    HW215684   6.979   1.904   0.773
 4929SOL     OW15685   0.615   6.367   4.986
 4929SOL    HW115686   0.667   6.305   4.927
 4929SOL    HW215687   0.648   6.461   4.974
 4930SOL     OW15688   5.404   6.209   1.917
 4930SOL    HW115689   5.504   6.205   1.921
 4930SOL    HW215690   5.371   6.142   1.850
 4931SOL     OW15691   6.428   5.617   0.715
 4931SOL    HW115692   6.459   5.638   0.808
 4931SOL    HW215693   6.329   5.623   0.710
 4932SOL     OW15694   2.870   3.270   2.014
 4932SOL    HW115695   2.799   3.202   2.037
 4932SOL    HW215696   2.903   3.253   1.922
 4933SOL     OW15697   2.645   6.410   5.753
 4933SOL    HW115698   2.611   6.396   5.660
 4933SOL    HW215699   2.632   6.326   5.807
 4934SOL     OW15700   4.223   5.275   2.671
 4934SOL    HW115701   4.138   5.235   2.705
 4934SOL    HW215702   4.225   5.268   2.571
 4935SOL     OW15703   0.195   1.316   6.367
 4935SOL    HW115704   0.244   1.230   6.370
 4935SOL    HW215705   0.126   1.313   6.295
 4936SOL     OW15706   3.532   2.688   0.517
 4936SOL    HW115707   3.514   2.711   0.421
 4936SOL    HW215708   3.622   2.723   0.543
 4937SOL     OW15709   4.431   2.484   4.845
 4937SOL    HW115710   4.385   2.459   4.760
 4937SOL    HW215711   4.382   2.445   4.923
 4938SOL     OW15712   3.977   5.275   6.453
 4938SOL    HW115713   4.035   5.305   6.529
 4938SOL    HW215714   3.886   5.316   6.462
 4939SOL     OW15715   4.696   2.990   6.250
 4939SOL    HW115716   4.720   3.022   6.158
 4939SOL    HW215717   4.779   2.976   6.303
 4940SOL     OW15718   1.786   6.222   4.576
 4940SOL    HW115719   1.709   6.200   4.516
 4940SOL    HW215720   1.756   6.287   4.646
 4941SOL     OW15721   5.474   0.622   0.894
 4941SOL    HW115722   5.407   0.694   0.878
 4941SOL    HW215723   5.450   0.572   0.977
 4942SOL     OW15724   5.626   4.124   5.743
 4942SOL    HW115725   5.659   4.118   5.648
 4942SOL    HW215726   5.678   4.194   5.792
 4943SOL     OW15727   5.030   2.362   1.179
 4943SOL    HW115728   5.106   2.308   1.213
 4943SOL    HW215729   5.026   2.450   1.227
 4944SOL     OW15730   2.505   4.565   2.644
 4944SOL    HW115731   2.459   4.650   2.621
 4944SOL    HW215732   2.532   4.566   2.740
 4945SOL     OW15733   0.765   6.485   4.526
 4945SOL    HW115734   0.760   6.386   4.519
 4945SOL    HW215735   0.860   6.514   4.533
 4946SOL     OW15736   1.116   4.419   2.019
 4946SOL    HW115737   1.076   4.356   2.085
 4946SOL    HW215738   1.187   4.474   2.062
 4947SOL     OW15739   0.297   6.895   0.618
 4947SOL    HW115740   0.392   6.927   0.618
 4947SOL    HW215741   0.275   6.858   0.708
 4948SOL     OW15742   1.767   1.446   2.223
 4948SOL    HW115743   1.757   1.441   2.323
 4948SOL    HW215744   1.698   1.509   2.187
 4949SOL     OW15745   5.120   1.278   4.394
 4949SOL    HW115746   5.112   1.369   4.434
 4949SOL    HW215747   5.029   1.240   4.376
 4950SOL     OW15748   3.002   5.427   5.592
 4950SOL    HW115749   3.058   5.381   5.660
 4950SOL    HW215750   2.906   5.400   5.603
 4951SOL     OW15751   4.332   1.919   3.355
 4951SOL    HW115752   4.366   1.826   3.373
 4951SOL    HW215753   4.320   1.931   3.256
 4952SOL     OW15754   0.491   5.672   4.783
 4952SOL    HW115755   0.573   5.728   4.775
 4952SOL    HW215756   0.439   5.699   4.864
 4953SOL     OW15757   1.741   5.432   1.513
 4953SOL    HW115758   1.812   5.453   1.580
 4953SOL    HW215759   1.783   5.389   1.432
 4954SOL     OW15760   5.461   5.777   6.772
 4954SOL    HW115761   5.380   5.775   6.831
 4954SOL    HW215762   5.544   5.770   6.829
 4955SOL     OW15763   0.817   6.730   1.682
 4955SOL    HW115764   0.757   6.804   1.709
 4955SOL    HW215765   0.900   6.767   1.641
 4956SOL     OW15766   4.932   6.125   4.600
 4956SOL    HW115767   4.839   6.146   4.628
 4956SOL    HW215768   4.939   6.029   4.574
 4957SOL     OW15769   0.916   0.045   3.827
 4957SOL    HW115770   0.872   0.046   3.917
 4957SOL    HW215771   1.005   0.001   3.834
 4958SOL     OW15772   6.983   5.981   0.169
 4958SOL    HW115773   7.002   6.078   0.153
 4958SOL    HW215774   0.012   5.951   0.251
 4959SOL     OW15775   1.106   0.954   1.184
 4959SOL    HW115776   1.171   0.906   1.125
 4959SOL    HW215777   1.145   1.042   1.212
 4960SOL     OW15778   3.514   6.145   5.162
 4960SOL    HW115779   3.564   6.220   5.206
 4960SOL    HW215780   3.567   6.060   5.170
 4961SOL     OW15781   4.456   0.374   5.308
 4961SOL    HW115782   4.453   0.419   5.398
 4961SOL    HW215783   4.425   0.280   5.317
 4962SOL     OW15784   6.869   1.761   1.511
 4962SOL    HW115785   6.938   1.788   1.578
 4962SOL    HW215786   6.879   1.817   1.429
 4963SOL     OW15787   0.026   4.914   1.709
 4963SOL    HW115788   0.118   4.880   1.691
 4963SOL    HW215789   7.016   4.972   1.634
 4964SOL     OW15790   3.560   6.637   3.388
 4964SOL    HW115791   3.530   6.675   3.300
 4964SOL    HW215792   3.656   6.660   3.404
 4965SOL     OW15793   6.832   6.437   4.562
 4965SOL    HW115794   6.744   6.416   4.520
 4965SOL    HW215795   6.906   6.410   4.501
 4966SOL     OW15796   3.784   4.928   3.656
 4966SOL    HW115797   3.770   4.983   3.738
 4966SOL    HW215798   3.854   4.859   3.673
 4967SOL     OW15799   4.260   1.937   5.862
 4967SOL    HW115800   4.330   1.944   5.790
 4967SOL    HW215801   4.181   1.887   5.827
 4968SOL     OW15802   5.884   3.706   5.464
 4968SOL    HW115803   5.876   3.778   5.395
 4968SOL    HW215804   5.968   3.719   5.517
 4969SOL     OW15805   0.685   1.762   2.141
 4969SOL    HW115806   0.710   1.675   2.099
 4969SOL    HW215807   0.588   1.780   2.126
 4970SOL     OW15808   0.862   2.725   5.915
 4970SOL    HW115809   0.845   2.791   5.988
 4970SOL    HW215810   0.829   2.763   5.828
 4971SOL     OW15811   6.173   6.129   3.963
 4971SOL    HW115812   6.217   6.081   4.038
 4971SOL    HW215813   6.242   6.181   3.912
 4972SOL     OW15814   0.905   2.472   5.971
 4972SOL    HW115815   0.920   2.429   5.882
 4972SOL    HW215816   0.894   2.571   5.960
 4973SOL     OW15817   5.846   6.124   3.188
 4973SOL    HW115818   5.831   6.036   3.232
 4973SOL    HW215819   5.794   6.128   3.102
 4974SOL     OW15820   4.976   6.637   1.718
 4974SOL    HW115821   4.968   6.578   1.638
 4974SOL    HW215822   5.072   6.641   1.747
 4975SOL     OW15823   5.549   5.997   0.408
 4975SOL    HW115824   5.474   6.029   0.465
 4975SOL    HW215825   5.627   6.060   0.416
 4976SOL     OW15826   4.114   0.276   4.774
 4976SOL    HW115827   4.159   0.339   4.710
 4976SOL    HW215828   4.059   0.328   4.839
 4977SOL     OW15829   3.426   3.950   0.373
 4977SOL    HW115830   3.494   3.878   0.391
 4977SOL    HW215831   3.407   3.953   0.275
 4978SOL     OW15832   6.272   2.943   5.837
 4978SOL    HW115833   6.300   2.847   5.838
 4978SOL    HW215834   6.304   2.986   5.753
 4979SOL     OW15835   1.927   1.655   5.271
 4979SOL    HW115836   2.019   1.694   5.266
 4979SOL    HW215837   1.863   1.715   5.224
 4980SOL     OW15838   2.624   5.449   2.210
 4980SOL    HW115839   2.672   5.514   2.151
 4980SOL    HW215840   2.680   5.430   2.290
 4981SOL     OW15841   3.934   6.077   5.426
 4981SOL    HW115842   3.875   6.105   5.503
 4981SOL    HW215843   4.027   6.109   5.442
 4982SOL     OW15844   2.320   2.383   0.513
 4982SOL    HW115845   2.305   2.391   0.611
 4982SOL    HW215846   2.392   2.446   0.484
 4983SOL     OW15847   5.152   3.182   4.310
 4983SOL    HW115848   5.179   3.148   4.401
 4983SOL    HW215849   5.215   3.255   4.283
 4984SOL     OW15850   4.884   3.649   2.742
 4984SOL    HW115851   4.912   3.596   2.822
 4984SOL    HW215852   4.878   3.589   2.662
 4985SOL     OW15853   5.559   3.659   2.584
 4985SOL    HW115854   5.611   3.577   2.609
 4985SOL    HW215855   5.622   3.729   2.551
 4986SOL     OW15856   5.050   4.450   1.867
 4986SOL    HW115857   5.089   4.362   1.839
 4986SOL    HW215858   5.117   4.499   1.923
 4987SOL     OW15859   0.305   3.673   1.057
 4987SOL    HW115860   0.379   3.722   1.011
 4987SOL    HW215861   0.285   3.589   1.007
 4988SOL     OW15862   0.420   2.359   5.073
 4988SOL    HW115863   0.505   2.308   5.064
 4988SOL    HW215864   0.385   2.351   5.166
 4989SOL     OW15865   0.246   0.941   0.273
 4989SOL    HW115866   0.175   1.004   0.241
 4989SOL    HW215867   0.333   0.962   0.229
 4990SOL     OW15868   0.825   2.448   5.307
 4990SOL    HW115869   0.779   2.373   5.353
 4990SOL    HW215870   0.769   2.480   5.230
 4991SOL     OW15871   1.611   2.585   4.564
 4991SOL    HW115872   1.681   2.517   4.546
 4991SOL    HW215873   1.650   2.659   4.620
 4992SOL     OW15874   3.549   0.573   5.479
 4992SOL    HW115875   3.631   0.544   5.430
 4992SOL    HW215876   3.573   0.600   5.572
 4993SOL     OW15877   2.936   5.636   4.105
 4993SOL    HW115878   2.861   5.700   4.088
 4993SOL    HW215879   2.914   5.547   4.064
 4994SOL     OW15880   0.095   6.541   2.235
 4994SOL    HW115881   0.062   6.636   2.227
 4994SOL    HW215882   0.149   6.532   2.319
 4995SOL     OW15883   5.996   2.676   5.502
 4995SOL    HW115884   6.089   2.694   5.472
 4995SOL    HW215885   5.995   2.596   5.563
 4996SOL     OW15886   0.598   1.199   4.124
 4996SOL    HW115887   0.510   1.244   4.110
 4996SOL    HW215888   0.668   1.247   4.070
 4997SOL     OW15889   0.353   2.187   3.363
 4997SOL    HW115890   0.441   2.139   3.368
 4997SOL    HW215891   0.348   2.240   3.279
 4998SOL     OW15892   1.147   5.588   5.286
 4998SOL    HW115893   1.182   5.678   5.261
 4998SOL    HW215894   1.219   5.535   5.331
 4999SOL     OW15895   6.173   4.277   0.993
 4999SOL    HW115896   6.147   4.194   0.944
 4999SOL    HW215897   6.194   4.350   0.928
 5000SOL     OW15898   6.973   5.694   4.352
 5000SOL    HW115899   6.946   5.771   4.294
 5000SOL    HW215900   6.927   5.611   4.322
 5001SOL     OW15901   4.651   4.224   5.758
 5001SOL    HW115902   4.725   4.157   5.754
 5001SOL    HW215903   4.615   4.240   5.666
 5002SOL     OW15904   2.267   1.368   1.535
 5002SOL    HW115905   2.343   1.432   1.519
 5002SOL    HW215906   2.304   1.280   1.564
 5003SOL     OW15907   6.376   5.365   2.956
 5003SOL    HW115908   6.448   5.304   2.924
 5003SOL    HW215909   6.413   5.457   2.968
 5004SOL     OW15910   3.569   5.420   0.048
 5004SOL    HW115911   3.645   5.375   0.094
 5004SOL    HW215912   3.583   5.519   0.050
 5005SOL     OW15913   4.704   2.383   6.822
 5005SOL    HW115914   4.797   2.405   6.849
 5005SOL    HW215915   4.703   2.347   6.729
 5006SOL     OW15916   5.006   4.878   3.745
 5006SOL    HW115917   5.082   4.872   3.810
 5006SOL    HW215918   4.999   4.794   3.692
 5007SOL     OW15919   3.740   1.605   4.480
 5007SOL    HW115920   3.774   1.652   4.398
 5007SOL    HW215921   3.813   1.550   4.520
 5008SOL     OW15922   0.042   1.318   3.966
 5008SOL    HW115923   6.985   1.327   4.030
 5008SOL    HW215924   0.031   1.384   3.892
 5009SOL     OW15925   1.981   6.180   4.008
 5009SOL    HW115926   1.930   6.242   3.949
 5009SOL    HW215927   1.990   6.091   3.962
 5010SOL     OW15928   3.975   3.467   4.566
 5010SOL    HW115929   3.964   3.517   4.480
 5010SOL    HW215930   4.034   3.520   4.627
 5011SOL     OW15931   1.472   2.820   2.674
 5011SOL    HW115932   1.523   2.734   2.681
 5011SOL    HW215933   1.535   2.893   2.649
 5012SOL     OW15934   6.102   3.311   6.728
 5012SOL    HW115935   6.062   3.311   6.636
 5012SOL    HW215936   6.037   3.352   6.792
 5013SOL     OW15937   4.699   1.269   5.983
 5013SOL    HW115938   4.612   1.292   5.938
 5013SOL    HW215939   4.691   1.287   6.081
 5014SOL     OW15940   6.080   6.636   6.981
 5014SOL    HW115941   5.986   6.671   6.984
 5014SOL    HW215942   6.133   6.686   6.913
 5015SOL     OW15943   5.174   2.385   3.315
 5015SOL    HW115944   5.139   2.318   3.379
 5015SOL    HW215945   5.261   2.352   3.277
 5016SOL     OW15946   2.445   6.957   2.242
 5016SOL    HW115947   2.484   0.022   2.206
 5016SOL    HW215948   2.515   6.885   2.242
 5017SOL     OW15949   2.419   2.760   1.460
 5017SOL    HW115950   2.454   2.766   1.554
 5017SOL    HW215951   2.444   2.842   1.410
 5018SOL     OW15952   6.610   5.113   4.519
 5018SOL    HW115953   6.515   5.087   4.540
 5018SOL    HW215954   6.630   5.202   4.558
 5019SOL     OW15955   2.580   5.456   6.287
 5019SOL    HW115956   2.621   5.415   6.205
 5019SOL    HW215957   2.510   5.394   6.323
 5020SOL     OW15958   5.054   5.225   6.368
 5020SOL    HW115959   4.963   5.235   6.329
 5020SOL    HW215960   5.119   5.282   6.317
 5021SOL     OW15961   2.045   4.909   6.000
 5021SOL    HW115962   2.032   4.947   5.909
 5021SOL    HW215963   2.080   4.815   5.992
 5022SOL     OW15964   1.677   5.005   0.702
 5022SOL    HW115965   1.676   4.922   0.757
 5022SOL    HW215966   1.695   4.982   0.606
 5023SOL     OW15967   6.517   3.651   2.537
 5023SOL    HW115968   6.546   3.632   2.443
 5023SOL    HW215969   6.557   3.737   2.567
 5024SOL     OW15970   5.333   3.639   5.577
 5024SOL    HW115971   5.285   3.628   5.490
 5024SOL    HW215972   5.321   3.557   5.633
 5025SOL     OW15973   6.364   1.844   2.875
 5025SOL    HW115974   6.395   1.932   2.909
 5025SOL    HW215975   6.264   1.839   2.879
 5026SOL     OW15976   0.601   6.329   2.819
 5026SOL    HW115977   0.562   6.289   2.735
 5026SOL    HW215978   0.527   6.356   2.880
 5027SOL     OW15979   0.885   6.675   3.493
 5027SOL    HW115980   0.959   6.633   3.440
 5027SOL    HW215981   0.911   6.679   3.589
 5028SOL     OW15982   1.434   0.737   3.002
 5028SOL    HW115983   1.514   0.686   3.034
 5028SOL    HW215984   1.464   0.816   2.949
 5029SOL     OW15985   7.018   0.971   2.438
 5029SOL    HW115986   0.089   0.993   2.401
 5029SOL    HW215987   6.951   0.971   2.365
 5030SOL     OW15988   1.770   5.404   6.884
 5030SOL    HW115989   1.674   5.378   6.891
 5030SOL    HW215990   1.794   5.467   6.957
 5031SOL     OW15991   5.707   0.389   5.228
 5031SOL    HW115992   5.651   0.371   5.147
 5031SOL    HW215993   5.711   0.488   5.244
 5032SOL     OW15994   0.889   6.271   1.170
 5032SOL    HW115995   0.849   6.263   1.079
 5032SOL    HW215996   0.931   6.362   1.179
 5033SOL     OW15997   1.316   4.155   5.933
 5033SOL    HW115998   1.372   4.108   5.864
 5033SOL    HW215999   1.223   4.166   5.899
 5034SOL     OW16000   6.701   4.160   0.324
 5034SOL    HW116001   6.800   4.154   0.336
 5034SOL    HW216002   6.662   4.068   0.321
 5035SOL     OW16003   6.379   4.233   1.174
 5035SOL    HW116004   6.323   4.296   1.120
 5035SOL    HW216005   6.387   4.146   1.126
 5036SOL     OW16006   1.796   0.656   2.643
 5036SOL    HW116007   1.816   0.677   2.739
 5036SOL    HW216008   1.824   0.733   2.586
 5037SOL     OW16009   4.646   2.617   3.228
 5037SOL    HW116010   4.650   2.602   3.130
 5037SOL    HW216011   4.601   2.539   3.272
 5038SOL     OW16012   2.529   6.366   6.198
 5038SOL    HW116013   2.622   6.388   6.228
 5038SOL    HW216014   2.493   6.442   6.144
 5039SOL     OW16015   1.805   1.557   3.648
 5039SOL    HW116016   1.733   1.517   3.592
 5039SOL    HW216017   1.894   1.521   3.618
 5040SOL     OW16018   3.063   3.415   6.355
 5040SOL    HW116019   3.048   3.485   6.285
 5040SOL    HW216020   3.097   3.332   6.312
 5041SOL     OW16021   1.283   5.349   1.143
 5041SOL    HW116022   1.335   5.265   1.128
 5041SOL    HW216023   1.242   5.378   1.056
 5042SOL     OW16024   5.894   2.086   5.985
 5042SOL    HW116025   5.822   2.064   6.051
 5042SOL    HW216026   5.983   2.079   6.029
 5043SOL     OW16027   4.521   7.007   3.165
 5043SOL    HW116028   4.502   0.071   3.113
 5043SOL    HW216029   4.489   7.018   3.259
 5044SOL     OW16030   6.267   4.252   3.048
 5044SOL    HW116031   6.232   4.193   3.120
 5044SOL    HW216032   6.194   4.274   2.984
 5045SOL     OW16033   6.306   3.028   6.089
 5045SOL    HW116034   6.360   2.955   6.131
 5045SOL    HW216035   6.296   3.010   5.991
 5046SOL     OW16036   3.090   3.324   5.296
 5046SOL    HW116037   2.990   3.332   5.298
 5046SOL    HW216038   3.121   3.306   5.203
 5047SOL     OW16039   1.463   0.944   2.692
 5047SOL    HW116040   1.546   0.942   2.748
 5047SOL    HW216041   1.383   0.932   2.750
 5048SOL     OW16042   5.868   3.321   1.356
 5048SOL    HW116043   5.775   3.300   1.385
 5048SOL    HW216044   5.866   3.375   1.271
 5049SOL     OW16045   1.408   2.646   2.469
 5049SOL    HW116046   1.397   2.712   2.543
 5049SOL    HW216047   1.347   2.670   2.394
 5050SOL     OW16048   0.953   3.555   1.063
 5050SOL    HW116049   0.987   3.462   1.081
 5050SOL    HW216050   0.853   3.554   1.063
 5051SOL     OW16051   2.824   4.090   0.483
 5051SOL    HW116052   2.778   4.178   0.474
 5051SOL    HW216053   2.878   4.072   0.401
 5052SOL     OW16054   5.912   3.379   0.887
 5052SOL    HW116055   5.990   3.405   0.944
 5052SOL    HW216056   5.938   3.302   0.829
 5053SOL     OW16057   2.026   4.870   0.416
 5053SOL    HW116058   1.999   4.846   0.322
 5053SOL    HW216059   2.075   4.793   0.457
 5054SOL     OW16060   3.941   6.013   5.079
 5054SOL    HW116061   3.869   6.020   5.010
 5054SOL    HW216062   3.918   5.939   5.144
 5055SOL     OW16063   1.863   2.020   3.942
 5055SOL    HW116064   1.882   1.963   3.862
 5055SOL    HW216065   1.887   2.115   3.922
 5056SOL     OW16066   1.857   2.289   5.234
 5056SOL    HW116067   1.952   2.262   5.251
 5056SOL    HW216068   1.855   2.369   5.174
 5057SOL     OW16069   0.881   5.114   3.094
 5057SOL    HW116070   0.854   5.066   3.011
 5057SOL    HW216071   0.820   5.192   3.109
 5058SOL     OW16072   3.450   3.820   6.914
 5058SOL    HW116073   3.368   3.833   6.858
 5058SOL    HW216074   3.474   3.723   6.915
 5059SOL     OW16075   4.096   1.745   3.159
 5059SOL    HW116076   4.007   1.772   3.124
 5059SOL    HW216077   4.098   1.756   3.259
 5060SOL     OW16078   0.319   3.543   5.403
 5060SOL    HW116079   0.296   3.640   5.411
 5060SOL    HW216080   0.418   3.531   5.416
 5061SOL     OW16081   3.813   2.724   5.672
 5061SOL    HW116082   3.861   2.778   5.602
 5061SOL    HW216083   3.755   2.656   5.627
 5062SOL     OW16084   5.386   0.686   3.656
 5062SOL    HW116085   5.388   0.700   3.755
 5062SOL    HW216086   5.426   0.766   3.610
 5063SOL     OW16087   0.917   1.021   1.809
 5063SOL    HW116088   0.976   1.086   1.857
 5063SOL    HW216089   0.892   0.946   1.871
 5064SOL     OW16090   5.155   5.669   0.752
 5064SOL    HW116091   5.088   5.604   0.716
 5064SOL    HW216092   5.108   5.739   0.807
 5065SOL     OW16093   2.382   1.283   2.776
 5065SOL    HW116094   2.286   1.305   2.793
 5065SOL    HW216095   2.392   1.184   2.769
 5066SOL     OW16096   2.391   4.802   2.531
 5066SOL    HW116097   2.469   4.835   2.477
 5066SOL    HW216098   2.357   4.876   2.589
 5067SOL     OW16099   5.309   2.786   0.343
 5067SOL    HW116100   5.305   2.698   0.295
 5067SOL    HW216101   5.321   2.769   0.441
 5068SOL     OW16102   2.985   5.712   0.366
 5068SOL    HW116103   3.016   5.648   0.296
 5068SOL    HW216104   3.049   5.712   0.443
 5069SOL     OW16105   3.446   5.001   5.025
 5069SOL    HW116106   3.381   5.066   4.986
 5069SOL    HW216107   3.401   4.914   5.041
 5070SOL     OW16108   5.978   3.769   4.901
 5070SOL    HW116109   5.994   3.737   4.808
 5070SOL    HW216110   6.065   3.782   4.948
 5071SOL     OW16111   2.549   6.877   3.945
 5071SOL    HW116112   2.466   6.842   3.989
 5071SOL    HW216113   2.530   6.896   3.849
 5072SOL     OW16114   0.701   1.179   0.585
 5072SOL    HW116115   0.799   1.193   0.599
 5072SOL    HW216116   0.684   1.083   0.559
 5073SOL     OW16117   2.344   0.501   2.412
 5073SOL    HW116118   2.378   0.589   2.380
 5073SOL    HW216119   2.244   0.499   2.405
 5074SOL     OW16120   3.622   2.302   1.640
 5074SOL    HW116121   3.681   2.297   1.720
 5074SOL    HW216122   3.543   2.243   1.652
 5075SOL     OW16123   0.615   3.352   6.876
 5075SOL    HW116124   0.613   3.297   6.959
 5075SOL    HW216125   0.586   3.446   6.898
 5076SOL     OW16126   6.169   0.093   6.400
 5076SOL    HW116127   6.078   0.080   6.359
 5076SOL    HW216128   6.239   0.078   6.331
 5077SOL     OW16129   0.526   4.691   3.941
 5077SOL    HW116130   0.555   4.605   3.983
 5077SOL    HW216131   0.530   4.764   4.009
 5078SOL     OW16132   0.566   2.042   4.194
 5078SOL    HW116133   0.505   2.044   4.273
 5078SOL    HW216134   0.656   2.078   4.220
 5079SOL     OW16135   1.907   2.999   5.818
 5079SOL    HW116136   1.915   3.045   5.906
 5079SOL    HW216137   1.860   3.058   5.753
 5080SOL     OW16138   5.658   5.793   6.966
 5080SOL    HW116139   5.602   5.718   7.002
 5080SOL    HW216140   5.675   5.860   0.019
 5081SOL     OW16141   2.812   5.631   5.705
 5081SOL    HW116142   2.820   5.725   5.674
 5081SOL    HW216143   2.899   5.599   5.742
 5082SOL     OW16144   5.651   6.137   1.699
 5082SOL    HW116145   5.672   6.130   1.796
 5082SOL    HW216146   5.666   6.049   1.655
 5083SOL     OW16147   1.536   0.300   3.274
 5083SOL    HW116148   1.518   0.258   3.185
 5083SOL    HW216149   1.540   0.229   3.344
 5084SOL     OW16150   2.371   4.778   5.446
 5084SOL    HW116151   2.352   4.813   5.354
 5084SOL    HW216152   2.297   4.717   5.474
 5085SOL     OW16153   0.757   4.495   5.328
 5085SOL    HW116154   0.848   4.492   5.370
 5085SOL    HW216155   0.718   4.403   5.326
 5086SOL     OW16156   1.823   5.366   1.909
 5086SOL    HW116157   1.786   5.455   1.937
 5086SOL    HW216158   1.865   5.375   1.819
 5087SOL     OW16159   6.427   4.521   2.193
 5087SOL    HW116160   6.465   4.473   2.272
 5087SOL    HW216161   6.332   4.495   2.180
 5088SOL     OW16162   5.309   6.006   1.757
 5088SOL    HW116163   5.214   6.027   1.732
 5088SOL    HW216164   5.361   5.988   1.673
 5089SOL     OW16165   5.119   5.514   5.713
 5089SOL    HW116166   5.019   5.514   5.709
 5089SOL    HW216167   5.152   5.419   5.716
 5090SOL     OW16168   2.867   6.899   5.353
 5090SOL    HW116169   2.926   6.962   5.403
 5090SOL    HW216170   2.921   6.822   5.320
 5091SOL     OW16171   6.619   7.015   6.355
 5091SOL    HW116172   6.599   6.926   6.397
 5091SOL    HW216173   6.655   7.000   6.262
 5092SOL     OW16174   2.883   3.408   4.274
 5092SOL    HW116175   2.870   3.505   4.255
 5092SOL    HW216176   2.864   3.389   4.370
 5093SOL     OW16177   2.611   2.005   2.614
 5093SOL    HW116178   2.554   2.073   2.568
 5093SOL    HW216179   2.668   2.049   2.683
 5094SOL     OW16180   1.785   5.581   5.190
 5094SOL    HW116181   1.847   5.504   5.172
 5094SOL    HW216182   1.791   5.647   5.115
 5095SOL     OW16183   6.409   1.577   2.902
 5095SOL    HW116184   6.407   1.521   2.819
 5095SOL    HW216185   6.390   1.673   2.878
 5096SOL     OW16186   5.858   2.913   5.563
 5096SOL    HW116187   5.840   2.913   5.662
 5096SOL    HW216188   5.922   2.840   5.541
 5097SOL     OW16189   1.327   0.362   5.904
 5097SOL    HW116190   1.276   0.352   5.989
 5097SOL    HW216191   1.351   0.272   5.868
 5098SOL     OW16192   3.366   3.351   0.765
 5098SOL    HW116193   3.357   3.255   0.738
 5098SOL    HW216194   3.276   3.394   0.765
 5099SOL     OW16195   1.534   0.186   2.158
 5099SOL    HW116196   1.519   0.125   2.080
 5099SOL    HW216197   1.532   0.133   2.243
 5100SOL     OW16198   5.348   3.556   2.187
 5100SOL    HW116199   5.389   3.644   2.164
 5100SOL    HW216200   5.324   3.556   2.284
 5101SOL     OW16201   3.785   0.929   6.466
 5101SOL    HW116202   3.776   0.997   6.393
 5101SOL    HW216203   3.695   0.903   6.499
 5102SOL     OW16204   4.743   4.532   4.183
 5102SOL    HW116205   4.723   4.474   4.104
 5102SOL    HW216206   4.824   4.588   4.165
 5103SOL     OW16207   0.773   1.320   6.241
 5103SOL    HW116208   0.723   1.334   6.327
 5103SOL    HW216209   0.739   1.384   6.172
 5104SOL     OW16210   3.894   3.380   1.854
 5104SOL    HW116211   3.915   3.320   1.778
 5104SOL    HW216212   3.875   3.325   1.936
 5105SOL     OW16213   4.201   3.182   6.105
 5105SOL    HW116214   4.286   3.139   6.075
 5105SOL    HW216215   4.126   3.152   6.046
 5106SOL     OW16216   4.371   2.340   0.794
 5106SOL    HW116217   4.323   2.428   0.798
 5106SOL    HW216218   4.371   2.307   0.700
 5107SOL     OW16219   4.747   3.705   6.790
 5107SOL    HW116220   4.807   3.746   6.721
 5107SOL    HW216221   4.714   3.776   6.852
 5108SOL     OW16222   4.056   4.688   0.405
 5108SOL    HW116223   4.102   4.603   0.432
 5108SOL    HW216224   3.958   4.672   0.398
 5109SOL     OW16225   1.080   3.112   0.996
 5109SOL    HW116226   0.984   3.141   0.989
 5109SOL    HW216227   1.139   3.186   0.962
 5110SOL     OW16228   4.814   0.003   5.705
 5110SOL    HW116229   4.832   0.095   5.670
 5110SOL    HW216230   4.834   7.020   5.803
 5111SOL     OW16231   0.407   6.497   4.705
 5111SOL    HW116232   0.458   6.412   4.697
 5111SOL    HW216233   0.381   6.511   4.801
 5112SOL     OW16234   6.852   6.557   3.517
 5112SOL    HW116235   6.752   6.558   3.521
 5112SOL    HW216236   6.883   6.626   3.452
 5113SOL     OW16237   1.742   3.802   6.897
 5113SOL    HW116238   1.694   3.829   6.814
 5113SOL    HW216239   1.839   3.788   6.876
 5114SOL     OW16240   4.935   4.649   1.216
 5114SOL    HW116241   4.836   4.660   1.207
 5114SOL    HW216242   4.955   4.575   1.281
 5115SOL     OW16243   1.993   4.158   0.952
 5115SOL    HW116244   1.958   4.145   1.044
 5115SOL    HW216245   2.002   4.256   0.933
 5116SOL     OW16246   1.280   0.702   6.502
 5116SOL    HW116247   1.258   0.630   6.568
 5116SOL    HW216248   1.371   0.684   6.463
 5117SOL     OW16249   1.053   2.344   3.534
 5117SOL    HW116250   1.010   2.257   3.508
 5117SOL    HW216251   1.007   2.380   3.615
 5118SOL     OW16252   4.513   5.469   6.247
 5118SOL    HW116253   4.496   5.505   6.155
 5118SOL    HW216254   4.441   5.404   6.271
 5119SOL     OW16255   5.558   1.005   0.243
 5119SOL    HW116256   5.552   0.946   0.162
 5119SOL    HW216257   5.566   1.101   0.214
 5120SOL     OW16258   5.563   6.297   6.714
 5120SOL    HW116259   5.476   6.333   6.746
 5120SOL    HW216260   5.560   6.197   6.712
 5121SOL     OW16261   1.366   3.652   6.404
 5121SOL    HW116262   1.377   3.637   6.306
 5121SOL    HW216263   1.448   3.619   6.452
 5122SOL     OW16264   5.361   4.759   4.357
 5122SOL    HW116265   5.278   4.750   4.412
 5122SOL    HW216266   5.396   4.852   4.364
 5123SOL     OW16267   4.998   3.243   1.302
 5123SOL    HW116268   4.953   3.256   1.390
 5123SOL    HW216269   5.097   3.241   1.316
 5124SOL     OW16270   2.204   6.244   5.278
 5124SOL    HW116271   2.203   6.148   5.253
 5124SOL    HW216272   2.169   6.255   5.371
 5125SOL     OW16273   6.591   2.039   3.756
 5125SOL    HW116274   6.578   1.953   3.806
 5125SOL    HW216275   6.520   2.104   3.783
 5126SOL     OW16276   1.968   0.312   0.998
 5126SOL    HW116277   2.036   0.380   0.970
 5126SOL    HW216278   1.925   0.341   1.084
 5127SOL     OW16279   2.219   5.370   6.888
 5127SOL    HW116280   2.273   5.435   6.941
 5127SOL    HW216281   2.268   5.346   6.804
 5128SOL     OW16282   6.211   0.139   2.250
 5128SOL    HW116283   6.266   0.098   2.177
 5128SOL    HW216284   6.117   0.149   2.219
 5129SOL     OW16285   5.398   7.016   1.127
 5129SOL    HW116286   5.361   6.923   1.135
 5129SOL    HW216287   5.324   0.060   1.103
 5130SOL     OW16288   0.043   4.807   3.372
 5130SOL    HW116289   0.041   4.852   3.462
 5130SOL    HW216290   6.995   4.850   3.312
 5131SOL     OW16291   2.657   2.372   2.629
 5131SOL    HW116292   2.588   2.303   2.607
 5131SOL    HW216293   2.619   2.437   2.695
 5132SOL     OW16294   2.936   6.182   5.205
 5132SOL    HW116295   2.994   6.258   5.174
 5132SOL    HW216296   2.849   6.218   5.239
 5133SOL     OW16297   3.812   6.265   5.812
 5133SOL    HW116298   3.849   6.219   5.893
 5133SOL    HW216299   3.887   6.304   5.759
 5134SOL     OW16300   6.247   4.180   0.016
 5134SOL    HW116301   6.345   4.201   0.011
 5134SOL    HW216302   6.223   4.152   0.108
 5135SOL     OW16303   5.854   1.664   4.491
 5135SOL    HW116304   5.908   1.645   4.409
 5135SOL    HW216305   5.847   1.581   4.546
 5136SOL     OW16306   3.977   1.176   4.179
 5136SOL    HW116307   3.889   1.211   4.210
 5136SOL    HW216308   4.004   1.223   4.095
 5137SOL     OW16309   3.395   4.597   6.716
 5137SOL    HW116310   3.444   4.680   6.742
 5137SOL    HW216311   3.321   4.580   6.782
 5138SOL     OW16312   2.596   3.172   6.086
 5138SOL    HW116313   2.609   3.200   6.181
 5138SOL    HW216314   2.583   3.252   6.028
 5139SOL     OW16315   0.691   0.127   3.150
 5139SOL    HW116316   0.777   0.112   3.102
 5139SOL    HW216317   0.615   0.120   3.085
 5140SOL     OW16318   3.754   2.778   1.347
 5140SOL    HW116319   3.717   2.687   1.333
 5140SOL    HW216320   3.789   2.786   1.440
 5141SOL     OW16321   6.430   3.477   6.556
 5141SOL    HW116322   6.503   3.437   6.501
 5141SOL    HW216323   6.342   3.447   6.520
 5142SOL     OW16324   5.440   3.207   4.026
 5142SOL    HW116325   5.530   3.190   3.987
 5142SOL    HW216326   5.441   3.294   4.077
 5143SOL     OW16327   6.794   4.596   4.569
 5143SOL    HW116328   6.876   4.600   4.626
 5143SOL    HW216329   6.812   4.540   4.488
 5144SOL     OW16330   1.586   1.272   4.762
 5144SOL    HW116331   1.681   1.241   4.754
 5144SOL    HW216332   1.525   1.193   4.752
 5145SOL     OW16333   3.003   5.746   5.954
 5145SOL    HW116334   2.919   5.800   5.962
 5145SOL    HW216335   3.062   5.786   5.884
 5146SOL     OW16336   2.691   4.157   6.848
 5146SOL    HW116337   2.653   4.249   6.850
 5146SOL    HW216338   2.635   4.096   6.905
 5147SOL     OW16339   6.061   5.024   6.940
 5147SOL    HW116340   6.075   5.051   6.845
 5147SOL    HW216341   6.060   5.105   6.999
 5148SOL     OW16342   0.440   6.562   1.794
 5148SOL    HW116343   0.442   6.661   1.776
 5148SOL    HW216344   0.410   6.546   1.888
 5149SOL     OW16345   6.749   0.934   5.047
 5149SOL    HW116346   6.738   0.919   5.146
 5149SOL    HW216347   6.683   0.876   4.998
 5150SOL     OW16348   1.620   5.310   4.245
 5150SOL    HW116349   1.549   5.242   4.224
 5150SOL    HW216350   1.710   5.267   4.241
 5151SOL     OW16351   4.464   1.029   6.401
 5151SOL    HW116352   4.553   0.989   6.380
 5151SOL    HW216353   4.473   1.097   6.473
 5152SOL     OW16354   0.963   5.011   0.218
 5152SOL    HW116355   0.874   4.980   0.184
 5152SOL    HW216356   0.993   5.091   0.167
 5153SOL     OW16357   1.683   1.762   0.929
 5153SOL    HW116358   1.626   1.747   1.010
 5153SOL    HW216359   1.755   1.828   0.951
 5154SOL     OW16360   2.169   3.214   4.373
 5154SOL    HW116361   2.156   3.229   4.470
 5154SOL    HW216362   2.249   3.155   4.359
 5155SOL     OW16363   3.313   1.034   2.132
 5155SOL    HW116364   3.334   1.106   2.198
 5155SOL    HW216365   3.341   0.945   2.169
 5156SOL     OW16366   5.823   3.334   5.773
 5156SOL    HW116367   5.753   3.277   5.816
 5156SOL    HW216368   5.894   3.275   5.735
 5157SOL     OW16369   5.725   3.112   3.612
 5157SOL    HW116370   5.639   3.154   3.583
 5157SOL    HW216371   5.705   3.028   3.664
 5158SOL     OW16372   3.990   1.041   0.973
 5158SOL    HW116373   4.054   1.047   0.896
 5158SOL    HW216374   3.899   1.019   0.938
 5159SOL     OW16375   1.207   2.616   4.264
 5159SOL    HW116376   1.294   2.632   4.311
 5159SOL    HW216377   1.147   2.694   4.278
 5160SOL     OW16378   2.093   2.856   4.299
 5160SOL    HW116379   2.026   2.796   4.343
 5160SOL    HW216380   2.135   2.915   4.368
 5161SOL     OW16381   1.578   2.999   6.812
 5161SOL    HW116382   1.571   3.002   6.712
 5161SOL    HW216383   1.674   3.007   6.839
 5162SOL     OW16384   6.153   6.449   5.257
 5162SOL    HW116385   6.166   6.546   5.280
 5162SOL    HW216386   6.195   6.430   5.169
 5163SOL     OW16387   5.647   3.318   0.846
 5163SOL    HW116388   5.587   3.360   0.913
 5163SOL    HW216389   5.742   3.337   0.870
 5164SOL     OW16390   5.782   4.909   6.149
 5164SOL    HW116391   5.784   4.954   6.238
 5164SOL    HW216392   5.806   4.813   6.160
 5165SOL     OW16393   6.293   4.448   4.305
 5165SOL    HW116394   6.238   4.525   4.339
 5165SOL    HW216395   6.277   4.437   4.206
 5166SOL     OW16396   1.178   0.585   1.967
 5166SOL    HW116397   1.098   0.646   1.968
 5166SOL    HW216398   1.182   0.536   2.054
 5167SOL     OW16399   0.793   6.351   5.896
 5167SOL    HW116400   0.891   6.362   5.878
 5167SOL    HW216401   0.771   6.389   5.986
 5168SOL     OW16402   3.635   1.875   3.034
 5168SOL    HW116403   3.620   1.964   2.991
 5168SOL    HW216404   3.693   1.887   3.114
 5169SOL     OW16405   3.665   4.513   6.299
 5169SOL    HW116406   3.601   4.574   6.253
 5169SOL    HW216407   3.646   4.418   6.272
 5170SOL     OW16408   5.021   4.166   4.311
 5170SOL    HW116409   4.922   4.169   4.323
 5170SOL    HW216410   5.062   4.111   4.384
 5171SOL     OW16411   2.640   4.622   4.576
 5171SOL    HW116412   2.609   4.602   4.483
 5171SOL    HW216413   2.620   4.545   4.636
 5172SOL     OW16414   2.119   5.211   0.793
 5172SOL    HW116415   2.116   5.163   0.705
 5172SOL    HW216416   2.045   5.278   0.798
 5173SOL     OW16417   6.216   3.901   5.702
 5173SOL    HW116418   6.280   3.911   5.778
 5173SOL    HW216419   6.154   3.980   5.700
 5174SOL     OW16420   1.387   4.390   5.743
 5174SOL    HW116421   1.330   4.330   5.799
 5174SOL    HW216422   1.396   4.351   5.651
 5175SOL     OW16423   0.356   4.886   6.689
 5175SOL    HW116424   0.292   4.894   6.765
 5175SOL    HW216425   0.350   4.968   6.632
 5176SOL     OW16426   5.176   3.537   0.384
 5176SOL    HW116427   5.243   3.592   0.435
 5176SOL    HW216428   5.086   3.579   0.394
 5177SOL     OW16429   5.643   6.797   6.972
 5177SOL    HW116430   5.559   6.743   6.972
 5177SOL    HW216431   5.635   6.872   6.907
 5178SOL     OW16432   2.528   1.954   1.556
 5178SOL    HW116433   2.470   2.032   1.531
 5178SOL    HW216434   2.474   1.889   1.610
 5179SOL     OW16435   2.779   5.884   5.620
 5179SOL    HW116436   2.853   5.948   5.639
 5179SOL    HW216437   2.703   5.933   5.576
 5180SOL     OW16438   3.278   2.507   0.955
 5180SOL    HW116439   3.349   2.576   0.941
 5180SOL    HW216440   3.207   2.544   1.016
 5181SOL     OW16441   3.060   5.388   2.579
 5181SOL    HW116442   3.049   5.354   2.672
 5181SOL    HW216443   2.971   5.419   2.544
 5182SOL     OW16444   5.128   4.203   1.804
 5182SOL    HW116445   5.147   4.115   1.848
 5182SOL    HW216446   5.214   4.244   1.773
 5183SOL     OW16447   4.532   0.405   2.743
 5183SOL    HW116448   4.610   0.382   2.686
 5183SOL    HW216449   4.490   0.490   2.710
 5184SOL     OW16450   0.759   1.557   2.862
 5184SOL    HW116451   0.784   1.569   2.958
 5184SOL    HW216452   0.660   1.546   2.855
 5185SOL     OW16453   4.173   6.918   2.317
 5185SOL    HW116454   4.211   6.986   2.380
 5185SOL    HW216455   4.237   6.842   2.308
 5186SOL     OW16456   6.069   4.397   0.673
 5186SOL    HW116457   5.997   4.362   0.613
 5186SOL    HW216458   6.158   4.366   0.639
 5187SOL     OW16459   5.207   1.440   4.091
 5187SOL    HW116460   5.226   1.499   4.170
 5187SOL    HW216461   5.145   1.488   4.029
 5188SOL     OW16462   1.162   3.453   4.838
 5188SOL    HW116463   1.162   3.462   4.739
 5188SOL    HW216464   1.165   3.357   4.863
 5189SOL     OW16465   4.728   5.247   6.567
 5189SOL    HW116466   4.646   5.301   6.585
 5189SOL    HW216467   4.738   5.233   6.468
 5190SOL     OW16468   1.330   2.262   3.419
 5190SOL    HW116469   1.248   2.290   3.469
 5190SOL    HW216470   1.398   2.335   3.423
 5191SOL     OW16471   3.968   0.473   1.517
 5191SOL    HW116472   4.048   0.413   1.520
 5191SOL    HW216473   3.964   0.527   1.601
 5192SOL     OW16474   5.887   4.464   2.296
 5192SOL    HW116475   5.802   4.504   2.330
 5192SOL    HW216476   5.869   4.375   2.256
 5193SOL     OW16477   5.262   3.709   3.032
 5193SOL    HW116478   5.297   3.667   3.116
 5193SOL    HW216479   5.326   3.693   2.957
 5194SOL     OW16480   5.731   1.252   6.033
 5194SOL    HW116481   5.767   1.314   6.102
 5194SOL    HW216482   5.659   1.195   6.073
 5195SOL     OW16483   6.499   6.924   5.930
 5195SOL    HW116484   6.425   6.961   5.874
 5195SOL    HW216485   6.461   6.871   6.005
 5196SOL     OW16486   0.785   3.369   1.829
 5196SOL    HW116487   0.771   3.363   1.928
 5196SOL    HW216488   0.804   3.278   1.792
 5197SOL     OW16489   3.081   6.044   4.987
 5197SOL    HW116490   3.135   5.960   4.995
 5197SOL    HW216491   3.025   6.056   5.069
 5198SOL     OW16492   4.246   6.930   5.621
 5198SOL    HW116493   4.184   6.961   5.549
 5198SOL    HW216494   4.214   6.843   5.658
 5199SOL     OW16495   1.231   5.058   1.323
 5199SOL    HW116496   1.256   5.000   1.245
 5199SOL    HW216497   1.154   5.017   1.372
 5200SOL     OW16498   0.087   0.553   5.135
 5200SOL    HW116499   0.064   0.544   5.038
 5200SOL    HW216500   0.150   0.480   5.161
 5201SOL     OW16501   6.291   4.639   4.943
 5201SOL    HW116502   6.389   4.619   4.945
 5201SOL    HW216503   6.253   4.612   4.855
 5202SOL     OW16504   3.808   2.922   5.863
 5202SOL    HW116505   3.775   2.842   5.814
 5202SOL    HW216506   3.896   2.951   5.826
 5203SOL     OW16507   1.980   0.473   6.818
 5203SOL    HW116508   1.912   0.400   6.807
 5203SOL    HW216509   2.071   0.433   6.820
 5204SOL     OW16510   2.694   0.226   0.827
 5204SOL    HW116511   2.766   0.261   0.767
 5204SOL    HW216512   2.615   0.197   0.772
 5205SOL     OW16513   0.136   6.401   1.104
 5205SOL    HW116514   0.208   6.468   1.124
 5205SOL    HW216515   0.145   6.323   1.165
 5206SOL     OW16516   1.081   5.075   3.829
 5206SOL    HW116517   1.006   5.031   3.878
 5206SOL    HW216518   1.074   5.054   3.731
 5207SOL     OW16519   6.693   7.004   3.691
 5207SOL    HW116520   6.716   0.074   3.728
 5207SOL    HW216521   6.610   6.970   3.736
 5208SOL     OW16522   5.555   2.197   0.642
 5208SOL    HW116523   5.510   2.239   0.563
 5208SOL    HW216524   5.610   2.266   0.690
 5209SOL     OW16525   5.868   5.572   3.341
 5209SOL    HW116526   5.825   5.487   3.311
 5209SOL    HW216527   5.919   5.555   3.426
 5210SOL     OW16528   5.270   3.885   0.339
 5210SOL    HW116529   5.347   3.941   0.370
 5210SOL    HW216530   5.221   3.848   0.418
 5211SOL     OW16531   5.580   2.480   4.952
 5211SOL    HW116532   5.504   2.419   4.930
 5211SOL    HW216533   5.661   2.453   4.899
 5212SOL     OW16534   0.746   3.662   0.278
 5212SOL    HW116535   0.742   3.710   0.190
 5212SOL    HW216536   0.761   3.729   0.351
 5213SOL     OW16537   3.794   3.722   3.033
 5213SOL    HW116538   3.783   3.696   3.129
 5213SOL    HW216539   3.832   3.814   3.027
 5214SOL     OW16540   5.656   3.748   5.191
 5214SOL    HW116541   5.611   3.660   5.205
 5214SOL    HW216542   5.755   3.734   5.181
 5215SOL     OW16543   0.587   3.611   4.877
 5215SOL    HW116544   0.684   3.588   4.877
 5215SOL    HW216545   0.533   3.527   4.870
 5216SOL     OW16546   5.385   5.265   1.286
 5216SOL    HW116547   5.438   5.311   1.357
 5216SOL    HW216548   5.333   5.190   1.326
 5217SOL     OW16549   4.722   6.172   3.353
 5217SOL    HW116550   4.797   6.218   3.306
 5217SOL    HW216551   4.752   6.145   3.444
 5218SOL     OW16552   6.470   0.387   0.854
 5218SOL    HW116553   6.497   0.294   0.831
 5218SOL    HW216554   6.527   0.421   0.929
 5219SOL     OW16555   3.274   1.206   5.128
 5219SOL    HW116556   3.335   1.139   5.085
 5219SOL    HW216557   3.301   1.218   5.224
 5220SOL     OW16558   2.620   5.207   3.964
 5220SOL    HW116559   2.612   5.144   4.041
 5220SOL    HW216560   2.705   5.260   3.973
 5221SOL     OW16561   6.113   5.706   1.154
 5221SOL    HW116562   6.123   5.789   1.208
 5221SOL    HW216563   6.201   5.660   1.147
 5222SOL     OW16564   6.168   3.808   1.099
 5222SOL    HW116565   6.211   3.891   1.062
 5222SOL    HW216566   6.240   3.742   1.123
 5223SOL     OW16567   0.078   3.038   0.459
 5223SOL    HW116568   0.055   3.131   0.486
 5223SOL    HW216569   7.015   2.990   0.430
 5224SOL     OW16570   6.886   2.350   4.954
 5224SOL    HW116571   6.950   2.284   4.915
 5224SOL    HW216572   6.923   2.386   5.040
 5225SOL     OW16573   0.040   1.438   4.609
 5225SOL    HW116574   0.023   1.412   4.703
 5225SOL    HW216575   0.115   1.383   4.572
 5226SOL     OW16576   0.793   6.441   3.787
 5226SOL    HW116577   0.694   6.431   3.783
 5226SOL    HW216578   0.834   6.404   3.704
 5227SOL     OW16579   0.675   3.470   5.710
 5227SOL    HW116580   0.643   3.375   5.718
 5227SOL    HW216581   0.734   3.492   5.787
 5228SOL     OW16582   1.063   1.355   5.518
 5228SOL    HW116583   1.059   1.379   5.421
 5228SOL    HW216584   0.970   1.357   5.556
 5229SOL     OW16585   3.403   1.643   6.289
 5229SOL    HW116586   3.360   1.559   6.320
 5229SOL    HW216587   3.356   1.677   6.207
 5230SOL     OW16588   6.933   6.988   1.826
 5230SOL    HW116589   0.010   6.990   1.800
 5230SOL    HW216590   6.877   6.997   1.744
 5231SOL     OW16591   6.692   2.941   2.058
 5231SOL    HW116592   6.621   2.870   2.055
 5231SOL    HW216593   6.659   3.023   2.011
 5232SOL     OW16594   1.641   2.790   5.960
 5232SOL    HW116595   1.593   2.705   5.980
 5232SOL    HW216596   1.737   2.781   5.988
 5233SOL     OW16597   3.329   6.805   2.567
 5233SOL    HW116598   3.406   6.779   2.510
 5233SOL    HW216599   3.244   6.799   2.514
 5234SOL     OW16600   2.854   2.355   6.926
 5234SOL    HW116601   2.881   2.272   6.975
 5234SOL    HW216602   2.850   2.431   6.990
 5235SOL     OW16603   2.059   2.187   1.626
 5235SOL    HW116604   2.082   2.131   1.546
 5235SOL    HW216605   2.086   2.282   1.609
 5236SOL     OW16606   3.217   5.208   1.155
 5236SOL    HW116607   3.314   5.213   1.179
 5236SOL    HW216608   3.195   5.115   1.125
 5237SOL     OW16609   1.775   2.071   2.612
 5237SOL    HW116610   1.767   2.117   2.524
 5237SOL    HW216611   1.737   2.130   2.684
 5238SOL     OW16612   0.438   6.457   3.042
 5238SOL    HW116613   0.349   6.479   3.082
 5238SOL    HW216614   0.504   6.437   3.114
 5239SOL     OW16615   2.651   3.829   1.019
 5239SOL    HW116616   2.726   3.770   0.989
 5239SOL    HW216617   2.564   3.792   0.986
 5240SOL     OW16618   2.391   3.888   5.976
 5240SOL    HW116619   2.327   3.954   5.936
 5240SOL    HW216620   2.403   3.811   5.913
 5241SOL     OW16621   0.736   6.239   2.448
 5241SOL    HW116622   0.794   6.181   2.505
 5241SOL    HW216623   0.774   6.245   2.356
 5242SOL     OW16624   4.473   1.179   6.909
 5242SOL    HW116625   4.571   1.196   6.919
 5242SOL    HW216626   4.454   1.083   6.931
 5243SOL     OW16627   2.373   5.918   1.684
 5243SOL    HW116628   2.422   6.005   1.688
 5243SOL    HW216629   2.361   5.891   1.589
 5244SOL     OW16630   5.227   1.695   0.114
 5244SOL    HW116631   5.169   1.664   0.038
 5244SOL    HW216632   5.210   1.638   0.194
 5245SOL     OW16633   3.200   3.827   1.624
 5245SOL    HW116634   3.272   3.775   1.579
 5245SOL    HW216635   3.117   3.825   1.568
 5246SOL     OW16636   6.741   4.521   6.296
 5246SOL    HW116637   6.702   4.445   6.244
 5246SOL    HW216638   6.838   4.503   6.312
 5247SOL     OW16639   4.195   2.113   6.556
 5247SOL    HW116640   4.183   2.014   6.548
 5247SOL    HW216641   4.208   2.138   6.652
 5248SOL     OW16642   5.500   0.855   3.493
 5248SOL    HW116643   5.538   0.948   3.486
 5248SOL    HW216644   5.438   0.839   3.416
 5249SOL     OW16645   0.496   4.484   0.401
 5249SOL    HW116646   0.413   4.521   0.444
 5249SOL    HW216647   0.545   4.558   0.355
 5250SOL     OW16648   1.769   6.001   0.860
 5250SOL    HW116649   1.825   6.064   0.806
 5250SOL    HW216650   1.719   6.052   0.930
 5251SOL     OW16651   0.926   4.927   0.493
 5251SOL    HW116652   0.829   4.903   0.488
 5251SOL    HW216653   0.953   4.976   0.410
 5252SOL     OW16654   3.677   6.288   2.614
 5252SOL    HW116655   3.672   6.216   2.683
 5252SOL    HW216656   3.592   6.292   2.562
 5253SOL     OW16657   6.536   5.561   4.981
 5253SOL    HW116658   6.484   5.558   4.895
 5253SOL    HW216659   6.504   5.490   5.043
 5254SOL     OW16660   4.870   6.418   3.536
 5254SOL    HW116661   4.908   6.327   3.552
 5254SOL    HW216662   4.876   6.472   3.621
 5255SOL     OW16663   6.762   1.769   5.187
 5255SOL    HW116664   6.851   1.773   5.232
 5255SOL    HW216665   6.775   1.762   5.088
 5256SOL     OW16666   6.673   1.573   2.212
 5256SOL    HW116667   6.640   1.490   2.167
 5256SOL    HW216668   6.634   1.579   2.304
 5257SOL     OW16669   4.143   1.625   6.307
 5257SOL    HW116670   4.222   1.565   6.308
 5257SOL    HW216671   4.059   1.571   6.301
 5258SOL     OW16672   4.313   1.327   3.689
 5258SOL    HW116673   4.411   1.324   3.668
 5258SOL    HW216674   4.261   1.342   3.606
 5259SOL     OW16675   6.624   4.821   3.696
 5259SOL    HW116676   6.690   4.801   3.623
 5259SOL    HW216677   6.626   4.746   3.762
 5260SOL     OW16678   1.962   0.571   0.783
 5260SOL    HW116679   1.945   0.566   0.685
 5260SOL    HW216680   2.059   0.555   0.801
 5261SOL     OW16681   6.058   4.269   6.537
 5261SOL    HW116682   6.100   4.310   6.456
 5261SOL    HW216683   6.001   4.337   6.583
 5262SOL     OW16684   1.804   1.382   2.718
 5262SOL    HW116685   1.708   1.355   2.727
 5262SOL    HW216686   1.810   1.466   2.665
 5263SOL     OW16687   1.390   6.553   2.412
 5263SOL    HW116688   1.422   6.506   2.494
 5263SOL    HW216689   1.463   6.611   2.376
 5264SOL     OW16690   6.353   1.382   1.662
 5264SOL    HW116691   6.316   1.474   1.673
 5264SOL    HW216692   6.344   1.353   1.567
 5265SOL     OW16693   6.584   5.003   5.263
 5265SOL    HW116694   6.588   4.948   5.179
 5265SOL    HW216695   6.675   5.006   5.305
 5266SOL     OW16696   1.959   0.592   6.556
 5266SOL    HW116697   1.985   0.542   6.639
 5266SOL    HW216698   1.877   0.646   6.574
 5267SOL     OW16699   5.374   2.274   4.170
 5267SOL    HW116700   5.303   2.345   4.165
 5267SOL    HW216701   5.331   2.184   4.174
 5268SOL     OW16702   5.317   6.892   6.143
 5268SOL    HW116703   5.387   6.937   6.087
 5268SOL    HW216704   5.314   6.933   6.234
 5269SOL     OW16705   0.399   6.956   3.430
 5269SOL    HW116706   0.369   6.995   3.343
 5269SOL    HW216707   0.325   6.963   3.497
 5270SOL     OW16708   0.519   1.178   6.221
 5270SOL    HW116709   0.470   1.254   6.178
 5270SOL    HW216710   0.615   1.204   6.235
 5271SOL     OW16711   0.646   5.281   3.124
 5271SOL    HW116712   0.607   5.328   3.203
 5271SOL    HW216713   0.575   5.266   3.055
 5272SOL     OW16714   4.341   0.334   6.769
 5272SOL    HW116715   4.334   0.258   6.833
 5272SOL    HW216716   4.249   0.369   6.748
 5273SOL     OW16717   2.212   1.996   2.806
 5273SOL    HW116718   2.167   1.911   2.782
 5273SOL    HW216719   2.217   2.056   2.726
 5274SOL     OW16720   5.203   4.964   1.145
 5274SOL    HW116721   5.294   4.959   1.105
 5274SOL    HW216722   5.203   5.028   1.222
 5275SOL     OW16723   4.650   1.909   6.802
 5275SOL    HW116724   4.703   1.924   6.719
 5275SOL    HW216725   4.554   1.893   6.777
 5276SOL     OW16726   4.351   6.745   1.252
 5276SOL    HW116727   4.353   6.720   1.349
 5276SOL    HW216728   4.365   6.844   1.243
 5277SOL     OW16729   2.467   2.788   1.735
 5277SOL    HW116730   2.481   2.715   1.802
 5277SOL    HW216731   2.393   2.849   1.766
 5278SOL     OW16732   4.404   3.594   1.531
 5278SOL    HW116733   4.396   3.508   1.480
 5278SOL    HW216734   4.500   3.623   1.531
 5279SOL     OW16735   2.144   5.669   2.797
 5279SOL    HW116736   2.174   5.575   2.776
 5279SOL    HW216737   2.160   5.727   2.717
 5280SOL     OW16738   4.457   0.083   5.110
 5280SOL    HW116739   4.523   0.060   5.039
 5280SOL    HW216740   4.384   0.139   5.071
 5281SOL     OW16741   0.166   3.059   2.406
 5281SOL    HW116742   0.168   2.960   2.423
 5281SOL    HW216743   0.071   3.089   2.400
 5282SOL     OW16744   5.060   1.593   1.955
 5282SOL    HW116745   5.073   1.676   1.902
 5282SOL    HW216746   4.975   1.548   1.928
 5283SOL     OW16747   5.549   5.295   6.227
 5283SOL    HW116748   5.571   5.202   6.255
 5283SOL    HW216749   5.576   5.359   6.299
 5284SOL     OW16750   5.039   2.714   3.437
 5284SOL    HW116751   5.090   2.689   3.355
 5284SOL    HW216752   5.102   2.752   3.505
 5285SOL     OW16753   3.718   5.822   2.740
 5285SOL    HW116754   3.715   5.758   2.817
 5285SOL    HW216755   3.626   5.847   2.713
 5286SOL     OW16756   2.613   5.187   2.086
 5286SOL    HW116757   2.625   5.284   2.107
 5286SOL    HW216758   2.703   5.144   2.077
 5287SOL     OW16759   0.644   2.089   2.066
 5287SOL    HW116760   0.622   2.051   2.156
 5287SOL    HW216761   0.712   2.030   2.021
 5288SOL     OW16762   4.440   1.135   0.588
 5288SOL    HW116763   4.371   1.168   0.523
 5288SOL    HW216764   4.396   1.078   0.657
 5289SOL     OW16765   2.602   6.135   0.793
 5289SOL    HW116766   2.597   6.233   0.770
 5289SOL    HW216767   2.584   6.123   0.890
 5290SOL     OW16768   4.689   5.991   0.633
 5290SOL    HW116769   4.659   5.996   0.728
 5290SOL    HW216770   4.729   6.079   0.607
 5291SOL     OW16771   1.983   4.841   6.642
 5291SOL    HW116772   2.035   4.842   6.728
 5291SOL    HW216773   1.944   4.749   6.628
 5292SOL     OW16774   5.326   2.483   6.542
 5292SOL    HW116775   5.380   2.557   6.503
 5292SOL    HW216776   5.263   2.521   6.611
 5293SOL     OW16777   1.063   1.340   4.273
 5293SOL    HW116778   1.024   1.427   4.304
 5293SOL    HW216779   1.153   1.326   4.315
 5294SOL     OW16780   5.014   2.664   5.341
 5294SOL    HW116781   4.917   2.687   5.339
 5294SOL    HW216782   5.051   2.683   5.432
 5295SOL     OW16783   5.826   1.005   1.965
 5295SOL    HW116784   5.911   0.965   1.997
 5295SOL    HW216785   5.814   0.986   1.868
 5296SOL     OW16786   0.509   3.641   0.560
 5296SOL    HW116787   0.546   3.734   0.552
 5296SOL    HW216788   0.508   3.598   0.470
 5297SOL     OW16789   1.847   3.060   1.653
 5297SOL    HW116790   1.943   3.039   1.634
 5297SOL    HW216791   1.840   3.155   1.682
 5298SOL     OW16792   1.167   5.729   1.548
 5298SOL    HW116793   1.185   5.645   1.497
 5298SOL    HW216794   1.072   5.757   1.534
 5299SOL     OW16795   3.269   0.315   1.560
 5299SOL    HW116796   3.285   0.242   1.493
 5299SOL    HW216797   3.352   0.332   1.612
 5300SOL     OW16798   6.532   5.300   3.750
 5300SOL    HW116799   6.522   5.398   3.764
 5300SOL    HW216800   6.462   5.268   3.687
 5301SOL     OW16801   4.921   0.556   0.495
 5301SOL    HW116802   4.881   0.647   0.484
 5301SOL    HW216803   4.943   0.518   0.406
 5302SOL     OW16804   6.818   4.707   3.211
 5302SOL    HW116805   6.742   4.726   3.148
 5302SOL    HW216806   6.823   4.609   3.227
 5303SOL     OW16807   0.442   5.507   3.374
 5303SOL    HW116808   0.395   5.469   3.295
 5303SOL    HW216809   0.454   5.606   3.362
 5304SOL     OW16810   4.967   2.256   5.289
 5304SOL    HW116811   5.015   2.233   5.374
 5304SOL    HW216812   4.895   2.323   5.309
 5305SOL     OW16813   2.633   0.915   2.462
 5305SOL    HW116814   2.551   0.965   2.488
 5305SOL    HW216815   2.656   0.935   2.367
 5306SOL     OW16816   2.609   6.918   4.756
 5306SOL    HW116817   2.513   6.900   4.774
 5306SOL    HW216818   2.665   6.881   4.830
 5307SOL     OW16819   4.351   0.161   6.975
 5307SOL    HW116820   4.407   0.230   0.000
 5307SOL    HW216821   4.350   0.078   0.010
 5308SOL     OW16822   0.020   1.201   2.181
 5308SOL    HW116823   6.951   1.233   2.216
 5308SOL    HW216824   0.051   1.263   2.109
 5309SOL     OW16825   3.962   3.785   4.069
 5309SOL    HW116826   4.032   3.714   4.078
 5309SOL    HW216827   3.917   3.776   3.980
 5310SOL     OW16828   5.898   2.058   0.531
 5310SOL    HW116829   5.886   2.085   0.627
 5310SOL    HW216830   5.826   2.099   0.475
 5311SOL     OW16831   1.927   5.614   0.019
 5311SOL    HW116832   1.961   5.604   6.945
 5311SOL    HW216833   1.975   5.550   0.078
 5312SOL     OW16834   0.102   3.172   1.941
 5312SOL    HW116835   0.088   3.092   1.882
 5312SOL    HW216836   0.116   3.142   2.035
 5313SOL     OW16837   1.172   5.720   0.535
 5313SOL    HW116838   1.175   5.771   0.449
 5313SOL    HW216839   1.204   5.627   0.520
 5314SOL     OW16840   3.565   4.775   0.909
 5314SOL    HW116841   3.650   4.764   0.961
 5314SOL    HW216842   3.488   4.745   0.964
 5315SOL     OW16843   5.243   2.788   2.127
 5315SOL    HW116844   5.220   2.865   2.186
 5315SOL    HW216845   5.335   2.756   2.148
 5316SOL     OW16846   5.859   5.489   4.916
 5316SOL    HW116847   5.860   5.499   4.816
 5316SOL    HW216848   5.852   5.579   4.958
 5317SOL     OW16849   5.948   5.490   2.970
 5317SOL    HW116850   5.894   5.567   3.003
 5317SOL    HW216851   5.978   5.508   2.876
 5318SOL     OW16852   0.425   2.278   4.523
 5318SOL    HW116853   0.331   2.298   4.548
 5318SOL    HW216854   0.486   2.310   4.595
 5319SOL     OW16855   3.533   0.316   1.326
 5319SOL    HW116856   3.446   0.268   1.333
 5319SOL    HW216857   3.590   0.273   1.256
 5320SOL     OW16858   6.232   3.824   5.412
 5320SOL    HW116859   6.225   3.867   5.502
 5320SOL    HW216860   6.190   3.885   5.344
 5321SOL     OW16861   1.526   5.102   6.347
 5321SOL    HW116862   1.589   5.177   6.368
 5321SOL    HW216863   1.448   5.137   6.297
 5322SOL     OW16864   3.302   6.475   0.834
 5322SOL    HW116865   3.222   6.530   0.809
 5322SOL    HW216866   3.276   6.378   0.839
 5323SOL     OW16867   6.096   3.579   0.091
 5323SOL    HW116868   6.019   3.641   0.108
 5323SOL    HW216869   6.172   3.603   0.151
 5324SOL     OW16870   3.936   3.213   1.641
 5324SOL    HW116871   3.980   3.134   1.683
 5324SOL    HW216872   3.852   3.185   1.595
 5325SOL     OW16873   4.576   5.868   4.416
 5325SOL    HW116874   4.655   5.928   4.406
 5325SOL    HW216875   4.543   5.873   4.510
 5326SOL     OW16876   0.368   0.093   2.252
 5326SOL    HW116877   0.448   0.115   2.196
 5326SOL    HW216878   0.311   0.175   2.262
 5327SOL     OW16879   6.632   0.785   4.117
 5327SOL    HW116880   6.569   0.720   4.075
 5327SOL    HW216881   6.632   0.870   4.065
 5328SOL     OW16882   3.861   5.027   1.041
 5328SOL    HW116883   3.845   4.932   1.071
 5328SOL    HW216884   3.887   5.082   1.120
 5329SOL     OW16885   6.574   5.596   0.444
 5329SOL    HW116886   6.530   5.601   0.534
 5329SOL    HW216887   6.661   5.646   0.447
 5330SOL     OW16888   3.680   4.943   0.162
 5330SOL    HW116889   3.758   4.962   0.221
 5330SOL    HW216890   3.713   4.912   0.073
 5331SOL     OW16891   4.927   2.758   6.406
 5331SOL    HW116892   5.012   2.751   6.353
 5331SOL    HW216893   4.933   2.697   6.485
 5332SOL     OW16894   5.774   3.235   0.024
 5332SOL    HW116895   5.724   3.161   0.067
 5332SOL    HW216896   5.734   3.323   0.050
 5333SOL     OW16897   1.272   1.776   4.363
 5333SOL    HW116898   1.344   1.804   4.427
 5333SOL    HW216899   1.314   1.744   4.278
 5334SOL     OW16900   3.474   5.824   1.887
 5334SOL    HW116901   3.567   5.794   1.867
 5334SOL    HW216902   3.433   5.864   1.805
 5335SOL     OW16903   0.473   4.784   1.405
 5335SOL    HW116904   0.401   4.802   1.339
 5335SOL    HW216905   0.490   4.866   1.460
 5336SOL     OW16906   1.915   2.838   5.073
 5336SOL    HW116907   1.952   2.915   5.124
 5336SOL    HW216908   1.852   2.787   5.132
 5337SOL     OW16909   6.620   4.662   0.839
 5337SOL    HW116910   6.521   4.663   0.825
 5337SOL    HW216911   6.665   4.662   0.749
 5338SOL     OW16912   6.306   3.861   0.247
 5338SOL    HW116913   6.356   3.885   0.164
 5338SOL    HW216914   6.313   3.762   0.263
 5339SOL     OW16915   5.548   3.240   2.460
 5339SOL    HW116916   5.606   3.171   2.417
 5339SOL    HW216917   5.453   3.226   2.433
 5340SOL     OW16918   4.770   3.494   1.777
 5340SOL    HW116919   4.693   3.435   1.754
 5340SOL    HW216920   4.813   3.460   1.861
 5341SOL     OW16921   4.420   4.510   3.552
 5341SOL    HW116922   4.340   4.533   3.497
 5341SOL    HW216923   4.423   4.568   3.634
 5342SOL     OW16924   6.238   5.826   5.034
 5342SOL    HW116925   6.195   5.858   5.119
 5342SOL    HW216926   6.302   5.896   5.002
 5343SOL     OW16927   3.663   3.126   6.275
 5343SOL    HW116928   3.660   3.212   6.327
 5343SOL    HW216929   3.746   3.076   6.298
 5344SOL     OW16930   0.237   1.602   6.627
 5344SOL    HW116931   0.269   1.547   6.550
 5344SOL    HW216932   0.310   1.664   6.656
 5345SOL     OW16933   5.231   1.436   6.246
 5345SOL    HW116934   5.316   1.466   6.289
 5345SOL    HW216935   5.158   1.501   6.270
 5346SOL     OW16936   3.278   5.811   2.884
 5346SOL    HW116937   3.347   5.818   2.957
 5346SOL    HW216938   3.192   5.779   2.923
 5347SOL     OW16939   5.677   1.535   4.182
 5347SOL    HW116940   5.777   1.537   4.176
 5347SOL    HW216941   5.639   1.592   4.109
 5348SOL     OW16942   5.378   2.632   4.684
 5348SOL    HW116943   5.318   2.552   4.688
 5348SOL    HW216944   5.350   2.691   4.608
 5349SOL     OW16945   1.036   3.768   1.733
 5349SOL    HW116946   1.044   3.712   1.815
 5349SOL    HW216947   1.082   3.856   1.749
 5350SOL     OW16948   1.439   6.070   0.070
 5350SOL    HW116949   1.454   6.127   7.009
 5350SOL    HW216950   1.346   6.035   0.070
 5351SOL     OW16951   6.479   6.157   3.623
 5351SOL    HW116952   6.558   6.153   3.561
 5351SOL    HW216953   6.511   6.153   3.718
 5352SOL     OW16954   1.324   2.928   6.016
 5352SOL    HW116955   1.362   2.994   5.951
 5352SOL    HW216956   1.267   2.862   5.967
 5353SOL     OW16957   3.769   4.843   3.397
 5353SOL    HW116958   3.865   4.815   3.391
 5353SOL    HW216959   3.751   4.882   3.488
 5354SOL     OW16960   4.012   5.775   1.596
 5354SOL    HW116961   4.005   5.745   1.501
 5354SOL    HW216962   4.055   5.703   1.651
 5355SOL     OW16963   5.473   5.543   5.418
 5355SOL    HW116964   5.491   5.637   5.389
 5355SOL    HW216965   5.411   5.499   5.353
 5356SOL     OW16966   0.787   6.216   0.920
 5356SOL    HW116967   0.794   6.120   0.895
 5356SOL    HW216968   0.693   6.236   0.948
 5357SOL     OW16969   6.340   3.945   2.633
 5357SOL    HW116970   6.265   3.935   2.697
 5357SOL    HW216971   6.304   3.961   2.541
 5358SOL     OW16972   5.165   1.364   6.834
 5358SOL    HW116973   5.208   1.286   6.790
 5358SOL    HW216974   5.071   1.375   6.801
 5359SOL     OW16975   3.528   2.270   6.831
 5359SOL    HW116976   3.621   2.291   6.801
 5359SOL    HW216977   3.529   2.188   6.887
 5360SOL     OW16978   5.879   4.770   4.014
 5360SOL    HW116979   5.800   4.830   4.027
 5360SOL    HW216980   5.919   4.748   4.103
 5361SOL     OW16981   1.346   5.131   2.763
 5361SOL    HW116982   1.440   5.123   2.795
 5361SOL    HW216983   1.340   5.097   2.669
 5362SOL     OW16984   5.868   1.564   2.335
 5362SOL    HW116985   5.931   1.634   2.368
 5362SOL    HW216986   5.774   1.594   2.350
 5363SOL     OW16987   5.270   5.331   3.399
 5363SOL    HW116988   5.350   5.321   3.340
 5363SOL    HW216989   5.201   5.387   3.353
 5364SOL     OW16990   4.251   1.732   2.652
 5364SOL    HW116991   4.199   1.692   2.577
 5364SOL    HW216992   4.348   1.734   2.629
 5365SOL     OW16993   3.077   3.595   4.558
 5365SOL    HW116994   3.051   3.535   4.633
 5365SOL    HW216995   3.068   3.691   4.587
 5366SOL     OW16996   6.049   5.849   3.536
 5366SOL    HW116997   5.959   5.890   3.548
 5366SOL    HW216998   6.082   5.867   3.443
 5367SOL     OW16999   6.020   6.038   1.366
 5367SOL    HW117000   5.995   6.095   1.288
 5367SOL    HW217001   6.099   5.982   1.343
 5368SOL     OW17002   0.106   6.132   4.364
 5368SOL    HW117003   0.137   6.153   4.271
 5368SOL    HW217004   0.169   6.066   4.405
 5369SOL     OW17005   4.061   5.948   2.925
 5369SOL    HW117006   4.033   6.034   2.967
 5369SOL    HW217007   4.148   5.960   2.878
 5370SOL     OW17008   1.851   2.903   0.513
 5370SOL    HW117009   1.757   2.867   0.509
 5370SOL    HW217010   1.853   2.987   0.567
 5371SOL     OW17011   6.265   5.847   4.636
 5371SOL    HW117012   6.360   5.829   4.610
 5371SOL    HW217013   6.204   5.793   4.579
 5372SOL     OW17014   1.914   6.768   3.121
 5372SOL    HW117015   1.848   6.792   3.192
 5372SOL    HW217016   1.886   6.683   3.076
 5373SOL     OW17017   2.492   1.282   6.284
 5373SOL    HW117018   2.457   1.271   6.190
 5373SOL    HW217019   2.462   1.370   6.320
 5374SOL     OW17020   1.653   4.060   1.652
 5374SOL    HW117021   1.708   4.094   1.575
 5374SOL    HW217022   1.624   3.966   1.634
 5375SOL     OW17023   2.408   4.447   5.217
 5375SOL    HW117024   2.313   4.463   5.241
 5375SOL    HW217025   2.464   4.522   5.254
 5376SOL     OW17026   0.861   0.039   6.531
 5376SOL    HW117027   0.795   6.988   6.557
 5376SOL    HW217028   0.950   7.017   6.513
 5377SOL     OW17029   1.145   1.493   3.002
 5377SOL    HW117030   1.147   1.472   3.100
 5377SOL    HW217031   1.181   1.585   2.987
 5378SOL     OW17032   4.547   6.896   2.460
 5378SOL    HW117033   4.628   6.864   2.410
 5378SOL    HW217034   4.526   6.990   2.432
 5379SOL     OW17035   2.158   1.933   4.096
 5379SOL    HW117036   2.154   2.018   4.148
 5379SOL    HW217037   2.089   1.870   4.130
 5380SOL     OW17038   4.423   5.901   1.626
 5380SOL    HW117039   4.432   5.930   1.722
 5380SOL    HW217040   4.464   5.970   1.567
 5381SOL     OW17041   2.779   0.904   3.179
 5381SOL    HW117042   2.843   0.980   3.172
 5381SOL    HW217043   2.808   0.842   3.252
 5382SOL     OW17044   4.502   0.682   2.716
 5382SOL    HW117045   4.596   0.701   2.743
 5382SOL    HW217046   4.440   0.706   2.790
 5383SOL     OW17047   2.258   2.971   4.515
 5383SOL    HW117048   2.303   3.028   4.584
 5383SOL    HW217049   2.269   2.874   4.539
 5384SOL     OW17050   5.183   5.719   5.467
 5384SOL    HW117051   5.193   5.637   5.524
 5384SOL    HW217052   5.162   5.797   5.525
 5385SOL     OW17053   4.198   3.630   6.423
 5385SOL    HW117054   4.293   3.654   6.403
 5385SOL    HW217055   4.166   3.681   6.504
 5386SOL     OW17056   4.667   4.391   3.976
 5386SOL    HW117057   4.599   4.374   3.905
 5386SOL    HW217058   4.695   4.304   4.017
 5387SOL     OW17059   0.997   1.603   3.947
 5387SOL    HW117060   1.011   1.696   3.913
 5387SOL    HW217061   1.023   1.537   3.876
 5388SOL     OW17062   6.617   6.739   4.033
 5388SOL    HW117063   6.688   6.739   3.963
 5388SOL    HW217064   6.633   6.814   4.097
 5389SOL     OW17065   5.342   1.052   3.862
 5389SOL    HW117066   5.326   1.074   3.766
 5389SOL    HW217067   5.377   0.959   3.869
 5390SOL     OW17068   0.034   3.697   3.480
 5390SOL    HW117069   0.082   3.651   3.405
 5390SOL    HW217070   6.961   3.721   3.451
 5391SOL     OW17071   2.932   2.647   0.955
 5391SOL    HW117072   2.860   2.602   1.008
 5391SOL    HW217073   2.946   2.598   0.869
 5392SOL     OW17074   5.782   0.814   4.261
 5392SOL    HW117075   5.866   0.854   4.298
 5392SOL    HW217076   5.772   0.720   4.294
 5393SOL     OW17077   4.357   1.956   3.797
 5393SOL    HW117078   4.352   1.947   3.897
 5393SOL    HW217079   4.451   1.938   3.767
 5394SOL     OW17080   0.172   2.935   1.721
 5394SOL    HW117081   0.074   2.918   1.733
 5394SOL    HW217082   0.188   2.973   1.630
 5395SOL     OW17083   6.669   1.737   0.942
 5395SOL    HW117084   6.591   1.675   0.943
 5395SOL    HW217085   6.657   1.805   0.869
 5396SOL     OW17086   4.309   3.284   0.386
 5396SOL    HW117087   4.400   3.250   0.410
 5396SOL    HW217088   4.263   3.319   0.467
 5397SOL     OW17089   6.638   0.642   2.857
 5397SOL    HW117090   6.730   0.625   2.890
 5397SOL    HW217091   6.617   0.739   2.864
 5398SOL     OW17092   6.870   3.524   2.565
 5398SOL    HW117093   6.878   3.619   2.533
 5398SOL    HW217094   6.809   3.522   2.645
 5399SOL     OW17095   1.827   2.850   0.812
 5399SOL    HW117096   1.871   2.852   0.902
 5399SOL    HW217097   1.735   2.887   0.819
 5400SOL     OW17098   4.790   3.131   1.496
 5400SOL    HW117099   4.868   3.151   1.556
 5400SOL    HW217100   4.727   3.209   1.496
 5401SOL     OW17101   5.625   2.461   1.261
 5401SOL    HW117102   5.602   2.376   1.213
 5401SOL    HW217103   5.702   2.505   1.214
 5402SOL     OW17104   1.370   5.779   2.724
 5402SOL    HW117105   1.306   5.726   2.780
 5402SOL    HW217106   1.319   5.839   2.663
 5403SOL     OW17107   5.217   2.480   6.804
 5403SOL    HW117108   5.274   2.547   6.852
 5403SOL    HW217109   5.149   2.443   6.867
 5404SOL     OW17110   4.766   6.844   0.162
 5404SOL    HW117111   4.725   6.934   0.148
 5404SOL    HW217112   4.858   6.855   0.200
 5405SOL     OW17113   0.342   4.927   0.241
 5405SOL    HW117114   0.434   4.966   0.239
 5405SOL    HW217115   0.347   4.827   0.233
 5406SOL     OW17116   2.342   1.278   6.039
 5406SOL    HW117117   2.260   1.226   6.016
 5406SOL    HW217118   2.389   1.306   5.955
 5407SOL     OW17119   1.442   6.729   3.529
 5407SOL    HW117120   1.528   6.686   3.500
 5407SOL    HW217121   1.456   6.774   3.617
 5408SOL     OW17122   2.641   1.671   4.310
 5408SOL    HW117123   2.733   1.688   4.275
 5408SOL    HW217124   2.641   1.589   4.367
 5409SOL     OW17125   0.957   2.455   2.093
 5409SOL    HW117126   0.930   2.493   2.005
 5409SOL    HW217127   0.892   2.383   2.120
 5410SOL     OW17128   6.024   2.599   0.673
 5410SOL    HW117129   5.997   2.514   0.629
 5410SOL    HW217130   6.123   2.602   0.684
 5411SOL     OW17131   3.793   5.258   0.131
 5411SOL    HW117132   3.822   5.253   0.035
 5411SOL    HW217133   3.809   5.170   0.175
 5412SOL     OW17134   0.461   2.199   5.531
 5412SOL    HW117135   0.491   2.104   5.539
 5412SOL    HW217136   0.368   2.207   5.568
 5413SOL     OW17137   0.814   4.793   5.026
 5413SOL    HW117138   0.786   4.785   5.121
 5413SOL    HW217139   0.735   4.776   4.966
 5414SOL     OW17140   5.497   4.387   5.505
 5414SOL    HW117141   5.473   4.292   5.489
 5414SOL    HW217142   5.596   4.395   5.516
 5415SOL     OW17143   2.987   1.180   0.287
 5415SOL    HW117144   3.025   1.095   0.250
 5415SOL    HW217145   3.042   1.209   0.365
 5416SOL     OW17146   3.668   5.704   0.009
 5416SOL    HW117147   3.662   5.800   0.036
 5416SOL    HW217148   3.764   5.681   7.011
 5417SOL     OW17149   4.970   6.891   3.837
 5417SOL    HW117150   5.005   6.817   3.894
 5417SOL    HW217151   4.902   6.855   3.773
 5418SOL     OW17152   6.790   2.919   5.415
 5418SOL    HW117153   6.855   2.934   5.340
 5418SOL    HW217154   6.729   2.844   5.391
 5419SOL     OW17155   4.234   1.780   6.610
 5419SOL    HW117156   4.246   1.771   6.511
 5419SOL    HW217157   4.172   1.709   6.642
 5420SOL     OW17158   1.508   2.255   1.871
 5420SOL    HW117159   1.603   2.258   1.842
 5420SOL    HW217160   1.503   2.231   1.968
 5421SOL     OW17161   3.688   5.047   2.079
 5421SOL    HW117162   3.702   5.040   2.177
 5421SOL    HW217163   3.681   4.955   2.039
 5422SOL     OW17164   2.829   4.868   3.670
 5422SOL    HW117165   2.750   4.849   3.729
 5422SOL    HW217166   2.828   4.965   3.644
 5423SOL     OW17167   4.878   6.926   1.600
 5423SOL    HW117168   4.796   6.973   1.567
 5423SOL    HW217169   4.853   6.839   1.642
 5424SOL     OW17170   4.216   3.935   5.373
 5424SOL    HW117171   4.126   3.924   5.415
 5424SOL    HW217172   4.273   3.855   5.396
 5425SOL     OW17173   1.394   4.367   6.075
 5425SOL    HW117174   1.373   4.300   6.004
 5425SOL    HW217175   1.336   4.350   6.155
 5426SOL     OW17176   6.910   5.039   1.499
 5426SOL    HW117177   6.863   5.048   1.411
 5426SOL    HW217178   6.846   5.007   1.568
 5427SOL     OW17179   4.554   3.158   0.467
 5427SOL    HW117180   4.543   3.072   0.516
 5427SOL    HW217181   4.565   3.140   0.369
 5428SOL     OW17182   5.023   4.652   3.324
 5428SOL    HW117183   5.110   4.617   3.290
 5428SOL    HW217184   4.950   4.627   3.261
 5429SOL     OW17185   3.072   0.049   4.163
 5429SOL    HW117186   3.041   0.095   4.246
 5429SOL    HW217187   3.001   0.053   4.093
 5430SOL     OW17188   2.098   3.647   5.380
 5430SOL    HW117189   2.121   3.684   5.289
 5430SOL    HW217190   2.009   3.681   5.408
 5431SOL     OW17191   4.841   4.520   0.347
 5431SOL    HW117192   4.816   4.468   0.429
 5431SOL    HW217193   4.879   4.609   0.375
 5432SOL     OW17194   0.316   5.081   6.500
 5432SOL    HW117195   0.351   5.022   6.427
 5432SOL    HW217196   0.216   5.083   6.495
 5433SOL     OW17197   3.834   6.911   1.433
 5433SOL    HW117198   3.776   6.972   1.379
 5433SOL    HW217199   3.909   6.877   1.376
 5434SOL     OW17200   4.695   0.047   4.116
 5434SOL    HW117201   4.706   0.125   4.054
 5434SOL    HW217202   4.767   0.049   4.186
 5435SOL     OW17203   6.591   4.942   0.121
 5435SOL    HW117204   6.615   4.959   0.217
 5435SOL    HW217205   6.673   4.947   0.064
 5436SOL     OW17206   1.736   4.935   2.434
 5436SOL    HW117207   1.815   4.892   2.392
 5436SOL    HW217208   1.714   5.020   2.387
 5437SOL     OW17209   3.522   6.557   0.969
 5437SOL    HW117210   3.523   6.644   0.919
 5437SOL    HW217211   3.444   6.502   0.938
 5438SOL     OW17212   4.515   6.375   1.447
 5438SOL    HW117213   4.447   6.320   1.495
 5438SOL    HW217214   4.499   6.372   1.349
 5439SOL     OW17215   0.818   4.026   1.151
 5439SOL    HW117216   0.807   3.942   1.098
 5439SOL    HW217217   0.766   4.100   1.109
 5440SOL     OW17218   5.415   6.496   3.790
 5440SOL    HW117219   5.483   6.468   3.722
 5440SOL    HW217220   5.325   6.464   3.762
 5441SOL     OW17221   5.534   2.226   4.448
 5441SOL    HW117222   5.469   2.300   4.432
 5441SOL    HW217223   5.564   2.187   4.361
 5442SOL     OW17224   2.636   0.622   6.430
 5442SOL    HW117225   2.540   0.597   6.417
 5442SOL    HW217226   2.682   0.551   6.484
 5443SOL     OW17227   5.517   0.845   3.080
 5443SOL    HW117228   5.446   0.849   3.151
 5443SOL    HW217229   5.601   0.887   3.114
 5444SOL     OW17230   6.884   1.339   6.469
 5444SOL    HW117231   6.943   1.262   6.443
 5444SOL    HW217232   6.936   1.424   6.461
 5445SOL     OW17233   5.860   6.421   5.805
 5445SOL    HW117234   5.908   6.352   5.860
 5445SOL    HW217235   5.815   6.486   5.866
 5446SOL     OW17236   0.284   4.500   5.689
 5446SOL    HW117237   0.305   4.594   5.663
 5446SOL    HW217238   0.346   4.438   5.642
 5447SOL     OW17239   6.662   1.558   1.513
 5447SOL    HW117240   6.677   1.510   1.600
 5447SOL    HW217241   6.734   1.626   1.500
 5448SOL     OW17242   5.600   4.982   2.546
 5448SOL    HW117243   5.651   4.897   2.561
 5448SOL    HW217244   5.564   5.015   2.633
 5449SOL     OW17245   2.794   0.817   1.488
 5449SOL    HW117246   2.702   0.851   1.468
 5449SOL    HW217247   2.789   0.746   1.558
 5450SOL     OW17248   4.631   5.841   2.109
 5450SOL    HW117249   4.707   5.901   2.132
 5450SOL    HW217250   4.560   5.849   2.178
 5451SOL     OW17251   6.166   6.277   3.605
 5451SOL    HW117252   6.098   6.209   3.634
 5451SOL    HW217253   6.166   6.284   3.506
 5452SOL     OW17254   2.160   3.828   2.919
 5452SOL    HW117255   2.175   3.740   2.873
 5452SOL    HW217256   2.077   3.870   2.883
 5453SOL     OW17257   6.614   4.667   4.229
 5453SOL    HW117258   6.620   4.756   4.272
 5453SOL    HW217259   6.555   4.673   4.148
 5454SOL     OW17260   6.126   4.132   3.272
 5454SOL    HW117261   6.108   4.228   3.293
 5454SOL    HW217262   6.145   4.083   3.357
 5455SOL     OW17263   2.780   1.872   3.580
 5455SOL    HW117264   2.711   1.810   3.618
 5455SOL    HW217265   2.819   1.831   3.498
 5456SOL     OW17266   5.720   2.569   0.516
 5456SOL    HW117267   5.670   2.616   0.589
 5456SOL    HW217268   5.765   2.488   0.554
 5457SOL     OW17269   5.991   1.130   6.539
 5457SOL    HW117270   5.981   1.223   6.503
 5457SOL    HW217271   5.908   1.077   6.520
 5458SOL     OW17272   5.750   4.220   0.245
 5458SOL    HW117273   5.775   4.266   0.160
 5458SOL    HW217274   5.694   4.139   0.224
 5459SOL     OW17275   2.102   3.215   4.653
 5459SOL    HW117276   2.154   3.181   4.732
 5459SOL    HW217277   2.023   3.156   4.638
 5460SOL     OW17278   0.358   0.627   1.278
 5460SOL    HW117279   0.267   0.589   1.262
 5460SOL    HW217280   0.354   0.727   1.279
 5461SOL     OW17281   6.276   1.324   6.112
 5461SOL    HW117282   6.247   1.359   6.201
 5461SOL    HW217283   6.365   1.280   6.120
 5462SOL     OW17284   5.310   4.539   6.606
 5462SOL    HW117285   5.247   4.535   6.528
 5462SOL    HW217286   5.400   4.569   6.574
 5463SOL     OW17287   0.750   3.540   6.102
 5463SOL    HW117288   0.665   3.587   6.126
 5463SOL    HW217289   0.741   3.442   6.123
 5464SOL     OW17290   1.652   5.605   5.747
 5464SOL    HW117291   1.609   5.596   5.657
 5464SOL    HW217292   1.600   5.551   5.814
 5465SOL     OW17293   0.653   6.884   4.449
 5465SOL    HW117294   0.635   6.817   4.522
 5465SOL    HW217295   0.713   6.955   4.484
 5466SOL     OW17296   5.952   1.594   4.001
 5466SOL    HW117297   5.890   1.643   3.940
 5466SOL    HW217298   5.957   1.642   4.089
 5467SOL     OW17299   4.898   3.169   4.210
 5467SOL    HW117300   4.853   3.256   4.187
 5467SOL    HW217301   4.994   3.186   4.229
 5468SOL     OW17302   0.280   1.396   1.275
 5468SOL    HW117303   0.239   1.395   1.184
 5468SOL    HW217304   0.253   1.314   1.325
 5469SOL     OW17305   3.497   0.668   4.147
 5469SOL    HW117306   3.513   0.697   4.052
 5469SOL    HW217307   3.451   0.741   4.197
 5470SOL     OW17308   4.478   4.804   4.240
 5470SOL    HW117309   4.574   4.824   4.258
 5470SOL    HW217310   4.448   4.726   4.295
 5471SOL     OW17311   5.241   0.548   2.805
 5471SOL    HW117312   5.285   0.544   2.894
 5471SOL    HW217313   5.229   0.455   2.769
 5472SOL     OW17314   3.306   3.504   6.690
 5472SOL    HW117315   3.389   3.479   6.740
 5472SOL    HW217316   3.242   3.549   6.752
 5473SOL     OW17317   3.146   5.057   2.044
 5473SOL    HW117318   3.226   5.066   1.984
 5473SOL    HW217319   3.157   4.976   2.103
 5474SOL     OW17320   0.971   5.118   2.479
 5474SOL    HW117321   0.949   5.215   2.488
 5474SOL    HW217322   0.889   5.063   2.492
 5475SOL     OW17323   0.968   0.822   5.298
 5475SOL    HW117324   0.884   0.847   5.250
 5475SOL    HW217325   1.046   0.868   5.255
 5476SOL     OW17326   2.038   0.092   5.211
 5476SOL    HW117327   2.114   0.067   5.151
 5476SOL    HW217328   1.960   0.034   5.191
 5477SOL     OW17329   1.847   3.861   3.965
 5477SOL    HW117330   1.760   3.812   3.971
 5477SOL    HW217331   1.919   3.805   4.004
 5478SOL     OW17332   4.956   4.865   5.811
 5478SOL    HW117333   4.904   4.853   5.726
 5478SOL    HW217334   5.047   4.901   5.790
 5479SOL     OW17335   5.251   2.023   4.083
 5479SOL    HW117336   5.301   1.938   4.102
 5479SOL    HW217337   5.154   2.009   4.103
 5480SOL     OW17338   1.212   3.252   4.108
 5480SOL    HW117339   1.246   3.159   4.116
 5480SOL    HW217340   1.234   3.288   4.017
 5481SOL     OW17341   4.523   1.656   6.445
 5481SOL    HW117342   4.471   1.582   6.402
 5481SOL    HW217343   4.486   1.744   6.418
 5482SOL     OW17344   5.546   3.367   1.681
 5482SOL    HW117345   5.603   3.326   1.752
 5482SOL    HW217346   5.467   3.411   1.722
 5483SOL     OW17347   6.721   2.847   6.853
 5483SOL    HW117348   6.791   2.852   6.924
 5483SOL    HW217349   6.651   2.917   6.871
 5484SOL     OW17350   6.818   6.775   4.838
 5484SOL    HW117351   6.730   6.823   4.835
 5484SOL    HW217352   6.860   6.788   4.928
 5485SOL     OW17353   3.621   0.226   5.033
 5485SOL    HW117354   3.721   0.223   5.042
 5485SOL    HW217355   3.594   0.318   5.006
 5486SOL     OW17356   1.363   0.786   4.043
 5486SOL    HW117357   1.363   0.858   4.113
 5486SOL    HW217358   1.275   0.740   4.043
 5487SOL     OW17359   4.524   5.143   0.458
 5487SOL    HW117360   4.445   5.133   0.519
 5487SOL    HW217361   4.599   5.087   0.492
 5488SOL     OW17362   5.025   0.769   5.781
 5488SOL    HW117363   5.051   0.673   5.778
 5488SOL    HW217364   5.060   0.816   5.700
 5489SOL     OW17365   0.552   4.307   3.195
 5489SOL    HW117366   0.629   4.261   3.241
 5489SOL    HW217367   0.467   4.285   3.243
 5490SOL     OW17368   2.295   2.565   0.133
 5490SOL    HW117369   2.390   2.562   0.162
 5490SOL    HW217370   2.282   2.642   0.070
 5491SOL     OW17371   0.238   5.549   1.541
 5491SOL    HW117372   0.324   5.575   1.586
 5491SOL    HW217373   0.217   5.615   1.469
 5492SOL     OW17374   1.900   1.155   5.114
 5492SOL    HW117375   1.905   1.088   5.188
 5492SOL    HW217376   1.915   1.246   5.152
 5493SOL     OW17377   3.191   2.845   6.986
 5493SOL    HW117378   3.121   2.795   6.933
 5493SOL    HW217379   3.257   2.780   0.003
 5494SOL     OW17380   5.890   2.905   2.218
 5494SOL    HW117381   5.856   2.833   2.279
 5494SOL    HW217382   5.852   2.891   2.127
 5495SOL     OW17383   3.588   2.947   2.606
 5495SOL    HW117384   3.628   2.875   2.549
 5495SOL    HW217385   3.554   3.020   2.548
 5496SOL     OW17386   3.603   5.492   1.577
 5496SOL    HW117387   3.681   5.529   1.628
 5496SOL    HW217388   3.611   5.519   1.481
 5497SOL     OW17389   6.587   6.942   1.882
 5497SOL    HW117390   6.588   6.861   1.823
 5497SOL    HW217391   6.624   6.918   1.972
 5498SOL     OW17392   3.895   0.204   5.346
 5498SOL    HW117393   3.981   0.209   5.397
 5498SOL    HW217394   3.887   0.114   5.304
 5499SOL     OW17395   6.962   1.837   4.505
 5499SOL    HW117396   6.931   1.906   4.439
 5499SOL    HW217397   0.026   1.794   4.473
 5500SOL     OW17398   1.973   5.953   1.210
 5500SOL    HW117399   1.880   5.972   1.178
 5500SOL    HW217400   2.000   6.022   1.277
 5501SOL     OW17401   1.687   6.964   2.589
 5501SOL    HW117402   1.673   7.005   2.499
 5501SOL    HW217403   1.783   6.972   2.615
 5502SOL     OW17404   4.535   3.844   0.412
 5502SOL    HW117405   4.542   3.759   0.465
 5502SOL    HW217406   4.553   3.824   0.316
 5503SOL     OW17407   0.828   5.854   4.449
 5503SOL    HW117408   0.916   5.855   4.402
 5503SOL    HW217409   0.831   5.788   4.524
 5504SOL     OW17410   3.341   2.004   4.774
 5504SOL    HW117411   3.302   2.001   4.682
 5504SOL    HW217412   3.270   2.032   4.839
 5505SOL     OW17413   3.230   4.792   5.965
 5505SOL    HW117414   3.139   4.795   5.924
 5505SOL    HW217415   3.221   4.783   6.064
 5506SOL     OW17416   6.588   0.069   5.612
 5506SOL    HW117417   6.597   0.055   5.514
 5506SOL    HW217418   6.670   0.114   5.648
 5507SOL     OW17419   3.128   5.553   4.534
 5507SOL    HW117420   3.070   5.615   4.585
 5507SOL    HW217421   3.224   5.577   4.548
 5508SOL     OW17422   2.282   0.681   6.078
 5508SOL    HW117423   2.228   0.608   6.035
 5508SOL    HW217424   2.339   0.725   6.008
 5509SOL     OW17425   6.111   6.012   6.742
 5509SOL    HW117426   6.157   6.098   6.722
 5509SOL    HW217427   6.133   5.983   6.835
 5510SOL     OW17428   4.752   0.481   5.767
 5510SOL    HW117429   4.750   0.581   5.770
 5510SOL    HW217430   4.792   0.446   5.852
 5511SOL     OW17431   0.420   1.822   2.037
 5511SOL    HW117432   0.427   1.819   1.937
 5511SOL    HW217433   0.340   1.876   2.063
 5512SOL     OW17434   1.014   6.930   0.998
 5512SOL    HW117435   1.022   6.979   1.085
 5512SOL    HW217436   0.919   6.932   0.967
 5513SOL     OW17437   3.386   5.009   4.371
 5513SOL    HW117438   3.360   4.982   4.278
 5513SOL    HW217439   3.480   5.041   4.371
 5514SOL     OW17440   6.188   5.236   3.497
 5514SOL    HW117441   6.100   5.217   3.454
 5514SOL    HW217442   6.225   5.321   3.460
 5515SOL     OW17443   6.769   3.367   2.080
 5515SOL    HW117444   6.799   3.286   2.030
 5515SOL    HW217445   6.839   3.394   2.146
 5516SOL     OW17446   1.242   3.463   6.035
 5516SOL    HW117447   1.156   3.495   5.995
 5516SOL    HW217448   1.305   3.540   6.046
 5517SOL     OW17449   2.373   1.088   2.489
 5517SOL    HW117450   2.359   1.062   2.584
 5517SOL    HW217451   2.369   1.188   2.481
 5518SOL     OW17452   5.799   4.903   5.317
 5518SOL    HW117453   5.848   4.850   5.387
 5518SOL    HW217454   5.712   4.858   5.298
 5519SOL     OW17455   5.244   3.497   3.650
 5519SOL    HW117456   5.276   3.433   3.720
 5519SOL    HW217457   5.314   3.568   3.636
 5520SOL     OW17458   1.642   3.533   1.387
 5520SOL    HW117459   1.663   3.438   1.362
 5520SOL    HW217460   1.549   3.538   1.422
 5521SOL     OW17461   5.184   5.553   1.824
 5521SOL    HW117462   5.103   5.501   1.849
 5521SOL    HW217463   5.250   5.493   1.780
 5522SOL     OW17464   2.118   3.436   2.227
 5522SOL    HW117465   2.178   3.421   2.148
 5522SOL    HW217466   2.068   3.522   2.215
 5523SOL     OW17467   2.960   0.621   1.325
 5523SOL    HW117468   2.883   0.676   1.359
 5523SOL    HW217469   3.032   0.682   1.290
 5524SOL     OW17470   6.550   5.722   6.307
 5524SOL    HW117471   6.555   5.800   6.245
 5524SOL    HW217472   6.642   5.686   6.323
 5525SOL     OW17473   6.885   5.536   4.976
 5525SOL    HW117474   6.807   5.514   5.035
 5525SOL    HW217475   6.935   5.453   4.954
 5526SOL     OW17476   5.931   2.663   4.863
 5526SOL    HW117477   5.892   2.571   4.863
 5526SOL    HW217478   5.858   2.730   4.860
 5527SOL     OW17479   2.142   3.680   1.414
 5527SOL    HW117480   2.046   3.654   1.419
 5527SOL    HW217481   2.186   3.632   1.338
 5528SOL     OW17482   0.723   3.459   3.067
 5528SOL    HW117483   0.677   3.435   3.153
 5528SOL    HW217484   0.816   3.424   3.068
 5529SOL     OW17485   1.565   1.303   5.120
 5529SOL    HW117486   1.561   1.370   5.045
 5529SOL    HW217487   1.648   1.248   5.111
 5530SOL     OW17488   1.192   2.961   0.737
 5530SOL    HW117489   1.198   3.014   0.822
 5530SOL    HW217490   1.267   2.895   0.733
 5531SOL     OW17491   2.984   2.815   5.784
 5531SOL    HW117492   2.963   2.783   5.691
 5531SOL    HW217493   2.946   2.751   5.851
 5532SOL     OW17494   2.531   1.502   1.159
 5532SOL    HW117495   2.460   1.536   1.220
 5532SOL    HW217496   2.603   1.458   1.213
 5533SOL     OW17497   4.370   0.285   1.124
 5533SOL    HW117498   4.433   0.276   1.202
 5533SOL    HW217499   4.357   0.381   1.103
 5534SOL     OW17500   6.993   4.500   5.687
 5534SOL    HW117501   0.067   4.534   5.681
 5534SOL    HW217502   6.981   4.423   5.624
 5535SOL     OW17503   5.961   3.309   3.498
 5535SOL    HW117504   5.933   3.324   3.403
 5535SOL    HW217505   5.903   3.237   3.538
 5536SOL     OW17506   1.762   0.795   3.588
 5536SOL    HW117507   1.748   0.718   3.650
 5536SOL    HW217508   1.674   0.838   3.566
 5537SOL     OW17509   4.375   1.159   4.653
 5537SOL    HW117510   4.346   1.114   4.568
 5537SOL    HW217511   4.455   1.112   4.690
 5538SOL     OW17512   5.576   1.922   0.657
 5538SOL    HW117513   5.507   1.876   0.711
 5538SOL    HW217514   5.567   2.021   0.668
 5539SOL     OW17515   3.484   6.829   0.004
 5539SOL    HW117516   3.472   6.917   6.979
 5539SOL    HW217517   3.541   6.841   0.085
 5540SOL     OW17518   5.495   0.597   6.527
 5540SOL    HW117519   5.399   0.622   6.522
 5540SOL    HW217520   5.542   0.627   6.445
 5541SOL     OW17521   4.891   3.608   5.741
 5541SOL    HW117522   4.928   3.519   5.715
 5541SOL    HW217523   4.966   3.672   5.758
 5542SOL     OW17524   4.091   4.289   6.852
 5542SOL    HW117525   4.102   4.226   6.775
 5542SOL    HW217526   4.054   4.376   6.820
 5543SOL     OW17527   1.458   0.438   0.360
 5543SOL    HW117528   1.472   0.519   0.304
 5543SOL    HW217529   1.520   0.442   0.439
 5544SOL     OW17530   3.911   5.446   6.036
 5544SOL    HW117531   3.912   5.537   6.078
 5544SOL    HW217532   3.957   5.448   5.948
 5545SOL     OW17533   4.498   0.210   2.927
 5545SOL    HW117534   4.548   0.253   3.002
 5545SOL    HW217535   4.502   0.268   2.846
 5546SOL     OW17536   0.557   4.818   4.920
 5546SOL    HW117537   0.484   4.838   4.986
 5546SOL    HW217538   0.565   4.894   4.856
 5547SOL     OW17539   5.111   0.981   4.334
 5547SOL    HW117540   5.024   0.965   4.380
 5547SOL    HW217541   5.121   1.078   4.313
 5548SOL     OW17542   0.030   3.960   4.918
 5548SOL    HW117543   0.077   3.885   4.965
 5548SOL    HW217544   6.951   3.953   4.935
 5549SOL     OW17545   4.416   2.639   0.632
 5549SOL    HW117546   4.330   2.669   0.672
 5549SOL    HW217547   4.491   2.660   0.693
 5550SOL     OW17548   1.818   4.033   1.873
 5550SOL    HW117549   1.748   3.989   1.929
 5550SOL    HW217550   1.779   4.057   1.784
 5551SOL     OW17551   1.841   5.619   3.666
 5551SOL    HW117552   1.755   5.658   3.632
 5551SOL    HW217553   1.857   5.531   3.621
 5552SOL     OW17554   0.300   6.226   6.863
 5552SOL    HW117555   0.261   6.138   6.891
 5552SOL    HW217556   0.399   6.225   6.881
 5553SOL     OW17557   4.546   0.529   6.789
 5553SOL    HW117558   4.465   0.472   6.773
 5553SOL    HW217559   4.522   0.603   6.852
 5554SOL     OW17560   5.217   2.241   1.749
 5554SOL    HW117561   5.220   2.253   1.848
 5554SOL    HW217562   5.150   2.304   1.710
 5555SOL     OW17563   1.672   4.403   2.034
 5555SOL    HW117564   1.677   4.499   2.061
 5555SOL    HW217565   1.740   4.384   1.963
 5556SOL     OW17566   0.140   0.831   4.803
 5556SOL    HW117567   0.146   0.925   4.769
 5556SOL    HW217568   0.207   0.774   4.755
 5557SOL     OW17569   3.240   6.302   2.497
 5557SOL    HW117570   3.239   6.389   2.545
 5557SOL    HW217571   3.310   6.304   2.425
 5558SOL     OW17572   3.799   4.420   0.042
 5558SOL    HW117573   3.741   4.490   0.083
 5558SOL    HW217574   3.836   4.453   6.975
 5559SOL     OW17575   1.880   0.078   2.379
 5559SOL    HW117576   1.942   0.091   2.456
 5559SOL    HW217577   1.861   0.167   2.336
 5560SOL     OW17578   1.205   6.260   2.643
 5560SOL    HW117579   1.144   6.283   2.568
 5560SOL    HW217580   1.243   6.169   2.629
 5561SOL     OW17581   3.468   6.966   3.608
 5561SOL    HW117582   3.429   6.874   3.603
 5561SOL    HW217583   3.397   0.014   3.591
 5562SOL     OW17584   4.075   4.006   1.049
 5562SOL    HW117585   3.996   3.956   1.014
 5562SOL    HW217586   4.154   3.945   1.053
 5563SOL     OW17587   2.716   4.705   3.114
 5563SOL    HW117588   2.689   4.675   3.206
 5563SOL    HW217589   2.815   4.721   3.112
 5564SOL     OW17590   5.245   0.187   5.987
 5564SOL    HW117591   5.300   0.104   5.979
 5564SOL    HW217592   5.239   0.214   6.083
 5565SOL     OW17593   3.172   2.254   6.547
 5565SOL    HW117594   3.231   2.329   6.515
 5565SOL    HW217595   3.229   2.175   6.571
 5566SOL     OW17596   1.455   3.974   6.448
 5566SOL    HW117597   1.357   3.952   6.450
 5566SOL    HW217598   1.475   4.032   6.369
 5567SOL     OW17599   6.996   4.268   1.681
 5567SOL    HW117600   0.067   4.240   1.713
 5567SOL    HW217601   7.004   4.310   1.591
 5568SOL     OW17602   4.386   6.242   1.656
 5568SOL    HW117603   4.466   6.185   1.639
 5568SOL    HW217604   4.318   6.191   1.708
 5569SOL     OW17605   2.235   3.093   4.100
 5569SOL    HW117606   2.292   3.092   4.182
 5569SOL    HW217607   2.162   3.161   4.111
 5570SOL     OW17608   0.743   4.082   2.730
 5570SOL    HW117609   0.762   4.112   2.824
 5570SOL    HW217610   0.707   4.159   2.677
 5571SOL     OW17611   6.265   4.974   1.783
 5571SOL    HW117612   6.186   5.022   1.822
 5571SOL    HW217613   6.260   4.975   1.684
 5572SOL     OW17614   1.403   3.039   5.118
 5572SOL    HW117615   1.371   3.118   5.066
 5572SOL    HW217616   1.325   2.981   5.142
 5573SOL     OW17617   3.031   5.108   4.323
 5573SOL    HW117618   2.952   5.079   4.378
 5573SOL    HW217619   3.082   5.027   4.294
 5574SOL     OW17620   6.926   2.289   6.575
 5574SOL    HW117621   6.973   2.263   6.659
 5574SOL    HW217622   6.980   2.261   6.496
 5575SOL     OW17623   0.437   0.098   1.694
 5575SOL    HW117624   0.452   0.192   1.727
 5575SOL    HW217625   0.523   0.047   1.700
 5576SOL     OW17626   2.260   4.265   3.246
 5576SOL    HW117627   2.194   4.239   3.316
 5576SOL    HW217628   2.241   4.214   3.162
 5577SOL     OW17629   1.614   3.282   6.049
 5577SOL    HW117630   1.695   3.341   6.045
 5577SOL    HW217631   1.579   3.281   6.143
 5578SOL     OW17632   4.040   3.476   3.310
 5578SOL    HW117633   4.032   3.552   3.375
 5578SOL    HW217634   4.027   3.510   3.217
 5579SOL     OW17635   0.795   3.094   1.761
 5579SOL    HW117636   0.880   3.047   1.737
 5579SOL    HW217637   0.746   3.040   1.830
 5580SOL     OW17638   4.935   1.867   5.461
 5580SOL    HW117639   4.870   1.899   5.391
 5580SOL    HW217640   4.995   1.942   5.487
 5581SOL     OW17641   0.891   1.661   6.912
 5581SOL    HW117642   0.938   1.749   6.920
 5581SOL    HW217643   0.864   1.630   7.003
 5582SOL     OW17644   2.584   2.725   6.492
 5582SOL    HW117645   2.630   2.806   6.529
 5582SOL    HW217646   2.625   2.700   6.404
 5583SOL     OW17647   5.597   1.078   2.082
 5583SOL    HW117648   5.530   1.004   2.072
 5583SOL    HW217649   5.687   1.045   2.053
 5584SOL     OW17650   0.615   3.784   5.084
 5584SOL    HW117651   0.712   3.808   5.077
 5584SOL    HW217652   0.590   3.725   5.008
 5585SOL     OW17653   4.834   4.738   1.891
 5585SOL    HW117654   4.813   4.640   1.901
 5585SOL    HW217655   4.831   4.782   1.980
 5586SOL     OW17656   6.855   2.979   6.590
 5586SOL    HW117657   6.884   3.000   6.683
 5586SOL    HW217658   6.756   2.994   6.581
 5587SOL     OW17659   5.198   0.326   6.292
 5587SOL    HW117660   5.141   0.262   6.343
 5587SOL    HW217661   5.151   0.413   6.283
 5588SOL     OW17662   3.457   6.774   1.590
 5588SOL    HW117663   3.533   6.773   1.654
 5588SOL    HW217664   3.438   6.680   1.559
 5589SOL     OW17665   5.851   4.982   6.424
 5589SOL    HW117666   5.800   4.932   6.494
 5589SOL    HW217667   5.949   4.975   6.443
 5590SOL     OW17668   5.677   5.416   4.482
 5590SOL    HW117669   5.635   5.410   4.392
 5590SOL    HW217670   5.646   5.500   4.527
 5591SOL     OW17671   5.975   1.390   1.204
 5591SOL    HW117672   5.928   1.312   1.245
 5591SOL    HW217673   5.908   1.458   1.176
 5592SOL     OW17674   0.833   4.861   3.378
 5592SOL    HW117675   0.753   4.815   3.416
 5592SOL    HW217676   0.909   4.797   3.373
 5593SOL     OW17677   6.495   2.275   0.226
 5593SOL    HW117678   6.498   2.210   0.302
 5593SOL    HW217679   6.576   2.264   0.169
 5594SOL     OW17680   5.540   2.494   5.216
 5594SOL    HW117681   5.624   2.518   5.265
 5594SOL    HW217682   5.559   2.492   5.118
 5595SOL     OW17683   0.663   2.416   5.600
 5595SOL    HW117684   0.606   2.491   5.565
 5595SOL    HW217685   0.613   2.330   5.590
 5596SOL     OW17686   4.381   6.364   2.586
 5596SOL    HW117687   4.465   6.417   2.583
 5596SOL    HW217688   4.391   6.282   2.529
 5597SOL     OW17689   5.224   3.589   3.369
 5597SOL    HW117690   5.163   3.666   3.386
 5597SOL    HW217691   5.222   3.527   3.447
 5598SOL     OW17692   5.448   2.137   4.919
 5598SOL    HW117693   5.414   2.046   4.943
 5598SOL    HW217694   5.387   2.207   4.956
 5599SOL     OW17695   0.631   1.744   3.865
 5599SOL    HW117696   0.640   1.782   3.773
 5599SOL    HW217697   0.660   1.649   3.865
 5600SOL     OW17698   1.582   2.428   3.812
 5600SOL    HW117699   1.649   2.454   3.882
 5600SOL    HW217700   1.533   2.509   3.781
 5601SOL     OW17701   2.269   1.247   5.540
 5601SOL    HW117702   2.191   1.212   5.592
 5601SOL    HW217703   2.327   1.301   5.601
 5602SOL     OW17704   1.090   2.016   1.077
 5602SOL    HW117705   1.073   2.104   1.122
 5602SOL    HW217706   1.188   1.995   1.082
 5603SOL     OW17707   5.797   2.306   6.354
 5603SOL    HW117708   5.859   2.247   6.404
 5603SOL    HW217709   5.713   2.256   6.333
 5604SOL     OW17710   6.148   1.792   5.636
 5604SOL    HW117711   6.228   1.760   5.585
 5604SOL    HW217712   6.127   1.727   5.709
 5605SOL     OW17713   0.508   1.826   4.494
 5605SOL    HW117714   0.469   1.757   4.555
 5605SOL    HW217715   0.579   1.878   4.542
 5606SOL     OW17716   4.378   0.065   1.705
 5606SOL    HW117717   4.463   0.099   1.664
 5606SOL    HW217718   4.361   0.114   1.790
 5607SOL     OW17719   5.762   1.743   1.313
 5607SOL    HW117720   5.769   1.679   1.236
 5607SOL    HW217721   5.816   1.709   1.390
 5608SOL     OW17722   4.006   6.707   5.153
 5608SOL    HW117723   4.018   6.612   5.183
 5608SOL    HW217724   3.951   6.708   5.069
 5609SOL     OW17725   2.702   6.049   6.349
 5609SOL    HW117726   2.786   6.103   6.354
 5609SOL    HW217727   2.710   5.982   6.276
 5610SOL     OW17728   4.667   0.989   0.270
 5610SOL    HW117729   4.579   0.942   0.263
 5610SOL    HW217730   4.694   1.021   0.179
 5611SOL     OW17731   1.820   4.628   3.296
 5611SOL    HW117732   1.784   4.650   3.387
 5611SOL    HW217733   1.782   4.540   3.266
 5612SOL     OW17734   2.732   6.778   5.573
 5612SOL    HW117735   2.673   6.842   5.622
 5612SOL    HW217736   2.777   6.825   5.498
 5613SOL     OW17737   4.168   4.735   1.803
 5613SOL    HW117738   4.253   4.784   1.822
 5613SOL    HW217739   4.092   4.779   1.850
 5614SOL     OW17740   4.812   2.254   2.965
 5614SOL    HW117741   4.825   2.169   2.914
 5614SOL    HW217742   4.852   2.244   3.056
 5615SOL     OW17743   1.593   0.803   0.700
 5615SOL    HW117744   1.520   0.797   0.769
 5615SOL    HW217745   1.671   0.853   0.737
 5616SOL     OW17746   1.879   0.777   4.621
 5616SOL    HW117747   1.860   0.737   4.531
 5616SOL    HW217748   1.795   0.814   4.660
 5617SOL     OW17749   2.104   0.591   4.730
 5617SOL    HW117750   2.028   0.648   4.761
 5617SOL    HW217751   2.088   0.564   4.635
 5618SOL     OW17752   0.334   4.319   3.340
 5618SOL    HW117753   0.381   4.396   3.385
 5618SOL    HW217754   0.270   4.355   3.272
 5619SOL     OW17755   2.333   3.779   5.549
 5619SOL    HW117756   2.245   3.743   5.518
 5619SOL    HW217757   2.381   3.819   5.471
 5620SOL     OW17758   3.393   1.926   6.562
 5620SOL    HW117759   3.309   1.935   6.509
 5620SOL    HW217760   3.440   2.014   6.567
 5621SOL     OW17761   1.756   2.150   5.460
 5621SOL    HW117762   1.737   2.219   5.529
 5621SOL    HW217763   1.799   2.193   5.381
 5622SOL     OW17764   5.647   0.937   6.133
 5622SOL    HW117765   5.623   0.947   6.229
 5622SOL    HW217766   5.566   0.912   6.080
 5623SOL     OW17767   1.250   5.874   6.766
 5623SOL    HW117768   1.329   5.932   6.748
 5623SOL    HW217769   1.246   5.800   6.698
 5624SOL     OW17770   1.299   4.669   3.491
 5624SOL    HW117771   1.244   4.608   3.549
 5624SOL    HW217772   1.321   4.623   3.405
 5625SOL     OW17773   6.735   2.991   4.880
 5625SOL    HW117774   6.831   2.997   4.853
 5625SOL    HW217775   6.724   2.918   4.947
 5626SOL     OW17776   3.877   6.780   4.898
 5626SOL    HW117777   3.846   6.696   4.852
 5626SOL    HW217778   3.798   6.838   4.917
 5627SOL     OW17779   1.398   6.405   1.640
 5627SOL    HW117780   1.318   6.367   1.593
 5627SOL    HW217781   1.475   6.341   1.633
 5628SOL     OW17782   2.238   1.614   4.425
 5628SOL    HW117783   2.205   1.551   4.354
 5628SOL    HW217784   2.208   1.582   4.514
 5629SOL     OW17785   3.639   3.585   2.442
 5629SOL    HW117786   3.605   3.647   2.372
 5629SOL    HW217787   3.674   3.502   2.398
 5630SOL     OW17788   0.409   4.538   1.548
 5630SOL    HW117789   0.372   4.585   1.629
 5630SOL    HW217790   0.422   4.604   1.474
 5631SOL     OW17791   4.537   0.770   6.920
 5631SOL    HW117792   4.440   0.792   6.932
 5631SOL    HW217793   4.575   0.823   6.845
 5632SOL     OW17794   4.143   3.524   6.763
 5632SOL    HW117795   4.106   3.431   6.758
 5632SOL    HW217796   4.080   3.588   6.719
 5633SOL     OW17797   6.559   2.656   4.468
 5633SOL    HW117798   6.552   2.666   4.567
 5633SOL    HW217799   6.631   2.589   4.447
 5634SOL     OW17800   4.182   5.381   4.040
 5634SOL    HW117801   4.190   5.322   3.960
 5634SOL    HW217802   4.140   5.468   4.013
 5635SOL     OW17803   2.745   2.263   4.809
 5635SOL    HW117804   2.757   2.315   4.724
 5635SOL    HW217805   2.661   2.209   4.803
 5636SOL     OW17806   4.085   5.543   3.099
 5636SOL    HW117807   4.131   5.592   3.173
 5636SOL    HW217808   4.020   5.604   3.054
 5637SOL     OW17809   5.555   6.868   3.411
 5637SOL    HW117810   5.627   6.916   3.362
 5637SOL    HW217811   5.494   6.934   3.455
 5638SOL     OW17812   5.297   3.134   6.245
 5638SOL    HW117813   5.353   3.162   6.323
 5638SOL    HW217814   5.354   3.124   6.164
 5639SOL     OW17815   2.076   1.421   6.276
 5639SOL    HW117816   2.076   1.322   6.291
 5639SOL    HW217817   2.076   1.440   6.178
 5640SOL     OW17818   2.663   0.519   3.354
 5640SOL    HW117819   2.584   0.529   3.293
 5640SOL    HW217820   2.645   0.447   3.421
 5641SOL     OW17821   6.238   5.341   4.914
 5641SOL    HW117822   6.218   5.410   4.983
 5641SOL    HW217823   6.218   5.250   4.950
 5642SOL     OW17824   1.231   2.019   6.166
 5642SOL    HW117825   1.216   2.040   6.070
 5642SOL    HW217826   1.298   2.083   6.204
 5643SOL     OW17827   5.793   2.396   4.519
 5643SOL    HW117828   5.727   2.326   4.492
 5643SOL    HW217829   5.746   2.483   4.532
 5644SOL     OW17830   3.569   0.446   6.766
 5644SOL    HW117831   3.476   0.473   6.744
 5644SOL    HW217832   3.608   0.395   6.690
 5645SOL     OW17833   5.631   2.799   4.372
 5645SOL    HW117834   5.659   2.756   4.287
 5645SOL    HW217835   5.597   2.729   4.435
 5646SOL     OW17836   1.850   4.466   3.009
 5646SOL    HW117837   1.764   4.505   2.977
 5646SOL    HW217838   1.915   4.540   3.029
 5647SOL     OW17839   6.742   5.743   2.693
 5647SOL    HW117840   6.802   5.741   2.773
 5647SOL    HW217841   6.789   5.699   2.616
 5648SOL     OW17842   4.181   6.686   2.935
 5648SOL    HW117843   4.122   6.765   2.920
 5648SOL    HW217844   4.177   6.658   3.031
 5649SOL     OW17845   0.506   6.654   4.085
 5649SOL    HW117846   0.587   6.617   4.131
 5649SOL    HW217847   0.531   6.683   3.992
 5650SOL     OW17848   6.551   4.156   0.013
 5650SOL    HW117849   6.621   4.193   0.074
 5650SOL    HW217850   6.596   4.110   6.956
 5651SOL     OW17851   1.607   0.594   1.741
 5651SOL    HW117852   1.622   0.602   1.839
 5651SOL    HW217853   1.585   0.683   1.703
 5652SOL     OW17854   1.382   5.869   1.917
 5652SOL    HW117855   1.306   5.934   1.910
 5652SOL    HW217856   1.352   5.780   1.884
 5653SOL     OW17857   0.082   6.734   0.801
 5653SOL    HW117858   0.079   6.744   0.701
 5653SOL    HW217859   0.023   6.657   0.827
 5654SOL     OW17860   2.567   6.209   5.294
 5654SOL    HW117861   2.478   6.200   5.249
 5654SOL    HW217862   2.612   6.120   5.298
 5655SOL     OW17863   6.509   2.796   4.190
 5655SOL    HW117864   6.496   2.716   4.248
 5655SOL    HW217865   6.432   2.859   4.202
 5656SOL     OW17866   0.215   3.308   6.962
 5656SOL    HW117867   0.243   3.238   6.897
 5656SOL    HW217868   0.185   3.266   0.027
 5657SOL     OW17869   4.356   5.385   5.411
 5657SOL    HW117870   4.363   5.387   5.511
 5657SOL    HW217871   4.374   5.477   5.375
 5658SOL     OW17872   2.062   2.342   5.666
 5658SOL    HW117873   2.109   2.258   5.691
 5658SOL    HW217874   2.096   2.375   5.578
 5659SOL     OW17875   3.888   4.316   6.162
 5659SOL    HW117876   3.913   4.412   6.175
 5659SOL    HW217877   3.797   4.299   6.199
 5660SOL     OW17878   4.385   0.738   6.327
 5660SOL    HW117879   4.448   0.703   6.397
 5660SOL    HW217880   4.291   0.720   6.356
 5661SOL     OW17881   1.200   5.202   5.589
 5661SOL    HW117882   1.151   5.289   5.592
 5661SOL    HW217883   1.277   5.205   5.653
 5662SOL     OW17884   2.558   6.450   2.260
 5662SOL    HW117885   2.485   6.405   2.208
 5662SOL    HW217886   2.646   6.433   2.215
 5663SOL     OW17887   0.904   2.793   6.972
 5663SOL    HW117888   0.855   2.766   6.889
 5663SOL    HW217889   0.840   2.802   0.028
 5664SOL     OW17890   5.151   3.594   4.201
 5664SOL    HW117891   5.088   3.657   4.247
 5664SOL    HW217892   5.147   3.611   4.102
 5665SOL     OW17893   1.989   1.508   1.154
 5665SOL    HW117894   2.076   1.501   1.202
 5665SOL    HW217895   1.933   1.579   1.198
 5666SOL     OW17896   5.267   0.863   4.775
 5666SOL    HW117897   5.254   0.778   4.726
 5666SOL    HW217898   5.185   0.920   4.767
 5667SOL     OW17899   2.292   5.256   4.786
 5667SOL    HW117900   2.196   5.229   4.795
 5667SOL    HW217901   2.349   5.175   4.778
 5668SOL     OW17902   5.312   3.264   3.803
 5668SOL    HW117903   5.374   3.253   3.881
 5668SOL    HW217904   5.277   3.175   3.775
 5669SOL     OW17905   6.497   4.585   6.520
 5669SOL    HW117906   6.461   4.521   6.588
 5669SOL    HW217907   6.505   4.539   6.432
 5670SOL     OW17908   0.406   1.891   2.666
 5670SOL    HW117909   0.437   1.805   2.626
 5670SOL    HW217910   0.364   1.948   2.595
 5671SOL     OW17911   6.988   6.483   3.737
 5671SOL    HW117912   6.928   6.505   3.660
 5671SOL    HW217913   0.063   6.501   3.713
 5672SOL     OW17914   5.064   3.316   5.380
 5672SOL    HW117915   5.015   3.341   5.296
 5672SOL    HW217916   5.001   3.321   5.457
 5673SOL     OW17917   0.728   0.761   0.936
 5673SOL    HW117918   0.784   0.813   1.001
 5673SOL    HW217919   0.663   0.705   0.987
 5674SOL     OW17920   2.032   5.154   5.857
 5674SOL    HW117921   2.031   5.147   5.757
 5674SOL    HW217922   1.982   5.235   5.886
 5675SOL     OW17923   2.251   1.872   0.468
 5675SOL    HW117924   2.226   1.885   0.564
 5675SOL    HW217925   2.311   1.946   0.439
 5676SOL     OW17926   2.838   2.092   1.726
 5676SOL    HW117927   2.813   2.080   1.630
 5676SOL    HW217928   2.882   2.008   1.760
 5677SOL     OW17929   6.661   0.976   1.290
 5677SOL    HW117930   6.752   1.012   1.269
 5677SOL    HW217931   6.594   1.050   1.289
 5678SOL     OW17932   3.322   2.117   1.779
 5678SOL    HW117933   3.257   2.114   1.855
 5678SOL    HW217934   3.395   2.051   1.795
 5679SOL     OW17935   6.142   3.415   4.949
 5679SOL    HW117936   6.205   3.448   4.878
 5679SOL    HW217937   6.194   3.386   5.029
 5680SOL     OW17938   1.721   6.300   5.369
 5680SOL    HW117939   1.796   6.254   5.321
 5680SOL    HW217940   1.670   6.234   5.423
 5681SOL     OW17941   1.188   3.882   3.476
 5681SOL    HW117942   1.151   3.929   3.555
 5681SOL    HW217943   1.247   3.807   3.506
 5682SOL     OW17944   2.084   4.390   1.928
 5682SOL    HW117945   2.075   4.389   2.027
 5682SOL    HW217946   2.159   4.330   1.900
 5683SOL     OW17947   6.229   1.416   6.356
 5683SOL    HW117948   6.314   1.440   6.402
 5683SOL    HW217949   6.151   1.436   6.416
 5684SOL     OW17950   1.962   2.520   5.083
 5684SOL    HW117951   1.897   2.577   5.135
 5684SOL    HW217952   2.055   2.552   5.099
 5685SOL     OW17953   2.505   2.116   3.099
 5685SOL    HW117954   2.531   2.062   3.179
 5685SOL    HW217955   2.406   2.123   3.094
 5686SOL     OW17956   3.632   6.019   6.352
 5686SOL    HW117957   3.642   5.967   6.267
 5686SOL    HW217958   3.535   6.033   6.371
 5687SOL     OW17959   2.172   6.133   6.647
 5687SOL    HW117960   2.166   6.213   6.706
 5687SOL    HW217961   2.191   6.162   6.553
 5688SOL     OW17962   2.374   2.606   3.222
 5688SOL    HW117963   2.275   2.595   3.217
 5688SOL    HW217964   2.410   2.631   3.132
 5689SOL     OW17965   0.626   2.361   1.543
 5689SOL    HW117966   0.673   2.334   1.627
 5689SOL    HW217967   0.583   2.451   1.557
 5690SOL     OW17968   1.747   5.770   0.175
 5690SOL    HW117969   1.710   5.738   0.262
 5690SOL    HW217970   1.804   5.698   0.134
 5691SOL     OW17971   3.100   1.266   2.419
 5691SOL    HW117972   3.013   1.259   2.370
 5691SOL    HW217973   3.102   1.352   2.471
 5692SOL     OW17974   4.553   4.872   1.436
 5692SOL    HW117975   4.546   4.972   1.441
 5692SOL    HW217976   4.618   4.840   1.504
 5693SOL     OW17977   4.040   0.685   1.186
 5693SOL    HW117978   3.944   0.678   1.159
 5693SOL    HW217979   4.050   0.760   1.253
 5694SOL     OW17980   0.982   6.412   1.919
 5694SOL    HW117981   1.067   6.463   1.925
 5694SOL    HW217982   0.989   6.327   1.972
 5695SOL     OW17983   1.529   0.218   0.701
 5695SOL    HW117984   1.577   0.305   0.689
 5695SOL    HW217985   1.458   0.229   0.770
 5696SOL     OW17986   1.622   0.379   3.751
 5696SOL    HW117987   1.609   0.406   3.656
 5696SOL    HW217988   1.720   0.368   3.770
 5697SOL     OW17989   6.534   2.932   0.351
 5697SOL    HW117990   6.479   2.909   0.270
 5697SOL    HW217991   6.516   2.866   0.423
 5698SOL     OW17992   2.528   2.550   4.109
 5698SOL    HW117993   2.473   2.633   4.120
 5698SOL    HW217994   2.525   2.520   4.014
 5699SOL     OW17995   1.894   2.514   2.969
 5699SOL    HW117996   1.808   2.536   3.016
 5699SOL    HW217997   1.886   2.426   2.923
 5700SOL     OW17998   6.338   0.865   3.460
 5700SOL    HW117999   6.381   0.790   3.510
 5700SOL    HW218000   6.239   0.865   3.477
 5701SOL     OW18001   0.399   1.124   1.048
 5701SOL    HW118002   0.448   1.065   0.984
 5701SOL    HW218003   0.457   1.142   1.127
 5702SOL     OW18004   2.356   6.580   4.423
 5702SOL    HW118005   2.448   6.608   4.396
 5702SOL    HW218006   2.305   6.549   4.343
 5703SOL     OW18007   0.316   2.904   6.625
 5703SOL    HW118008   0.408   2.878   6.597
 5703SOL    HW218009   0.249   2.853   6.571
 5704SOL     OW18010   4.964   4.534   3.996
 5704SOL    HW118011   4.939   4.605   3.930
 5704SOL    HW218012   4.978   4.576   4.086
 5705SOL     OW18013   6.216   6.726   5.329
 5705SOL    HW118014   6.313   6.706   5.339
 5705SOL    HW218015   6.204   6.814   5.285
 5706SOL     OW18016   4.709   2.088   0.229
 5706SOL    HW118017   4.627   2.048   0.188
 5706SOL    HW218018   4.774   2.016   0.251
 5707SOL     OW18019   5.932   5.635   2.159
 5707SOL    HW118020   5.840   5.598   2.170
 5707SOL    HW218021   5.974   5.650   2.249
 5708SOL     OW18022   4.280   6.033   2.753
 5708SOL    HW118023   4.233   6.118   2.773
 5708SOL    HW218024   4.347   6.048   2.680
 5709SOL     OW18025   0.331   1.530   2.129
 5709SOL    HW118026   0.413   1.586   2.115
 5709SOL    HW218027   0.311   1.524   2.227
 5710SOL     OW18028   2.941   2.134   1.093
 5710SOL    HW118029   2.944   2.075   1.012
 5710SOL    HW218030   3.018   2.199   1.090
 5711SOL     OW18031   5.414   1.813   1.961
 5711SOL    HW118032   5.472   1.883   1.918
 5711SOL    HW218033   5.466   1.768   2.034
 5712SOL     OW18034   6.311   6.519   1.287
 5712SOL    HW118035   6.280   6.561   1.372
 5712SOL    HW218036   6.248   6.544   1.213
 5713SOL     OW18037   2.611   6.502   0.554
 5713SOL    HW118038   2.515   6.526   0.539
 5713SOL    HW218039   2.654   6.573   0.609
 5714SOL     OW18040   6.208   6.875   1.156
 5714SOL    HW118041   6.149   6.928   1.217
 5714SOL    HW218042   6.288   6.842   1.207
 5715SOL     OW18043   0.371   0.145   1.395
 5715SOL    HW118044   0.339   0.182   1.308
 5715SOL    HW218045   0.295   0.103   1.445
 5716SOL     OW18046   6.602   4.775   5.616
 5716SOL    HW118047   6.643   4.853   5.570
 5716SOL    HW218048   6.536   4.807   5.684
 5717SOL     OW18049   1.378   5.148   3.099
 5717SOL    HW118050   1.410   5.125   3.006
 5717SOL    HW218051   1.375   5.247   3.109
 5718SOL     OW18052   0.552   3.472   0.317
 5718SOL    HW118053   0.588   3.379   0.316
 5718SOL    HW218054   0.628   3.537   0.320
 5719SOL     OW18055   2.850   3.627   0.959
 5719SOL    HW118056   2.888   3.534   0.968
 5719SOL    HW218057   2.922   3.694   0.978
 5720SOL     OW18058   2.662   4.387   6.098
 5720SOL    HW118059   2.652   4.291   6.125
 5720SOL    HW218060   2.729   4.431   6.159
 5721SOL     OW18061   2.995   3.884   0.796
 5721SOL    HW118062   2.900   3.908   0.777
 5721SOL    HW218063   3.044   3.873   0.710
 5722SOL     OW18064   1.140   1.308   5.924
 5722SOL    HW118065   1.196   1.303   5.841
 5722SOL    HW218066   1.065   1.243   5.918
 5723SOL     OW18067   4.408   3.319   7.015
 5723SOL    HW118068   4.490   3.347   0.045
 5723SOL    HW218069   4.408   3.360   6.924
 5724SOL     OW18070   6.201   2.635   4.050
 5724SOL    HW118071   6.245   2.700   4.112
 5724SOL    HW218072   6.252   2.632   3.964
 5725SOL     OW18073   6.688   3.900   4.198
 5725SOL    HW118074   6.763   3.902   4.131
 5725SOL    HW218075   6.658   3.993   4.217
 5726SOL     OW18076   5.162   4.549   2.529
 5726SOL    HW118077   5.121   4.524   2.441
 5726SOL    HW218078   5.119   4.495   2.601
 5727SOL     OW18079   0.673   2.228   5.052
 5727SOL    HW118080   0.708   2.223   5.146
 5727SOL    HW218081   0.750   2.237   4.989
 5728SOL     OW18082   4.922   6.572   4.984
 5728SOL    HW118083   4.968   6.615   5.061
 5728SOL    HW218084   4.834   6.618   4.968
 5729SOL     OW18085   2.118   2.165   5.228
 5729SOL    HW118086   2.208   2.207   5.240
 5729SOL    HW218087   2.103   2.097   5.299
 5730SOL     OW18088   6.766   3.923   4.943
 5730SOL    HW118089   6.678   3.886   4.974
 5730SOL    HW218090   6.751   3.981   4.864
 5731SOL     OW18091   0.247   6.615   2.451
 5731SOL    HW118092   0.327   6.574   2.408
 5731SOL    HW218093   0.245   6.713   2.430
 5732SOL     OW18094   0.653   0.089   3.406
 5732SOL    HW118095   0.568   0.040   3.426
 5732SOL    HW218096   0.652   0.119   3.311
 5733SOL     OW18097   3.628   0.722   5.695
 5733SOL    HW118098   3.612   0.691   5.789
 5733SOL    HW218099   3.571   0.802   5.676
 5734SOL     OW18100   2.285   6.352   2.964
 5734SOL    HW118101   2.312   6.442   2.931
 5734SOL    HW218102   2.328   6.281   2.908
 5735SOL     OW18103   2.600   1.249   1.797
 5735SOL    HW118104   2.667   1.315   1.831
 5735SOL    HW218105   2.596   1.253   1.697
 5736SOL     OW18106   1.458   5.149   6.631
 5736SOL    HW118107   1.502   5.168   6.543
 5736SOL    HW218108   1.510   5.080   6.681
 5737SOL     OW18109   5.236   4.499   0.790
 5737SOL    HW118110   5.240   4.537   0.698
 5737SOL    HW218111   5.320   4.521   0.839
 5738SOL     OW18112   1.622   3.796   6.291
 5738SOL    HW118113   1.560   3.839   6.357
 5738SOL    HW218114   1.714   3.789   6.332
 5739SOL     OW18115   0.771   1.232   1.114
 5739SOL    HW118116   0.829   1.312   1.131
 5739SOL    HW218117   0.710   1.218   1.193
 5740SOL     OW18118   3.918   5.815   6.283
 5740SOL    HW118119   3.916   5.755   6.363
 5740SOL    HW218120   3.829   5.812   6.237
 5741SOL     OW18121   0.302   4.761   3.273
 5741SOL    HW118122   0.350   4.842   3.239
 5741SOL    HW218123   0.219   4.788   3.321
 5742SOL     OW18124   6.633   6.389   4.383
 5742SOL    HW118125   6.703   6.322   4.356
 5742SOL    HW218126   6.554   6.382   4.322
 5743SOL     OW18127   1.823   6.877   5.000
 5743SOL    HW118128   1.809   6.849   5.095
 5743SOL    HW218129   1.741   6.855   4.947
 5744SOL     OW18130   5.839   6.554   2.043
 5744SOL    HW118131   5.800   6.626   2.100
 5744SOL    HW218132   5.823   6.576   1.946
 5745SOL     OW18133   1.395   1.838   3.604
 5745SOL    HW118134   1.347   1.751   3.596
 5745SOL    HW218135   1.447   1.856   3.521
 5746SOL     OW18136   6.107   4.057   0.271
 5746SOL    HW118137   6.019   4.013   0.291
 5746SOL    HW218138   6.180   3.989   0.275
 5747SOL     OW18139   1.237   5.997   2.999
 5747SOL    HW118140   1.261   6.037   3.087
 5747SOL    HW218141   1.311   6.014   2.934
 5748SOL     OW18142   2.598   6.257   2.995
 5748SOL    HW118143   2.558   6.165   2.986
 5748SOL    HW218144   2.620   6.292   2.904
 5749SOL     OW18145   2.276   1.762   3.480
 5749SOL    HW118146   2.351   1.819   3.514
 5749SOL    HW218147   2.293   1.666   3.504
 5750SOL     OW18148   6.385   5.547   2.612
 5750SOL    HW118149   6.308   5.517   2.669
 5750SOL    HW218150   6.430   5.467   2.572
 5751SOL     OW18151   2.601   3.153   6.437
 5751SOL    HW118152   2.661   3.213   6.490
 5751SOL    HW218153   2.506   3.166   6.467
 5752SOL     OW18154   6.665   0.660   0.049
 5752SOL    HW118155   6.747   0.667   7.012
 5752SOL    HW218156   6.590   0.712   0.006
 5753SOL     OW18157   3.721   2.483   0.421
 5753SOL    HW118158   3.642   2.530   0.461
 5753SOL    HW218159   3.716   2.386   0.443
 5754SOL     OW18160   6.090   4.585   0.851
 5754SOL    HW118161   6.080   4.524   0.772
 5754SOL    HW218162   6.066   4.535   0.934
 5755SOL     OW18163   3.441   3.796   1.497
 5755SOL    HW118164   3.518   3.733   1.491
 5755SOL    HW218165   3.475   3.890   1.499
 5756SOL     OW18166   0.319   6.251   4.145
 5756SOL    HW118167   0.289   6.346   4.151
 5756SOL    HW218168   0.413   6.244   4.179
 5757SOL     OW18169   0.591   5.116   1.260
 5757SOL    HW118170   0.530   5.063   1.202
 5757SOL    HW218171   0.552   5.208   1.274
 5758SOL     OW18172   0.878   1.733   5.740
 5758SOL    HW118173   0.918   1.647   5.707
 5758SOL    HW218174   0.928   1.810   5.702
 5759SOL     OW18175   5.271   1.914   4.994
 5759SOL    HW118176   5.346   1.871   5.043
 5759SOL    HW218177   5.249   2.002   5.036
 5760SOL     OW18178   1.698   5.911   1.591
 5760SOL    HW118179   1.701   5.905   1.491
 5760SOL    HW218180   1.737   5.828   1.630
 5761SOL     OW18181   4.789   0.362   4.989
 5761SOL    HW118182   4.884   0.354   4.957
 5761SOL    HW218183   4.733   0.293   4.942
 5762SOL     OW18184   5.470   6.309   1.385
 5762SOL    HW118185   5.563   6.275   1.399
 5762SOL    HW218186   5.467   6.407   1.404
 5763SOL     OW18187   1.005   1.372   1.366
 5763SOL    HW118188   1.015   1.429   1.448
 5763SOL    HW218189   1.095   1.345   1.333
 5764SOL     OW18190   4.737   3.654   5.548
 5764SOL    HW118191   4.794   3.630   5.626
 5764SOL    HW218192   4.689   3.573   5.516
 5765SOL     OW18193   5.643   4.582   0.789
 5765SOL    HW118194   5.634   4.520   0.711
 5765SOL    HW218195   5.721   4.642   0.774
 5766SOL     OW18196   3.146   1.129   3.890
 5766SOL    HW118197   3.112   1.111   3.983
 5766SOL    HW218198   3.102   1.210   3.853
 5767SOL     OW18199   6.871   6.542   0.823
 5767SOL    HW118200   6.938   6.496   0.881
 5767SOL    HW218201   6.791   6.483   0.812
 5768SOL     OW18202   6.278   0.642   2.836
 5768SOL    HW118203   6.192   0.592   2.820
 5768SOL    HW218204   6.353   0.577   2.844
 5769SOL     OW18205   2.230   5.761   3.790
 5769SOL    HW118206   2.329   5.760   3.778
 5769SOL    HW218207   2.187   5.708   3.718
 5770SOL     OW18208   6.119   0.185   1.745
 5770SOL    HW118209   6.065   0.123   1.801
 5770SOL    HW218210   6.085   0.184   1.651
 5771SOL     OW18211   0.844   1.404   2.432
 5771SOL    HW118212   0.924   1.370   2.482
 5771SOL    HW218213   0.771   1.425   2.496
 5772SOL     OW18214   6.592   4.452   6.899
 5772SOL    HW118215   6.591   4.394   6.981
 5772SOL    HW218216   6.676   4.436   6.848
 5773SOL     OW18217   5.918   5.719   4.150
 5773SOL    HW118218   5.919   5.817   4.130
 5773SOL    HW218219   5.830   5.680   4.123
 5774SOL     OW18220   2.647   5.273   3.029
 5774SOL    HW118221   2.660   5.296   2.932
 5774SOL    HW218222   2.561   5.222   3.039
 5775SOL     OW18223   0.111   0.224   0.306
 5775SOL    HW118224   0.093   0.172   0.222
 5775SOL    HW218225   0.111   0.161   0.384
 5776SOL     OW18226   5.214   1.125   6.154
 5776SOL    HW118227   5.175   1.083   6.072
 5776SOL    HW218228   5.267   1.205   6.128
 5777SOL     OW18229   6.023   0.603   5.186
 5777SOL    HW118230   6.045   0.676   5.122
 5777SOL    HW218231   6.075   0.521   5.162
 5778SOL     OW18232   2.512   6.882   3.658
 5778SOL    HW118233   2.474   6.974   3.651
 5778SOL    HW218234   2.599   6.878   3.608
 5779SOL     OW18235   4.038   1.021   2.360
 5779SOL    HW118236   4.042   1.089   2.433
 5779SOL    HW218237   3.960   1.040   2.301
 5780SOL     OW18238   5.883   3.609   1.271
 5780SOL    HW118239   5.834   3.615   1.358
 5780SOL    HW218240   5.981   3.605   1.288
 5781SOL     OW18241   2.276   4.905   5.001
 5781SOL    HW118242   2.374   4.891   4.987
 5781SOL    HW218243   2.234   4.938   4.917
 5782SOL     OW18244   2.972   1.131   3.100
 5782SOL    HW118245   2.974   1.229   3.079
 5782SOL    HW218246   3.058   1.105   3.145
 5783SOL     OW18247   2.628   6.615   1.184
 5783SOL    HW118248   2.668   6.652   1.268
 5783SOL    HW218249   2.542   6.662   1.165
 5784SOL     OW18250   2.012   5.416   0.198
 5784SOL    HW118251   1.994   5.398   0.295
 5784SOL    HW218252   2.056   5.336   0.157
 5785SOL     OW18253   2.328   1.622   0.458
 5785SOL    HW118254   2.301   1.707   0.414
 5785SOL    HW218255   2.369   1.641   0.547
 5786SOL     OW18256   0.947   3.499   0.402
 5786SOL    HW118257   1.021   3.561   0.375
 5786SOL    HW218258   0.870   3.510   0.339
 5787SOL     OW18259   0.374   3.058   5.393
 5787SOL    HW118260   0.320   2.998   5.335
 5787SOL    HW218261   0.471   3.043   5.377
 5788SOL     OW18262   1.689   2.506   2.014
 5788SOL    HW118263   1.604   2.558   2.010
 5788SOL    HW218264   1.690   2.449   2.096
 5789SOL     OW18265   3.212   5.188   6.736
 5789SOL    HW118266   3.303   5.227   6.749
 5789SOL    HW218267   3.152   5.215   6.811
 5790SOL     OW18268   5.992   5.597   3.584
 5790SOL    HW118269   6.016   5.692   3.565
 5790SOL    HW218270   5.974   5.586   3.682
 5791SOL     OW18271   4.257   1.551   1.217
 5791SOL    HW118272   4.314   1.624   1.253
 5791SOL    HW218273   4.162   1.581   1.213
 5792SOL     OW18274   4.200   2.224   2.727
 5792SOL    HW118275   4.261   2.303   2.722
 5792SOL    HW218276   4.167   2.201   2.635
 5793SOL     OW18277   3.900   2.597   6.555
 5793SOL    HW118278   3.930   2.622   6.647
 5793SOL    HW218279   3.806   2.628   6.541
 5794SOL     OW18280   3.466   6.384   6.975
 5794SOL    HW118281   3.497   6.475   6.948
 5794SOL    HW218282   3.417   6.390   0.042
 5795SOL     OW18283   1.880   6.084   1.786
 5795SOL    HW118284   1.945   6.009   1.773
 5795SOL    HW218285   1.787   6.047   1.792
 5796SOL     OW18286   4.996   0.719   6.632
 5796SOL    HW118287   4.900   0.692   6.629
 5796SOL    HW218288   5.004   0.815   6.658
 5797SOL     OW18289   6.875   2.835   0.513
 5797SOL    HW118290   6.814   2.912   0.526
 5797SOL    HW218291   6.891   2.789   0.601
 5798SOL     OW18292   1.597   3.667   4.390
 5798SOL    HW118293   1.644   3.586   4.355
 5798SOL    HW218294   1.559   3.720   4.314
 5799SOL     OW18295   2.900   0.302   3.647
 5799SOL    HW118296   2.848   0.383   3.620
 5799SOL    HW218297   2.855   0.220   3.611
 5800SOL     OW18298   1.208   0.168   1.298
 5800SOL    HW118299   1.248   0.258   1.279
 5800SOL    HW218300   1.224   0.145   1.394
 5801SOL     OW18301   1.941   1.852   2.233
 5801SOL    HW118302   1.997   1.851   2.316
 5801SOL    HW218303   1.998   1.832   2.154
 5802SOL     OW18304   0.621   0.105   2.175
 5802SOL    HW118305   0.692   0.165   2.138
 5802SOL    HW218306   0.646   0.077   2.268
 5803SOL     OW18307   0.508   6.065   4.405
 5803SOL    HW118308   0.600   6.065   4.445
 5803SOL    HW218309   0.506   6.124   4.325
 5804SOL     OW18310   5.889   2.021   2.787
 5804SOL    HW118311   5.919   2.071   2.705
 5804SOL    HW218312   5.790   2.025   2.794
 5805SOL     OW18313   1.340   2.895   2.109
 5805SOL    HW118314   1.347   2.924   2.205
 5805SOL    HW218315   1.394   2.813   2.095
 5806SOL     OW18316   6.498   4.223   2.006
 5806SOL    HW118317   6.443   4.302   1.978
 5806SOL    HW218318   6.590   4.231   1.968
 5807SOL     OW18319   1.594   1.232   2.301
 5807SOL    HW118320   1.515   1.290   2.281
 5807SOL    HW218321   1.678   1.279   2.274
 5808SOL     OW18322   6.608   0.657   5.811
 5808SOL    HW118323   6.617   0.671   5.712
 5808SOL    HW218324   6.603   0.746   5.856
 5809SOL     OW18325   0.196   2.828   4.626
 5809SOL    HW118326   0.147   2.752   4.582
 5809SOL    HW218327   0.206   2.903   4.561
 5810SOL     OW18328   3.389   6.336   5.359
 5810SOL    HW118329   3.427   6.269   5.423
 5810SOL    HW218330   3.375   6.292   5.270
 5811SOL     OW18331   4.015   4.277   6.585
 5811SOL    HW118332   3.966   4.210   6.530
 5811SOL    HW218333   3.949   4.331   6.638
 5812SOL     OW18334   5.804   2.927   5.829
 5812SOL    HW118335   5.818   2.828   5.831
 5812SOL    HW218336   5.800   2.961   5.923
 5813SOL     OW18337   5.009   5.467   0.652
 5813SOL    HW118338   4.925   5.457   0.707
 5813SOL    HW218339   4.990   5.442   0.557
 5814SOL     OW18340   5.777   1.398   1.965
 5814SOL    HW118341   5.703   1.347   2.009
 5814SOL    HW218342   5.855   1.404   2.028
 5815SOL     OW18343   6.177   3.155   4.137
 5815SOL    HW118344   6.123   3.189   4.059
 5815SOL    HW218345   6.158   3.212   4.217
 5816SOL     OW18346   0.449   3.862   2.484
 5816SOL    HW118347   0.388   3.783   2.483
 5816SOL    HW218348   0.496   3.868   2.572
 5817SOL     OW18349   6.094   3.729   3.147
 5817SOL    HW118350   6.074   3.815   3.099
 5817SOL    HW218351   6.095   3.654   3.081
 5818SOL     OW18352   2.623   0.493   4.335
 5818SOL    HW118353   2.577   0.405   4.323
 5818SOL    HW218354   2.620   0.519   4.431
 5819SOL     OW18355   3.849   4.109   0.571
 5819SOL    HW118356   3.875   4.097   0.475
 5819SOL    HW218357   3.847   4.019   0.616
 5820SOL     OW18358   6.268   6.556   2.522
 5820SOL    HW118359   6.298   6.464   2.497
 5820SOL    HW218360   6.321   6.623   2.471
 5821SOL     OW18361   6.853   0.300   1.779
 5821SOL    HW118362   6.839   0.250   1.864
 5821SOL    HW218363   6.806   0.388   1.785
 5822SOL     OW18364   1.390   4.390   2.940
 5822SOL    HW118365   1.321   4.456   2.971
 5822SOL    HW218366   1.378   4.304   2.990
 5823SOL     OW18367   1.649   6.484   3.760
 5823SOL    HW118368   1.599   6.543   3.824
 5823SOL    HW218369   1.586   6.450   3.690
 5824SOL     OW18370   1.596   6.713   2.329
 5824SOL    HW118371   1.693   6.736   2.333
 5824SOL    HW218372   1.556   6.751   2.245
 5825SOL     OW18373   4.781   1.786   3.938
 5825SOL    HW118374   4.822   1.719   3.876
 5825SOL    HW218375   4.721   1.847   3.886
 5826SOL     OW18376   1.487   0.002   5.516
 5826SOL    HW118377   1.442   6.936   5.538
 5826SOL    HW218378   1.423   0.063   5.469
 5827SOL     OW18379   2.271   4.217   3.696
 5827SOL    HW118380   2.247   4.157   3.772
 5827SOL    HW218381   2.221   4.189   3.614
 5828SOL     OW18382   4.190   0.817   5.444
 5828SOL    HW118383   4.259   0.842   5.512
 5828SOL    HW218384   4.219   0.734   5.396
 5829SOL     OW18385   2.161   0.508   2.880
 5829SOL    HW118386   2.186   0.420   2.841
 5829SOL    HW218387   2.076   0.541   2.838
 5830SOL     OW18388   4.196   5.208   4.271
 5830SOL    HW118389   4.213   5.283   4.206
 5830SOL    HW218390   4.228   5.122   4.232
 5831SOL     OW18391   2.072   2.057   5.001
 5831SOL    HW118392   2.154   2.064   4.944
 5831SOL    HW218393   2.089   2.101   5.089
 5832SOL     OW18394   3.101   5.349   2.039
 5832SOL    HW118395   3.132   5.374   1.948
 5832SOL    HW218396   3.107   5.250   2.050
 5833SOL     OW18397   3.592   5.637   0.364
 5833SOL    HW118398   3.508   5.674   0.403
 5833SOL    HW218399   3.569   5.574   0.290
 5834SOL     OW18400   6.706   2.960   6.265
 5834SOL    HW118401   6.690   3.010   6.180
 5834SOL    HW218402   6.644   2.994   6.336
 5835SOL     OW18403   4.787   1.745   3.043
 5835SOL    HW118404   4.695   1.747   3.082
 5835SOL    HW218405   4.850   1.795   3.103
 5836SOL     OW18406   5.224   5.943   2.285
 5836SOL    HW118407   5.311   5.893   2.281
 5836SOL    HW218408   5.198   5.973   2.194
 5837SOL     OW18409   2.858   4.932   6.398
 5837SOL    HW118410   2.825   4.934   6.492
 5837SOL    HW218411   2.780   4.932   6.335
 5838SOL     OW18412   3.984   2.848   0.124
 5838SOL    HW118413   3.945   2.913   0.189
 5838SOL    HW218414   4.062   2.890   0.077
 5839SOL     OW18415   1.841   2.174   0.859
 5839SOL    HW118416   1.845   2.268   0.894
 5839SOL    HW218417   1.749   2.156   0.825
 5840SOL     OW18418   0.265   3.499   3.587
 5840SOL    HW118419   0.173   3.484   3.623
 5840SOL    HW218420   0.277   3.445   3.503
 5841SOL     OW18421   5.228   1.220   0.653
 5841SOL    HW118422   5.157   1.177   0.708
 5841SOL    HW218423   5.313   1.225   0.706
 5842SOL     OW18424   2.789   1.756   1.279
 5842SOL    HW118425   2.696   1.763   1.316
 5842SOL    HW218426   2.785   1.741   1.181
 5843SOL     OW18427   3.370   3.068   0.716
 5843SOL    HW118428   3.458   3.024   0.736
 5843SOL    HW218429   3.297   3.001   0.719
 5844SOL     OW18430   0.343   5.728   5.000
 5844SOL    HW118431   0.384   5.762   5.085
 5844SOL    HW218432   0.263   5.784   4.977
 5845SOL     OW18433   1.436   6.816   2.551
 5845SOL    HW118434   1.513   6.805   2.488
 5845SOL    HW218435   1.382   6.731   2.552
 5846SOL     OW18436   0.793   4.080   5.234
 5846SOL    HW118437   0.816   4.140   5.157
 5846SOL    HW218438   0.851   4.102   5.312
 5847SOL     OW18439   1.533   4.113   6.192
 5847SOL    HW118440   1.453   4.056   6.174
 5847SOL    HW218441   1.615   4.066   6.160
 5848SOL     OW18442   1.836   5.698   1.701
 5848SOL    HW118443   1.935   5.679   1.702
 5848SOL    HW218444   1.795   5.663   1.785
 5849SOL     OW18445   2.998   5.675   6.406
 5849SOL    HW118446   3.035   5.632   6.488
 5849SOL    HW218447   2.992   5.774   6.421
 5850SOL     OW18448   0.542   1.458   1.834
 5850SOL    HW118449   0.472   1.501   1.777
 5850SOL    HW218450   0.591   1.390   1.779
 5851SOL     OW18451   6.482   3.935   4.609
 5851SOL    HW118452   6.425   3.924   4.527
 5851SOL    HW218453   6.554   4.001   4.592
 5852SOL     OW18454   4.901   4.256   2.458
 5852SOL    HW118455   4.813   4.229   2.419
 5852SOL    HW218456   4.973   4.195   2.424
 5853SOL     OW18457   4.596   4.594   6.413
 5853SOL    HW118458   4.532   4.618   6.340
 5853SOL    HW218459   4.613   4.674   6.470
 5854SOL     OW18460   3.554   4.894   5.361
 5854SOL    HW118461   3.482   4.884   5.293
 5854SOL    HW218462   3.617   4.816   5.354
 5855SOL     OW18463   2.365   2.729   2.888
 5855SOL    HW118464   2.357   2.828   2.886
 5855SOL    HW218465   2.275   2.687   2.872
 5856SOL     OW18466   1.058   6.185   2.884
 5856SOL    HW118467   1.112   6.107   2.916
 5856SOL    HW218468   1.102   6.226   2.804
 5857SOL     OW18469   5.532   4.829   6.812
 5857SOL    HW118470   5.625   4.815   6.779
 5857SOL    HW218471   5.493   4.910   6.769
 5858SOL     OW18472   1.673   0.899   2.866
 5858SOL    HW118473   1.707   0.814   2.904
 5858SOL    HW218474   1.746   0.968   2.868
 5859SOL     OW18475   5.390   5.615   1.488
 5859SOL    HW118476   5.391   5.515   1.480
 5859SOL    HW218477   5.296   5.648   1.488
 5860SOL     OW18478   0.609   4.501   2.982
 5860SOL    HW118479   0.666   4.577   3.015
 5860SOL    HW218480   0.570   4.454   3.061
 5861SOL     OW18481   4.785   0.818   5.509
 5861SOL    HW118482   4.813   0.723   5.521
 5861SOL    HW218483   4.864   0.874   5.488
 5862SOL     OW18484   6.119   5.246   3.002
 5862SOL    HW118485   6.022   5.258   2.981
 5862SOL    HW218486   6.164   5.335   3.005
 5863SOL     OW18487   3.893   7.006   6.922
 5863SOL    HW118488   3.898   0.078   6.963
 5863SOL    HW218489   3.904   6.938   6.994
 5864SOL     OW18490   3.531   3.859   2.287
 5864SOL    HW118491   3.435   3.857   2.317
 5864SOL    HW218492   3.537   3.820   2.195
 5865SOL     OW18493   6.684   0.455   6.485
 5865SOL    HW118494   6.749   0.473   6.558
 5865SOL    HW218495   6.654   0.360   6.490
 5866SOL     OW18496   3.325   2.877   2.683
 5866SOL    HW118497   3.328   2.960   2.738
 5866SOL    HW218498   3.418   2.847   2.662
 5867SOL     OW18499   2.885   1.668   1.508
 5867SOL    HW118500   2.949   1.716   1.569
 5867SOL    HW218501   2.882   1.715   1.420
 5868SOL     OW18502   0.833   1.102   6.691
 5868SOL    HW118503   0.789   1.175   6.742
 5868SOL    HW218504   0.860   1.029   6.753
 5869SOL     OW18505   1.184   5.887   3.605
 5869SOL    HW118506   1.269   5.839   3.628
 5869SOL    HW218507   1.124   5.826   3.554
 5870SOL     OW18508   3.612   6.269   4.727
 5870SOL    HW118509   3.614   6.220   4.640
 5870SOL    HW218510   3.519   6.269   4.764
 5871SOL     OW18511   3.416   3.236   3.831
 5871SOL    HW118512   3.370   3.311   3.877
 5871SOL    HW218513   3.403   3.243   3.733
 5872SOL     OW18514   4.916   6.076   0.438
 5872SOL    HW118515   4.931   5.986   0.480
 5872SOL    HW218516   4.872   6.064   0.349
 5873SOL     OW18517   4.360   6.112   2.263
 5873SOL    HW118518   4.421   6.186   2.232
 5873SOL    HW218519   4.265   6.140   2.250
 5874SOL     OW18520   0.965   4.023   5.731
 5874SOL    HW118521   0.886   4.061   5.682
 5874SOL    HW218522   1.016   4.098   5.774
 5875SOL     OW18523   3.753   1.885   1.512
 5875SOL    HW118524   3.809   1.950   1.563
 5875SOL    HW218525   3.659   1.888   1.547
 5876SOL     OW18526   3.355   3.052   1.650
 5876SOL    HW118527   3.451   3.079   1.637
 5876SOL    HW218528   3.296   3.132   1.643
 5877SOL     OW18529   5.885   4.527   1.239
 5877SOL    HW118530   5.857   4.485   1.152
 5877SOL    HW218531   5.867   4.626   1.235
 5878SOL     OW18532   2.141   4.154   2.630
 5878SOL    HW118533   2.225   4.207   2.632
 5878SOL    HW218534   2.063   4.216   2.618
 5879SOL     OW18535   0.925   4.341   3.980
 5879SOL    HW118536   0.872   4.261   3.953
 5879SOL    HW218537   0.903   4.417   3.919
 5880SOL     OW18538   3.344   5.730   0.408
 5880SOL    HW118539   3.299   5.771   0.329
 5880SOL    HW218540   3.309   5.637   0.422
 5881SOL     OW18541   1.321   5.521   4.157
 5881SOL    HW118542   1.285   5.541   4.248
 5881SOL    HW218543   1.419   5.504   4.163
 5882SOL     OW18544   4.768   0.727   2.787
 5882SOL    HW118545   4.839   0.690   2.846
 5882SOL    HW218546   4.809   0.761   2.703
 5883SOL     OW18547   0.747   3.413   5.101
 5883SOL    HW118548   0.651   3.426   5.124
 5883SOL    HW218549   0.803   3.481   5.149
 5884SOL     OW18550   0.509   0.930   3.691
 5884SOL    HW118551   0.468   0.951   3.779
 5884SOL    HW218552   0.463   0.983   3.619
 5885SOL     OW18553   5.650   7.012   0.939
 5885SOL    HW118554   5.724   0.040   0.986
 5885SOL    HW218555   5.569   7.010   0.998
 5886SOL     OW18556   0.405   0.942   6.290
 5886SOL    HW118557   0.460   1.021   6.263
 5886SOL    HW218558   0.465   0.871   6.329
 5887SOL     OW18559   4.566   6.492   3.218
 5887SOL    HW118560   4.647   6.502   3.160
 5887SOL    HW218561   4.588   6.523   3.310
 5888SOL     OW18562   0.983   0.840   2.785
 5888SOL    HW118563   0.906   0.841   2.721
 5888SOL    HW218564   0.949   0.825   2.878
 5889SOL     OW18565   2.789   0.309   0.057
 5889SOL    HW118566   2.737   0.376   0.111
 5889SOL    HW218567   2.859   0.267   0.113
 5890SOL     OW18568   3.498   4.828   5.905
 5890SOL    HW118569   3.402   4.804   5.920
 5890SOL    HW218570   3.512   4.852   5.809
 5891SOL     OW18571   2.146   3.196   6.817
 5891SOL    HW118572   2.156   3.287   6.776
 5891SOL    HW218573   2.231   3.144   6.805
 5892SOL     OW18574   1.507   0.009   2.786
 5892SOL    HW118575   1.560   6.998   2.706
 5892SOL    HW218576   1.516   6.962   2.860
 5893SOL     OW18577   1.944   1.013   3.149
 5893SOL    HW118578   1.969   1.098   3.194
 5893SOL    HW218579   1.904   1.033   3.060
 5894SOL     OW18580   0.730   3.657   3.674
 5894SOL    HW118581   0.728   3.654   3.574
 5894SOL    HW218582   0.734   3.565   3.711
 5895SOL     OW18583   5.465   3.647   3.650
 5895SOL    HW118584   5.458   3.728   3.592
 5895SOL    HW218585   5.501   3.674   3.740
 5896SOL     OW18586   4.484   1.946   5.627
 5896SOL    HW118587   4.445   1.858   5.599
 5896SOL    HW218588   4.584   1.939   5.629
 5897SOL     OW18589   4.325   0.413   1.545
 5897SOL    HW118590   4.262   0.341   1.576
 5897SOL    HW218591   4.416   0.396   1.583
 5898SOL     OW18592   2.312   6.664   2.787
 5898SOL    HW118593   2.213   6.676   2.796
 5898SOL    HW218594   2.331   6.583   2.732
 5899SOL     OW18595   5.634   0.165   3.742
 5899SOL    HW118596   5.731   0.156   3.721
 5899SOL    HW218597   5.622   0.186   3.839
 5900SOL     OW18598   4.095   5.139   2.173
 5900SOL    HW118599   4.074   5.052   2.218
 5900SOL    HW218600   4.175   5.180   2.216
 5901SOL     OW18601   3.392   6.246   4.929
 5901SOL    HW118602   3.434   6.187   4.998
 5901SOL    HW218603   3.302   6.211   4.904
 5902SOL     OW18604   6.257   1.203   0.150
 5902SOL    HW118605   6.350   1.188   0.117
 5902SOL    HW218606   6.228   1.296   0.131
 5903SOL     OW18607   0.153   3.223   6.581
 5903SOL    HW118608   0.168   3.190   6.674
 5903SOL    HW218609   0.238   3.213   6.528
 5904SOL     OW18610   0.448   4.136   2.477
 5904SOL    HW118611   0.458   4.037   2.480
 5904SOL    HW218612   0.355   4.160   2.449
 5905SOL     OW18613   6.471   4.920   1.960
 5905SOL    HW118614   6.551   4.933   1.901
 5905SOL    HW218615   6.392   4.963   1.918
 5906SOL     OW18616   6.832   1.402   4.071
 5906SOL    HW118617   6.817   1.467   4.145
 5906SOL    HW218618   6.744   1.362   4.043
 5907SOL     OW18619   1.850   6.832   2.295
 5907SOL    HW118620   1.860   6.930   2.312
 5907SOL    HW218621   1.915   6.804   2.224
 5908SOL     OW18622   0.230   2.420   6.400
 5908SOL    HW118623   0.271   2.390   6.315
 5908SOL    HW218624   0.151   2.479   6.381
 5909SOL     OW18625   6.954   4.083   1.058
 5909SOL    HW118626   7.008   4.036   1.127
 5909SOL    HW218627   6.993   4.066   0.967
 5910SOL     OW18628   2.234   1.837   3.876
 5910SOL    HW118629   2.238   1.895   3.794
 5910SOL    HW218630   2.188   1.886   3.949
 5911SOL     OW18631   6.860   5.845   6.355
 5911SOL    HW118632   6.804   5.862   6.435
 5911SOL    HW218633   6.894   5.931   6.318
 5912SOL     OW18634   1.114   0.649   4.017
 5912SOL    HW118635   1.092   0.609   4.106
 5912SOL    HW218636   1.044   0.717   3.993
 5913SOL     OW18637   6.204   1.554   6.917
 5913SOL    HW118638   6.216   1.534   7.014
 5913SOL    HW218639   6.283   1.605   6.883
 5914SOL     OW18640   0.765   6.389   0.373
 5914SOL    HW118641   0.842   6.430   0.422
 5914SOL    HW218642   0.715   6.328   0.434
 5915SOL     OW18643   4.317   1.653   6.008
 5915SOL    HW118644   4.333   1.746   5.976
 5915SOL    HW218645   4.249   1.654   6.081
 5916SOL     OW18646   0.831   6.528   2.253
 5916SOL    HW118647   0.734   6.535   2.228
 5916SOL    HW218648   0.886   6.512   2.171
 5917SOL     OW18649   3.173   4.555   0.339
 5917SOL    HW118650   3.091   4.611   0.340
 5917SOL    HW218651   3.208   4.544   0.432
 5918SOL     OW18652   2.815   6.488   5.214
 5918SOL    HW118653   2.793   6.519   5.306
 5918SOL    HW218654   2.736   6.502   5.154
 5919SOL     OW18655   3.379   3.393   4.818
 5919SOL    HW118656   3.345   3.319   4.759
 5919SOL    HW218657   3.446   3.448   4.768
 5920SOL     OW18658   5.776   0.372   5.666
 5920SOL    HW118659   5.858   0.386   5.722
 5920SOL    HW218660   5.715   0.450   5.676
 5921SOL     OW18661   2.859   3.942   6.603
 5921SOL    HW118662   2.922   4.019   6.607
 5921SOL    HW218663   2.780   3.966   6.546
 5922SOL     OW18664   5.001   3.200   2.366
 5922SOL    HW118665   4.938   3.162   2.433
 5922SOL    HW218666   5.085   3.146   2.365
 5923SOL     OW18667   6.277   0.580   3.578
 5923SOL    HW118668   6.240   0.628   3.658
 5923SOL    HW218669   6.214   0.589   3.501
 5924SOL     OW18670   5.275   6.776   3.359
 5924SOL    HW118671   5.200   6.787   3.424
 5924SOL    HW218672   5.355   6.737   3.406
 5925SOL     OW18673   4.556   0.662   1.195
 5925SOL    HW118674   4.463   0.682   1.226
 5925SOL    HW218675   4.580   0.568   1.219
 5926SOL     OW18676   4.860   4.424   3.752
 5926SOL    HW118677   4.882   4.389   3.843
 5926SOL    HW218678   4.762   4.414   3.735
 5927SOL     OW18679   0.320   4.619   1.791
 5927SOL    HW118680   0.373   4.590   1.871
 5927SOL    HW218681   0.322   4.719   1.785
 5928SOL     OW18682   2.643   0.483   0.198
 5928SOL    HW118683   2.693   0.569   0.203
 5928SOL    HW218684   2.545   0.501   0.191
 5929SOL     OW18685   1.731   0.865   0.156
 5929SOL    HW118686   1.828   0.842   0.150
 5929SOL    HW218687   1.696   0.887   0.065
 5930SOL     OW18688   1.786   3.513   2.224
 5930SOL    HW118689   1.719   3.523   2.152
 5930SOL    HW218690   1.861   3.578   2.210
 5931SOL     OW18691   5.376   6.694   2.877
 5931SOL    HW118692   5.301   6.757   2.856
 5931SOL    HW218693   5.407   6.650   2.793
 5932SOL     OW18694   3.082   1.134   6.171
 5932SOL    HW118695   3.136   1.210   6.136
 5932SOL    HW218696   2.997   1.127   6.119
 5933SOL     OW18697   5.961   6.696   4.630
 5933SOL    HW118698   6.044   6.641   4.623
 5933SOL    HW218699   5.915   6.699   4.541
 5934SOL     OW18700   3.508   3.415   6.846
 5934SOL    HW118701   3.453   3.335   6.870
 5934SOL    HW218702   3.521   3.471   6.928
 5935SOL     OW18703   1.396   6.290   5.851
 5935SOL    HW118704   1.378   6.272   5.754
 5935SOL    HW218705   1.344   6.226   5.907
 5936SOL     OW18706   3.230   3.205   1.959
 5936SOL    HW118707   3.228   3.281   1.893
 5936SOL    HW218708   3.139   3.164   1.963
 5937SOL     OW18709   0.263   3.312   1.219
 5937SOL    HW118710   0.249   3.360   1.306
 5937SOL    HW218711   0.222   3.365   1.145
 5938SOL     OW18712   0.564   4.466   4.116
 5938SOL    HW118713   0.484   4.435   4.065
 5938SOL    HW218714   0.605   4.389   4.165
 5939SOL     OW18715   3.917   1.494   5.081
 5939SOL    HW118716   3.912   1.538   4.991
 5939SOL    HW218717   3.826   1.462   5.107
 5940SOL     OW18718   4.946   5.458   1.911
 5940SOL    HW118719   4.920   5.554   1.921
 5940SOL    HW218720   4.870   5.399   1.939
 5941SOL     OW18721   0.066   2.337   2.827
 5941SOL    HW118722   0.163   2.362   2.828
 5941SOL    HW218723   0.043   2.292   2.913
 5942SOL     OW18724   5.423   3.015   5.942
 5942SOL    HW118725   5.406   3.113   5.931
 5942SOL    HW218726   5.426   2.972   5.852
 5943SOL     OW18727   3.046   4.266   1.723
 5943SOL    HW118728   2.993   4.351   1.733
 5943SOL    HW218729   2.989   4.197   1.678
 5944SOL     OW18730   6.726   3.830   6.456
 5944SOL    HW118731   6.744   3.782   6.542
 5944SOL    HW218732   6.766   3.921   6.459
 5945SOL     OW18733   6.596   5.977   4.656
 5945SOL    HW118734   6.545   5.901   4.616
 5945SOL    HW218735   6.690   5.977   4.620
 5946SOL     OW18736   2.712   3.972   0.693
 5946SOL    HW118737   2.740   4.039   0.625
 5946SOL    HW218738   2.721   3.880   0.654
 5947SOL     OW18739   3.798   3.591   4.720
 5947SOL    HW118740   3.842   3.561   4.805
 5947SOL    HW218741   3.830   3.534   4.644
 5948SOL     OW18742   5.174   3.237   1.648
 5948SOL    HW118743   5.203   3.317   1.595
 5948SOL    HW218744   5.228   3.231   1.732
 5949SOL     OW18745   0.287   4.525   2.524
 5949SOL    HW118746   0.302   4.457   2.596
 5949SOL    HW218747   0.316   4.488   2.436
 5950SOL     OW18748   3.891   0.218   4.999
 5950SOL    HW118749   3.893   0.175   4.909
 5950SOL    HW218750   3.955   0.170   5.060
 5951SOL     OW18751   0.580   3.806   6.584
 5951SOL    HW118752   0.638   3.764   6.515
 5951SOL    HW218753   0.628   3.809   6.671
 5952SOL     OW18754   4.220   4.731   0.808
 5952SOL    HW118755   4.282   4.797   0.850
 5952SOL    HW218756   4.272   4.668   0.751
 5953SOL     OW18757   6.345   3.031   5.302
 5953SOL    HW118758   6.255   3.039   5.259
 5953SOL    HW218759   6.402   2.970   5.247
 5954SOL     OW18760   1.591   6.028   4.180
 5954SOL    HW118761   1.509   5.989   4.140
 5954SOL    HW218762   1.625   6.102   4.121
 5955SOL     OW18763   5.485   3.414   0.607
 5955SOL    HW118764   5.410   3.348   0.598
 5955SOL    HW218765   5.544   3.387   0.683
 5956SOL     OW18766   5.277   2.923   5.247
 5956SOL    HW118767   5.373   2.942   5.269
 5956SOL    HW218768   5.265   2.824   5.235
 5957SOL     OW18769   7.015   1.986   3.172
 5957SOL    HW118770   6.916   1.972   3.164
 5957SOL    HW218771   0.030   1.932   3.249
 5958SOL     OW18772   3.078   0.047   2.451
 5958SOL    HW118773   3.102   0.081   2.360
 5958SOL    HW218774   3.150   0.073   2.516
 5959SOL     OW18775   4.894   2.630   4.122
 5959SOL    HW118776   4.929   2.616   4.215
 5959SOL    HW218777   4.825   2.702   4.123
 5960SOL     OW18778   4.273   0.098   6.388
 5960SOL    HW118779   4.332   0.178   6.387
 5960SOL    HW218780   4.208   0.106   6.463
 5961SOL     OW18781   2.822   2.291   3.350
 5961SOL    HW118782   2.844   2.225   3.422
 5961SOL    HW218783   2.745   2.347   3.379
 5962SOL     OW18784   5.114   5.852   0.931
 5962SOL    HW118785   5.083   5.906   1.010
 5962SOL    HW218786   5.209   5.874   0.911
 5963SOL     OW18787   2.967   4.109   6.999
 5963SOL    HW118788   2.890   4.105   6.936
 5963SOL    HW218789   2.973   4.202   0.018
 5964SOL     OW18790   2.681   6.800   2.201
 5964SOL    HW118791   2.682   6.882   2.144
 5964SOL    HW218792   2.704   6.720   2.146
 5965SOL     OW18793   1.952   0.547   0.131
 5965SOL    HW118794   1.931   0.587   0.042
 5965SOL    HW218795   1.894   0.467   0.147
 5966SOL     OW18796   2.715   1.205   4.614
 5966SOL    HW118797   2.739   1.124   4.560
 5966SOL    HW218798   2.679   1.176   4.703
 5967SOL     OW18799   3.371   1.866   4.459
 5967SOL    HW118800   3.444   1.847   4.524
 5967SOL    HW218801   3.376   1.801   4.383
 5968SOL     OW18802   5.733   2.735   1.619
 5968SOL    HW118803   5.664   2.696   1.557
 5968SOL    HW218804   5.824   2.709   1.587
 5969SOL     OW18805   5.652   0.585   0.425
 5969SOL    HW118806   5.556   0.569   0.401
 5969SOL    HW218807   5.660   0.670   0.477
 5970SOL     OW18808   0.136   3.234   0.810
 5970SOL    HW118809   0.137   3.135   0.794
 5970SOL    HW218810   0.091   3.279   0.733
 5971SOL     OW18811   6.786   6.544   3.917
 5971SOL    HW118812   6.863   6.524   3.856
 5971SOL    HW218813   6.816   6.540   4.012
 5972SOL     OW18814   5.149   4.685   1.006
 5972SOL    HW118815   5.079   4.702   1.076
 5972SOL    HW218816   5.122   4.607   0.949
 5973SOL     OW18817   2.932   1.927   2.516
 5973SOL    HW118818   2.890   1.848   2.561
 5973SOL    HW218819   2.952   1.998   2.584
 5974SOL     OW18820   5.267   1.880   5.650
 5974SOL    HW118821   5.286   1.891   5.552
 5974SOL    HW218822   5.276   1.784   5.674
 5975SOL     OW18823   4.723   4.962   0.640
 5975SOL    HW118824   4.822   4.968   0.625
 5975SOL    HW218825   4.697   5.025   0.713
 5976SOL     OW18826   2.157   2.903   5.840
 5976SOL    HW118827   2.211   2.963   5.900
 5976SOL    HW218828   2.076   2.952   5.808
 5977SOL     OW18829   6.328   4.286   0.685
 5977SOL    HW118830   6.382   4.264   0.766
 5977SOL    HW218831   6.372   4.363   0.637
 5978SOL     OW18832   2.490   3.732   0.276
 5978SOL    HW118833   2.561   3.794   0.241
 5978SOL    HW218834   2.500   3.642   0.233
 5979SOL     OW18835   5.732   0.738   1.748
 5979SOL    HW118836   5.799   0.688   1.802
 5979SOL    HW218837   5.778   0.811   1.697
 5980SOL     OW18838   2.740   2.691   1.452
 5980SOL    HW118839   2.708   2.620   1.516
 5980SOL    HW218840   2.840   2.691   1.449
 5981SOL     OW18841   2.880   2.459   0.737
 5981SOL    HW118842   2.965   2.411   0.714
 5981SOL    HW218843   2.824   2.468   0.656
 5982SOL     OW18844   5.516   3.194   0.321
 5982SOL    HW118845   5.558   3.156   0.238
 5982SOL    HW218846   5.447   3.261   0.295
 5983SOL     OW18847   0.076   0.664   3.405
 5983SOL    HW118848   0.113   0.750   3.370
 5983SOL    HW218849   6.999   0.675   3.425
 5984SOL     OW18850   5.992   6.935   4.206
 5984SOL    HW118851   6.037   6.952   4.294
 5984SOL    HW218852   6.025   6.848   4.168
 5985SOL     OW18853   6.164   3.134   2.525
 5985SOL    HW118854   6.172   3.185   2.611
 5985SOL    HW218855   6.248   3.144   2.473
 5986SOL     OW18856   4.182   3.545   4.729
 5986SOL    HW118857   4.281   3.535   4.735
 5986SOL    HW218858   4.160   3.618   4.664
 5987SOL     OW18859   0.113   6.866   5.333
 5987SOL    HW118860   0.072   6.783   5.369
 5987SOL    HW218861   0.061   6.898   5.254
 5988SOL     OW18862   1.178   2.488   6.389
 5988SOL    HW118863   1.156   2.585   6.381
 5988SOL    HW218864   1.186   2.464   6.485
 5989SOL     OW18865   0.737   5.916   5.683
 5989SOL    HW118866   0.806   5.976   5.723
 5989SOL    HW218867   0.699   5.959   5.601
 5990SOL     OW18868   3.289   4.827   1.841
 5990SOL    HW118869   3.363   4.855   1.779
 5990SOL    HW218870   3.317   4.842   1.936
 5991SOL     OW18871   4.657   0.340   0.913
 5991SOL    HW118872   4.594   0.339   0.835
 5991SOL    HW218873   4.751   0.329   0.879
 5992SOL     OW18874   3.932   6.363   1.937
 5992SOL    HW118875   4.025   6.336   1.960
 5992SOL    HW218876   3.932   6.457   1.902
 5993SOL     OW18877   5.754   2.228   0.361
 5993SOL    HW118878   5.700   2.311   0.349
 5993SOL    HW218879   5.785   2.194   0.272
 5994SOL     OW18880   0.341   3.345   0.469
 5994SOL    HW118881   0.264   3.407   0.485
 5994SOL    HW218882   0.405   3.388   0.405
 5995SOL     OW18883   4.975   3.916   1.591
 5995SOL    HW118884   4.921   3.998   1.613
 5995SOL    HW218885   4.928   3.864   1.520
 5996SOL     OW18886   2.741   5.448   1.178
 5996SOL    HW118887   2.738   5.350   1.156
 5996SOL    HW218888   2.828   5.468   1.224
 5997SOL     OW18889   6.277   0.469   4.187
 5997SOL    HW118890   6.212   0.399   4.158
 5997SOL    HW218891   6.244   0.559   4.157
 5998SOL     OW18892   5.860   6.144   0.893
 5998SOL    HW118893   5.893   6.192   0.812
 5998SOL    HW218894   5.908   6.057   0.902
 5999SOL     OW18895   5.247   2.396   1.372
 5999SOL    HW118896   5.199   2.459   1.433
 5999SOL    HW218897   5.294   2.326   1.426
 6000SOL     OW18898   0.453   3.953   1.113
 6000SOL    HW118899   0.458   3.901   1.028
 6000SOL    HW218900   0.536   3.937   1.167
 6001SOL     OW18901   6.674   5.589   5.812
 6001SOL    HW118902   6.640   5.497   5.834
 6001SOL    HW218903   6.768   5.583   5.778
 6002SOL     OW18904   6.241   4.567   5.201
 6002SOL    HW118905   6.324   4.518   5.229
 6002SOL    HW218906   6.252   4.600   5.107
 6003SOL     OW18907   1.316   2.562   4.860
 6003SOL    HW118908   1.307   2.660   4.880
 6003SOL    HW218909   1.412   2.535   4.871
 6004SOL     OW18910   4.774   2.389   4.455
 6004SOL    HW118911   4.718   2.368   4.536
 6004SOL    HW218912   4.723   2.365   4.373
 6005SOL     OW18913   3.972   4.619   6.606
 6005SOL    HW118914   3.958   4.578   6.515
 6005SOL    HW218915   4.058   4.671   6.605
 6006SOL     OW18916   3.173   6.069   6.119
 6006SOL    HW118917   3.220   5.981   6.109
 6006SOL    HW218918   3.074   6.054   6.116
 6007SOL     OW18919   2.702   5.870   6.583
 6007SOL    HW118920   2.693   5.771   6.576
 6007SOL    HW218921   2.745   5.906   6.500
 6008SOL     OW18922   3.333   4.045   6.198
 6008SOL    HW118923   3.384   3.959   6.196
 6008SOL    HW218924   3.257   4.040   6.133
 6009SOL     OW18925   3.687   5.417   3.065
 6009SOL    HW118926   3.601   5.429   3.115
 6009SOL    HW218927   3.746   5.355   3.116
 6010SOL     OW18928   0.542   5.326   4.826
 6010SOL    HW118929   0.594   5.297   4.906
 6010SOL    HW218930   0.543   5.425   4.819
 6011SOL     OW18931   6.512   2.010   1.497
 6011SOL    HW118932   6.500   1.955   1.414
 6011SOL    HW218933   6.456   1.972   1.570
 6012SOL     OW18934   0.151   0.226   6.406
 6012SOL    HW118935   0.106   0.299   6.458
 6012SOL    HW218936   0.085   0.153   6.388
 6013SOL     OW18937   5.990   1.421   2.131
 6013SOL    HW118938   5.978   1.473   2.215
 6013SOL    HW218939   6.072   1.452   2.082
 6014SOL     OW18940   3.781   3.504   3.879
 6014SOL    HW118941   3.693   3.549   3.891
 6014SOL    HW218942   3.855   3.570   3.895
 6015SOL     OW18943   5.899   1.200   4.037
 6015SOL    HW118944   5.879   1.103   4.056
 6015SOL    HW218945   5.816   1.254   4.049
 6016SOL     OW18946   4.596   1.180   4.431
 6016SOL    HW118947   4.580   1.164   4.528
 6016SOL    HW218948   4.571   1.273   4.407
 6017SOL     OW18949   0.186   1.980   5.482
 6017SOL    HW118950   0.246   1.965   5.403
 6017SOL    HW218951   0.099   2.019   5.452
 6018SOL     OW18952   2.292   1.079   4.697
 6018SOL    HW118953   2.330   1.008   4.637
 6018SOL    HW218954   2.193   1.069   4.700
 6019SOL     OW18955   6.394   3.933   7.010
 6019SOL    HW118956   6.371   3.890   6.923
 6019SOL    HW218957   6.429   4.026   6.994
 6020SOL     OW18958   0.720   4.964   6.302
 6020SOL    HW118959   0.757   5.036   6.243
 6020SOL    HW218960   0.794   4.903   6.330
 6021SOL     OW18961   5.795   6.699   3.783
 6021SOL    HW118962   5.819   6.642   3.862
 6021SOL    HW218963   5.851   6.782   3.784
 6022SOL     OW18964   6.490   1.819   1.277
 6022SOL    HW118965   6.465   1.727   1.305
 6022SOL    HW218966   6.493   1.824   1.177
 6023SOL     OW18967   3.709   0.574   2.028
 6023SOL    HW118968   3.656   0.555   1.945
 6023SOL    HW218969   3.764   0.656   2.015
 6024SOL     OW18970   1.183   6.307   0.674
 6024SOL    HW118971   1.186   6.241   0.599
 6024SOL    HW218972   1.247   6.382   0.655
 6025SOL     OW18973   3.154   0.636   4.445
 6025SOL    HW118974   3.114   0.555   4.489
 6025SOL    HW218975   3.182   0.612   4.352
 6026SOL     OW18976   5.995   5.228   4.804
 6026SOL    HW118977   6.084   5.275   4.807
 6026SOL    HW218978   5.953   5.229   4.894
 6027SOL     OW18979   5.870   4.042   6.631
 6027SOL    HW118980   5.916   4.003   6.711
 6027SOL    HW218981   5.907   4.134   6.614
 6028SOL     OW18982   5.632   5.443   6.444
 6028SOL    HW118983   5.672   5.522   6.398
 6028SOL    HW218984   5.605   5.468   6.537
 6029SOL     OW18985   2.407   1.016   2.742
 6029SOL    HW118986   2.468   0.942   2.770
 6029SOL    HW218987   2.313   0.983   2.736
 6030SOL     OW18988   5.900   3.776   4.424
 6030SOL    HW118989   5.854   3.845   4.480
 6030SOL    HW218990   5.832   3.721   4.375
 6031SOL     OW18991   0.377   5.889   5.251
 6031SOL    HW118992   0.409   5.827   5.323
 6031SOL    HW218993   0.450   5.954   5.229
 6032SOL     OW18994   3.554   5.880   3.357
 6032SOL    HW118995   3.517   5.969   3.380
 6032SOL    HW218996   3.529   5.814   3.429
 6033SOL     OW18997   1.504   1.666   2.456
 6033SOL    HW118998   1.492   1.676   2.555
 6033SOL    HW218999   1.414   1.659   2.413
 6034SOL     OW19000   0.945   0.175   0.180
 6034SOL    HW119001   0.858   0.201   0.222
 6034SOL    HW219002   1.013   0.246   0.198
 6035SOL     OW19003   2.219   0.278   2.724
 6035SOL    HW119004   2.150   0.286   2.651
 6035SOL    HW219005   2.300   0.232   2.688
 6036SOL     OW19006   6.934   2.802   1.051
 6036SOL    HW119007   6.875   2.731   1.090
 6036SOL    HW219008   6.883   2.888   1.048
 6037SOL     OW19009   5.161   2.207   6.980
 6037SOL    HW119010   5.075   2.255   6.997
 6037SOL    HW219011   5.142   2.122   6.930
 6038SOL     OW19012   0.559   2.082   5.815
 6038SOL    HW119013   0.546   2.181   5.813
 6038SOL    HW219014   0.656   2.061   5.831
 6039SOL     OW19015   3.802   2.919   3.540
 6039SOL    HW119016   3.815   2.956   3.448
 6039SOL    HW219017   3.705   2.905   3.557
 6040SOL     OW19018   0.559   1.352   0.251
 6040SOL    HW119019   0.618   1.386   0.325
 6040SOL    HW219020   0.603   1.273   0.208
 6041SOL     OW19021   2.490   3.074   5.655
 6041SOL    HW119022   2.452   2.985   5.680
 6041SOL    HW219023   2.587   3.064   5.633
 6042SOL     OW19024   3.464   6.010   3.724
 6042SOL    HW119025   3.533   5.939   3.722
 6042SOL    HW219026   3.428   6.025   3.632
 6043SOL     OW19027   2.752   0.574   3.635
 6043SOL    HW119028   2.694   0.607   3.562
 6043SOL    HW219029   2.713   0.599   3.724
 6044SOL     OW19030   1.036   3.401   1.658
 6044SOL    HW119031   0.946   3.410   1.699
 6044SOL    HW219032   1.106   3.433   1.723
 6045SOL     OW19033   4.693   1.758   3.369
 6045SOL    HW119034   4.779   1.713   3.344
 6045SOL    HW219035   4.632   1.760   3.290
 6046SOL     OW19036   3.933   2.960   2.308
 6046SOL    HW119037   3.843   2.916   2.319
 6046SOL    HW219038   3.958   2.961   2.212
 6047SOL     OW19039   6.289   2.007   0.832
 6047SOL    HW119040   6.363   2.042   0.890
 6047SOL    HW219041   6.289   2.058   0.745
 6048SOL     OW19042   5.514   5.936   4.664
 6048SOL    HW119043   5.471   6.005   4.606
 6048SOL    HW219044   5.611   5.959   4.677
 6049SOL     OW19045   4.737   4.881   5.626
 6049SOL    HW119046   4.662   4.947   5.627
 6049SOL    HW219047   4.701   4.789   5.644
 6050SOL     OW19048   3.529   6.160   1.913
 6050SOL    HW119049   3.500   6.075   1.867
 6050SOL    HW219050   3.594   6.208   1.854
 6051SOL     OW19051   0.431   1.264   3.296
 6051SOL    HW119052   0.492   1.340   3.319
 6051SOL    HW219053   0.437   1.245   3.198
 6052SOL     OW19054   5.068   6.504   0.360
 6052SOL    HW119055   5.063   6.443   0.440
 6052SOL    HW219056   4.983   6.556   0.353
 6053SOL     OW19057   4.157   2.759   6.016
 6053SOL    HW119058   4.169   2.723   5.924
 6053SOL    HW219059   4.236   2.815   6.041
 6054SOL     OW19060   3.759   4.194   0.866
 6054SOL    HW119061   3.849   4.226   0.897
 6054SOL    HW219062   3.732   4.245   0.784
 6055SOL     OW19063   3.380   4.066   0.629
 6055SOL    HW119064   3.410   4.028   0.541
 6055SOL    HW219065   3.453   4.120   0.669
 6056SOL     OW19066   5.311   5.884   4.411
 6056SOL    HW119067   5.250   5.805   4.404
 6056SOL    HW219068   5.353   5.886   4.502
 6057SOL     OW19069   4.465   6.936   4.200
 6057SOL    HW119070   4.397   7.009   4.186
 6057SOL    HW219071   4.552   6.963   4.158
 6058SOL     OW19072   5.648   2.316   5.591
 6058SOL    HW119073   5.554   2.348   5.576
 6058SOL    HW219074   5.654   2.271   5.680
 6059SOL     OW19075   4.594   2.627   6.874
 6059SOL    HW119076   4.634   2.539   6.848
 6059SOL    HW219077   4.572   2.679   6.791
 6060SOL     OW19078   2.159   3.077   0.408
 6060SOL    HW119079   2.132   3.168   0.437
 6060SOL    HW219080   2.163   3.073   0.308
 6061SOL     OW19081   3.432   5.051   0.226
 6061SOL    HW119082   3.419   4.977   0.292
 6061SOL    HW219083   3.515   5.033   0.173
 6062SOL     OW19084   1.918   2.478   6.865
 6062SOL    HW119085   1.945   2.445   6.956
 6062SOL    HW219086   1.946   2.573   6.855
 6063SOL     OW19087   4.933   4.131   6.219
 6063SOL    HW119088   4.868   4.072   6.171
 6063SOL    HW219089   4.919   4.122   6.318
 6064SOL     OW19090   6.957   5.381   1.233
 6064SOL    HW119091   6.948   5.454   1.300
 6064SOL    HW219092   6.866   5.344   1.212
 6065SOL     OW19093   1.071   6.951   2.401
 6065SOL    HW119094   1.136   6.953   2.477
 6065SOL    HW219095   1.017   6.867   2.406
 6066SOL     OW19096   5.146   5.519   3.249
 6066SOL    HW119097   5.068   5.529   3.187
 6066SOL    HW219098   5.218   5.582   3.222
 6067SOL     OW19099   5.931   6.460   6.283
 6067SOL    HW119100   5.883   6.374   6.295
 6067SOL    HW219101   6.007   6.448   6.219
 6068SOL     OW19102   4.495   1.999   4.591
 6068SOL    HW119103   4.398   1.976   4.583
 6068SOL    HW219104   4.528   1.968   4.680
 6069SOL     OW19105   0.315   3.990   6.228
 6069SOL    HW119106   0.236   4.035   6.270
 6069SOL    HW219107   0.313   4.005   6.129
 6070SOL     OW19108   2.564   1.445   0.480
 6070SOL    HW119109   2.587   1.507   0.405
 6070SOL    HW219110   2.490   1.384   0.451
 6071SOL     OW19111   5.954   0.753   5.820
 6071SOL    HW119112   6.028   0.688   5.807
 6071SOL    HW219113   5.867   0.712   5.790
 6072SOL     OW19114   6.805   2.609   0.352
 6072SOL    HW119115   6.825   2.674   0.425
 6072SOL    HW219116   6.791   2.518   0.391
 6073SOL     OW19117   4.814   2.395   0.491
 6073SOL    HW119118   4.757   2.368   0.414
 6073SOL    HW219119   4.805   2.327   0.564
 6074SOL     OW19120   0.624   6.572   2.667
 6074SOL    HW119121   0.654   6.492   2.719
 6074SOL    HW219122   0.527   6.587   2.684
 6075SOL     OW19123   5.025   0.362   6.553
 6075SOL    HW119124   4.980   0.283   6.512
 6075SOL    HW219125   5.048   0.341   6.648
 6076SOL     OW19126   1.566   5.558   3.321
 6076SOL    HW119127   1.594   5.465   3.344
 6076SOL    HW219128   1.643   5.620   3.333
 6077SOL     OW19129   5.037   6.836   1.989
 6077SOL    HW119130   4.952   6.854   2.038
 6077SOL    HW219131   5.017   6.794   1.901
 6078SOL     OW19132   4.093   4.070   0.699
 6078SOL    HW119133   4.105   4.111   0.789
 6078SOL    HW219134   4.017   4.115   0.652
 6079SOL     OW19135   3.557   3.606   0.019
 6079SOL    HW119136   3.630   3.657   0.064
 6079SOL    HW219137   3.498   3.563   0.089
 6080SOL     OW19138   6.981   4.908   6.647
 6080SOL    HW119139   6.998   5.004   6.628
 6080SOL    HW219140   6.892   4.899   6.693
 6081SOL     OW19141   1.644   3.697   4.020
 6081SOL    HW119142   1.608   3.684   3.928
 6081SOL    HW219143   1.579   3.662   4.088
 6082SOL     OW19144   4.371   1.018   0.925
 6082SOL    HW119145   4.313   1.034   0.845
 6082SOL    HW219146   4.317   0.972   0.996
 6083SOL     OW19147   4.791   0.301   6.227
 6083SOL    HW119148   4.809   0.392   6.264
 6083SOL    HW219149   4.849   0.234   6.274
 6084SOL     OW19150   0.495   6.243   2.565
 6084SOL    HW119151   0.584   6.248   2.518
 6084SOL    HW219152   0.445   6.163   2.532
 6085SOL     OW19153   0.562   6.947   0.658
 6085SOL    HW119154   0.588   0.021   0.681
 6085SOL    HW219155   0.643   6.888   0.658
 6086SOL     OW19156   3.547   4.091   6.482
 6086SOL    HW119157   3.471   4.148   6.514
 6086SOL    HW219158   3.519   3.995   6.481
 6087SOL     OW19159   4.961   6.596   0.768
 6087SOL    HW119160   4.957   6.683   0.816
 6087SOL    HW219161   4.933   6.522   0.830
 6088SOL     OW19162   5.220   6.007   2.922
 6088SOL    HW119163   5.247   5.939   2.854
 6088SOL    HW219164   5.154   5.967   2.986
 6089SOL     OW19165   6.616   4.061   3.473
 6089SOL    HW119166   6.537   4.120   3.488
 6089SOL    HW219167   6.694   4.115   3.444
 6090SOL     OW19168   3.661   5.891   4.303
 6090SOL    HW119169   3.568   5.900   4.340
 6090SOL    HW219170   3.716   5.969   4.330
 6091SOL     OW19171   1.382   1.385   2.259
 6091SOL    HW119172   1.440   1.447   2.206
 6091SOL    HW219173   1.322   1.439   2.318
 6092SOL     OW19174   3.610   6.397   1.191
 6092SOL    HW119175   3.608   6.437   1.100
 6092SOL    HW219176   3.543   6.322   1.196
 6093SOL     OW19177   2.314   1.961   2.085
 6093SOL    HW119178   2.393   2.012   2.052
 6093SOL    HW219179   2.265   2.015   2.153
 6094SOL     OW19180   0.317   6.088   4.943
 6094SOL    HW119181   0.249   6.021   4.975
 6094SOL    HW219182   0.345   6.064   4.850
 6095SOL     OW19183   4.807   5.056   1.821
 6095SOL    HW119184   4.783   4.974   1.874
 6095SOL    HW219185   4.753   5.057   1.737
 6096SOL     OW19186   5.610   6.166   3.005
 6096SOL    HW119187   5.647   6.210   2.923
 6096SOL    HW219188   5.515   6.196   3.019
 6097SOL     OW19189   1.997   5.355   1.712
 6097SOL    HW119190   2.089   5.372   1.675
 6097SOL    HW219191   1.953   5.281   1.660
 6098SOL     OW19192   6.516   1.165   4.676
 6098SOL    HW119193   6.417   1.176   4.689
 6098SOL    HW219194   6.564   1.190   4.760
 6099SOL     OW19195   3.867   0.708   6.229
 6099SOL    HW119196   3.875   0.807   6.214
 6099SOL    HW219197   3.895   0.660   6.146
 6100SOL     OW19198   0.381   6.180   5.322
 6100SOL    HW119199   0.390   6.229   5.236
 6100SOL    HW219200   0.365   6.245   5.396
 6101SOL     OW19201   6.915   3.096   1.587
 6101SOL    HW119202   6.952   3.124   1.498
 6101SOL    HW219203   6.935   2.999   1.602
 6102SOL     OW19204   4.417   6.519   2.974
 6102SOL    HW119205   4.437   6.520   3.072
 6102SOL    HW219206   4.340   6.580   2.955
 6103SOL     OW19207   6.832   1.840   1.935
 6103SOL    HW119208   6.816   1.935   1.963
 6103SOL    HW219209   6.744   1.798   1.910
 6104SOL     OW19210   6.848   0.439   4.147
 6104SOL    HW119211   6.852   0.525   4.197
 6104SOL    HW219212   6.938   0.420   4.108
 6105SOL     OW19213   3.009   4.668   5.370
 6105SOL    HW119214   2.958   4.614   5.303
 6105SOL    HW219215   3.096   4.623   5.389
 6106SOL     OW19216   6.061   5.229   6.190
 6106SOL    HW119217   6.077   5.130   6.188
 6106SOL    HW219218   5.980   5.248   6.245
 6107SOL     OW19219   5.501   5.129   5.483
 6107SOL    HW119220   5.433   5.169   5.421
 6107SOL    HW219221   5.580   5.190   5.488
 6108SOL     OW19222   2.073   1.423   0.881
 6108SOL    HW119223   2.051   1.424   0.978
 6108SOL    HW219224   2.039   1.507   0.838
 6109SOL     OW19225   6.537   6.955   3.471
 6109SOL    HW119226   6.582   6.985   3.556
 6109SOL    HW219227   6.596   6.976   3.393
 6110SOL     OW19228   1.501   1.566   4.405
 6110SOL    HW119229   1.567   1.633   4.372
 6110SOL    HW219230   1.425   1.560   4.340
 6111SOL     OW19231   2.142   4.613   0.482
 6111SOL    HW119232   2.184   4.564   0.558
 6111SOL    HW219233   2.067   4.560   0.444
 6112SOL     OW19234   5.221   0.280   2.746
 6112SOL    HW119235   5.299   0.242   2.696
 6112SOL    HW219236   5.180   0.209   2.802
 6113SOL     OW19237   2.415   5.462   0.156
 6113SOL    HW119238   2.366   5.487   0.240
 6113SOL    HW219239   2.502   5.511   0.152
 6114SOL     OW19240   4.599   1.715   0.715
 6114SOL    HW119241   4.544   1.667   0.646
 6114SOL    HW219242   4.642   1.795   0.674
 6115SOL     OW19243   0.906   0.472   5.704
 6115SOL    HW119244   0.854   0.556   5.691
 6115SOL    HW219245   0.976   0.486   5.773
 6116SOL     OW19246   5.003   1.998   5.732
 6116SOL    HW119247   5.025   2.068   5.799
 6116SOL    HW219248   5.084   1.941   5.715
 6117SOL     OW19249   1.946   2.258   1.194
 6117SOL    HW119250   1.863   2.215   1.157
 6117SOL    HW219251   1.932   2.357   1.201
 6118SOL     OW19252   6.362   0.640   1.056
 6118SOL    HW119253   6.357   0.727   1.009
 6118SOL    HW219254   6.414   0.574   1.001
 6119SOL     OW19255   6.928   2.174   0.845
 6119SOL    HW119256   6.919   2.103   0.775
 6119SOL    HW219257   6.957   2.132   0.931
 6120SOL     OW19258   2.408   0.737   5.007
 6120SOL    HW119259   2.359   0.816   5.043
 6120SOL    HW219260   2.423   0.671   5.080
 6121SOL     OW19261   0.897   3.000   4.315
 6121SOL    HW119262   0.958   2.929   4.352
 6121SOL    HW219263   0.948   3.085   4.305
 6122SOL     OW19264   4.985   5.262   5.924
 6122SOL    HW119265   5.072   5.311   5.918
 6122SOL    HW219266   4.995   5.181   5.982
 6123SOL     OW19267   5.301   1.557   5.032
 6123SOL    HW119268   5.241   1.580   4.956
 6123SOL    HW219269   5.394   1.541   4.998
 6124SOL     OW19270   2.546   6.445   3.961
 6124SOL    HW119271   2.596   6.513   3.907
 6124SOL    HW219272   2.453   6.438   3.926
 6125SOL     OW19273   2.257   2.319   6.718
 6125SOL    HW119274   2.187   2.280   6.659
 6125SOL    HW219275   2.263   2.265   6.802
 6126SOL     OW19276   6.363   2.788   5.458
 6126SOL    HW119277   6.319   2.878   5.450
 6126SOL    HW219278   6.440   2.794   5.521
 6127SOL     OW19279   3.968   2.332   1.725
 6127SOL    HW119280   3.897   2.327   1.795
 6127SOL    HW219281   4.056   2.308   1.767
 6128SOL     OW19282   5.871   5.693   0.439
 6128SOL    HW119283   5.887   5.782   0.482
 6128SOL    HW219284   5.924   5.623   0.486
 6129SOL     OW19285   1.507   5.885   2.394
 6129SOL    HW119286   1.484   5.951   2.465
 6129SOL    HW219287   1.605   5.888   2.376
 6130SOL     OW19288   5.941   2.650   0.319
 6130SOL    HW119289   5.859   2.665   0.374
 6130SOL    HW219290   5.927   2.571   0.259
 6131SOL     OW19291   6.571   1.551   2.471
 6131SOL    HW119292   6.525   1.465   2.450
 6131SOL    HW219293   6.606   1.547   2.565
 6132SOL     OW19294   3.733   1.348   6.623
 6132SOL    HW119295   3.659   1.407   6.655
 6132SOL    HW219296   3.730   1.341   6.523
 6133SOL     OW19297   1.854   1.652   3.942
 6133SOL    HW119298   1.854   1.552   3.939
 6133SOL    HW219299   1.835   1.688   3.851
 6134SOL     OW19300   5.852   6.623   6.821
 6134SOL    HW119301   5.801   6.607   6.905
 6134SOL    HW219302   5.937   6.571   6.822
 6135SOL     OW19303   6.265   7.003   0.019
 6135SOL    HW119304   6.306   6.933   6.980
 6135SOL    HW219305   6.190   0.027   6.990
 6136SOL     OW19306   1.883   3.234   2.750
 6136SOL    HW119307   1.850   3.310   2.806
 6136SOL    HW219308   1.827   3.228   2.667
 6137SOL     OW19309   6.877   4.076   2.152
 6137SOL    HW119310   6.971   4.044   2.161
 6137SOL    HW219311   6.866   4.124   2.064
 6138SOL     OW19312   4.138   0.215   2.007
 6138SOL    HW119313   4.237   0.200   1.997
 6138SOL    HW219314   4.103   0.158   2.082
 6139SOL     OW19315   1.505   0.407   5.590
 6139SOL    HW119316   1.495   0.347   5.670
 6139SOL    HW219317   1.575   0.369   5.529
 6140SOL     OW19318   1.193   0.432   3.414
 6140SOL    HW119319   1.226   0.482   3.334
 6140SOL    HW219320   1.147   0.349   3.384
 6141SOL     OW19321   0.340   1.124   5.864
 6141SOL    HW119322   0.421   1.090   5.816
 6141SOL    HW219323   0.366   1.196   5.927
 6142SOL     OW19324   0.119   0.514   1.261
 6142SOL    HW119325   0.028   0.554   1.266
 6142SOL    HW219326   0.112   0.414   1.261
 6143SOL     OW19327   0.258   3.820   5.446
 6143SOL    HW119328   0.229   3.856   5.357
 6143SOL    HW219329   0.346   3.860   5.471
 6144SOL     OW19330   3.863   5.216   3.188
 6144SOL    HW119331   3.901   5.247   3.276
 6144SOL    HW219332   3.798   5.141   3.205
 6145SOL     OW19333   5.076   2.904   4.038
 6145SOL    HW119334   5.165   2.947   4.052
 6145SOL    HW219335   5.082   2.840   3.961
 6146SOL     OW19336   5.358   6.802   5.199
 6146SOL    HW119337   5.441   6.749   5.179
 6146SOL    HW219338   5.384   6.898   5.217
 6147SOL     OW19339   1.626   2.230   3.640
 6147SOL    HW119340   1.715   2.253   3.601
 6147SOL    HW219341   1.601   2.299   3.708
 6148SOL     OW19342   3.192   5.850   0.199
 6148SOL    HW119343   3.221   5.887   0.110
 6148SOL    HW219344   3.092   5.846   0.202
 6149SOL     OW19345   2.961   0.195   1.610
 6149SOL    HW119346   2.956   0.252   1.528
 6149SOL    HW219347   3.053   0.201   1.649
 6150SOL     OW19348   6.752   4.219   5.612
 6150SOL    HW119349   6.844   4.243   5.583
 6150SOL    HW219350   6.737   4.121   5.596
 6151SOL     OW19351   4.391   4.671   4.017
 6151SOL    HW119352   4.437   4.703   4.099
 6151SOL    HW219353   4.304   4.719   4.007
 6152SOL     OW19354   0.980   5.180   4.470
 6152SOL    HW119355   1.067   5.133   4.485
 6152SOL    HW219356   0.993   5.278   4.480
 6153SOL     OW19357   4.971   5.234   0.991
 6153SOL    HW119358   4.987   5.139   1.018
 6153SOL    HW219359   5.058   5.282   0.984
 6154SOL     OW19360   5.776   2.868   1.919
 6154SOL    HW119361   5.777   2.950   1.863
 6154SOL    HW219362   5.730   2.887   2.006
 6155SOL     OW19363   2.025   1.640   3.072
 6155SOL    HW119364   2.107   1.686   3.104
 6155SOL    HW219365   1.944   1.690   3.102
 6156SOL     OW19366   5.183   4.856   1.536
 6156SOL    HW119367   5.122   4.783   1.568
 6156SOL    HW219368   5.258   4.868   1.600
 6157SOL     OW19369   1.247   2.532   2.159
 6157SOL    HW119370   1.161   2.582   2.164
 6157SOL    HW219371   1.236   2.451   2.102
 6158SOL     OW19372   3.072   2.599   5.347
 6158SOL    HW119373   3.130   2.678   5.367
 6158SOL    HW219374   3.125   2.531   5.296
 6159SOL     OW19375   6.032   2.873   0.479
 6159SOL    HW119376   5.989   2.796   0.432
 6159SOL    HW219377   6.105   2.910   0.422
 6160SOL     OW19378   1.041   0.454   0.389
 6160SOL    HW119379   1.089   0.438   0.303
 6160SOL    HW219380   1.107   0.478   0.460
 6161SOL     OW19381   4.401   3.260   6.581
 6161SOL    HW119382   4.466   3.184   6.579
 6161SOL    HW219383   4.346   3.259   6.498
 6162SOL     OW19384   5.832   5.095   3.043
 6162SOL    HW119385   5.785   5.025   3.097
 6162SOL    HW219386   5.779   5.180   3.046
 6163SOL     OW19387   5.287   5.951   3.527
 6163SOL    HW119388   5.300   6.046   3.500
 6163SOL    HW219389   5.297   5.943   3.626
 6164SOL     OW19390   3.345   4.143   4.447
 6164SOL    HW119391   3.379   4.153   4.541
 6164SOL    HW219392   3.251   4.107   4.450
 6165SOL     OW19393   3.821   1.537   0.617
 6165SOL    HW119394   3.754   1.600   0.578
 6165SOL    HW219395   3.888   1.511   0.546
 6166SOL     OW19396   1.836   2.452   6.619
 6166SOL    HW119397   1.891   2.392   6.561
 6166SOL    HW219398   1.874   2.455   6.711
 6167SOL     OW19399   1.319   4.119   3.430
 6167SOL    HW119400   1.280   4.027   3.442
 6167SOL    HW219401   1.286   4.158   3.344
 6168SOL     OW19402   0.478   3.842   3.967
 6168SOL    HW119403   0.380   3.856   3.975
 6168SOL    HW219404   0.511   3.887   3.883
 6169SOL     OW19405   2.421   6.632   0.186
 6169SOL    HW119406   2.491   6.693   0.148
 6169SOL    HW219407   2.391   6.668   0.275
 6170SOL     OW19408   3.450   4.353   0.108
 6170SOL    HW119409   3.451   4.297   0.025
 6170SOL    HW219410   3.414   4.444   0.087
 6171SOL     OW19411   2.354   4.315   2.376
 6171SOL    HW119412   2.413   4.234   2.383
 6171SOL    HW219413   2.260   4.291   2.400
 6172SOL     OW19414   1.443   6.058   2.812
 6172SOL    HW119415   1.467   5.961   2.804
 6172SOL    HW219416   1.471   6.106   2.730
 6173SOL     OW19417   1.776   5.983   2.559
 6173SOL    HW119418   1.747   5.901   2.609
 6173SOL    HW219419   1.791   6.058   2.623
 6174SOL     OW19420   5.574   5.058   2.796
 6174SOL    HW119421   5.613   5.150   2.798
 6174SOL    HW219422   5.478   5.061   2.823
 6175SOL     OW19423   5.141   0.343   3.392
 6175SOL    HW119424   5.070   0.274   3.405
 6175SOL    HW219425   5.151   0.363   3.294
 6176SOL     OW19426   6.919   3.588   5.670
 6176SOL    HW119427   6.855   3.520   5.636
 6176SOL    HW219428   6.897   3.611   5.765
 6177SOL     OW19429   6.075   2.570   6.755
 6177SOL    HW119430   6.098   2.540   6.847
 6177SOL    HW219431   6.136   2.645   6.727
 6178SOL     OW19432   6.312   3.111   1.000
 6178SOL    HW119433   6.361   3.141   0.918
 6178SOL    HW219434   6.323   3.179   1.072
 6179SOL     OW19435   0.100   2.514   5.992
 6179SOL    HW119436   0.064   2.590   5.938
 6179SOL    HW219437   0.066   2.521   6.086
 6180SOL     OW19438   4.437   6.943   0.858
 6180SOL    HW119439   4.407   0.017   0.874
 6180SOL    HW219440   4.358   6.885   0.840
 6181SOL     OW19441   4.968   6.487   6.746
 6181SOL    HW119442   5.023   6.529   6.673
 6181SOL    HW219443   5.024   6.420   6.795
 6182SOL     OW19444   4.603   6.406   6.746
 6182SOL    HW119445   4.677   6.340   6.756
 6182SOL    HW219446   4.525   6.361   6.702
 6183SOL     OW19447   3.695   0.531   3.610
 6183SOL    HW119448   3.731   0.559   3.699
 6183SOL    HW219449   3.709   0.433   3.598
 6184SOL     OW19450   0.069   6.975   6.325
 6184SOL    HW119451   0.160   6.950   6.291
 6184SOL    HW219452   0.005   6.979   6.248
 6185SOL     OW19453   0.150   3.774   5.946
 6185SOL    HW119454   0.114   3.752   6.036
 6185SOL    HW219455   0.114   3.862   5.916
 6186SOL     OW19456   5.408   0.300   5.106
 6186SOL    HW119457   5.328   0.308   5.165
 6186SOL    HW219458   5.428   0.389   5.066
 6187SOL     OW19459   4.374   4.701   3.739
 6187SOL    HW119460   4.381   4.659   3.829
 6187SOL    HW219461   4.380   4.801   3.748
 6188SOL     OW19462   2.797   6.511   1.028
 6188SOL    HW119463   2.783   6.415   1.004
 6188SOL    HW219464   2.722   6.542   1.086
 6189SOL     OW19465   5.310   5.061   3.414
 6189SOL    HW119466   5.291   5.159   3.422
 6189SOL    HW219467   5.369   5.032   3.489
 6190SOL     OW19468   5.359   2.700   6.872
 6190SOL    HW119469   5.336   2.740   6.961
 6190SOL    HW219470   5.411   2.766   6.818
 6191SOL     OW19471   6.429   1.747   6.868
 6191SOL    HW119472   6.429   1.828   6.926
 6191SOL    HW219473   6.491   1.678   6.908
 6192SOL     OW19474   2.889   2.740   6.212
 6192SOL    HW119475   2.909   2.828   6.169
 6192SOL    HW219476   2.829   2.755   6.291
 6193SOL     OW19477   5.037   0.932   1.384
 6193SOL    HW119478   5.096   0.935   1.465
 6193SOL    HW219479   4.975   1.010   1.386
 6194SOL     OW19480   2.346   0.821   0.278
 6194SOL    HW119481   2.380   0.728   0.272
 6194SOL    HW219482   2.367   0.870   0.193
 6195SOL     OW19483   3.143   0.915   6.530
 6195SOL    HW119484   3.078   0.972   6.480
 6195SOL    HW219485   3.199   0.863   6.466
 6196SOL     OW19486   0.814   1.354   6.548
 6196SOL    HW119487   0.896   1.411   6.537
 6196SOL    HW219488   0.840   1.265   6.585
 6197SOL     OW19489   2.639   3.478   0.826
 6197SOL    HW119490   2.700   3.523   0.892
 6197SOL    HW219491   2.622   3.384   0.855
 6198SOL     OW19492   3.865   4.849   2.435
 6198SOL    HW119493   3.921   4.818   2.358
 6198SOL    HW219494   3.768   4.841   2.412
 6199SOL     OW19495   1.617   6.627   6.928
 6199SOL    HW119496   1.621   6.530   6.903
 6199SOL    HW219497   1.574   6.637   7.017
 6200SOL     OW19498   4.112   0.751   6.335
 6200SOL    HW119499   4.121   0.652   6.320
 6200SOL    HW219500   4.018   0.779   6.315
 6201SOL     OW19501   2.216   3.934   5.741
 6201SOL    HW119502   2.266   3.867   5.687
 6201SOL    HW219503   2.213   4.021   5.693
 6202SOL     OW19504   3.470   1.782   0.683
 6202SOL    HW119505   3.521   1.746   0.762
 6202SOL    HW219506   3.442   1.876   0.702
 6203SOL     OW19507   4.870   1.449   4.140
 6203SOL    HW119508   4.826   1.486   4.223
 6203SOL    HW219509   4.885   1.351   4.151
 6204SOL     OW19510   1.997   6.274   5.850
 6204SOL    HW119511   1.978   6.191   5.798
 6204SOL    HW219512   2.086   6.267   5.894
 6205SOL     OW19513   5.261   6.058   6.998
 6205SOL    HW119514   5.281   6.047   0.076
 6205SOL    HW219515   5.195   6.132   6.986
 6206SOL     OW19516   5.320   0.127   2.407
 6206SOL    HW119517   5.266   0.089   2.332
 6206SOL    HW219518   5.327   0.226   2.397
 6207SOL     OW19519   1.648   4.051   4.963
 6207SOL    HW119520   1.558   4.016   4.989
 6207SOL    HW219521   1.664   4.034   4.866
 6208SOL     OW19522   6.028   6.847   6.090
 6208SOL    HW119523   6.024   6.780   6.016
 6208SOL    HW219524   6.100   6.821   6.155
 6209SOL     OW19525   4.074   6.518   0.594
 6209SOL    HW119526   4.094   6.493   0.499
 6209SOL    HW219527   4.160   6.526   0.645
 6210SOL     OW19528   5.466   4.643   3.740
 6210SOL    HW119529   5.527   4.659   3.662
 6210SOL    HW219530   5.379   4.605   3.707
 6211SOL     OW19531   2.773   6.916   4.537
 6211SOL    HW119532   2.728   6.954   4.456
 6211SOL    HW219533   2.707   6.907   4.611
 6212SOL     OW19534   6.405   6.555   3.981
 6212SOL    HW119535   6.466   6.632   4.001
 6212SOL    HW219536   6.433   6.511   3.896
 6213SOL     OW19537   6.583   0.225   6.948
 6213SOL    HW119538   6.563   0.196   0.022
 6213SOL    HW219539   6.502   0.267   6.908
 6214SOL     OW19540   6.739   4.556   2.416
 6214SOL    HW119541   6.732   4.537   2.514
 6214SOL    HW219542   6.761   4.472   2.367
 6215SOL     OW19543   3.283   2.766   0.801
 6215SOL    HW119544   3.381   2.751   0.809
 6215SOL    HW219545   3.257   2.773   0.705
 6216SOL     OW19546   5.480   1.596   2.150
 6216SOL    HW119547   5.468   1.527   2.079
 6216SOL    HW219548   5.496   1.551   2.238
 6217SOL     OW19549   5.373   3.015   0.829
 6217SOL    HW119550   5.320   2.930   0.817
 6217SOL    HW219551   5.466   3.001   0.795
 6218SOL     OW19552   2.617   5.290   4.612
 6218SOL    HW119553   2.546   5.351   4.648
 6218SOL    HW219554   2.600   5.274   4.515
 6219SOL     OW19555   1.183   2.178   5.138
 6219SOL    HW119556   1.263   2.145   5.189
 6219SOL    HW219557   1.131   2.242   5.194
 6220SOL     OW19558   2.157   4.479   5.288
 6220SOL    HW119559   2.118   4.387   5.281
 6220SOL    HW219560   2.154   4.509   5.383
 6221SOL     OW19561   3.701   4.968   4.458
 6221SOL    HW119562   3.719   5.051   4.510
 6221SOL    HW219563   3.755   4.893   4.496
 6222SOL     OW19564   6.792   0.326   1.223
 6222SOL    HW119565   6.873   0.278   1.189
 6222SOL    HW219566   6.804   0.345   1.320
 6223SOL     OW19567   4.792   2.958   4.726
 6223SOL    HW119568   4.729   2.880   4.722
 6223SOL    HW219569   4.794   2.994   4.820
 6224SOL     OW19570   2.869   1.622   5.373
 6224SOL    HW119571   2.946   1.558   5.370
 6224SOL    HW219572   2.816   1.608   5.456
 6225SOL     OW19573   3.721   3.474   0.320
 6225SOL    HW119574   3.704   3.559   0.271
 6225SOL    HW219575   3.723   3.398   0.255
 6226SOL     OW19576   5.430   0.631   4.702
 6226SOL    HW119577   5.500   0.700   4.719
 6226SOL    HW219578   5.397   0.640   4.607
 6227SOL     OW19579   3.645   4.523   5.899
 6227SOL    HW119580   3.743   4.541   5.904
 6227SOL    HW219581   3.611   4.546   5.808
 6228SOL     OW19582   0.147   0.667   2.996
 6228SOL    HW119583   0.182   0.652   3.089
 6228SOL    HW219584   0.197   0.609   2.932
 6229SOL     OW19585   2.583   2.505   2.387
 6229SOL    HW119586   2.656   2.489   2.454
 6229SOL    HW219587   2.588   2.437   2.314
 6230SOL     OW19588   2.652   2.243   3.993
 6230SOL    HW119589   2.603   2.178   4.050
 6230SOL    HW219590   2.589   2.313   3.960
 6231SOL     OW19591   6.928   5.371   1.560
 6231SOL    HW119592   6.949   5.286   1.513
 6231SOL    HW219593   6.988   5.444   1.527
 6232SOL     OW19594   0.242   0.672   0.243
 6232SOL    HW119595   0.249   0.679   0.143
 6232SOL    HW219596   0.264   0.761   0.283
 6233SOL     OW19597   4.544   2.180   6.907
 6233SOL    HW119598   4.585   2.270   6.897
 6233SOL    HW219599   4.597   2.113   6.856
 6234SOL     OW19600   2.322   1.658   4.054
 6234SOL    HW119601   2.287   1.730   3.994
 6234SOL    HW219602   2.254   1.636   4.123
 6235SOL     OW19603   2.433   0.235   2.531
 6235SOL    HW119604   2.519   0.285   2.532
 6235SOL    HW219605   2.360   0.295   2.498
 6236SOL     OW19606   6.967   4.298   0.528
 6236SOL    HW119607   0.001   4.323   0.608
 6236SOL    HW219608   6.980   4.367   0.457
 6237SOL     OW19609   4.352   0.156   0.876
 6237SOL    HW119610   4.368   0.192   0.968
 6237SOL    HW219611   4.309   0.226   0.819
 6238SOL     OW19612   4.705   5.453   0.747
 6238SOL    HW119613   4.757   5.474   0.829
 6238SOL    HW219614   4.611   5.428   0.772
 6239SOL     OW19615   2.586   0.118   3.064
 6239SOL    HW119616   2.603   0.090   2.970
 6239SOL    HW219617   2.666   0.166   3.100
 6240SOL     OW19618   1.792   3.425   0.742
 6240SOL    HW119619   1.822   3.418   0.838
 6240SOL    HW219620   1.736   3.506   0.731
 6241SOL     OW19621   3.751   0.033   1.843
 6241SOL    HW119622   3.714   0.114   1.797
 6241SOL    HW219623   3.740   0.044   1.942
 6242SOL     OW19624   4.656   2.589   3.590
 6242SOL    HW119625   4.733   2.530   3.568
 6242SOL    HW219626   4.669   2.679   3.548
 6243SOL     OW19627   5.777   6.127   4.002
 6243SOL    HW119628   5.687   6.090   3.978
 6243SOL    HW219629   5.803   6.197   3.935
 6244SOL     OW19630   2.490   2.125   1.979
 6244SOL    HW119631   2.584   2.160   1.971
 6244SOL    HW219632   2.429   2.178   1.921
 6245SOL     OW19633   3.008   4.943   1.018
 6245SOL    HW119634   3.019   4.990   0.931
 6245SOL    HW219635   2.920   4.895   1.019
 6246SOL     OW19636   2.548   1.854   6.000
 6246SOL    HW119637   2.639   1.864   5.958
 6246SOL    HW219638   2.494   1.936   5.980
 6247SOL     OW19639   7.012   6.063   3.088
 6247SOL    HW119640   0.005   6.083   2.991
 6247SOL    HW219641   0.052   5.987   3.115
 6248SOL     OW19642   0.731   5.080   1.514
 6248SOL    HW119643   0.745   4.996   1.566
 6248SOL    HW219644   0.700   5.057   1.422
 6249SOL     OW19645   6.517   4.041   6.560
 6249SOL    HW119646   6.486   3.952   6.526
 6249SOL    HW219647   6.439   4.091   6.598
 6250SOL     OW19648   6.123   6.292   0.110
 6250SOL    HW119649   6.159   6.386   0.112
 6250SOL    HW219650   6.054   6.285   0.038
 6251SOL     OW19651   4.670   1.450   0.364
 6251SOL    HW119652   4.628   1.408   0.445
 6251SOL    HW219653   4.612   1.434   0.284
 6252SOL     OW19654   2.755   5.936   5.245
 6252SOL    HW119655   2.844   5.970   5.277
 6252SOL    HW219656   2.769   5.853   5.192
 6253SOL     OW19657   2.294   4.035   1.984
 6253SOL    HW119658   2.336   4.125   1.973
 6253SOL    HW219659   2.268   4.021   2.080
 6254SOL     OW19660   5.639   0.289   0.252
 6254SOL    HW119661   5.610   0.234   0.330
 6254SOL    HW219662   5.733   0.320   0.266
 6255SOL     OW19663   0.296   1.288   2.664
 6255SOL    HW119664   0.382   1.237   2.659
 6255SOL    HW219665   0.235   1.258   2.591
 6256SOL     OW19666   3.825   5.053   2.832
 6256SOL    HW119667   3.873   5.139   2.846
 6256SOL    HW219668   3.781   5.053   2.742
 6257SOL     OW19669   5.642   2.591   6.853
 6257SOL    HW119670   5.628   2.628   6.944
 6257SOL    HW219671   5.621   2.661   6.785
 6258SOL     OW19672   4.696   1.766   2.282
 6258SOL    HW119673   4.708   1.865   2.272
 6258SOL    HW219674   4.694   1.743   2.380
 6259SOL     OW19675   3.019   2.290   1.714
 6259SOL    HW119676   2.957   2.211   1.714
 6259SOL    HW219677   2.990   2.354   1.785
 6260SOL     OW19678   3.627   4.008   6.985
 6260SOL    HW119679   3.640   3.994   0.063
 6260SOL    HW219680   3.563   3.940   6.949
 6261SOL     OW19681   4.016   1.519   0.427
 6261SOL    HW119682   3.948   1.554   0.363
 6261SOL    HW219683   4.060   1.438   0.389
 6262SOL     OW19684   1.152   4.657   6.660
 6262SOL    HW119685   1.091   4.579   6.647
 6262SOL    HW219686   1.155   4.711   6.576
 6263SOL     OW19687   6.912   6.932   0.423
 6263SOL    HW119688   6.881   6.958   0.515
 6263SOL    HW219689   6.860   6.983   0.355
 6264SOL     OW19690   2.409   1.713   0.718
 6264SOL    HW119691   2.342   1.780   0.751
 6264SOL    HW219692   2.500   1.755   0.720
 6265SOL     OW19693   4.057   3.446   1.596
 6265SOL    HW119694   4.015   3.359   1.618
 6265SOL    HW219695   4.131   3.432   1.529
 6266SOL     OW19696   2.866   0.688   3.354
 6266SOL    HW119697   2.931   0.690   3.430
 6266SOL    HW219698   2.815   0.602   3.357
 6267SOL     OW19699   3.504   0.415   6.265
 6267SOL    HW119700   3.566   0.478   6.311
 6267SOL    HW219701   3.451   0.365   6.333
 6268SOL     OW19702   3.545   5.316   2.612
 6268SOL    HW119703   3.471   5.379   2.589
 6268SOL    HW219704   3.613   5.363   2.668
 6269SOL     OW19705   5.934   5.182   1.626
 6269SOL    HW119706   5.902   5.275   1.643
 6269SOL    HW219707   5.945   5.135   1.713
 6270SOL     OW19708   0.900   0.154   4.899
 6270SOL    HW119709   0.866   0.113   4.814
 6270SOL    HW219710   0.830   0.214   4.938
 6271SOL     OW19711   6.863   1.617   0.608
 6271SOL    HW119712   6.898   1.535   0.653
 6271SOL    HW219713   6.919   1.696   0.636
 6272SOL     OW19714   2.396   2.297   3.514
 6272SOL    HW119715   2.327   2.267   3.448
 6272SOL    HW219716   2.420   2.220   3.574
 6273SOL     OW19717   3.466   1.315   1.667
 6273SOL    HW119718   3.438   1.324   1.572
 6273SOL    HW219719   3.565   1.305   1.672
 6274SOL     OW19720   4.115   6.970   5.916
 6274SOL    HW119721   4.116   0.002   6.002
 6274SOL    HW219722   4.200   6.986   5.867
 6275SOL     OW19723   1.919   0.083   4.619
 6275SOL    HW119724   1.887   0.177   4.628
 6275SOL    HW219725   1.954   0.051   4.707
 6276SOL     OW19726   1.433   5.121   4.226
 6276SOL    HW119727   1.363   5.174   4.273
 6276SOL    HW219728   1.403   5.026   4.216
 6277SOL     OW19729   5.355   3.186   2.957
 6277SOL    HW119730   5.358   3.280   2.922
 6277SOL    HW219731   5.380   3.186   3.054
 6278SOL     OW19732   5.268   0.183   4.420
 6278SOL    HW119733   5.289   0.125   4.498
 6278SOL    HW219734   5.192   0.244   4.443
 6279SOL     OW19735   4.128   1.939   0.468
 6279SOL    HW119736   4.070   1.859   0.485
 6279SOL    HW219737   4.131   1.996   0.550
 6280SOL     OW19738   0.685   4.767   5.716
 6280SOL    HW119739   0.642   4.790   5.803
 6280SOL    HW219740   0.657   4.832   5.645
 6281SOL     OW19741   2.301   0.029   5.360
 6281SOL    HW119742   2.364   0.093   5.404
 6281SOL    HW219743   2.346   7.006   5.282
 6282SOL     OW19744   1.987   6.786   4.444
 6282SOL    HW119745   2.002   6.883   4.427
 6282SOL    HW219746   1.892   6.770   4.468
 6283SOL     OW19747   6.732   2.745   4.973
 6283SOL    HW119748   6.633   2.728   4.974
 6283SOL    HW219749   6.770   2.731   5.064
 6284SOL     OW19750   1.577   4.096   5.476
 6284SOL    HW119751   1.669   4.125   5.498
 6284SOL    HW219752   1.579   4.030   5.400
 6285SOL     OW19753   1.598   4.087   3.015
 6285SOL    HW119754   1.610   3.989   3.001
 6285SOL    HW219755   1.626   4.112   3.108
 6286SOL     OW19756   5.269   0.602   3.430
 6286SOL    HW119757   5.308   0.627   3.518
 6286SOL    HW219758   5.231   0.509   3.436
 6287SOL     OW19759   4.628   4.339   1.676
 6287SOL    HW119760   4.649   4.430   1.711
 6287SOL    HW219761   4.574   4.289   1.743
 6288SOL     OW19762   5.790   3.798   0.857
 6288SOL    HW119763   5.795   3.714   0.911
 6288SOL    HW219764   5.695   3.820   0.836
 6289SOL     OW19765   1.552   1.556   3.866
 6289SOL    HW119766   1.477   1.499   3.830
 6289SOL    HW219767   1.627   1.557   3.801
 6290SOL     OW19768   4.995   3.618   3.086
 6290SOL    HW119769   4.986   3.540   3.024
 6290SOL    HW219770   5.083   3.663   3.071
 6291SOL     OW19771   3.294   3.973   3.270
 6291SOL    HW119772   3.337   3.883   3.278
 6291SOL    HW219773   3.231   3.986   3.347
 6292SOL     OW19774   1.260   1.841   2.392
 6292SOL    HW119775   1.276   1.773   2.463
 6292SOL    HW219776   1.295   1.929   2.422
 6293SOL     OW19777   4.803   0.199   0.359
 6293SOL    HW119778   4.887   0.236   0.321
 6293SOL    HW219779   4.780   0.248   0.443
 6294SOL     OW19780   4.445   5.324   2.825
 6294SOL    HW119781   4.368   5.333   2.762
 6294SOL    HW219782   4.426   5.376   2.909
 6295SOL     OW19783   5.826   6.232   6.389
 6295SOL    HW119784   5.728   6.238   6.368
 6295SOL    HW219785   5.848   6.140   6.421
 6296SOL     OW19786   6.151   1.462   3.013
 6296SOL    HW119787   6.246   1.492   3.019
 6296SOL    HW219788   6.138   1.411   2.928
 6297SOL     OW19789   5.932   6.820   5.815
 6297SOL    HW119790   5.842   6.810   5.858
 6297SOL    HW219791   5.927   6.891   5.744
 6298SOL     OW19792   1.030   2.552   4.741
 6298SOL    HW119793   1.019   2.524   4.646
 6298SOL    HW219794   1.112   2.511   4.780
 6299SOL     OW19795   6.447   3.027   6.927
 6299SOL    HW119796   6.370   3.085   6.953
 6299SOL    HW219797   6.531   3.064   6.966
 6300SOL     OW19798   5.050   0.700   3.759
 6300SOL    HW119799   5.061   0.779   3.699
 6300SOL    HW219800   5.056   0.616   3.706
 6301SOL     OW19801   3.060   0.217   0.941
 6301SOL    HW119802   2.977   0.178   0.981
 6301SOL    HW219803   3.135   0.152   0.951
 6302SOL     OW19804   1.433   1.333   3.745
 6302SOL    HW119805   1.387   1.245   3.756
 6302SOL    HW219806   1.375   1.395   3.693
 6303SOL     OW19807   1.944   6.193   5.175
 6303SOL    HW119808   2.029   6.246   5.166
 6303SOL    HW219809   1.965   6.103   5.214
 6304SOL     OW19810   2.726   1.396   6.935
 6304SOL    HW119811   2.719   1.317   6.996
 6304SOL    HW219812   2.641   1.406   6.883
 6305SOL     OW19813   6.551   0.127   1.199
 6305SOL    HW119814   6.556   0.095   1.104
 6305SOL    HW219815   6.630   0.185   1.219
 6306SOL     OW19816   6.534   2.895   3.553
 6306SOL    HW119817   6.601   2.821   3.558
 6306SOL    HW219818   6.444   2.860   3.580
 6307SOL     OW19819   2.160   5.143   0.198
 6307SOL    HW119820   2.103   5.072   0.240
 6307SOL    HW219821   2.256   5.116   0.204
 6308SOL     OW19822   3.264   2.130   5.282
 6308SOL    HW119823   3.353   2.094   5.253
 6308SOL    HW219824   3.239   2.208   5.226
 6309SOL     OW19825   5.425   1.906   3.839
 6309SOL    HW119826   5.414   2.002   3.865
 6309SOL    HW219827   5.455   1.901   3.743
 6310SOL     OW19828   1.519   5.157   4.689
 6310SOL    HW119829   1.493   5.120   4.778
 6310SOL    HW219830   1.601   5.109   4.656
 6311SOL     OW19831   5.725   0.743   4.798
 6311SOL    HW119832   5.684   0.827   4.833
 6311SOL    HW219833   5.757   0.758   4.704
 6312SOL     OW19834   3.890   4.791   5.529
 6312SOL    HW119835   3.869   4.881   5.492
 6312SOL    HW219836   3.805   4.737   5.535
 6313SOL     OW19837   2.364   5.768   2.934
 6313SOL    HW119838   2.395   5.679   2.966
 6313SOL    HW219839   2.264   5.770   2.933
 6314SOL     OW19840   2.958   6.399   3.295
 6314SOL    HW119841   2.871   6.367   3.332
 6314SOL    HW219842   2.962   6.380   3.197
 6315SOL     OW19843   3.372   3.383   0.396
 6315SOL    HW119844   3.337   3.418   0.309
 6315SOL    HW219845   3.432   3.304   0.378
 6316SOL     OW19846   4.890   2.389   5.536
 6316SOL    HW119847   4.916   2.404   5.631
 6316SOL    HW219848   4.806   2.440   5.516
 6317SOL     OW19849   5.446   6.770   4.565
 6317SOL    HW119850   5.534   6.721   4.563
 6317SOL    HW219851   5.459   6.861   4.525
 6318SOL     OW19852   2.294   2.047   4.866
 6318SOL    HW119853   2.343   1.961   4.878
 6318SOL    HW219854   2.358   2.118   4.839
 6319SOL     OW19855   6.980   1.662   3.498
 6319SOL    HW119856   6.937   1.573   3.483
 6319SOL    HW219857   0.025   1.656   3.573
 6320SOL     OW19858   6.100   3.557   2.905
 6320SOL    HW119859   6.118   3.508   2.819
 6320SOL    HW219860   6.002   3.565   2.918
 6321SOL     OW19861   2.500   4.095   0.352
 6321SOL    HW119862   2.467   4.083   0.446
 6321SOL    HW219863   2.428   4.071   0.288
 6322SOL     OW19864   1.082   0.953   6.786
 6322SOL    HW119865   1.152   0.961   6.715
 6322SOL    HW219866   1.090   1.029   6.850
 6323SOL     OW19867   3.791   2.917   0.423
 6323SOL    HW119868   3.735   2.890   0.345
 6323SOL    HW219869   3.780   3.015   0.441
 6324SOL     OW19870   4.387   1.461   6.342
 6324SOL    HW119871   4.393   1.394   6.269
 6324SOL    HW219872   4.357   1.416   6.426
 6325SOL     OW19873   0.731   2.426   2.532
 6325SOL    HW119874   0.790   2.481   2.472
 6325SOL    HW219875   0.711   2.338   2.488
 6326SOL     OW19876   4.953   5.733   1.378
 6326SOL    HW119877   5.048   5.751   1.403
 6326SOL    HW219878   4.912   5.817   1.341
 6327SOL     OW19879   5.515   5.635   5.682
 6327SOL    HW119880   5.577   5.711   5.703
 6327SOL    HW219881   5.514   5.620   5.583
 6328SOL     OW19882   3.085   3.856   6.378
 6328SOL    HW119883   3.054   3.822   6.467
 6328SOL    HW219884   3.184   3.870   6.380
 6329SOL     OW19885   0.598   1.485   3.356
 6329SOL    HW119886   0.501   1.507   3.347
 6329SOL    HW219887   0.650   1.570   3.367
 6330SOL     OW19888   3.885   1.469   0.029
 6330SOL    HW119889   3.924   1.525   6.977
 6330SOL    HW219890   3.857   1.380   7.011
 6331SOL     OW19891   6.619   2.237   1.740
 6331SOL    HW119892   6.608   2.243   1.641
 6331SOL    HW219893   6.562   2.164   1.776
 6332SOL     OW19894   5.833   5.901   1.461
 6332SOL    HW119895   5.863   5.830   1.525
 6332SOL    HW219896   5.910   5.962   1.440
 6333SOL     OW19897   3.579   4.991   2.997
 6333SOL    HW119898   3.518   5.062   2.962
 6333SOL    HW219899   3.673   5.012   2.970
 6334SOL     OW19900   1.839   1.115   2.907
 6334SOL    HW119901   1.866   1.149   2.816
 6334SOL    HW219902   1.776   1.180   2.949
 6335SOL     OW19903   6.768   1.254   6.721
 6335SOL    HW119904   6.701   1.181   6.706
 6335SOL    HW219905   6.811   1.278   6.634
 6336SOL     OW19906   0.096   2.593   4.458
 6336SOL    HW119907   0.030   2.664   4.432
 6336SOL    HW219908   0.143   2.559   4.376
 6337SOL     OW19909   6.251   5.162   5.461
 6337SOL    HW119910   6.182   5.152   5.534
 6337SOL    HW219911   6.218   5.228   5.394
 6338SOL     OW19912   3.846   1.368   3.595
 6338SOL    HW119913   3.903   1.287   3.580
 6338SOL    HW219914   3.828   1.412   3.507
 6339SOL     OW19915   6.856   1.650   3.915
 6339SOL    HW119916   6.845   1.560   3.957
 6339SOL    HW219917   6.876   1.640   3.818
 6340SOL     OW19918   2.168   5.731   4.382
 6340SOL    HW119919   2.127   5.642   4.403
 6340SOL    HW219920   2.215   5.726   4.294
 6341SOL     OW19921   0.469   4.619   3.447
 6341SOL    HW119922   0.450   4.616   3.546
 6341SOL    HW219923   0.412   4.690   3.405
 6342SOL     OW19924   1.099   2.825   1.052
 6342SOL    HW119925   1.164   2.822   1.127
 6342SOL    HW219926   1.079   2.921   1.030
 6343SOL     OW19927   3.802   1.217   6.932
 6343SOL    HW119928   3.832   1.220   6.837
 6343SOL    HW219929   3.722   1.157   6.940
 6344SOL     OW19930   0.882   4.480   4.320
 6344SOL    HW119931   0.859   4.574   4.296
 6344SOL    HW219932   0.839   4.417   4.254
 6345SOL     OW19933   3.298   1.569   1.877
 6345SOL    HW119934   3.297   1.471   1.899
 6345SOL    HW219935   3.392   1.603   1.881
 6346SOL     OW19936   0.680   4.436   3.466
 6346SOL    HW119937   0.661   4.345   3.504
 6346SOL    HW219938   0.594   4.481   3.441
 6347SOL     OW19939   2.692   0.290   1.082
 6347SOL    HW119940   2.695   0.210   1.141
 6347SOL    HW219941   2.678   0.262   0.987
 6348SOL     OW19942   1.251   2.963   4.150
 6348SOL    HW119943   1.312   2.915   4.214
 6348SOL    HW219944   1.198   2.895   4.099
 6349SOL     OW19945   2.803   0.690   0.147
 6349SOL    HW119946   2.776   0.741   0.065
 6349SOL    HW219947   2.833   0.755   0.217
 6350SOL     OW19948   1.616   6.211   2.311
 6350SOL    HW119949   1.693   6.273   2.305
 6350SOL    HW219950   1.554   6.226   2.234
 6351SOL     OW19951   6.916   1.181   2.583
 6351SOL    HW119952   6.825   1.153   2.614
 6351SOL    HW219953   6.964   1.103   2.543
 6352SOL     OW19954   0.387   5.504   1.937
 6352SOL    HW119955   0.337   5.435   1.884
 6352SOL    HW219956   0.330   5.586   1.947
 6353SOL     OW19957   0.008   6.882   1.050
 6353SOL    HW119958   0.084   6.865   1.112
 6353SOL    HW219959   0.024   6.835   0.963
 6354SOL     OW19960   0.403   6.447   3.381
 6354SOL    HW119961   0.465   6.509   3.427
 6354SOL    HW219962   0.434   6.352   3.394
 6355SOL     OW19963   1.800   2.225   3.357
 6355SOL    HW119964   1.722   2.173   3.321
 6355SOL    HW219965   1.885   2.180   3.331
 6356SOL     OW19966   3.496   3.352   1.583
 6356SOL    HW119967   3.402   3.380   1.601
 6356SOL    HW219968   3.559   3.410   1.634
 6357SOL     OW19969   4.409   1.982   0.417
 6357SOL    HW119970   4.403   1.991   0.317
 6357SOL    HW219971   4.321   1.952   0.453
 6358SOL     OW19972   6.701   2.263   3.285
 6358SOL    HW119973   6.647   2.218   3.356
 6358SOL    HW219974   6.798   2.260   3.310
 6359SOL     OW19975   6.990   1.099   6.745
 6359SOL    HW119976   6.909   1.158   6.749
 6359SOL    HW219977   0.053   1.155   6.752
 6360SOL     OW19978   3.127   5.708   4.291
 6360SOL    HW119979   3.110   5.643   4.365
 6360SOL    HW219980   3.059   5.695   4.219
 6361SOL     OW19981   4.527   5.844   6.143
 6361SOL    HW119982   4.454   5.778   6.126
 6361SOL    HW219983   4.502   5.903   6.220
 6362SOL     OW19984   5.931   5.687   6.555
 6362SOL    HW119985   5.913   5.688   6.654
 6362SOL    HW219986   5.981   5.770   6.530
 6363SOL     OW19987   1.123   5.845   4.298
 6363SOL    HW119988   1.223   5.841   4.292
 6363SOL    HW219989   1.085   5.753   4.305
 6364SOL     OW19990   2.373   2.525   5.631
 6364SOL    HW119991   2.360   2.461   5.707
 6364SOL    HW219992   2.291   2.525   5.573
 6365SOL     OW19993   5.019   6.501   2.906
 6365SOL    HW119994   5.007   6.410   2.866
 6365SOL    HW219995   5.116   6.515   2.928
 6366SOL     OW19996   0.577   5.410   5.453
 6366SOL    HW119997   0.602   5.479   5.521
 6366SOL    HW219998   0.478   5.407   5.443
 6367SOL     OW19999   5.684   6.748   4.068
 6367SOL    HW120000   5.640   6.658   4.075
 6367SOL    HW220001   5.783   6.736   4.064
 6368SOL     OW20002   2.914   6.720   4.441
 6368SOL    HW120003   3.002   6.754   4.407
 6368SOL    HW220004   2.859   6.796   4.475
 6369SOL     OW20005   2.757   4.979   4.204
 6369SOL    HW120006   2.810   5.026   4.133
 6369SOL    HW220007   2.807   4.898   4.234
 6370SOL     OW20008   6.159   2.302   1.629
 6370SOL    HW120009   6.213   2.252   1.561
 6370SOL    HW220010   6.062   2.296   1.606
 6371SOL     OW20011   4.762   2.463   2.359
 6371SOL    HW120012   4.780   2.509   2.272
 6371SOL    HW220013   4.784   2.366   2.351
 6372SOL     OW20014   3.068   6.117   2.332
 6372SOL    HW120015   3.079   6.131   2.233
 6372SOL    HW220016   3.142   6.161   2.381
 6373SOL     OW20017   4.203   4.051   6.637
 6373SOL    HW120018   4.210   4.111   6.558
 6373SOL    HW220019   4.294   4.029   6.671
 6374SOL     OW20020   3.051   3.169   2.519
 6374SOL    HW120021   3.078   3.074   2.528
 6374SOL    HW220022   3.105   3.225   2.582
 6375SOL     OW20023   1.811   6.199   2.740
 6375SOL    HW120024   1.826   6.204   2.839
 6375SOL    HW220025   1.887   6.243   2.692
 6376SOL     OW20026   6.795   2.545   5.326
 6376SOL    HW120027   6.858   2.606   5.375
 6376SOL    HW220028   6.716   2.596   5.294
 6377SOL     OW20029   0.279   1.328   4.446
 6377SOL    HW120030   0.340   1.284   4.512
 6377SOL    HW220031   0.324   1.409   4.409
 6378SOL     OW20032   4.811   4.073   3.811
 6378SOL    HW120033   4.845   4.104   3.722
 6378SOL    HW220034   4.714   4.097   3.819
 6379SOL     OW20035   2.435   4.499   3.218
 6379SOL    HW120036   2.369   4.426   3.236
 6379SOL    HW220037   2.392   4.570   3.162
 6380SOL     OW20038   0.214   0.914   5.959
 6380SOL    HW120039   0.256   1.001   5.934
 6380SOL    HW220040   0.284   0.854   5.999
 6381SOL     OW20041   3.016   3.851   3.037
 6381SOL    HW120042   3.032   3.847   2.938
 6381SOL    HW220043   3.101   3.877   3.083
 6382SOL     OW20044   1.102   3.270   5.671
 6382SOL    HW120045   1.122   3.223   5.758
 6382SOL    HW220046   1.184   3.270   5.614
 6383SOL     OW20047   2.804   1.045   4.348
 6383SOL    HW120048   2.788   0.948   4.362
 6383SOL    HW220049   2.760   1.075   4.264
 6384SOL     OW20050   0.033   4.741   3.051
 6384SOL    HW120051   0.059   4.837   3.058
 6384SOL    HW220052   6.983   4.720   3.119
 6385SOL     OW20053   0.087   5.556   4.575
 6385SOL    HW120054   0.063   5.619   4.502
 6385SOL    HW220055   0.184   5.564   4.595
 6386SOL     OW20056   2.819   4.981   1.295
 6386SOL    HW120057   2.884   5.021   1.360
 6386SOL    HW220058   2.869   4.937   1.220
 6387SOL     OW20059   6.489   0.551   5.233
 6387SOL    HW120060   6.557   0.482   5.208
 6387SOL    HW220061   6.435   0.517   5.311
 6388SOL     OW20062   2.963   4.865   2.284
 6388SOL    HW120063   2.958   4.823   2.194
 6388SOL    HW220064   3.035   4.935   2.285
 6389SOL     OW20065   0.776   5.132   3.483
 6389SOL    HW120066   0.786   5.075   3.402
 6389SOL    HW220067   0.723   5.083   3.552
 6390SOL     OW20068   0.752   3.393   3.796
 6390SOL    HW120069   0.785   3.299   3.794
 6390SOL    HW220070   0.691   3.405   3.874
 6391SOL     OW20071   3.051   1.716   0.191
 6391SOL    HW120072   2.979   1.762   0.242
 6391SOL    HW220073   3.050   1.618   0.212
 6392SOL     OW20074   1.807   0.007   4.185
 6392SOL    HW120075   1.806   6.957   4.114
 6392SOL    HW220076   1.896   0.007   4.231
 6393SOL     OW20077   6.116   6.393   0.396
 6393SOL    HW120078   6.135   6.365   0.302
 6393SOL    HW220079   6.201   6.402   0.446
 6394SOL     OW20080   2.484   4.827   0.267
 6394SOL    HW120081   2.573   4.811   0.226
 6394SOL    HW220082   2.434   4.895   0.214
 6395SOL     OW20083   6.415   1.848   0.604
 6395SOL    HW120084   6.361   1.882   0.528
 6395SOL    HW220085   6.355   1.796   0.666
 6396SOL     OW20086   5.157   4.261   5.597
 6396SOL    HW120087   5.111   4.203   5.530
 6396SOL    HW220088   5.211   4.203   5.659
 6397SOL     OW20089   0.191   1.346   0.989
 6397SOL    HW120090   0.270   1.284   0.985
 6397SOL    HW220091   0.163   1.370   0.896
 6398SOL     OW20092   3.028   1.448   1.403
 6398SOL    HW120093   3.008   1.536   1.447
 6398SOL    HW220094   3.117   1.454   1.357
 6399SOL     OW20095   2.457   5.555   6.743
 6399SOL    HW120096   2.498   5.602   6.821
 6399SOL    HW220097   2.384   5.612   6.705
 6400SOL     OW20098   2.625   5.528   3.934
 6400SOL    HW120099   2.561   5.553   4.006
 6400SOL    HW220100   2.708   5.490   3.975
 6401SOL     OW20101   0.545   4.862   4.161
 6401SOL    HW120102   0.462   4.861   4.217
 6401SOL    HW220103   0.571   4.956   4.140
 6402SOL     OW20104   2.708   0.739   2.991
 6402SOL    HW120105   2.727   0.808   3.062
 6402SOL    HW220106   2.678   0.785   2.908
 6403SOL     OW20107   0.463   5.738   0.273
 6403SOL    HW120108   0.413   5.653   0.287
 6403SOL    HW220109   0.543   5.740   0.334
 6404SOL     OW20110   5.187   1.251   3.397
 6404SOL    HW120111   5.087   1.242   3.390
 6404SOL    HW220112   5.217   1.214   3.485
 6405SOL     OW20113   2.458   1.368   2.531
 6405SOL    HW120114   2.433   1.347   2.625
 6405SOL    HW220115   2.404   1.446   2.499
 6406SOL     OW20116   2.467   2.055   4.151
 6406SOL    HW120117   2.470   2.110   4.235
 6406SOL    HW220118   2.372   2.043   4.123
 6407SOL     OW20119   3.968   5.180   6.046
 6407SOL    HW120120   3.938   5.274   6.065
 6407SOL    HW220121   3.973   5.166   5.947
 6408SOL     OW20122   6.049   1.610   6.686
 6408SOL    HW120123   6.101   1.672   6.626
 6408SOL    HW220124   6.108   1.579   6.760
 6409SOL     OW20125   0.968   4.493   2.286
 6409SOL    HW120126   1.013   4.434   2.353
 6409SOL    HW220127   0.882   4.450   2.256
 6410SOL     OW20128   1.282   1.284   1.009
 6410SOL    HW120129   1.315   1.242   0.924
 6410SOL    HW220130   1.324   1.374   1.020
 6411SOL     OW20131   0.632   0.810   3.359
 6411SOL    HW120132   0.601   0.852   3.444
 6411SOL    HW220133   0.730   0.794   3.363
 6412SOL     OW20134   0.242   2.571   5.082
 6412SOL    HW120135   0.210   2.591   4.989
 6412SOL    HW220136   0.325   2.515   5.077
 6413SOL     OW20137   6.952   4.511   0.373
 6413SOL    HW120138   6.877   4.542   0.315
 6413SOL    HW220139   6.969   4.580   0.443
 6414SOL     OW20140   5.740   6.336   2.325
 6414SOL    HW120141   5.663   6.326   2.263
 6414SOL    HW220142   5.755   6.433   2.346
 6415SOL     OW20143   1.739   1.747   1.897
 6415SOL    HW120144   1.677   1.794   1.960
 6415SOL    HW220145   1.813   1.808   1.871
 6416SOL     OW20146   1.624   0.399   6.169
 6416SOL    HW120147   1.574   0.312   6.164
 6416SOL    HW220148   1.664   0.409   6.260
 6417SOL     OW20149   0.796   6.662   3.065
 6417SOL    HW120150   0.850   6.597   3.012
 6417SOL    HW220151   0.722   6.698   3.008
 6418SOL     OW20152   6.261   6.162   2.092
 6418SOL    HW120153   6.358   6.155   2.070
 6418SOL    HW220154   6.211   6.192   2.011
 6419SOL     OW20155   3.000   5.063   1.486
 6419SOL    HW120156   2.989   5.162   1.500
 6419SOL    HW220157   3.016   5.019   1.574
 6420SOL     OW20158   2.011   4.100   0.076
 6420SOL    HW120159   2.054   4.134   0.159
 6420SOL    HW220160   1.946   4.168   0.041
 6421SOL     OW20161   5.335   1.641   1.057
 6421SOL    HW120162   5.394   1.711   1.098
 6421SOL    HW220163   5.300   1.580   1.129
 6422SOL     OW20164   5.856   1.528   3.440
 6422SOL    HW120165   5.879   1.556   3.347
 6422SOL    HW220166   5.939   1.512   3.492
 6423SOL     OW20167   4.966   3.685   0.156
 6423SOL    HW120168   4.919   3.596   0.156
 6423SOL    HW220169   5.058   3.674   0.119
 6424SOL     OW20170   6.867   4.780   5.557
 6424SOL    HW120171   6.952   4.783   5.610
 6424SOL    HW220172   6.792   4.751   5.616
 6425SOL     OW20173   1.125   4.906   2.076
 6425SOL    HW120174   1.106   4.961   2.158
 6425SOL    HW220175   1.065   4.826   2.076
 6426SOL     OW20176   0.660   2.729   3.477
 6426SOL    HW120177   0.723   2.806   3.462
 6426SOL    HW220178   0.582   2.737   3.416
 6427SOL     OW20179   2.075   3.557   5.057
 6427SOL    HW120180   2.109   3.648   5.082
 6427SOL    HW220181   2.065   3.552   4.957
 6428SOL     OW20182   6.833   3.787   2.470
 6428SOL    HW120183   6.914   3.843   2.450
 6428SOL    HW220184   6.768   3.840   2.523
 6429SOL     OW20185   1.355   0.316   3.848
 6429SOL    HW120186   1.444   0.305   3.805
 6429SOL    HW220187   1.316   0.404   3.822
 6430SOL     OW20188   5.839   2.845   0.679
 6430SOL    HW120189   5.925   2.794   0.680
 6430SOL    HW220190   5.833   2.900   0.595
 6431SOL     OW20191   5.378   6.805   2.245
 6431SOL    HW120192   5.316   6.881   2.224
 6431SOL    HW220193   5.333   6.719   2.222
 6432SOL     OW20194   4.995   3.327   0.644
 6432SOL    HW120195   4.918   3.391   0.638
 6432SOL    HW220196   5.033   3.313   0.553
 6433SOL     OW20197   2.894   4.044   1.612
 6433SOL    HW120198   2.826   4.075   1.547
 6433SOL    HW220199   2.909   3.946   1.601
 6434SOL     OW20200   1.455   4.513   0.880
 6434SOL    HW120201   1.478   4.580   0.809
 6434SOL    HW220202   1.515   4.526   0.959
 6435SOL     OW20203   4.489   4.014   6.692
 6435SOL    HW120204   4.558   4.066   6.642
 6435SOL    HW220205   4.488   3.920   6.659
 6436SOL     OW20206   1.796   2.718   3.334
 6436SOL    HW120207   1.843   2.672   3.409
 6436SOL    HW220208   1.836   2.808   3.320
 6437SOL     OW20209   1.314   0.554   6.774
 6437SOL    HW120210   1.390   0.585   6.832
 6437SOL    HW220211   1.284   0.464   6.803
 6438SOL     OW20212   1.102   3.614   3.787
 6438SOL    HW120213   1.053   3.566   3.713
 6438SOL    HW220214   1.181   3.662   3.749
 6439SOL     OW20215   1.002   6.950   1.354
 6439SOL    HW120216   1.077   6.887   1.331
 6439SOL    HW220217   1.035   7.019   1.418
 6440SOL     OW20218   1.325   1.505   2.700
 6440SOL    HW120219   1.420   1.516   2.729
 6440SOL    HW220220   1.285   1.424   2.744
 6441SOL     OW20221   2.220   1.180   3.574
 6441SOL    HW120222   2.173   1.125   3.643
 6441SOL    HW220223   2.294   1.126   3.533
 6442SOL     OW20224   3.233   1.426   4.357
 6442SOL    HW120225   3.216   1.509   4.304
 6442SOL    HW220226   3.293   1.365   4.306
 6443SOL     OW20227   2.662   1.850   0.799
 6443SOL    HW120228   2.629   1.922   0.859
 6443SOL    HW220229   2.735   1.886   0.740
 6444SOL     OW20230   0.468   0.980   2.937
 6444SOL    HW120231   0.371   0.961   2.924
 6444SOL    HW220232   0.479   1.072   2.976
 6445SOL     OW20233   3.989   3.456   5.369
 6445SOL    HW120234   3.995   3.384   5.438
 6445SOL    HW220235   3.911   3.437   5.308
 6446SOL     OW20236   6.598   1.229   0.318
 6446SOL    HW120237   6.600   1.170   0.237
 6446SOL    HW220238   6.667   1.199   0.383
 6447SOL     OW20239   1.295   0.400   2.945
 6447SOL    HW120240   1.359   0.385   2.869
 6447SOL    HW220241   1.295   0.497   2.969
 6448SOL     OW20242   5.539   2.939   2.902
 6448SOL    HW120243   5.456   2.993   2.887
 6448SOL    HW220244   5.519   2.865   2.967
 6449SOL     OW20245   3.633   2.985   0.761
 6449SOL    HW120246   3.660   2.895   0.725
 6449SOL    HW220247   3.684   3.056   0.713
 6450SOL     OW20248   6.546   3.578   0.563
 6450SOL    HW120249   6.482   3.655   0.568
 6450SOL    HW220250   6.542   3.537   0.472
 6451SOL     OW20251   2.511   6.387   5.069
 6451SOL    HW120252   2.533   6.349   5.159
 6451SOL    HW220253   2.504   6.487   5.077
 6452SOL     OW20254   3.501   6.408   3.910
 6452SOL    HW120255   3.527   6.503   3.891
 6452SOL    HW220256   3.548   6.347   3.846
 6453SOL     OW20257   1.676   5.891   6.493
 6453SOL    HW120258   1.735   5.936   6.426
 6453SOL    HW220259   1.723   5.884   6.581
 6454SOL     OW20260   3.507   1.476   4.950
 6454SOL    HW120261   3.556   1.455   5.035
 6454SOL    HW220262   3.427   1.417   4.941
 6455SOL     OW20263   5.803   2.487   5.376
 6455SOL    HW120264   5.784   2.585   5.377
 6455SOL    HW220265   5.793   2.450   5.469
 6456SOL     OW20266   0.076   0.291   3.769
 6456SOL    HW120267   0.167   0.332   3.764
 6456SOL    HW220268   0.034   0.291   3.678
 6457SOL     OW20269   6.594   2.606   0.819
 6457SOL    HW120270   6.640   2.680   0.770
 6457SOL    HW220271   6.627   2.602   0.913
 6458SOL     OW20272   1.726   5.631   2.957
 6458SOL    HW120273   1.695   5.537   2.972
 6458SOL    HW220274   1.824   5.637   2.975
 6459SOL     OW20275   5.205   4.914   6.975
 6459SOL    HW120276   5.200   4.904   6.876
 6459SOL    HW220277   5.151   4.842   7.019
 6460SOL     OW20278   3.455   5.041   6.135
 6460SOL    HW120279   3.406   4.996   6.210
 6460SOL    HW220280   3.482   4.972   6.068
 6461SOL     OW20281   3.567   5.180   4.646
 6461SOL    HW120282   3.498   5.244   4.678
 6461SOL    HW220283   3.522   5.097   4.613
 6462SOL     OW20284   2.003   3.504   4.270
 6462SOL    HW120285   2.059   3.423   4.289
 6462SOL    HW220286   1.932   3.512   4.340
 6463SOL     OW20287   1.694   4.308   6.017
 6463SOL    HW120288   1.601   4.311   6.056
 6463SOL    HW220289   1.693   4.351   5.927
 6464SOL     OW20290   0.324   5.405   3.162
 6464SOL    HW120291   0.353   5.410   3.066
 6464SOL    HW220292   0.256   5.332   3.172
 6465SOL     OW20293   6.382   1.245   3.208
 6465SOL    HW120294   6.311   1.182   3.178
 6465SOL    HW220295   6.419   1.294   3.130
 6466SOL     OW20296   0.003   2.424   5.184
 6466SOL    HW120297   0.092   2.467   5.168
 6466SOL    HW220298   6.984   2.459   5.268
 6467SOL     OW20299   2.463   1.008   6.365
 6467SOL    HW120300   2.444   1.099   6.327
 6467SOL    HW220301   2.380   0.952   6.360
 6468SOL     OW20302   4.921   4.970   1.100
 6468SOL    HW120303   5.021   4.967   1.091
 6468SOL    HW220304   4.891   4.896   1.160
 6469SOL     OW20305   6.978   1.081   5.391
 6469SOL    HW120306   6.894   1.031   5.410
 6469SOL    HW220307   0.036   1.018   5.392
 6470SOL     OW20308   6.800   0.447   5.853
 6470SOL    HW120309   6.812   0.404   5.942
 6470SOL    HW220310   6.775   0.543   5.865
 6471SOL     OW20311   5.488   4.958   6.051
 6471SOL    HW120312   5.564   4.997   6.102
 6471SOL    HW220313   5.462   5.019   5.977
 6472SOL     OW20314   1.144   5.990   1.944
 6472SOL    HW120315   1.093   6.066   1.986
 6472SOL    HW220316   1.079   5.929   1.898
 6473SOL     OW20317   2.041   1.663   6.400
 6473SOL    HW120318   2.044   1.565   6.379
 6473SOL    HW220319   2.116   1.709   6.353
 6474SOL     OW20320   1.612   2.932   5.261
 6474SOL    HW120321   1.616   2.910   5.358
 6474SOL    HW220322   1.526   2.980   5.241
 6475SOL     OW20323   4.047   6.050   4.218
 6475SOL    HW120324   4.055   6.127   4.155
 6475SOL    HW220325   3.953   6.042   4.251
 6476SOL     OW20326   4.521   4.841   2.642
 6476SOL    HW120327   4.514   4.931   2.685
 6476SOL    HW220328   4.568   4.851   2.554
 6477SOL     OW20329   6.787   5.426   0.269
 6477SOL    HW120330   6.776   5.520   0.303
 6477SOL    HW220331   6.697   5.382   0.265
 6478SOL     OW20332   4.840   6.731   1.007
 6478SOL    HW120333   4.890   6.794   0.947
 6478SOL    HW220334   4.895   6.712   1.088
 6479SOL     OW20335   4.130   5.115   2.461
 6479SOL    HW120336   4.049   5.172   2.465
 6479SOL    HW220337   4.121   5.039   2.526
 6480SOL     OW20338   2.976   2.378   0.214
 6480SOL    HW120339   3.026   2.379   0.300
 6480SOL    HW220340   2.943   2.286   0.194
 6481SOL     OW20341   4.500   1.001   1.237
 6481SOL    HW120342   4.404   1.004   1.264
 6481SOL    HW220343   4.535   1.094   1.225
 6482SOL     OW20344   0.085   0.472   6.555
 6482SOL    HW120345   0.008   0.439   6.610
 6482SOL    HW220346   0.059   0.556   6.508
 6483SOL     OW20347   1.602   6.567   2.900
 6483SOL    HW120348   1.677   6.569   2.966
 6483SOL    HW220349   1.544   6.487   2.917
 6484SOL     OW20350   4.800   6.821   3.624
 6484SOL    HW120351   4.727   6.776   3.677
 6484SOL    HW220352   4.761   6.899   3.575
 6485SOL     OW20353   1.838   2.239   2.870
 6485SOL    HW120354   1.758   2.268   2.818
 6485SOL    HW220355   1.824   2.147   2.905
 6486SOL     OW20356   1.615   3.577   3.622
 6486SOL    HW120357   1.607   3.649   3.553
 6486SOL    HW220358   1.644   3.492   3.578
 6487SOL     OW20359   5.601   6.481   4.119
 6487SOL    HW120360   5.558   6.403   4.075
 6487SOL    HW220361   5.600   6.469   4.218
 6488SOL     OW20362   3.260   5.380   5.781
 6488SOL    HW120363   3.305   5.421   5.701
 6488SOL    HW220364   3.307   5.295   5.806
 6489SOL     OW20365   2.102   1.996   5.452
 6489SOL    HW120366   2.165   2.071   5.471
 6489SOL    HW220367   2.051   1.973   5.534
 6490SOL     OW20368   3.774   1.138   0.528
 6490SOL    HW120369   3.714   1.160   0.451
 6490SOL    HW220370   3.778   1.217   0.590
 6491SOL     OW20371   3.872   1.987   6.569
 6491SOL    HW120372   3.889   2.025   6.479
 6491SOL    HW220373   3.903   2.052   6.639
 6492SOL     OW20374   5.802   6.236   0.093
 6492SOL    HW120375   5.817   6.251   7.016
 6492SOL    HW220376   5.782   6.139   0.109
 6493SOL     OW20377   1.176   6.244   6.309
 6493SOL    HW120378   1.129   6.163   6.274
 6493SOL    HW220379   1.109   6.316   6.327
 6494SOL     OW20380   0.915   0.385   3.666
 6494SOL    HW120381   0.906   0.373   3.764
 6494SOL    HW220382   0.937   0.297   3.623
 6495SOL     OW20383   5.716   4.801   2.845
 6495SOL    HW120384   5.635   4.860   2.842
 6495SOL    HW220385   5.726   4.764   2.938
 6496SOL     OW20386   1.495   0.052   2.390
 6496SOL    HW120387   1.440   7.008   2.443
 6496SOL    HW220388   1.532   0.123   2.450
 6497SOL     OW20389   1.484   4.492   0.348
 6497SOL    HW120390   1.393   4.520   0.380
 6497SOL    HW220391   1.534   4.573   0.317
 6498SOL     OW20392   2.287   4.685   3.992
 6498SOL    HW120393   2.290   4.669   3.893
 6498SOL    HW220394   2.196   4.719   4.017
 6499SOL     OW20395   5.835   1.281   3.682
 6499SOL    HW120396   5.748   1.315   3.645
 6499SOL    HW220397   5.884   1.356   3.726
 6500SOL     OW20398   4.831   5.025   3.458
 6500SOL    HW120399   4.924   5.006   3.425
 6500SOL    HW220400   4.807   4.962   3.531
 6501SOL     OW20401   6.762   4.246   1.143
 6501SOL    HW120402   6.760   4.338   1.104
 6501SOL    HW220403   6.819   4.187   1.085
 6502SOL     OW20404   0.998   5.369   2.910
 6502SOL    HW120405   1.080   5.369   2.968
 6502SOL    HW220406   1.016   5.317   2.827
 6503SOL     OW20407   4.329   6.765   4.640
 6503SOL    HW120408   4.232   6.776   4.661
 6503SOL    HW220409   4.359   6.674   4.668
 6504SOL     OW20410   2.982   0.694   0.721
 6504SOL    HW120411   2.981   0.613   0.663
 6504SOL    HW220412   2.922   0.679   0.800
 6505SOL     OW20413   6.314   5.121   1.054
 6505SOL    HW120414   6.320   5.082   1.146
 6505SOL    HW220415   6.313   5.220   1.060
 6506SOL     OW20416   2.087   2.501   1.332
 6506SOL    HW120417   2.161   2.455   1.282
 6506SOL    HW220418   2.092   2.478   1.429
 6507SOL     OW20419   2.003   0.097   1.364
 6507SOL    HW120420   2.073   0.037   1.402
 6507SOL    HW220421   1.977   0.165   1.433
 6508SOL     OW20422   2.228   2.069   3.090
 6508SOL    HW120423   2.172   2.150   3.110
 6508SOL    HW220424   2.230   2.054   2.991
 6509SOL     OW20425   0.613   2.745   4.008
 6509SOL    HW120426   0.620   2.806   3.928
 6509SOL    HW220427   0.664   2.785   4.084
 6510SOL     OW20428   5.898   4.659   6.170
 6510SOL    HW120429   5.835   4.585   6.146
 6510SOL    HW220430   5.943   4.639   6.256
 6511SOL     OW20431   6.586   6.206   6.344
 6511SOL    HW120432   6.685   6.192   6.351
 6511SOL    HW220433   6.568   6.299   6.313
 6512SOL     OW20434   4.878   6.512   3.806
 6512SOL    HW120435   4.951   6.580   3.802
 6512SOL    HW220436   4.850   6.499   3.901
 6513SOL     OW20437   3.489   0.080   3.032
 6513SOL    HW120438   3.436   0.155   2.991
 6513SOL    HW220439   3.584   0.088   3.004
 6514SOL     OW20440   3.853   0.107   4.108
 6514SOL    HW120441   3.849   0.010   4.133
 6514SOL    HW220442   3.764   0.136   4.073
 6515SOL     OW20443   0.831   6.764   5.140
 6515SOL    HW120444   0.828   6.789   5.237
 6515SOL    HW220445   0.752   6.803   5.093
 6516SOL     OW20446   0.844   1.597   5.410
 6516SOL    HW120447   0.799   1.525   5.462
 6516SOL    HW220448   0.785   1.626   5.334
 6517SOL     OW20449   0.908   1.355   0.558
 6517SOL    HW120450   0.995   1.348   0.508
 6517SOL    HW220451   0.922   1.409   0.641
 6518SOL     OW20452   6.428   6.359   1.608
 6518SOL    HW120453   6.505   6.340   1.668
 6518SOL    HW220454   6.413   6.281   1.547
 6519SOL     OW20455   2.310   2.137   3.783
 6519SOL    HW120456   2.294   2.113   3.879
 6519SOL    HW220457   2.289   2.234   3.768
 6520SOL     OW20458   5.738   5.417   1.393
 6520SOL    HW120459   5.666   5.402   1.460
 6520SOL    HW220460   5.802   5.486   1.427
 6521SOL     OW20461   0.134   1.288   5.343
 6521SOL    HW120462   0.139   1.352   5.420
 6521SOL    HW220463   0.064   1.219   5.361
 6522SOL     OW20464   2.353   5.501   5.888
 6522SOL    HW120465   2.420   5.445   5.839
 6522SOL    HW220466   2.290   5.542   5.822
 6523SOL     OW20467   2.075   2.158   6.124
 6523SOL    HW120468   2.125   2.126   6.204
 6523SOL    HW220469   2.035   2.080   6.076
 6524SOL     OW20470   4.100   3.601   3.737
 6524SOL    HW120471   4.097   3.510   3.695
 6524SOL    HW220472   4.112   3.592   3.836
 6525SOL     OW20473   0.305   2.775   3.203
 6525SOL    HW120474   0.326   2.705   3.272
 6525SOL    HW220475   0.253   2.849   3.246
 6526SOL     OW20476   1.215   6.106   4.995
 6526SOL    HW120477   1.147   6.173   4.968
 6526SOL    HW220478   1.176   6.014   4.988
 6527SOL     OW20479   1.534   0.342   4.712
 6527SOL    HW120480   1.557   0.397   4.631
 6527SOL    HW220481   1.435   0.329   4.716
 6528SOL     OW20482   6.683   1.249   4.450
 6528SOL    HW120483   6.776   1.220   4.471
 6528SOL    HW220484   6.622   1.227   4.526
 6529SOL     OW20485   6.852   2.113   2.022
 6529SOL    HW120486   6.763   2.158   2.033
 6529SOL    HW220487   6.914   2.173   1.971
 6530SOL     OW20488   6.626   1.934   0.752
 6530SOL    HW120489   6.548   1.909   0.696
 6530SOL    HW220490   6.613   2.027   0.789
 6531SOL     OW20491   4.627   2.723   4.297
 6531SOL    HW120492   4.666   2.710   4.388
 6531SOL    HW220493   4.659   2.810   4.259
 6532SOL     OW20494   7.013   1.619   6.241
 6532SOL    HW120495   0.017   1.598   6.336
 6532SOL    HW220496   6.943   1.690   6.239
 6533SOL     OW20497   4.550   0.248   1.344
 6533SOL    HW120498   4.584   0.252   1.438
 6533SOL    HW220499   4.625   0.272   1.282
 6534SOL     OW20500   2.100   3.915   1.229
 6534SOL    HW120501   2.145   3.854   1.294
 6534SOL    HW220502   2.154   3.921   1.145
 6535SOL     OW20503   0.757   3.787   5.686
 6535SOL    HW120504   0.841   3.743   5.653
 6535SOL    HW220505   0.679   3.752   5.634
 6536SOL     OW20506   6.438   2.490   0.042
 6536SOL    HW120507   6.470   2.543   0.121
 6536SOL    HW220508   6.448   2.392   0.062
 6537SOL     OW20509   1.243   6.956   0.327
 6537SOL    HW120510   1.248   6.868   0.375
 6537SOL    HW220511   1.214   6.941   0.233
 6538SOL     OW20512   2.945   3.113   0.063
 6538SOL    HW120513   2.908   3.111   0.155
 6538SOL    HW220514   2.993   3.027   0.044
 6539SOL     OW20515   2.340   1.855   7.009
 6539SOL    HW120516   2.298   1.878   0.077
 6539SOL    HW220517   2.301   1.770   6.974
 6540SOL     OW20518   3.084   1.281   4.965
 6540SOL    HW120519   3.130   1.263   5.052
 6540SOL    HW220520   3.072   1.380   4.954
 6541SOL     OW20521   2.176   2.534   6.270
 6541SOL    HW120522   2.111   2.609   6.284
 6541SOL    HW220523   2.153   2.484   6.187
 6542SOL     OW20524   5.966   4.416   3.794
 6542SOL    HW120525   6.037   4.449   3.857
 6542SOL    HW220526   5.884   4.473   3.803
 6543SOL     OW20527   6.395   5.909   6.787
 6543SOL    HW120528   6.358   5.975   6.723
 6543SOL    HW220529   6.442   5.956   6.862
 6544SOL     OW20530   6.260   6.776   4.538
 6544SOL    HW120531   6.238   6.679   4.535
 6544SOL    HW220532   6.177   6.828   4.559
 6545SOL     OW20533   4.999   1.639   5.847
 6545SOL    HW120534   5.089   1.675   5.824
 6545SOL    HW220535   4.948   1.621   5.764
 6546SOL     OW20536   2.866   4.506   6.273
 6546SOL    HW120537   2.887   4.417   6.313
 6546SOL    HW220538   2.937   4.572   6.298
 6547SOL     OW20539   5.099   2.241   6.694
 6547SOL    HW120540   5.163   2.305   6.737
 6547SOL    HW220541   5.140   2.204   6.610
 6548SOL     OW20542   6.814   4.991   5.402
 6548SOL    HW120543   6.834   4.917   5.466
 6548SOL    HW220544   6.859   5.074   5.433
 6549SOL     OW20545   3.517   1.950   0.998
 6549SOL    HW120546   3.589   2.014   0.971
 6549SOL    HW220547   3.455   1.935   0.921
 6550SOL     OW20548   0.522   5.812   3.392
 6550SOL    HW120549   0.573   5.858   3.465
 6550SOL    HW220550   0.587   5.774   3.326
 6551SOL     OW20551   2.197   4.727   2.037
 6551SOL    HW120552   2.118   4.733   2.098
 6551SOL    HW220553   2.278   4.704   2.090
 6552SOL     OW20554   2.783   5.065   5.448
 6552SOL    HW120555   2.863   5.006   5.446
 6552SOL    HW220556   2.785   5.127   5.369
 6553SOL     OW20557   1.025   3.384   2.434
 6553SOL    HW120558   0.967   3.342   2.504
 6553SOL    HW220559   1.101   3.431   2.477
 6554SOL     OW20560   0.036   2.689   5.406
 6554SOL    HW120561   0.134   2.671   5.403
 6554SOL    HW220562   0.017   2.753   5.480
 6555SOL     OW20563   0.233   0.977   2.063
 6555SOL    HW120564   0.317   1.028   2.047
 6555SOL    HW220565   0.174   1.029   2.124
 6556SOL     OW20566   4.018   6.175   4.577
 6556SOL    HW120567   3.986   6.244   4.641
 6556SOL    HW220568   3.949   6.104   4.566
 6557SOL     OW20569   6.635   5.400   1.196
 6557SOL    HW120570   6.603   5.485   1.239
 6557SOL    HW220571   6.581   5.323   1.229
 6558SOL     OW20572   6.210   5.557   6.962
 6558SOL    HW120573   6.283   5.490   6.947
 6558SOL    HW220574   6.123   5.510   6.973
 6559SOL     OW20575   4.146   3.704   0.758
 6559SOL    HW120576   4.152   3.707   0.659
 6559SOL    HW220577   4.054   3.678   0.785
 6560SOL     OW20578   3.809   2.242   0.142
 6560SOL    HW120579   3.887   2.189   0.176
 6560SOL    HW220580   3.813   2.335   0.178
 6561SOL     OW20581   4.106   3.265   3.924
 6561SOL    HW120582   4.080   3.203   3.997
 6561SOL    HW220583   4.109   3.216   3.837
 6562SOL     OW20584   6.543   3.633   5.956
 6562SOL    HW120585   6.582   3.701   5.894
 6562SOL    HW220586   6.446   3.651   5.968
 6563SOL     OW20587   1.303   5.556   2.186
 6563SOL    HW120588   1.393   5.595   2.165
 6563SOL    HW220589   1.232   5.624   2.169
 6564SOL     OW20590   1.138   5.353   2.159
 6564SOL    HW120591   1.202   5.423   2.190
 6564SOL    HW220592   1.156   5.331   2.063
 6565SOL     OW20593   6.796   2.917   5.882
 6565SOL    HW120594   6.864   2.922   5.955
 6565SOL    HW220595   6.739   2.836   5.894
 6566SOL     OW20596   3.795   6.674   0.924
 6566SOL    HW120597   3.727   6.633   0.985
 6566SOL    HW220598   3.873   6.706   0.978
 6567SOL     OW20599   5.551   2.643   1.446
 6567SOL    HW120600   5.511   2.732   1.421
 6567SOL    HW220601   5.549   2.582   1.367
 6568SOL     OW20602   4.124   4.269   1.613
 6568SOL    HW120603   4.031   4.231   1.610
 6568SOL    HW220604   4.168   4.257   1.525
 6569SOL     OW20605   0.817   4.524   6.977
 6569SOL    HW120606   0.847   4.571   0.041
 6569SOL    HW220607   0.749   4.454   7.001
 6570SOL     OW20608   5.962   2.484   1.384
 6570SOL    HW120609   5.931   2.426   1.459
 6570SOL    HW220610   6.054   2.457   1.356
 6571SOL     OW20611   2.802   5.531   3.656
 6571SOL    HW120612   2.730   5.509   3.589
 6571SOL    HW220613   2.813   5.630   3.661
 6572SOL     OW20614   0.681   4.194   5.924
 6572SOL    HW120615   0.679   4.094   5.917
 6572SOL    HW220616   0.672   4.234   5.833
 6573SOL     OW20617   1.965   1.625   2.745
 6573SOL    HW120618   1.970   1.701   2.679
 6573SOL    HW220619   2.013   1.651   2.829
 6574SOL     OW20620   3.268   4.881   3.016
 6574SOL    HW120621   3.317   4.796   3.034
 6574SOL    HW220622   3.275   4.941   3.096
 6575SOL     OW20623   0.494   1.521   2.845
 6575SOL    HW120624   0.422   1.560   2.787
 6575SOL    HW220625   0.500   1.574   2.930
 6576SOL     OW20626   0.915   6.094   6.576
 6576SOL    HW120627   0.870   6.163   6.633
 6576SOL    HW220628   1.014   6.112   6.575
 6577SOL     OW20629   6.556   2.483   3.620
 6577SOL    HW120630   6.498   2.494   3.539
 6577SOL    HW220631   6.500   2.483   3.702
 6578SOL     OW20632   6.225   4.802   3.687
 6578SOL    HW120633   6.266   4.711   3.692
 6578SOL    HW220634   6.297   4.870   3.682
 6579SOL     OW20635   0.438   4.093   2.830
 6579SOL    HW120636   0.384   4.009   2.832
 6579SOL    HW220637   0.532   4.071   2.803
 6580SOL     OW20638   6.093   2.181   1.893
 6580SOL    HW120639   6.131   2.212   1.806
 6580SOL    HW220640   6.161   2.126   1.941
 6581SOL     OW20641   2.899   1.674   6.428
 6581SOL    HW120642   2.968   1.710   6.491
 6581SOL    HW220643   2.921   1.702   6.335
 6582SOL     OW20644   6.395   7.016   3.000
 6582SOL    HW120645   6.378   0.035   2.910
 6582SOL    HW220646   6.445   6.930   2.990
 6583SOL     OW20647   5.640   1.441   5.782
 6583SOL    HW120648   5.675   1.449   5.689
 6583SOL    HW220649   5.704   1.389   5.838
 6584SOL     OW20650   6.205   1.725   6.226
 6584SOL    HW120651   6.151   1.737   6.309
 6584SOL    HW220652   6.292   1.775   6.236
 6585SOL     OW20653   1.494   1.354   6.785
 6585SOL    HW120654   1.407   1.400   6.767
 6585SOL    HW220655   1.560   1.419   6.822
 6586SOL     OW20656   6.508   2.325   5.838
 6586SOL    HW120657   6.535   2.228   5.840
 6586SOL    HW220658   6.409   2.332   5.830
 6587SOL     OW20659   2.146   6.638   3.394
 6587SOL    HW120660   2.067   6.606   3.446
 6587SOL    HW220661   2.141   6.603   3.301
 6588SOL     OW20662   1.483   3.164   0.202
 6588SOL    HW120663   1.564   3.185   0.147
 6588SOL    HW220664   1.401   3.175   0.146
 6589SOL     OW20665   4.269   1.752   5.572
 6589SOL    HW120666   4.276   1.657   5.540
 6589SOL    HW220667   4.189   1.760   5.632
 6590SOL     OW20668   0.104   1.327   5.062
 6590SOL    HW120669   0.029   1.268   5.091
 6590SOL    HW220670   0.142   1.376   5.141
 6591SOL     OW20671   5.552   1.298   3.078
 6591SOL    HW120672   5.470   1.319   3.130
 6591SOL    HW220673   5.529   1.241   3.000
 6592SOL     OW20674   4.809   5.599   4.531
 6592SOL    HW120675   4.718   5.560   4.518
 6592SOL    HW220676   4.874   5.525   4.549
 6593SOL     OW20677   3.735   1.294   2.452
 6593SOL    HW120678   3.791   1.285   2.534
 6593SOL    HW220679   3.642   1.320   2.478
 6594SOL     OW20680   5.741   0.187   6.617
 6594SOL    HW120681   5.794   0.179   6.533
 6594SOL    HW220682   5.646   0.208   6.594
 6595SOL     OW20683   1.804   3.916   0.908
 6595SOL    HW120684   1.709   3.935   0.883
 6595SOL    HW220685   1.863   3.989   0.874
 6596SOL     OW20686   4.058   7.017   5.083
 6596SOL    HW120687   4.074   6.970   5.169
 6596SOL    HW220688   3.976   6.980   5.038
 6597SOL     OW20689   0.122   4.785   5.254
 6597SOL    HW120690   0.031   4.826   5.248
 6597SOL    HW220691   0.186   4.835   5.195
 6598SOL     OW20692   1.602   6.009   5.377
 6598SOL    HW120693   1.566   5.975   5.290
 6598SOL    HW220694   1.673   5.947   5.410
 6599SOL     OW20695   3.992   4.411   5.675
 6599SOL    HW120696   3.994   4.364   5.763
 6599SOL    HW220697   4.012   4.508   5.689
 6600SOL     OW20698   4.667   6.039   4.069
 6600SOL    HW120699   4.638   6.072   3.979
 6600SOL    HW220700   4.661   5.939   4.071
 6601SOL     OW20701   0.714   0.214   0.332
 6601SOL    HW120702   0.722   0.302   0.378
 6601SOL    HW220703   0.689   0.143   0.398
 6602SOL     OW20704   6.425   1.575   1.404
 6602SOL    HW120705   6.517   1.546   1.431
 6602SOL    HW220706   6.372   1.599   1.485
 6603SOL     OW20707   2.049   3.658   3.549
 6603SOL    HW120708   2.105   3.624   3.625
 6603SOL    HW220709   2.052   3.758   3.549
 6604SOL     OW20710   3.521   5.601   2.434
 6604SOL    HW120711   3.544   5.685   2.385
 6604SOL    HW220712   3.435   5.613   2.483
 6605SOL     OW20713   5.711   5.973   0.157
 6605SOL    HW120714   5.800   5.946   0.193
 6605SOL    HW220715   5.649   5.994   0.233
 6606SOL     OW20716   5.176   0.819   2.941
 6606SOL    HW120717   5.272   0.804   2.964
 6606SOL    HW220718   5.134   0.732   2.915
 6607SOL     OW20719   1.041   2.204   2.542
 6607SOL    HW120720   1.056   2.300   2.565
 6607SOL    HW220721   0.992   2.198   2.455
 6608SOL     OW20722   6.137   3.719   4.309
 6608SOL    HW120723   6.053   3.757   4.347
 6608SOL    HW220724   6.115   3.657   4.234
 6609SOL     OW20725   5.713   1.762   6.580
 6609SOL    HW120726   5.700   1.667   6.552
 6609SOL    HW220727   5.655   1.822   6.525
 6610SOL     OW20728   2.361   0.648   6.687
 6610SOL    HW120729   2.268   0.686   6.679
 6610SOL    HW220730   2.360   0.552   6.658
 6611SOL     OW20731   5.872   2.631   2.654
 6611SOL    HW120732   5.909   2.713   2.697
 6611SOL    HW220733   5.895   2.551   2.709
 6612SOL     OW20734   1.798   6.393   6.957
 6612SOL    HW120735   1.822   6.487   6.981
 6612SOL    HW220736   1.877   6.334   6.973
 6613SOL     OW20737   4.763   5.266   2.003
 6613SOL    HW120738   4.720   5.202   1.939
 6613SOL    HW220739   4.714   5.264   2.090
 6614SOL     OW20740   5.043   5.969   6.037
 6614SOL    HW120741   5.115   6.026   5.997
 6614SOL    HW220742   4.967   6.027   6.066
 6615SOL     OW20743   0.896   3.867   5.100
 6615SOL    HW120744   0.871   3.932   5.171
 6615SOL    HW220745   0.966   3.907   5.041
 6616SOL     OW20746   4.892   0.344   4.670
 6616SOL    HW120747   4.985   0.377   4.683
 6616SOL    HW220748   4.888   0.246   4.688
 6617SOL     OW20749   4.112   0.292   5.734
 6617SOL    HW120750   4.046   0.363   5.712
 6617SOL    HW220751   4.193   0.334   5.775
 6618SOL     OW20752   0.730   4.746   1.322
 6618SOL    HW120753   0.643   4.745   1.371
 6618SOL    HW220754   0.725   4.810   1.246
 6619SOL     OW20755   4.781   5.772   2.746
 6619SOL    HW120756   4.769   5.819   2.659
 6619SOL    HW220757   4.756   5.676   2.736
 6620SOL     OW20758   1.775   2.622   5.234
 6620SOL    HW120759   1.692   2.587   5.277
 6620SOL    HW220760   1.838   2.654   5.305
 6621SOL     OW20761   2.694   3.911   0.260
 6621SOL    HW120762   2.783   3.953   0.241
 6621SOL    HW220763   2.641   3.971   0.321
 6622SOL     OW20764   0.024   6.268   0.359
 6622SOL    HW120765   6.949   6.269   0.392
 6622SOL    HW220766   0.076   6.339   0.406
 6623SOL     OW20767   3.506   3.549   2.120
 6623SOL    HW120768   3.435   3.502   2.173
 6623SOL    HW220769   3.464   3.618   2.062
 6624SOL     OW20770   4.097   4.874   4.406
 6624SOL    HW120771   4.117   4.965   4.442
 6624SOL    HW220772   4.175   4.814   4.423
 6625SOL     OW20773   6.385   0.600   0.250
 6625SOL    HW120774   6.389   0.678   0.313
 6625SOL    HW220775   6.396   0.632   0.156
 6626SOL     OW20776   3.605   5.156   3.540
 6626SOL    HW120777   3.696   5.115   3.543
 6626SOL    HW220778   3.598   5.216   3.460
 6627SOL     OW20779   2.071   6.586   1.290
 6627SOL    HW120780   1.976   6.573   1.261
 6627SOL    HW220781   2.097   6.682   1.278
 6628SOL     OW20782   3.970   6.194   3.190
 6628SOL    HW120783   3.954   6.217   3.094
 6628SOL    HW220784   3.965   6.095   3.203
 6629SOL     OW20785   3.391   4.898   0.471
 6629SOL    HW120786   3.316   4.961   0.491
 6629SOL    HW220787   3.405   4.837   0.549
 6630SOL     OW20788   3.337   2.027   0.385
 6630SOL    HW120789   3.358   1.956   0.317
 6630SOL    HW220790   3.251   2.005   0.431
 6631SOL     OW20791   5.030   0.992   2.251
 6631SOL    HW120792   4.996   1.044   2.173
 6631SOL    HW220793   4.971   0.912   2.266
 6632SOL     OW20794   6.998   1.758   1.746
 6632SOL    HW120795   0.010   1.664   1.757
 6632SOL    HW220796   6.931   1.779   1.817
 6633SOL     OW20797   0.854   0.193   1.222
 6633SOL    HW120798   0.828   0.172   1.128
 6633SOL    HW220799   0.888   0.111   1.267
 6634SOL     OW20800   6.949   2.838   6.256
 6634SOL    HW120801   6.855   2.869   6.266
 6634SOL    HW220802   6.997   2.847   6.344
 6635SOL     OW20803   4.639   4.296   3.204
 6635SOL    HW120804   4.579   4.342   3.139
 6635SOL    HW220805   4.668   4.208   3.166
 6636SOL     OW20806   2.121   2.486   4.223
 6636SOL    HW120807   2.118   2.510   4.320
 6636SOL    HW220808   2.139   2.568   4.169
 6637SOL     OW20809   6.835   0.302   0.633
 6637SOL    HW120810   6.768   0.298   0.559
 6637SOL    HW220811   6.823   0.387   0.685
 6638SOL     OW20812   2.341   5.876   5.841
 6638SOL    HW120813   2.341   5.795   5.781
 6638SOL    HW220814   2.435   5.910   5.849
 6639SOL     OW20815   5.717   5.453   0.079
 6639SOL    HW120816   5.805   5.494   0.104
 6639SOL    HW220817   5.665   5.432   0.161
 6640SOL     OW20818   6.020   2.887   3.167
 6640SOL    HW120819   5.966   2.814   3.209
 6640SOL    HW220820   5.981   2.911   3.078
 6641SOL     OW20821   2.022   4.489   5.716
 6641SOL    HW120822   1.987   4.533   5.799
 6641SOL    HW220823   1.990   4.395   5.712
 6642SOL     OW20824   0.559   5.854   0.056
 6642SOL    HW120825   0.537   5.788   7.003
 6642SOL    HW220826   0.536   5.814   0.145
 6643SOL     OW20827   4.942   4.707   6.673
 6643SOL    HW120828   4.979   4.794   6.704
 6643SOL    HW220829   4.846   4.699   6.701
 6644SOL     OW20830   3.067   4.783   2.031
 6644SOL    HW120831   3.144   4.725   2.006
 6644SOL    HW220832   2.982   4.730   2.026
 6645SOL     OW20833   0.838   5.173   5.666
 6645SOL    HW120834   0.888   5.154   5.581
 6645SOL    HW220835   0.901   5.209   5.735
 6646SOL     OW20836   2.528   5.593   4.194
 6646SOL    HW120837   2.547   5.691   4.188
 6646SOL    HW220838   2.590   5.552   4.260
 6647SOL     OW20839   3.124   2.069   1.956
 6647SOL    HW120840   3.072   1.987   1.932
 6647SOL    HW220841   3.066   2.150   1.945
 6648SOL     OW20842   5.037   5.745   2.131
 6648SOL    HW120843   5.091   5.815   2.085
 6648SOL    HW220844   4.953   5.728   2.079
 6649SOL     OW20845   3.941   2.248   6.457
 6649SOL    HW120846   3.880   2.281   6.386
 6649SOL    HW220847   4.033   2.239   6.420
 6650SOL     OW20848   3.322   1.872   2.976
 6650SOL    HW120849   3.376   1.904   2.898
 6650SOL    HW220850   3.321   1.772   2.978
 6651SOL     OW20851   1.241   2.497   6.666
 6651SOL    HW120852   1.213   2.408   6.702
 6651SOL    HW220853   1.256   2.560   6.742
 6652SOL     OW20854   6.593   5.520   2.328
 6652SOL    HW120855   6.567   5.456   2.401
 6652SOL    HW220856   6.688   5.550   2.342
 6653SOL     OW20857   3.331   3.673   3.787
 6653SOL    HW120858   3.298   3.598   3.846
 6653SOL    HW220859   3.329   3.644   3.692
 6654SOL     OW20860   2.363   3.199   1.699
 6654SOL    HW120861   2.355   3.283   1.753
 6654SOL    HW220862   2.449   3.200   1.649
 6655SOL     OW20863   2.514   6.193   1.673
 6655SOL    HW120864   2.529   6.231   1.582
 6655SOL    HW220865   2.422   6.216   1.704
 6656SOL     OW20866   6.220   2.407   1.294
 6656SOL    HW120867   6.186   2.313   1.294
 6656SOL    HW220868   6.288   2.418   1.222
 6657SOL     OW20869   2.966   6.189   6.350
 6657SOL    HW120870   2.923   6.206   6.261
 6657SOL    HW220871   3.043   6.251   6.362
 6658SOL     OW20872   5.221   0.839   5.310
 6658SOL    HW120873   5.244   0.825   5.406
 6658SOL    HW220874   5.192   0.934   5.297
 6659SOL     OW20875   2.029   2.743   6.836
 6659SOL    HW120876   1.982   2.779   6.755
 6659SOL    HW220877   2.031   2.813   6.908
 6660SOL     OW20878   6.838   6.583   2.899
 6660SOL    HW120879   6.900   6.521   2.946
 6660SOL    HW220880   6.795   6.644   2.965
 6661SOL     OW20881   0.484   6.172   3.753
 6661SOL    HW120882   0.419   6.098   3.733
 6661SOL    HW220883   0.575   6.134   3.768
 6662SOL     OW20884   1.821   2.101   0.015
 6662SOL    HW120885   1.729   2.111   6.996
 6662SOL    HW220886   1.855   2.190   0.042
 6663SOL     OW20887   0.374   5.655   2.547
 6663SOL    HW120888   0.298   5.650   2.612
 6663SOL    HW220889   0.351   5.600   2.466
 6664SOL     OW20890   1.461   1.214   3.195
 6664SOL    HW120891   1.513   1.169   3.268
 6664SOL    HW220892   1.525   1.259   3.133
 6665SOL     OW20893   2.590   6.696   2.962
 6665SOL    HW120894   2.528   6.649   2.900
 6665SOL    HW220895   2.591   6.649   3.050
 6666SOL     OW20896   6.440   0.526   6.929
 6666SOL    HW120897   6.447   0.564   6.837
 6666SOL    HW220898   6.528   0.537   6.976
 6667SOL     OW20899   6.952   4.271   4.682
 6667SOL    HW120900   6.950   4.211   4.602
 6667SOL    HW220901   6.982   4.362   4.654
 6668SOL     OW20902   0.770   4.841   1.641
 6668SOL    HW120903   0.726   4.751   1.637
 6668SOL    HW220904   0.843   4.840   1.709
 6669SOL     OW20905   2.178   5.880   2.604
 6669SOL    HW120906   2.093   5.912   2.563
 6669SOL    HW220907   2.251   5.882   2.536
 6670SOL     OW20908   3.431   4.700   0.268
 6670SOL    HW120909   3.421   4.771   0.337
 6670SOL    HW220910   3.343   4.657   0.251
 6671SOL     OW20911   6.647   3.093   4.474
 6671SOL    HW120912   6.744   3.084   4.495
 6671SOL    HW220913   6.636   3.136   4.385
 6672SOL     OW20914   1.655   1.165   5.726
 6672SOL    HW120915   1.704   1.220   5.794
 6672SOL    HW220916   1.709   1.084   5.703
 6673SOL     OW20917   4.417   4.442   1.475
 6673SOL    HW120918   4.484   4.425   1.547
 6673SOL    HW220919   4.359   4.518   1.501
 6674SOL     OW20920   0.709   0.042   4.046
 6674SOL    HW120921   0.633   0.015   3.986
 6674SOL    HW220922   0.677   0.107   4.114
 6675SOL     OW20923   5.883   4.777   0.566
 6675SOL    HW120924   5.900   4.765   0.663
 6675SOL    HW220925   5.829   4.700   0.531
 6676SOL     OW20926   0.989   2.264   6.364
 6676SOL    HW120927   1.067   2.326   6.356
 6676SOL    HW220928   0.928   2.278   6.286
 6677SOL     OW20929   0.866   3.505   0.650
 6677SOL    HW120930   0.881   3.508   0.551
 6677SOL    HW220931   0.849   3.411   0.679
 6678SOL     OW20932   0.777   2.940   6.057
 6678SOL    HW120933   0.867   2.982   6.066
 6678SOL    HW220934   0.720   2.997   5.998
 6679SOL     OW20935   1.972   1.754   4.164
 6679SOL    HW120936   1.949   1.713   4.075
 6679SOL    HW220937   1.889   1.764   4.219
 6680SOL     OW20938   2.958   6.626   6.242
 6680SOL    HW120939   2.874   6.647   6.192
 6680SOL    HW220940   3.028   6.594   6.178
 6681SOL     OW20941   5.385   4.907   0.573
 6681SOL    HW120942   5.303   4.932   0.521
 6681SOL    HW220943   5.367   4.913   0.671
 6682SOL     OW20944   0.381   6.294   1.668
 6682SOL    HW120945   0.355   6.367   1.732
 6682SOL    HW220946   0.366   6.325   1.574
 6683SOL     OW20947   5.229   1.743   3.944
 6683SOL    HW120948   5.285   1.814   3.901
 6683SOL    HW220949   5.217   1.668   3.879
 6684SOL     OW20950   2.253   6.999   2.981
 6684SOL    HW120951   2.257   6.996   2.881
 6684SOL    HW220952   2.346   6.997   3.018
 6685SOL     OW20953   5.163   3.519   6.199
 6685SOL    HW120954   5.261   3.502   6.190
 6685SOL    HW220955   5.134   3.496   6.292
 6686SOL     OW20956   6.710   4.006   3.156
 6686SOL    HW120957   6.616   4.008   3.191
 6686SOL    HW220958   6.709   4.013   3.056
 6687SOL     OW20959   1.314   2.470   0.688
 6687SOL    HW120960   1.384   2.517   0.741
 6687SOL    HW220961   1.252   2.538   0.647
 6688SOL     OW20962   0.683   5.034   2.527
 6688SOL    HW120963   0.688   4.942   2.489
 6688SOL    HW220964   0.614   5.087   2.478
 6689SOL     OW20965   4.480   4.718   0.250
 6689SOL    HW120966   4.545   4.666   0.195
 6689SOL    HW220967   4.387   4.693   0.224
 6690SOL     OW20968   1.934   2.613   0.722
 6690SOL    HW120969   1.961   2.596   0.627
 6690SOL    HW220970   1.881   2.697   0.727
 6691SOL     OW20971   2.399   4.588   1.669
 6691SOL    HW120972   2.305   4.561   1.647
 6691SOL    HW220973   2.418   4.678   1.630
 6692SOL     OW20974   3.235   3.935   5.471
 6692SOL    HW120975   3.190   3.997   5.407
 6692SOL    HW220976   3.168   3.897   5.535
 6693SOL     OW20977   4.140   3.565   5.104
 6693SOL    HW120978   4.231   3.583   5.142
 6693SOL    HW220979   4.150   3.516   5.017
 6694SOL     OW20980   3.474   6.092   0.738
 6694SOL    HW120981   3.554   6.056   0.785
 6694SOL    HW220982   3.421   6.017   0.699
 6695SOL     OW20983   1.647   1.874   0.134
 6695SOL    HW120984   1.591   1.917   0.063
 6695SOL    HW220985   1.737   1.919   0.138
 6696SOL     OW20986   2.065   2.794   1.656
 6696SOL    HW120987   2.021   2.728   1.717
 6696SOL    HW220988   2.141   2.839   1.703
 6697SOL     OW20989   4.852   1.065   3.101
 6697SOL    HW120990   4.780   1.011   3.059
 6697SOL    HW220991   4.932   1.007   3.117
 6698SOL     OW20992   4.030   3.615   0.296
 6698SOL    HW120993   3.936   3.605   0.261
 6698SOL    HW220994   4.093   3.568   0.233
 6699SOL     OW20995   1.761   4.311   0.097
 6699SOL    HW120996   1.778   4.291   0.193
 6699SOL    HW220997   1.664   4.297   0.076
 6700SOL     OW20998   6.808   5.709   0.377
 6700SOL    HW120999   6.814   5.806   0.402
 6700SOL    HW221000   6.897   5.665   0.390
 6701SOL     OW21001   0.648   2.034   0.593
 6701SOL    HW121002   0.648   2.103   0.520
 6701SOL    HW221003   0.624   2.077   0.680
 6702SOL     OW21004   3.026   1.892   1.247
 6702SOL    HW121005   2.998   1.979   1.206
 6702SOL    HW221006   2.949   1.828   1.243
 6703SOL     OW21007   0.411   1.886   0.133
 6703SOL    HW121008   0.317   1.911   0.155
 6703SOL    HW221009   0.421   1.787   0.136
 6704SOL     OW21010   5.445   1.883   2.291
 6704SOL    HW121011   5.502   1.962   2.268
 6704SOL    HW221012   5.502   1.801   2.295
 6705SOL     OW21013   5.827   1.643   0.137
 6705SOL    HW121014   5.801   1.735   0.167
 6705SOL    HW221015   5.833   1.642   0.037
 6706SOL     OW21016   0.476   4.557   6.218
 6706SOL    HW121017   0.419   4.603   6.150
 6706SOL    HW221018   0.520   4.477   6.177
 6707SOL     OW21019   1.541   6.153   2.576
 6707SOL    HW121020   1.568   6.166   2.481
 6707SOL    HW221021   1.617   6.178   2.636
 6708SOL     OW21022   2.020   6.153   1.388
 6708SOL    HW121023   2.120   6.146   1.392
 6708SOL    HW221024   1.985   6.176   1.479
 6709SOL     OW21025   4.550   1.352   3.116
 6709SOL    HW121026   4.516   1.292   3.044
 6709SOL    HW221027   4.622   1.411   3.080
 6710SOL     OW21028   3.441   2.447   0.574
 6710SOL    HW121029   3.477   2.539   0.588
 6710SOL    HW221030   3.379   2.446   0.495
 6711SOL     OW21031   3.620   4.232   0.622
 6711SOL    HW121032   3.620   4.316   0.569
 6711SOL    HW221033   3.698   4.175   0.595
 6712SOL     OW21034   3.755   5.382   0.388
 6712SOL    HW121035   3.739   5.477   0.361
 6712SOL    HW221036   3.783   5.329   0.308
 6713SOL     OW21037   2.123   2.294   1.908
 6713SOL    HW121038   2.066   2.285   1.989
 6713SOL    HW221039   2.066   2.287   1.826
 6714SOL     OW21040   6.271   0.959   4.085
 6714SOL    HW121041   6.312   0.999   4.167
 6714SOL    HW221042   6.207   1.023   4.045
 6715SOL     OW21043   0.592   1.421   0.975
 6715SOL    HW121044   0.686   1.402   1.006
 6715SOL    HW221045   0.554   1.338   0.934
 6716SOL     OW21046   2.214   6.355   0.710
 6716SOL    HW121047   2.173   6.418   0.645
 6716SOL    HW221048   2.307   6.385   0.732
 6717SOL     OW21049   3.466   1.713   6.762
 6717SOL    HW121050   3.494   1.772   6.688
 6717SOL    HW221051   3.472   1.617   6.733
 6718SOL     OW21052   3.224   6.951   0.345
 6718SOL    HW121053   3.141   6.943   0.291
 6718SOL    HW221054   3.258   0.025   0.342
 6719SOL     OW21055   0.281   6.961   5.523
 6719SOL    HW121056   0.201   6.932   5.471
 6719SOL    HW221057   0.278   0.040   5.537
 6720SOL     OW21058   2.101   4.839   1.786
 6720SOL    HW121059   2.005   4.823   1.809
 6720SOL    HW221060   2.159   4.805   1.860
 6721SOL     OW21061   5.798   6.315   3.733
 6721SOL    HW121062   5.849   6.230   3.719
 6721SOL    HW221063   5.740   6.332   3.653
 6722SOL     OW21064   4.398   3.478   6.761
 6722SOL    HW121065   4.390   3.416   6.683
 6722SOL    HW221066   4.309   3.518   6.781
 6723SOL     OW21067   4.107   6.153   2.195
 6723SOL    HW121068   4.052   6.222   2.242
 6723SOL    HW221069   4.060   6.065   2.199
 6724SOL     OW21070   3.163   5.177   5.277
 6724SOL    HW121071   3.131   5.186   5.183
 6724SOL    HW221072   3.261   5.156   5.277
 6725SOL     OW21073   0.314   4.470   2.251
 6725SOL    HW121074   0.345   4.379   2.224
 6725SOL    HW221075   0.234   4.496   2.197
 6726SOL     OW21076   2.654   2.334   3.055
 6726SOL    HW121077   2.592   2.255   3.052
 6726SOL    HW221078   2.699   2.338   3.144
 6727SOL     OW21079   3.783   3.569   6.816
 6727SOL    HW121080   3.864   3.591   6.872
 6727SOL    HW221081   3.717   3.520   6.872
 6728SOL     OW21082   4.443   1.543   3.813
 6728SOL    HW121083   4.509   1.580   3.747
 6728SOL    HW221084   4.385   1.476   3.767
 6729SOL     OW21085   5.422   0.302   2.152
 6729SOL    HW121086   5.475   0.373   2.106
 6729SOL    HW221087   5.343   0.278   2.096
 6730SOL     OW21088   2.303   0.831   0.564
 6730SOL    HW121089   2.308   0.815   0.466
 6730SOL    HW221090   2.257   0.918   0.581
 6731SOL     OW21091   2.809   4.736   1.765
 6731SOL    HW121092   2.858   4.662   1.811
 6731SOL    HW221093   2.796   4.812   1.829
 6732SOL     OW21094   2.299   4.880   1.204
 6732SOL    HW121095   2.214   4.917   1.239
 6732SOL    HW221096   2.323   4.925   1.118
 6733SOL     OW21097   5.117   5.942   5.635
 6733SOL    HW121098   5.071   5.862   5.672
 6733SOL    HW221099   5.089   6.024   5.685
 6734SOL     OW21100   2.312   3.282   5.658
 6734SOL    HW121101   2.241   3.233   5.607
 6734SOL    HW221102   2.380   3.217   5.692
 6735SOL     OW21103   0.063   5.410   5.732
 6735SOL    HW121104   7.018   5.342   5.766
 6735SOL    HW221105   0.013   5.489   5.696
 6736SOL     OW21106   2.075   3.564   2.650
 6736SOL    HW121107   2.044   3.623   2.575
 6736SOL    HW221108   2.120   3.483   2.611
 6737SOL     OW21109   2.269   1.121   1.267
 6737SOL    HW121110   2.302   1.054   1.200
 6737SOL    HW221111   2.173   1.143   1.247
 6738SOL     OW21112   3.044   1.416   2.150
 6738SOL    HW121113   3.096   1.353   2.093
 6738SOL    HW221114   2.969   1.367   2.195
 6739SOL     OW21115   3.710   6.083   4.910
 6739SOL    HW121116   3.683   6.165   4.860
 6739SOL    HW221117   3.654   6.074   4.993
 6740SOL     OW21118   6.499   2.191   4.022
 6740SOL    HW121119   6.493   2.191   4.122
 6740SOL    HW221120   6.593   2.213   3.995
 6741SOL     OW21121   6.581   0.217   6.486
 6741SOL    HW121122   6.599   0.131   6.439
 6741SOL    HW221123   6.528   0.198   6.570
 6742SOL     OW21124   6.297   6.164   6.190
 6742SOL    HW121125   6.294   6.065   6.178
 6742SOL    HW221126   6.249   6.189   6.275
 6743SOL     OW21127   4.785   2.978   0.806
 6743SOL    HW121128   4.766   2.937   0.895
 6743SOL    HW221129   4.810   3.074   0.819
 6744SOL     OW21130   4.981   5.038   6.093
 6744SOL    HW121131   5.024   4.979   6.024
 6744SOL    HW221132   4.914   4.985   6.145
 6745SOL     OW21133   7.017   4.407   3.570
 6745SOL    HW121134   6.974   4.494   3.594
 6745SOL    HW221135   7.006   4.391   3.472
 6746SOL     OW21136   0.408   1.639   1.295
 6746SOL    HW121137   0.364   1.550   1.303
 6746SOL    HW221138   0.494   1.638   1.347
 6747SOL     OW21139   5.700   6.550   6.041
 6747SOL    HW121140   5.647   6.601   6.109
 6747SOL    HW221141   5.646   6.471   6.010
 6748SOL     OW21142   0.115   0.222   2.124
 6748SOL    HW121143   0.106   0.247   2.220
 6748SOL    HW221144   0.029   0.184   2.091
 6749SOL     OW21145   3.859   6.385   0.960
 6749SOL    HW121146   3.919   6.457   0.926
 6749SOL    HW221147   3.809   6.344   0.883
 6750SOL     OW21148   2.535   3.219   5.419
 6750SOL    HW121149   2.512   3.175   5.506
 6750SOL    HW221150   2.514   3.157   5.344
 6751SOL     OW21151   3.393   1.827   5.570
 6751SOL    HW121152   3.457   1.813   5.494
 6751SOL    HW221153   3.429   1.897   5.631
 6752SOL     OW21154   6.383   1.984   0.062
 6752SOL    HW121155   6.427   2.073   0.049
 6752SOL    HW221156   6.291   1.987   0.023
 6753SOL     OW21157   5.156   2.141   6.430
 6753SOL    HW121158   5.239   2.112   6.382
 6753SOL    HW221159   5.127   2.230   6.396
 6754SOL     OW21160   5.999   0.504   0.063
 6754SOL    HW121161   6.094   0.473   0.074
 6754SOL    HW221162   5.940   0.452   0.125
 6755SOL     OW21163   4.976   1.948   3.186
 6755SOL    HW121164   4.966   2.047   3.195
 6755SOL    HW221165   5.030   1.913   3.262
 6756SOL     OW21166   5.364   4.179   4.313
 6756SOL    HW121167   5.425   4.234   4.371
 6756SOL    HW221168   5.310   4.118   4.370
 6757SOL     OW21169   5.485   5.314   1.557
 6757SOL    HW121170   5.545   5.262   1.618
 6757SOL    HW221171   5.392   5.315   1.595
 6758SOL     OW21172   5.304   2.351   2.816
 6758SOL    HW121173   5.243   2.301   2.754
 6758SOL    HW221174   5.398   2.343   2.783
 6759SOL     OW21175   0.271   4.873   3.719
 6759SOL    HW121176   0.297   4.777   3.729
 6759SOL    HW221177   0.331   4.918   3.653
 6760SOL     OW21178   0.439   4.034   4.686
 6760SOL    HW121179   0.345   4.057   4.708
 6760SOL    HW221180   0.446   3.937   4.666
 6761SOL     OW21181   5.752   3.429   6.494
 6761SOL    HW121182   5.673   3.490   6.491
 6761SOL    HW221183   5.835   3.483   6.502
 6762SOL     OW21184   5.491   5.014   4.304
 6762SOL    HW121185   5.549   4.975   4.233
 6762SOL    HW221186   5.461   5.105   4.277
 6763SOL     OW21187   5.231   6.156   5.976
 6763SOL    HW121188   5.292   6.089   5.936
 6763SOL    HW221189   5.268   6.248   5.962
 6764SOL     OW21190   2.305   3.641   6.866
 6764SOL    HW121191   2.306   3.666   6.769
 6764SOL    HW221192   2.374   3.571   6.883
 6765SOL     OW21193   5.131   5.151   2.645
 6765SOL    HW121194   5.066   5.076   2.633
 6765SOL    HW221195   5.195   5.153   2.568
 6766SOL     OW21196   1.487   1.050   5.515
 6766SOL    HW121197   1.428   0.969   5.511
 6766SOL    HW221198   1.499   1.079   5.610
 6767SOL     OW21199   0.789   2.325   6.176
 6767SOL    HW121200   0.840   2.356   6.096
 6767SOL    HW221201   0.717   2.392   6.198
 6768SOL     OW21202   0.222   0.205   5.898
 6768SOL    HW121203   0.161   0.203   5.819
 6768SOL    HW221204   0.174   0.246   5.976
 6769SOL     OW21205   1.763   3.142   6.327
 6769SOL    HW121206   1.715   3.080   6.265
 6769SOL    HW221207   1.720   3.232   6.323
 6770SOL     OW21208   7.013   1.458   3.722
 6770SOL    HW121209   6.972   1.430   3.634
 6770SOL    HW221210   0.071   1.518   3.704
 6771SOL     OW21211   4.075   1.134   2.684
 6771SOL    HW121212   4.067   1.234   2.688
 6771SOL    HW221213   3.985   1.093   2.696
 6772SOL     OW21214   0.757   0.904   2.023
 6772SOL    HW121215   0.791   0.812   2.043
 6772SOL    HW221216   0.741   0.953   2.108
 6773SOL     OW21217   1.021   0.509   1.568
 6773SOL    HW121218   0.988   0.416   1.554
 6773SOL    HW221219   0.967   0.572   1.512
 6774SOL     OW21220   2.946   2.036   5.730
 6774SOL    HW121221   2.923   2.042   5.633
 6774SOL    HW221222   2.912   1.949   5.767
 6775SOL     OW21223   0.455   2.892   4.757
 6775SOL    HW121224   0.356   2.890   4.770
 6775SOL    HW221225   0.494   2.964   4.814
 6776SOL     OW21226   3.489   3.561   3.065
 6776SOL    HW121227   3.554   3.492   3.097
 6776SOL    HW221228   3.529   3.652   3.074
 6777SOL     OW21229   6.935   6.370   6.433
 6777SOL    HW121230   6.897   6.345   6.522
 6777SOL    HW221231   0.009   6.401   6.444
 6778SOL     OW21232   5.689   6.056   1.978
 6778SOL    HW121233   5.605   6.001   1.976
 6778SOL    HW221234   5.768   5.995   1.988
 6779SOL     OW21235   5.235   4.240   6.534
 6779SOL    HW121236   5.215   4.327   6.579
 6779SOL    HW221237   5.325   4.207   6.565
 6780SOL     OW21238   3.333   1.269   2.265
 6780SOL    HW121239   3.244   1.288   2.305
 6780SOL    HW221240   3.365   1.348   2.213
 6781SOL     OW21241   6.064   2.356   3.064
 6781SOL    HW121242   6.016   2.420   3.123
 6781SOL    HW221243   6.031   2.263   3.081
 6782SOL     OW21244   6.604   2.029   3.128
 6782SOL    HW121245   6.585   1.935   3.157
 6782SOL    HW221246   6.613   2.088   3.208
 6783SOL     OW21247   0.448   5.811   6.203
 6783SOL    HW121248   0.428   5.898   6.248
 6783SOL    HW221249   0.441   5.822   6.104
 6784SOL     OW21250   1.417   4.275   1.283
 6784SOL    HW121251   1.416   4.183   1.242
 6784SOL    HW221252   1.346   4.280   1.353
 6785SOL     OW21253   5.671   4.941   4.045
 6785SOL    HW121254   5.723   4.988   3.973
 6785SOL    HW221255   5.596   4.890   4.002
 6786SOL     OW21256   5.902   2.101   5.661
 6786SOL    HW121257   5.881   2.091   5.759
 6786SOL    HW221258   5.832   2.056   5.607
 6787SOL     OW21259   3.156   1.947   0.576
 6787SOL    HW121260   3.060   1.977   0.574
 6787SOL    HW221261   3.160   1.849   0.597
 6788SOL     OW21262   0.479   4.267   1.482
 6788SOL    HW121263   0.466   4.366   1.479
 6788SOL    HW221264   0.551   4.241   1.417
 6789SOL     OW21265   5.709   4.709   3.097
 6789SOL    HW121266   5.689   4.617   3.062
 6789SOL    HW221267   5.758   4.702   3.183
 6790SOL     OW21268   0.527   5.441   0.087
 6790SOL    HW121269   0.537   5.427   0.185
 6790SOL    HW221270   0.434   5.415   0.059
 6791SOL     OW21271   2.579   6.582   3.194
 6791SOL    HW121272   2.554   6.486   3.211
 6791SOL    HW221273   2.601   6.627   3.281
 6792SOL     OW21274   3.909   0.225   6.078
 6792SOL    HW121275   3.999   0.269   6.073
 6792SOL    HW221276   3.905   0.167   6.160
 6793SOL     OW21277   1.939   3.437   6.313
 6793SOL    HW121278   1.862   3.432   6.250
 6793SOL    HW221279   2.009   3.498   6.276
 6794SOL     OW21280   6.191   2.338   5.241
 6794SOL    HW121281   6.236   2.317   5.154
 6794SOL    HW221282   6.092   2.334   5.230
 6795SOL     OW21283   1.047   0.860   1.428
 6795SOL    HW121284   1.066   0.864   1.330
 6795SOL    HW221285   0.973   0.795   1.445
 6796SOL     OW21286   6.719   1.667   2.829
 6796SOL    HW121287   6.620   1.670   2.845
 6796SOL    HW221288   6.761   1.600   2.890
 6797SOL     OW21289   1.249   3.318   0.948
 6797SOL    HW121290   1.301   3.286   0.869
 6797SOL    HW221291   1.263   3.417   0.960
 6798SOL     OW21292   4.884   1.218   2.103
 6798SOL    HW121293   4.810   1.214   2.036
 6798SOL    HW221294   4.971   1.199   2.058
 6799SOL     OW21295   6.268   6.888   3.229
 6799SOL    HW121296   6.273   6.946   3.310
 6799SOL    HW221297   6.292   6.941   3.148
 6800SOL     OW21298   6.513   3.224   1.406
 6800SOL    HW121299   6.572   3.239   1.485
 6800SOL    HW221300   6.491   3.126   1.399
 6801SOL     OW21301   0.839   6.277   6.762
 6801SOL    HW121302   0.739   6.266   6.766
 6801SOL    HW221303   0.883   6.208   6.819
 6802SOL     OW21304   3.116   4.633   1.707
 6802SOL    HW121305   3.132   4.720   1.753
 6802SOL    HW221306   3.043   4.584   1.754
 6803SOL     OW21307   5.067   5.770   6.198
 6803SOL    HW121308   4.978   5.753   6.241
 6803SOL    HW221309   5.062   5.852   6.141
 6804SOL     OW21310   3.517   5.165   2.382
 6804SOL    HW121311   3.540   5.230   2.309
 6804SOL    HW221312   3.489   5.215   2.464
 6805SOL     OW21313   0.664   4.243   4.241
 6805SOL    HW121314   0.630   4.226   4.333
 6805SOL    HW221315   0.672   4.156   4.192
 6806SOL     OW21316   6.161   3.101   1.689
 6806SOL    HW121317   6.202   3.015   1.717
 6806SOL    HW221318   6.230   3.173   1.691
 6807SOL     OW21319   3.213   3.953   2.517
 6807SOL    HW121320   3.145   3.897   2.469
 6807SOL    HW221321   3.246   4.025   2.456
 6808SOL     OW21322   3.598   0.850   3.914
 6808SOL    HW121323   3.671   0.888   3.970
 6808SOL    HW221324   3.541   0.924   3.879
 6809SOL     OW21325   5.990   3.095   0.227
 6809SOL    HW121326   5.927   3.156   0.178
 6809SOL    HW221327   5.944   3.008   0.246
 6810SOL     OW21328   2.889   0.423   4.410
 6810SOL    HW121329   2.796   0.451   4.387
 6810SOL    HW221330   2.941   0.408   4.326
 6811SOL     OW21331   6.569   0.990   0.740
 6811SOL    HW121332   6.518   1.039   0.669
 6811SOL    HW221333   6.667   1.009   0.730
 6812SOL     OW21334   3.254   4.814   5.149
 6812SOL    HW121335   3.176   4.842   5.093
 6812SOL    HW221336   3.240   4.720   5.181
 6813SOL     OW21337   0.076   3.942   2.433
 6813SOL    HW121338   0.128   4.014   2.388
 6813SOL    HW221339   0.091   3.945   2.532
 6814SOL     OW21340   5.912   1.366   0.579
 6814SOL    HW121341   5.952   1.304   0.512
 6814SOL    HW221342   5.857   1.314   0.645
 6815SOL     OW21343   0.646   5.997   6.690
 6815SOL    HW121344   0.741   5.979   6.665
 6815SOL    HW221345   0.607   5.915   6.733
 6816SOL     OW21346   6.904   0.162   4.352
 6816SOL    HW121347   6.874   0.257   4.354
 6816SOL    HW221348   6.906   0.129   4.258
 6817SOL     OW21349   4.101   1.962   1.180
 6817SOL    HW121350   4.021   1.910   1.151
 6817SOL    HW221351   4.072   2.039   1.237
 6818SOL     OW21352   1.106   0.002   4.669
 6818SOL    HW121353   1.184   7.015   4.731
 6818SOL    HW221354   1.076   6.930   4.644
 6819SOL     OW21355   4.723   4.456   1.924
 6819SOL    HW121356   4.820   4.435   1.927
 6819SOL    HW221357   4.671   4.378   1.958
 6820SOL     OW21358   2.614   5.136   1.746
 6820SOL    HW121359   2.598   5.095   1.656
 6820SOL    HW221360   2.579   5.075   1.817
 6821SOL     OW21361   3.541   2.914   5.100
 6821SOL    HW121362   3.594   2.866   5.170
 6821SOL    HW221363   3.443   2.897   5.114
 6822SOL     OW21364   5.901   3.639   5.140
 6822SOL    HW121365   5.913   3.549   5.099
 6822SOL    HW221366   5.908   3.709   5.069
 6823SOL     OW21367   0.222   3.025   4.916
 6823SOL    HW121368   0.263   2.970   4.989
 6823SOL    HW221369   0.194   3.114   4.953
 6824SOL     OW21370   0.837   6.811   5.440
 6824SOL    HW121371   0.792   6.746   5.502
 6824SOL    HW221372   0.815   6.904   5.468
 6825SOL     OW21373   4.166   4.249   1.343
 6825SOL    HW121374   4.082   4.207   1.309
 6825SOL    HW221375   4.245   4.203   1.304
 6826SOL     OW21376   6.143   6.912   3.625
 6826SOL    HW121377   6.120   6.966   3.544
 6826SOL    HW221378   6.184   6.972   3.694
 6827SOL     OW21379   4.568   5.682   5.109
 6827SOL    HW121380   4.643   5.733   5.152
 6827SOL    HW221381   4.495   5.745   5.085
 6828SOL     OW21382   3.170   2.050   2.308
 6828SOL    HW121383   3.244   2.030   2.244
 6828SOL    HW221384   3.110   1.970   2.315
 6829SOL     OW21385   3.836   0.008   3.026
 6829SOL    HW121386   3.777   7.001   3.102
 6829SOL    HW221387   3.836   0.108   3.018
 6830SOL     OW21388   4.036   4.783   2.197
 6830SOL    HW121389   4.101   4.789   2.273
 6830SOL    HW221390   4.064   4.711   2.134
 6831SOL     OW21391   1.373   1.628   6.507
 6831SOL    HW121392   1.336   1.718   6.529
 6831SOL    HW221393   1.470   1.625   6.531
 6832SOL     OW21394   2.734   2.394   6.479
 6832SOL    HW121395   2.797   2.340   6.536
 6832SOL    HW221396   2.642   2.389   6.517
 6833SOL     OW21397   3.536   5.321   5.955
 6833SOL    HW121398   3.481   5.285   6.031
 6833SOL    HW221399   3.633   5.306   5.974
 6834SOL     OW21400   6.491   6.862   6.573
 6834SOL    HW121401   6.516   6.781   6.625
 6834SOL    HW221402   6.452   6.931   6.635
 6835SOL     OW21403   2.984   0.786   4.182
 6835SOL    HW121404   3.045   0.725   4.232
 6835SOL    HW221405   2.889   0.768   4.208
 6836SOL     OW21406   1.383   4.784   6.688
 6836SOL    HW121407   1.300   4.729   6.680
 6836SOL    HW221408   1.376   4.844   6.768
 6837SOL     OW21409   5.766   0.832   2.243
 6837SOL    HW121410   5.669   0.822   2.219
 6837SOL    HW221411   5.806   0.742   2.258
 6838SOL     OW21412   2.679   3.886   5.571
 6838SOL    HW121413   2.630   3.859   5.488
 6838SOL    HW221414   2.640   3.972   5.605
 6839SOL     OW21415   6.185   2.981   4.683
 6839SOL    HW121416   6.275   3.011   4.653
 6839SOL    HW221417   6.135   3.057   4.724
 6840SOL     OW21418   2.993   6.278   4.846
 6840SOL    HW121419   2.998   6.292   4.747
 6840SOL    HW221420   3.044   6.196   4.871
 6841SOL     OW21421   4.601   0.062   1.034
 6841SOL    HW121422   4.605   0.151   0.990
 6841SOL    HW221423   4.550   7.018   0.976
 6842SOL     OW21424   0.498   3.745   4.628
 6842SOL    HW121425   0.399   3.740   4.612
 6842SOL    HW221426   0.520   3.695   4.712
 6843SOL     OW21427   4.527   2.261   1.484
 6843SOL    HW121428   4.469   2.189   1.521
 6843SOL    HW221429   4.560   2.320   1.559
 6844SOL     OW21430   3.509   5.473   4.409
 6844SOL    HW121431   3.583   5.437   4.353
 6844SOL    HW221432   3.422   5.433   4.380
 6845SOL     OW21433   3.911   4.507   0.977
 6845SOL    HW121434   3.911   4.557   0.890
 6845SOL    HW221435   3.996   4.456   0.986
 6846SOL     OW21436   4.068   3.103   2.494
 6846SOL    HW121437   4.165   3.075   2.492
 6846SOL    HW221438   4.016   3.046   2.430
 6847SOL     OW21439   6.302   3.788   1.482
 6847SOL    HW121440   6.401   3.794   1.491
 6847SOL    HW221441   6.259   3.791   1.572
 6848SOL     OW21442   6.319   6.315   3.817
 6848SOL    HW121443   6.284   6.289   3.727
 6848SOL    HW221444   6.401   6.371   3.805
 6849SOL     OW21445   3.305   6.565   4.261
 6849SOL    HW121446   3.376   6.495   4.274
 6849SOL    HW221447   3.215   6.526   4.279
 6850SOL     OW21448   5.242   3.344   1.029
 6850SOL    HW121449   5.265   3.379   1.120
 6850SOL    HW221450   5.212   3.249   1.037
 6851SOL     OW21451   1.538   5.854   5.171
 6851SOL    HW121452   1.541   5.920   5.096
 6851SOL    HW221453   1.555   5.762   5.135
 6852SOL     OW21454   0.290   4.846   1.653
 6852SOL    HW121455   0.212   4.799   1.612
 6852SOL    HW221456   0.315   4.925   1.596
 6853SOL     OW21457   6.536   3.709   5.196
 6853SOL    HW121458   6.566   3.633   5.140
 6853SOL    HW221459   6.501   3.675   5.284
 6854SOL     OW21460   0.410   2.005   6.905
 6854SOL    HW121461   0.467   2.087   6.900
 6854SOL    HW221462   0.412   1.969   6.998
 6855SOL     OW21463   3.229   6.251   1.964
 6855SOL    HW121464   3.146   6.234   2.016
 6855SOL    HW221465   3.291   6.308   2.017
 6856SOL     OW21466   0.390   4.345   5.025
 6856SOL    HW121467   0.372   4.440   5.049
 6856SOL    HW221468   0.474   4.339   4.970
 6857SOL     OW21469   4.482   1.290   5.813
 6857SOL    HW121470   4.385   1.274   5.831
 6857SOL    HW221471   4.492   1.361   5.744
 6858SOL     OW21472   3.631   2.733   5.289
 6858SOL    HW121473   3.717   2.684   5.302
 6858SOL    HW221474   3.559   2.667   5.266
 6859SOL     OW21475   3.637   0.290   0.213
 6859SOL    HW121476   3.568   0.353   0.249
 6859SOL    HW221477   3.729   0.325   0.235
 6860SOL     OW21478   4.750   4.631   0.118
 6860SOL    HW121479   4.681   4.569   0.081
 6860SOL    HW221480   4.774   4.604   0.211
 6861SOL     OW21481   5.588   4.374   0.602
 6861SOL    HW121482   5.623   4.436   0.533
 6861SOL    HW221483   5.503   4.332   0.570
 6862SOL     OW21484   3.460   5.686   3.526
 6862SOL    HW121485   3.543   5.644   3.562
 6862SOL    HW221486   3.400   5.616   3.490
 6863SOL     OW21487   0.846   2.961   4.021
 6863SOL    HW121488   0.759   3.010   4.027
 6863SOL    HW221489   0.889   2.957   4.111
 6864SOL     OW21490   4.329   5.446   5.831
 6864SOL    HW121491   4.401   5.479   5.890
 6864SOL    HW221492   4.262   5.395   5.885
 6865SOL     OW21493   6.015   3.203   4.705
 6865SOL    HW121494   5.975   3.264   4.773
 6865SOL    HW221495   6.036   3.256   4.622
 6866SOL     OW21496   0.424   3.685   2.136
 6866SOL    HW121497   0.376   3.600   2.114
 6866SOL    HW221498   0.505   3.664   2.192
 6867SOL     OW21499   2.494   4.526   2.355
 6867SOL    HW121500   2.520   4.550   2.448
 6867SOL    HW221501   2.437   4.444   2.356
 6868SOL     OW21502   1.806   5.131   4.866
 6868SOL    HW121503   1.743   5.090   4.932
 6868SOL    HW221504   1.779   5.106   4.774
 6869SOL     OW21505   6.387   3.502   4.811
 6869SOL    HW121506   6.370   3.445   4.730
 6869SOL    HW221507   6.383   3.598   4.786
 6870SOL     OW21508   5.304   3.637   2.463
 6870SOL    HW121509   5.398   3.611   2.485
 6870SOL    HW221510   5.295   3.736   2.471
 6871SOL     OW21511   4.948   0.759   1.665
 6871SOL    HW121512   4.921   0.854   1.684
 6871SOL    HW221513   4.913   0.732   1.575
 6872SOL     OW21514   2.996   3.612   0.084
 6872SOL    HW121515   3.011   3.585   7.008
 6872SOL    HW221516   2.948   3.538   0.131
 6873SOL     OW21517   5.541   4.378   5.892
 6873SOL    HW121518   5.529   4.463   5.841
 6873SOL    HW221519   5.636   4.347   5.884
 6874SOL     OW21520   0.824   2.723   5.452
 6874SOL    HW121521   0.822   2.626   5.430
 6874SOL    HW221522   0.832   2.776   5.368
 6875SOL     OW21523   2.902   1.687   4.250
 6875SOL    HW121524   2.986   1.695   4.304
 6875SOL    HW221525   2.923   1.650   4.160
 6876SOL     OW21526   3.601   6.572   5.853
 6876SOL    HW121527   3.599   6.478   5.886
 6876SOL    HW221528   3.694   6.595   5.824
 6877SOL     OW21529   2.579   3.967   7.004
 6877SOL    HW121530   2.593   3.970   0.083
 6877SOL    HW221531   2.485   3.940   6.984
 6878SOL     OW21532   1.818   1.758   4.921
 6878SOL    HW121533   1.908   1.789   4.891
 6878SOL    HW221534   1.785   1.818   4.994
 6879SOL     OW21535   1.005   1.536   6.068
 6879SOL    HW121536   1.032   1.473   6.140
 6879SOL    HW221537   1.067   1.614   6.067
 6880SOL     OW21538   1.783   4.622   5.034
 6880SOL    HW121539   1.721   4.653   5.106
 6880SOL    HW221540   1.877   4.637   5.063
 6881SOL     OW21541   6.595   4.955   1.587
 6881SOL    HW121542   6.526   5.026   1.586
 6881SOL    HW221543   6.573   4.886   1.518
 6882SOL     OW21544   1.898   0.473   5.467
 6882SOL    HW121545   1.959   0.542   5.427
 6882SOL    HW221546   1.836   0.438   5.397
 6883SOL     OW21547   3.309   5.913   1.659
 6883SOL    HW121548   3.308   5.991   1.596
 6883SOL    HW221549   3.215   5.881   1.673
 6884SOL     OW21550   2.996   4.791   2.874
 6884SOL    HW121551   2.992   4.818   2.970
 6884SOL    HW221552   3.089   4.806   2.839
 6885SOL     OW21553   3.730   5.417   5.023
 6885SOL    HW121554   3.793   5.494   5.008
 6885SOL    HW221555   3.693   5.422   5.116
 6886SOL     OW21556   5.222   2.219   2.394
 6886SOL    HW121557   5.184   2.174   2.475
 6886SOL    HW221558   5.218   2.156   2.316
 6887SOL     OW21559   5.205   0.413   4.711
 6887SOL    HW121560   5.173   0.506   4.689
 6887SOL    HW221561   5.288   0.419   4.768
 6888SOL     OW21562   5.271   5.839   4.997
 6888SOL    HW121563   5.226   5.864   5.082
 6888SOL    HW221564   5.248   5.905   4.926
 6889SOL     OW21565   1.688   4.062   5.857
 6889SOL    HW121566   1.588   4.065   5.856
 6889SOL    HW221567   1.721   4.077   5.950
 6890SOL     OW21568   2.294   0.653   7.003
 6890SOL    HW121569   2.302   0.604   6.917
 6890SOL    HW221570   2.375   0.712   7.016
 6891SOL     OW21571   3.220   4.929   4.585
 6891SOL    HW121572   3.211   5.018   4.629
 6891SOL    HW221573   3.292   4.932   4.517
 6892SOL     OW21574   4.148   1.012   3.772
 6892SOL    HW121575   4.211   1.041   3.844
 6892SOL    HW221576   4.182   1.043   3.683
 6893SOL     OW21577   6.305   6.972   2.449
 6893SOL    HW121578   6.332   6.887   2.404
 6893SOL    HW221579   6.297   0.025   2.380
 6894SOL     OW21580   6.262   4.649   6.068
 6894SOL    HW121581   6.318   4.576   6.108
 6894SOL    HW221582   6.240   4.716   6.139
 6895SOL     OW21583   4.188   4.906   6.423
 6895SOL    HW121584   4.093   4.904   6.453
 6895SOL    HW221585   4.191   4.909   6.323
 6896SOL     OW21586   4.273   6.697   3.531
 6896SOL    HW121587   4.298   6.792   3.511
 6896SOL    HW221588   4.356   6.641   3.536
 6897SOL     OW21589   3.648   2.077   0.412
 6897SOL    HW121590   3.641   2.144   0.486
 6897SOL    HW221591   3.568   2.017   0.414
 6898SOL     OW21592   4.102   1.386   2.624
 6898SOL    HW121593   4.149   1.433   2.550
 6898SOL    HW221594   4.040   1.449   2.671
 6899SOL     OW21595   5.412   6.623   0.008
 6899SOL    HW121596   5.317   6.611   0.035
 6899SOL    HW221597   5.465   6.543   0.035
 6900SOL     OW21598   4.182   1.579   5.038
 6900SOL    HW121599   4.221   1.536   5.120
 6900SOL    HW221600   4.084   1.559   5.034
 6901SOL     OW21601   1.556   0.609   7.010
 6901SOL    HW121602   1.504   0.690   0.018
 6901SOL    HW221603   1.646   0.638   6.977
 6902SOL     OW21604   6.187   5.372   1.474
 6902SOL    HW121605   6.107   5.363   1.414
 6902SOL    HW221606   6.201   5.469   1.496
 6903SOL     OW21607   4.272   3.822   1.138
 6903SOL    HW121608   4.370   3.817   1.120
 6903SOL    HW221609   4.257   3.847   1.234
 6904SOL     OW21610   0.067   1.437   3.133
 6904SOL    HW121611   0.095   1.397   3.046
 6904SOL    HW221612   0.086   1.373   3.207
 6905SOL     OW21613   4.412   4.959   0.860
 6905SOL    HW121614   4.380   5.003   0.776
 6905SOL    HW221615   4.357   4.990   0.938
 6906SOL     OW21616   4.272   6.183   3.917
 6906SOL    HW121617   4.180   6.173   3.954
 6906SOL    HW221618   4.270   6.179   3.818
 6907SOL     OW21619   3.746   1.642   1.678
 6907SOL    HW121620   3.725   1.708   1.606
 6907SOL    HW221621   3.701   1.555   1.656
 6908SOL     OW21622   0.115   6.655   6.605
 6908SOL    HW121623   0.081   6.638   6.697
 6908SOL    HW221624   0.194   6.596   6.587
 6909SOL     OW21625   4.815   3.249   6.892
 6909SOL    HW121626   4.851   3.277   6.981
 6909SOL    HW221627   4.748   3.317   6.860
 6910SOL     OW21628   6.576   1.355   2.099
 6910SOL    HW121629   6.497   1.310   2.142
 6910SOL    HW221630   6.598   1.309   2.013
 6911SOL     OW21631   4.130   0.562   5.268
 6911SOL    HW121632   4.172   0.494   5.208
 6911SOL    HW221633   4.083   0.631   5.213
 6912SOL     OW21634   4.714   5.115   0.884
 6912SOL    HW121635   4.810   5.136   0.901
 6912SOL    HW221636   4.683   5.046   0.950
 6913SOL     OW21637   5.039   5.271   5.301
 6913SOL    HW121638   5.013   5.197   5.239
 6913SOL    HW221639   4.972   5.345   5.295
 6914SOL     OW21640   6.275   4.984   0.530
 6914SOL    HW121641   6.239   4.892   0.546
 6914SOL    HW221642   6.268   5.006   0.432
 6915SOL     OW21643   1.039   5.820   1.193
 6915SOL    HW121644   1.125   5.771   1.209
 6915SOL    HW221645   1.046   5.913   1.231
 6916SOL     OW21646   0.089   1.531   6.845
 6916SOL    HW121647   0.097   1.594   6.921
 6916SOL    HW221648   0.136   1.569   6.765
 6917SOL     OW21649   5.075   0.057   6.639
 6917SOL    HW121650   5.169   0.021   6.632
 6917SOL    HW221651   5.048   0.058   6.735
 6918SOL     OW21652   2.261   2.936   3.649
 6918SOL    HW121653   2.302   3.013   3.600
 6918SOL    HW221654   2.239   2.863   3.585
 6919SOL     OW21655   1.452   6.432   3.579
 6919SOL    HW121656   1.358   6.459   3.558
 6919SOL    HW221657   1.515   6.486   3.524
 6920SOL     OW21658   4.678   6.364   5.000
 6920SOL    HW121659   4.716   6.455   4.984
 6920SOL    HW221660   4.748   6.294   4.982
 6921SOL     OW21661   0.090   6.838   2.912
 6921SOL    HW121662   0.069   6.789   2.996
 6921SOL    HW221663   0.066   6.782   2.833
 6922SOL     OW21664   1.492   5.343   6.827
 6922SOL    HW121665   1.431   5.280   6.876
 6922SOL    HW221666   1.486   5.325   6.729
 6923SOL     OW21667   4.664   6.615   4.682
 6923SOL    HW121668   4.658   6.678   4.604
 6923SOL    HW221669   4.573   6.584   4.706
 6924SOL     OW21670   6.979   6.053   1.194
 6924SOL    HW121671   6.969   6.095   1.284
 6924SOL    HW221672   0.050   6.074   1.157
 6925SOL     OW21673   5.768   5.672   2.998
 6925SOL    HW121674   5.758   5.741   3.068
 6925SOL    HW221675   5.753   5.713   2.908
 6926SOL     OW21676   2.962   3.847   4.590
 6926SOL    HW121677   2.919   3.823   4.676
 6926SOL    HW221678   2.896   3.837   4.515
 6927SOL     OW21679   4.484   3.757   6.106
 6927SOL    HW121680   4.435   3.670   6.104
 6927SOL    HW221681   4.572   3.747   6.059
 6928SOL     OW21682   6.222   6.802   6.380
 6928SOL    HW121683   6.280   6.819   6.460
 6928SOL    HW221684   6.143   6.747   6.407
 6929SOL     OW21685   3.473   5.283   0.368
 6929SOL    HW121686   3.568   5.313   0.356
 6929SOL    HW221687   3.455   5.207   0.307
 6930SOL     OW21688   1.284   6.129   3.236
 6930SOL    HW121689   1.334   6.054   3.279
 6930SOL    HW221690   1.237   6.183   3.306
 6931SOL     OW21691   1.533   0.833   1.627
 6931SOL    HW121692   1.541   0.824   1.527
 6931SOL    HW221693   1.453   0.889   1.649
 6932SOL     OW21694   2.713   2.196   0.614
 6932SOL    HW121695   2.703   2.227   0.708
 6932SOL    HW221696   2.725   2.275   0.553
 6933SOL     OW21697   3.746   6.610   6.793
 6933SOL    HW121698   3.795   6.696   6.781
 6933SOL    HW221699   3.657   6.626   6.835
 6934SOL     OW21700   6.310   3.942   6.006
 6934SOL    HW121701   6.366   3.933   6.088
 6934SOL    HW221702   6.217   3.968   6.031
 6935SOL     OW21703   4.591   5.438   3.591
 6935SOL    HW121704   4.527   5.366   3.566
 6935SOL    HW221705   4.683   5.401   3.595
 6936SOL     OW21706   1.595   4.468   1.369
 6936SOL    HW121707   1.576   4.477   1.467
 6936SOL    HW221708   1.539   4.395   1.331
 6937SOL     OW21709   4.332   7.017   6.146
 6937SOL    HW121710   4.283   0.026   6.229
 6937SOL    HW221711   4.404   0.063   6.125
 6938SOL     OW21712   5.289   1.855   4.696
 6938SOL    HW121713   5.322   1.923   4.631
 6938SOL    HW221714   5.323   1.878   4.788
 6939SOL     OW21715   0.752   5.039   2.805
 6939SOL    HW121716   0.851   5.038   2.794
 6939SOL    HW221717   0.708   5.026   2.715
 6940SOL     OW21718   4.083   0.532   5.520
 6940SOL    HW121719   4.119   0.623   5.542
 6940SOL    HW221720   4.095   0.514   5.423
 6941SOL     OW21721   3.885   3.042   3.313
 6941SOL    HW121722   3.936   2.983   3.250
 6941SOL    HW221723   3.882   3.135   3.277
 6942SOL     OW21724   6.851   1.537   0.187
 6942SOL    HW121725   6.824   1.518   0.093
 6942SOL    HW221726   6.817   1.628   0.214
 6943SOL     OW21727   4.793   6.117   6.540
 6943SOL    HW121728   4.833   6.115   6.631
 6943SOL    HW221729   4.751   6.028   6.520
 6944SOL     OW21730   1.578   6.581   6.276
 6944SOL    HW121731   1.517   6.516   6.232
 6944SOL    HW221732   1.527   6.636   6.342
 6945SOL     OW21733   5.323   2.164   5.730
 6945SOL    HW121734   5.280   2.087   5.684
 6945SOL    HW221735   5.336   2.142   5.827
 6946SOL     OW21736   6.345   4.538   3.708
 6946SOL    HW121737   6.433   4.503   3.741
 6946SOL    HW221738   6.272   4.512   3.771
 6947SOL     OW21739   3.666   7.011   2.768
 6947SOL    HW121740   3.717   6.993   2.852
 6947SOL    HW221741   3.689   6.942   2.700
 6948SOL     OW21742   3.951   1.654   4.855
 6948SOL    HW121743   4.039   1.679   4.815
 6948SOL    HW221744   3.912   1.576   4.806
 6949SOL     OW21745   5.229   0.633   2.530
 6949SOL    HW121746   5.231   0.727   2.498
 6949SOL    HW221747   5.235   0.631   2.629
 6950SOL     OW21748   2.042   0.775   3.599
 6950SOL    HW121749   2.077   0.811   3.513
 6950SOL    HW221750   1.942   0.778   3.599
 6951SOL     OW21751   5.790   5.204   5.813
 6951SOL    HW121752   5.760   5.112   5.839
 6951SOL    HW221753   5.761   5.270   5.883
 6952SOL     OW21754   0.627   5.034   4.755
 6952SOL    HW121755   0.546   5.086   4.728
 6952SOL    HW221756   0.679   5.087   4.822
 6953SOL     OW21757   5.211   1.456   4.783
 6953SOL    HW121758   5.268   1.412   4.713
 6953SOL    HW221759   5.155   1.386   4.829
 6954SOL     OW21760   0.902   4.664   2.870
 6954SOL    HW121761   0.869   4.719   2.948
 6954SOL    HW221762   0.834   4.594   2.848
 6955SOL     OW21763   6.026   5.224   2.311
 6955SOL    HW121764   5.953   5.180   2.365
 6955SOL    HW221765   6.037   5.319   2.341
 6956SOL     OW21766   3.077   4.993   1.752
 6956SOL    HW121767   3.122   4.905   1.737
 6956SOL    HW221768   3.058   5.005   1.850
 6957SOL     OW21769   0.684   3.877   0.461
 6957SOL    HW121770   0.712   3.935   0.384
 6957SOL    HW221771   0.727   3.910   0.545
 6958SOL     OW21772   2.447   3.579   6.359
 6958SOL    HW121773   2.429   3.675   6.338
 6958SOL    HW221774   2.540   3.570   6.396
 6959SOL     OW21775   3.221   0.900   4.467
 6959SOL    HW121776   3.202   0.802   4.469
 6959SOL    HW221777   3.249   0.930   4.558
 6960SOL     OW21778   6.994   5.161   6.900
 6960SOL    HW121779   6.942   5.075   6.909
 6960SOL    HW221780   0.064   5.150   6.943
 6961SOL     OW21781   6.900   1.471   2.942
 6961SOL    HW121782   6.958   1.483   3.022
 6961SOL    HW221783   6.821   1.414   2.966
 6962SOL     OW21784   4.511   3.572   0.451
 6962SOL    HW121785   4.536   3.491   0.503
 6962SOL    HW221786   4.418   3.600   0.476
 6963SOL     OW21787   6.015   5.414   1.992
 6963SOL    HW121788   5.941   5.469   2.030
 6963SOL    HW221789   6.064   5.368   2.066
 6964SOL     OW21790   3.680   6.470   5.188
 6964SOL    HW121791   3.760   6.484   5.130
 6964SOL    HW221792   3.691   6.387   5.243
 6965SOL     OW21793   6.658   3.176   6.086
 6965SOL    HW121794   6.719   3.246   6.049
 6965SOL    HW221795   6.572   3.218   6.113
 6966SOL     OW21796   4.654   2.570   3.889
 6966SOL    HW121797   4.668   2.525   3.800
 6966SOL    HW221798   4.668   2.668   3.879
 6967SOL     OW21799   2.100   1.030   6.552
 6967SOL    HW121800   2.158   0.960   6.594
 6967SOL    HW221801   2.147   1.119   6.557
 6968SOL     OW21802   4.795   0.217   2.049
 6968SOL    HW121803   4.766   0.289   1.986
 6968SOL    HW221804   4.720   0.153   2.064
 6969SOL     OW21805   3.302   1.503   1.382
 6969SOL    HW121806   3.335   1.575   1.321
 6969SOL    HW221807   3.363   1.424   1.378
 6970SOL     OW21808   4.766   3.527   0.292
 6970SOL    HW121809   4.681   3.550   0.339
 6970SOL    HW221810   4.842   3.575   0.336
 6971SOL     OW21811   5.535   0.951   2.586
 6971SOL    HW121812   5.606   1.003   2.538
 6971SOL    HW221813   5.457   0.936   2.526
 6972SOL     OW21814   5.387   4.789   4.814
 6972SOL    HW121815   5.457   4.775   4.744
 6972SOL    HW221816   5.323   4.859   4.784
 6973SOL     OW21817   2.339   4.692   3.708
 6973SOL    HW121818   2.390   4.761   3.656
 6973SOL    HW221819   2.379   4.602   3.694
 6974SOL     OW21820   3.523   3.835   4.857
 6974SOL    HW121821   3.436   3.799   4.823
 6974SOL    HW221822   3.565   3.892   4.788
 6975SOL     OW21823   3.960   1.451   5.724
 6975SOL    HW121824   3.982   1.365   5.679
 6975SOL    HW221825   4.044   1.497   5.751
 6976SOL     OW21826   2.068   5.106   6.621
 6976SOL    HW121827   2.053   5.009   6.604
 6976SOL    HW221828   1.998   5.140   6.685
 6977SOL     OW21829   3.448   1.906   2.739
 6977SOL    HW121830   3.545   1.913   2.715
 6977SOL    HW221831   3.394   1.963   2.678
 6978SOL     OW21832   6.210   0.891   3.176
 6978SOL    HW121833   6.234   0.885   3.273
 6978SOL    HW221834   6.264   0.826   3.124
 6979SOL     OW21835   0.566   4.906   3.016
 6979SOL    HW121836   0.616   4.956   2.946
 6979SOL    HW221837   0.526   4.970   3.081
 6980SOL     OW21838   3.478   0.870   4.844
 6980SOL    HW121839   3.565   0.905   4.811
 6980SOL    HW221840   3.478   0.770   4.837
 6981SOL     OW21841   2.499   4.697   6.358
 6981SOL    HW121842   2.444   4.768   6.401
 6981SOL    HW221843   2.512   4.720   6.261
 6982SOL     OW21844   0.135   6.395   4.651
 6982SOL    HW121845   0.125   6.438   4.561
 6982SOL    HW221846   0.226   6.414   4.687
 6983SOL     OW21847   6.191   0.706   4.111
 6983SOL    HW121848   6.093   0.728   4.109
 6983SOL    HW221849   6.244   0.791   4.114
 6984SOL     OW21850   1.852   1.324   6.547
 6984SOL    HW121851   1.910   1.372   6.613
 6984SOL    HW221852   1.809   1.389   6.485
 6985SOL     OW21853   4.725   6.298   1.886
 6985SOL    HW121854   4.732   6.390   1.847
 6985SOL    HW221855   4.805   6.244   1.862
 6986SOL     OW21856   2.088   6.772   5.025
 6986SOL    HW121857   1.998   6.782   4.983
 6986SOL    HW221858   2.109   6.675   5.038
 6987SOL     OW21859   0.382   3.507   6.492
 6987SOL    HW121860   0.364   3.441   6.419
 6987SOL    HW221861   0.379   3.600   6.454
 6988SOL     OW21862   4.804   0.777   4.289
 6988SOL    HW121863   4.791   0.692   4.240
 6988SOL    HW221864   4.899   0.808   4.277
 6989SOL     OW21865   1.736   2.599   4.186
 6989SOL    HW121866   1.712   2.506   4.214
 6989SOL    HW221867   1.797   2.595   4.106
 6990SOL     OW21868   3.743   3.338   0.082
 6990SOL    HW121869   3.829   3.390   0.075
 6990SOL    HW221870   3.719   3.300   7.013
 6991SOL     OW21871   4.002   4.465   5.390
 6991SOL    HW121872   4.056   4.394   5.346
 6991SOL    HW221873   4.012   4.458   5.489
 6992SOL     OW21874   5.315   6.877   5.615
 6992SOL    HW121875   5.299   6.975   5.598
 6992SOL    HW221876   5.412   6.857   5.602
 6993SOL     OW21877   0.270   0.007   2.801
 6993SOL    HW121878   0.200   6.960   2.826
 6993SOL    HW221879   0.242   0.054   2.717
 6994SOL     OW21880   1.271   2.479   6.949
 6994SOL    HW121881   1.230   2.570   6.944
 6994SOL    HW221882   1.239   2.432   0.013
 6995SOL     OW21883   0.169   5.869   3.078
 6995SOL    HW121884   0.159   5.779   3.036
 6995SOL    HW221885   0.241   5.920   3.030
 6996SOL     OW21886   2.216   6.668   5.932
 6996SOL    HW121887   2.159   6.623   5.863
 6996SOL    HW221888   2.301   6.616   5.944
 6997SOL     OW21889   4.486   0.235   4.785
 6997SOL    HW121890   4.544   0.172   4.838
 6997SOL    HW221891   4.423   0.182   4.728
 6998SOL     OW21892   1.476   2.859   2.991
 6998SOL    HW121893   1.486   2.928   2.919
 6998SOL    HW221894   1.564   2.812   3.004
 6999SOL     OW21895   3.582   1.759   6.443
 6999SOL    HW121896   3.524   1.833   6.478
 6999SOL    HW221897   3.532   1.709   6.372
 7000SOL     OW21898   6.842   6.428   1.618
 7000SOL    HW121899   6.918   6.433   1.682
 7000SOL    HW221900   6.757   6.412   1.668
 7001SOL     OW21901   2.671   2.171   5.557
 7001SOL    HW121902   2.736   2.247   5.554
 7001SOL    HW221903   2.716   2.088   5.524
 7002SOL     OW21904   1.956   4.860   2.647
 7002SOL    HW121905   1.886   4.853   2.719
 7002SOL    HW221906   1.913   4.849   2.558
 7003SOL     OW21907   3.065   6.130   0.092
 7003SOL    HW121908   2.973   6.130   0.053
 7003SOL    HW221909   3.059   6.146   0.191
 7004SOL     OW21910   1.323   4.879   1.135
 7004SOL    HW121911   1.241   4.828   1.112
 7004SOL    HW221912   1.394   4.861   1.067
 7005SOL     OW21913   5.648   0.073   5.480
 7005SOL    HW121914   5.615   0.018   5.556
 7005SOL    HW221915   5.599   0.047   5.397
 7006SOL     OW21916   4.356   4.828   5.030
 7006SOL    HW121917   4.339   4.731   5.017
 7006SOL    HW221918   4.282   4.868   5.084
 7007SOL     OW21919   4.839   4.980   2.376
 7007SOL    HW121920   4.907   4.946   2.441
 7007SOL    HW221921   4.749   4.945   2.400
 7008SOL     OW21922   0.569   4.777   4.502
 7008SOL    HW121923   0.562   4.721   4.419
 7008SOL    HW221924   0.606   4.867   4.477
 7009SOL     OW21925   0.094   4.644   2.403
 7009SOL    HW121926   0.164   4.600   2.459
 7009SOL    HW221927   0.094   4.604   2.311
 7010SOL     OW21928   4.407   4.728   6.240
 7010SOL    HW121929   4.450   4.812   6.270
 7010SOL    HW221930   4.351   4.746   6.158
 7011SOL     OW21931   2.223   1.454   5.067
 7011SOL    HW121932   2.134   1.429   5.028
 7011SOL    HW221933   2.246   1.548   5.042
 7012SOL     OW21934   1.202   1.203   2.391
 7012SOL    HW121935   1.228   1.125   2.333
 7012SOL    HW221936   1.228   1.288   2.345
 7013SOL     OW21937   0.745   0.345   2.357
 7013SOL    HW121938   0.739   0.422   2.421
 7013SOL    HW221939   0.827   0.292   2.376
 7014SOL     OW21940   2.619   5.066   1.458
 7014SOL    HW121941   2.698   5.050   1.398
 7014SOL    HW221942   2.548   4.999   1.439
 7015SOL     OW21943   4.809   2.629   2.123
 7015SOL    HW121944   4.906   2.602   2.123
 7015SOL    HW221945   4.799   2.715   2.173
 7016SOL     OW21946   3.240   5.107   0.597
 7016SOL    HW121947   3.156   5.130   0.646
 7016SOL    HW221948   3.317   5.104   0.661
 7017SOL     OW21949   3.573   1.820   4.243
 7017SOL    HW121950   3.584   1.856   4.336
 7017SOL    HW221951   3.660   1.787   4.208
 7018SOL     OW21952   0.196   5.382   4.048
 7018SOL    HW121953   0.172   5.314   3.979
 7018SOL    HW221954   0.217   5.336   4.134
 7019SOL     OW21955   2.011   6.050   0.031
 7019SOL    HW121956   1.977   6.034   0.124
 7019SOL    HW221957   2.050   6.141   0.025
 7020SOL     OW21958   6.701   0.007   6.084
 7020SOL    HW121959   6.682   0.104   6.073
 7020SOL    HW221960   6.652   6.975   6.013
 7021SOL     OW21961   3.025   1.261   5.789
 7021SOL    HW121962   2.985   1.233   5.701
 7021SOL    HW221963   2.995   1.198   5.860
 7022SOL     OW21964   5.254   5.280   6.593
 7022SOL    HW121965   5.175   5.262   6.535
 7022SOL    HW221966   5.330   5.313   6.537
 7023SOL     OW21967   6.442   4.262   2.632
 7023SOL    HW121968   6.348   4.248   2.662
 7023SOL    HW221969   6.443   4.296   2.538
 7024SOL     OW21970   0.331   6.343   0.393
 7024SOL    HW121971   0.301   6.408   0.323
 7024SOL    HW221972   0.353   6.255   0.350
 7025SOL     OW21973   2.745   0.642   5.958
 7025SOL    HW121974   2.779   0.602   6.044
 7025SOL    HW221975   2.700   0.571   5.904
 7026SOL     OW21976   4.129   2.137   0.874
 7026SOL    HW121977   4.143   2.038   0.868
 7026SOL    HW221978   4.205   2.179   0.924
 7027SOL     OW21979   4.408   0.035   4.633
 7027SOL    HW121980   4.497   0.032   4.586
 7027SOL    HW221981   4.360   6.969   4.617
 7028SOL     OW21982   3.339   6.888   4.690
 7028SOL    HW121983   3.251   6.899   4.736
 7028SOL    HW221984   3.404   6.844   4.752
 7029SOL     OW21985   3.290   0.662   5.366
 7029SOL    HW121986   3.385   0.663   5.396
 7029SOL    HW221987   3.249   0.574   5.389
 7030SOL     OW21988   1.952   4.041   4.347
 7030SOL    HW121989   1.936   4.119   4.287
 7030SOL    HW221990   2.051   4.025   4.354
 7031SOL     OW21991   2.523   6.677   5.115
 7031SOL    HW121992   2.480   6.691   5.026
 7031SOL    HW221993   2.583   6.754   5.136
 7032SOL     OW21994   5.889   1.344   2.519
 7032SOL    HW121995   5.852   1.397   2.443
 7032SOL    HW221996   5.954   1.401   2.571
 7033SOL     OW21997   6.633   0.388   4.010
 7033SOL    HW121998   6.667   0.348   3.925
 7033SOL    HW221999   6.709   0.414   4.069
 7034SOL     OW22000   6.140   5.896   3.237
 7034SOL    HW122001   6.184   5.832   3.174
 7034SOL    HW222002   6.201   5.973   3.254
 7035SOL     OW22003   6.399   5.419   1.911
 7035SOL    HW122004   6.413   5.358   1.988
 7035SOL    HW222005   6.311   5.399   1.868
 7036SOL     OW22006   6.581   4.563   1.307
 7036SOL    HW122007   6.538   4.557   1.217
 7036SOL    HW222008   6.571   4.476   1.355
 7037SOL     OW22009   1.422   6.734   6.442
 7037SOL    HW122010   1.368   6.711   6.523
 7037SOL    HW222011   1.361   6.755   6.366
 7038SOL     OW22012   1.655   4.511   4.231
 7038SOL    HW122013   1.586   4.499   4.160
 7038SOL    HW222014   1.617   4.487   4.320
 7039SOL     OW22015   4.398   1.323   6.648
 7039SOL    HW122016   4.487   1.335   6.605
 7039SOL    HW222017   4.405   1.258   6.723
 7040SOL     OW22018   4.561   2.792   6.014
 7040SOL    HW122019   4.563   2.713   5.951
 7040SOL    HW222020   4.520   2.764   6.101
 7041SOL     OW22021   2.746   1.349   2.513
 7041SOL    HW122022   2.652   1.364   2.542
 7041SOL    HW222023   2.793   1.290   2.578
 7042SOL     OW22024   2.445   0.255   6.170
 7042SOL    HW122025   2.409   0.329   6.227
 7042SOL    HW222026   2.468   0.176   6.228
 7043SOL     OW22027   1.652   2.008   2.897
 7043SOL    HW122028   1.557   2.034   2.911
 7043SOL    HW222029   1.661   1.960   2.809
 7044SOL     OW22030   4.845   5.994   2.167
 7044SOL    HW122031   4.878   6.029   2.254
 7044SOL    HW222032   4.921   5.949   2.119
 7045SOL     OW22033   5.397   5.301   0.803
 7045SOL    HW122034   5.415   5.399   0.801
 7045SOL    HW222035   5.477   5.251   0.771
 7046SOL     OW22036   2.399   0.614   4.761
 7046SOL    HW122037   2.418   0.642   4.855
 7046SOL    HW222038   2.300   0.607   4.747
 7047SOL     OW22039   1.886   1.268   4.244
 7047SOL    HW122040   1.969   1.247   4.297
 7047SOL    HW222041   1.855   1.185   4.198
 7048SOL     OW22042   6.265   6.516   0.126
 7048SOL    HW122043   6.198   6.590   0.115
 7048SOL    HW222044   6.347   6.552   0.171
 7049SOL     OW22045   2.239   1.184   0.850
 7049SOL    HW122046   2.172   1.258   0.861
 7049SOL    HW222047   2.309   1.192   0.921
 7050SOL     OW22048   3.942   3.978   4.773
 7050SOL    HW122049   3.954   4.008   4.679
 7050SOL    HW222050   3.939   4.057   4.834
 7051SOL     OW22051   5.991   6.939   2.384
 7051SOL    HW122052   6.086   6.964   2.400
 7051SOL    HW222053   5.948   6.913   2.471
 7052SOL     OW22054   6.283   1.819   3.308
 7052SOL    HW122055   6.282   1.912   3.273
 7052SOL    HW222056   6.367   1.773   3.278
 7053SOL     OW22057   6.999   4.485   6.346
 7053SOL    HW122058   0.030   4.492   6.261
 7053SOL    HW222059   6.988   4.576   6.386
 7054SOL     OW22060   6.927   0.287   1.507
 7054SOL    HW122061   6.858   0.263   1.575
 7054SOL    HW222062   6.970   0.374   1.532
 7055SOL     OW22063   3.324   6.781   5.481
 7055SOL    HW122064   3.332   6.750   5.386
 7055SOL    HW222065   3.228   6.780   5.508
 7056SOL     OW22066   4.536   5.034   3.496
 7056SOL    HW122067   4.505   4.956   3.442
 7056SOL    HW222068   4.624   5.012   3.538
 7057SOL     OW22069   0.822   6.072   3.469
 7057SOL    HW122070   0.875   5.987   3.459
 7057SOL    HW222071   0.797   6.106   3.378
 7058SOL     OW22072   0.711   5.201   5.312
 7058SOL    HW122073   0.804   5.214   5.345
 7058SOL    HW222074   0.652   5.273   5.349
 7059SOL     OW22075   1.457   0.267   2.720
 7059SOL    HW122076   1.534   0.287   2.659
 7059SOL    HW222077   1.469   0.176   2.759
 7060SOL     OW22078   2.981   6.996   1.098
 7060SOL    HW122079   3.073   6.957   1.110
 7060SOL    HW222080   2.919   6.925   1.066
 7061SOL     OW22081   0.219   1.254   2.374
 7061SOL    HW122082   0.139   1.253   2.314
 7061SOL    HW222083   0.302   1.247   2.319
 7062SOL     OW22084   5.866   1.888   4.832
 7062SOL    HW122085   5.841   1.950   4.758
 7062SOL    HW222086   5.933   1.934   4.892
 7063SOL     OW22087   3.010   6.452   1.665
 7063SOL    HW122088   3.037   6.480   1.573
 7063SOL    HW222089   2.947   6.520   1.703
 7064SOL     OW22090   4.074   2.469   0.349
 7064SOL    HW122091   4.021   2.384   0.349
 7064SOL    HW222092   4.172   2.447   0.350
 7065SOL     OW22093   4.654   3.991   1.539
 7065SOL    HW122094   4.559   4.011   1.562
 7065SOL    HW222095   4.704   4.077   1.530
 7066SOL     OW22096   3.661   6.372   0.245
 7066SOL    HW122097   3.649   6.401   0.340
 7066SOL    HW222098   3.596   6.299   0.224
 7067SOL     OW22099   0.276   4.140   5.121
 7067SOL    HW122100   0.293   4.234   5.093
 7067SOL    HW222101   0.333   4.077   5.067
 7068SOL     OW22102   1.063   0.595   3.006
 7068SOL    HW122103   1.070   0.556   2.914
 7068SOL    HW222104   0.997   0.542   3.059
 7069SOL     OW22105   1.385   4.441   5.109
 7069SOL    HW122106   1.478   4.408   5.093
 7069SOL    HW222107   1.365   4.439   5.206
 7070SOL     OW22108   6.080   5.661   4.580
 7070SOL    HW122109   6.028   5.575   4.581
 7070SOL    HW222110   6.037   5.726   4.643
 7071SOL     OW22111   1.343   6.787   5.532
 7071SOL    HW122112   1.317   6.768   5.627
 7071SOL    HW222113   1.272   6.842   5.489
 7072SOL     OW22114   0.219   6.404   6.447
 7072SOL    HW122115   0.280   6.401   6.526
 7072SOL    HW222116   0.247   6.478   6.386
 7073SOL     OW22117   0.653   0.698   6.050
 7073SOL    HW122118   0.690   0.641   6.124
 7073SOL    HW222119   0.721   0.766   6.023
 7074SOL     OW22120   3.398   2.543   1.500
 7074SOL    HW122121   3.321   2.582   1.549
 7074SOL    HW222122   3.424   2.456   1.541
 7075SOL     OW22123   1.164   5.506   3.280
 7075SOL    HW122124   1.150   5.428   3.220
 7075SOL    HW222125   1.105   5.498   3.360
 7076SOL     OW22126   2.979   2.697   6.885
 7076SOL    HW122127   2.932   2.657   6.964
 7076SOL    HW222128   2.929   2.672   6.802
 7077SOL     OW22129   2.145   5.371   5.623
 7077SOL    HW122130   2.049   5.360   5.595
 7077SOL    HW222131   2.177   5.286   5.665
 7078SOL     OW22132   6.139   0.627   3.105
 7078SOL    HW122133   6.082   0.705   3.132
 7078SOL    HW222134   6.109   0.593   3.015
 7079SOL     OW22135   5.646   5.753   5.386
 7079SOL    HW122136   5.729   5.765   5.331
 7079SOL    HW222137   5.664   5.776   5.481
 7080SOL     OW22138   4.886   0.331   4.101
 7080SOL    HW122139   4.893   0.291   4.192
 7080SOL    HW222140   4.902   0.261   4.032
 7081SOL     OW22141   3.697   1.023   4.769
 7081SOL    HW122142   3.771   1.037   4.704
 7081SOL    HW222143   3.665   1.111   4.804
 7082SOL     OW22144   5.246   0.797   6.386
 7082SOL    HW122145   5.220   0.704   6.413
 7082SOL    HW222146   5.334   0.794   6.338
 7083SOL     OW22147   3.224   0.197   6.063
 7083SOL    HW122148   3.318   0.163   6.070
 7083SOL    HW222149   3.220   0.268   5.993
 7084SOL     OW22150   6.896   6.113   6.298
 7084SOL    HW122151   6.885   6.143   6.203
 7084SOL    HW222152   6.917   6.192   6.355
 7085SOL     OW22153   2.485   2.287   1.310
 7085SOL    HW122154   2.468   2.372   1.261
 7085SOL    HW222155   2.563   2.240   1.269
 7086SOL     OW22156   6.331   1.051   6.424
 7086SOL    HW122157   6.384   0.967   6.437
 7086SOL    HW222158   6.247   1.028   6.374
 7087SOL     OW22159   1.522   3.016   4.145
 7087SOL    HW122160   1.425   3.003   4.126
 7087SOL    HW222161   1.575   2.943   4.101
 7088SOL     OW22162   6.489   2.142   5.555
 7088SOL    HW122163   6.521   2.111   5.645
 7088SOL    HW222164   6.550   2.212   5.519
 7089SOL     OW22165   2.809   1.835   0.252
 7089SOL    HW122166   2.775   1.813   0.343
 7089SOL    HW222167   2.734   1.836   0.186
 7090SOL     OW22168   2.497   2.188   4.738
 7090SOL    HW122169   2.483   2.121   4.665
 7090SOL    HW222170   2.500   2.280   4.700
 7091SOL     OW22171   0.121   5.679   0.143
 7091SOL    HW122172   0.069   5.600   0.111
 7091SOL    HW222173   0.098   5.759   0.088
 7092SOL     OW22174   3.155   3.874   0.523
 7092SOL    HW122175   3.236   3.923   0.555
 7092SOL    HW222176   3.169   3.844   0.429
 7093SOL     OW22177   3.155   3.103   5.042
 7093SOL    HW122178   3.213   3.181   5.063
 7093SOL    HW222179   3.203   3.039   4.982
 7094SOL     OW22180   0.376   0.595   5.842
 7094SOL    HW122181   0.435   0.516   5.827
 7094SOL    HW222182   0.406   0.643   5.924
 7095SOL     OW22183   1.060   2.819   6.551
 7095SOL    HW122184   1.006   2.895   6.586
 7095SOL    HW222185   1.056   2.818   6.451
 7096SOL     OW22186   4.789   1.723   2.548
 7096SOL    HW122187   4.815   1.721   2.644
 7096SOL    HW222188   4.778   1.629   2.514
 7097SOL     OW22189   0.241   0.428   1.987
 7097SOL    HW122190   0.206   0.372   2.062
 7097SOL    HW222191   0.192   0.406   1.903
 7098SOL     OW22192   1.549   6.541   5.900
 7098SOL    HW122193   1.537   6.639   5.915
 7098SOL    HW222194   1.463   6.493   5.918
 7099SOL     OW22195   0.042   0.866   6.179
 7099SOL    HW122196   0.114   0.894   6.115
 7099SOL    HW222197   6.978   0.916   6.158
 7100SOL     OW22198   5.963   2.868   1.224
 7100SOL    HW122199   5.894   2.798   1.209
 7100SOL    HW222200   5.924   2.943   1.277
 7101SOL     OW22201   2.659   0.160   5.127
 7101SOL    HW122202   2.733   0.228   5.124
 7101SOL    HW222203   2.609   0.162   5.040
 7102SOL     OW22204   4.648   2.429   0.753
 7102SOL    HW122205   4.573   2.374   0.717
 7102SOL    HW222206   4.611   2.512   0.795
 7103SOL     OW22207   3.638   6.955   6.552
 7103SOL    HW122208   3.653   6.941   6.454
 7103SOL    HW222209   3.724   6.940   6.601
 7104SOL     OW22210   0.996   2.158   3.075
 7104SOL    HW122211   0.933   2.156   3.151
 7104SOL    HW222212   1.008   2.065   3.039
 7105SOL     OW22213   3.219   3.829   5.097
 7105SOL    HW122214   3.163   3.814   5.015
 7105SOL    HW222215   3.188   3.912   5.144
 7106SOL     OW22216   3.419   2.561   5.319
 7106SOL    HW122217   3.342   2.501   5.297
 7106SOL    HW222218   3.385   2.652   5.344
 7107SOL     OW22219   2.945   1.569   0.529
 7107SOL    HW122220   2.903   1.523   0.608
 7107SOL    HW222221   3.034   1.607   0.556
 7108SOL     OW22222   4.756   0.305   1.166
 7108SOL    HW122223   4.848   0.343   1.152
 7108SOL    HW222224   4.700   0.325   1.085
 7109SOL     OW22225   3.619   6.641   6.432
 7109SOL    HW122226   3.569   6.558   6.410
 7109SOL    HW222227   3.695   6.619   6.493
 7110SOL     OW22228   4.173   5.046   3.379
 7110SOL    HW122229   4.198   5.136   3.341
 7110SOL    HW222230   4.225   4.975   3.331
 7111SOL     OW22231   2.045   3.284   4.087
 7111SOL    HW122232   2.027   3.369   4.037
 7111SOL    HW222233   1.967   3.261   4.145
 7112SOL     OW22234   1.044   6.372   3.103
 7112SOL    HW122235   1.053   6.335   3.195
 7112SOL    HW222236   1.021   6.297   3.040
 7113SOL     OW22237   3.969   3.678   4.395
 7113SOL    HW122238   3.875   3.679   4.362
 7113SOL    HW222239   4.018   3.758   4.361
 7114SOL     OW22240   3.445   0.970   0.337
 7114SOL    HW122241   3.509   0.925   0.275
 7114SOL    HW222242   3.382   1.027   0.284
 7115SOL     OW22243   4.711   1.716   1.016
 7115SOL    HW122244   4.614   1.727   0.993
 7115SOL    HW222245   4.752   1.807   1.028
 7116SOL     OW22246   5.581   3.776   3.137
 7116SOL    HW122247   5.543   3.685   3.153
 7116SOL    HW222248   5.507   3.841   3.119
 7117SOL     OW22249   5.762   6.669   1.796
 7117SOL    HW122250   5.743   6.576   1.764
 7117SOL    HW222251   5.711   6.734   1.739
 7118SOL     OW22252   6.698   3.243   1.197
 7118SOL    HW122253   6.638   3.232   1.277
 7118SOL    HW222254   6.771   3.308   1.219
 7119SOL     OW22255   6.266   2.226   3.384
 7119SOL    HW122256   6.333   2.283   3.337
 7119SOL    HW222257   6.240   2.149   3.325
 7120SOL     OW22258   5.155   0.358   3.128
 7120SOL    HW122259   5.070   0.360   3.077
 7120SOL    HW222260   5.225   0.409   3.079
 7121SOL     OW22261   3.462   6.696   2.174
 7121SOL    HW122262   3.515   6.682   2.258
 7121SOL    HW222263   3.436   6.607   2.136
 7122SOL     OW22264   6.153   1.048   6.226
 7122SOL    HW122265   6.159   0.983   6.149
 7122SOL    HW222266   6.157   1.141   6.191
 7123SOL     OW22267   2.422   5.251   1.215
 7123SOL    HW122268   2.434   5.350   1.217
 7123SOL    HW222269   2.365   5.226   1.137
 7124SOL     OW22270   0.541   5.011   0.728
 7124SOL    HW122271   0.591   4.967   0.653
 7124SOL    HW222272   0.597   5.009   0.811
 7125SOL     OW22273   6.057   6.199   2.772
 7125SOL    HW122274   6.127   6.154   2.717
 7125SOL    HW222275   6.070   6.298   2.769
 7126SOL     OW22276   1.284   4.695   0.357
 7126SOL    HW122277   1.189   4.715   0.382
 7126SOL    HW222278   1.318   4.764   0.294
 7127SOL     OW22279   3.343   6.306   4.602
 7127SOL    HW122280   3.283   6.228   4.619
 7127SOL    HW222281   3.291   6.391   4.608
 7128SOL     OW22282   3.257   4.123   1.429
 7128SOL    HW122283   3.288   4.077   1.512
 7128SOL    HW222284   3.212   4.057   1.369
 7129SOL     OW22285   2.656   0.243   1.437
 7129SOL    HW122286   2.656   0.185   1.518
 7129SOL    HW222287   2.661   0.187   1.354
 7130SOL     OW22288   2.311   4.900   2.934
 7130SOL    HW122289   2.252   4.922   2.857
 7130SOL    HW222290   2.407   4.902   2.905
 7131SOL     OW22291   2.532   0.853   3.408
 7131SOL    HW122292   2.536   0.862   3.508
 7131SOL    HW222293   2.621   0.825   3.373
 7132SOL     OW22294   3.354   4.141   3.067
 7132SOL    HW122295   3.300   4.225   3.062
 7132SOL    HW222296   3.322   4.085   3.144
 7133SOL     OW22297   5.313   5.133   2.852
 7133SOL    HW122298   5.259   5.149   2.935
 7133SOL    HW222299   5.257   5.152   2.771
 7134SOL     OW22300   5.345   3.859   3.880
 7134SOL    HW122301   5.335   3.940   3.937
 7134SOL    HW222302   5.441   3.831   3.878
 7135SOL     OW22303   1.047   2.004   4.954
 7135SOL    HW122304   1.076   2.066   5.028
 7135SOL    HW222305   1.062   2.048   4.866
 7136SOL     OW22306   2.055   1.450   0.325
 7136SOL    HW122307   2.001   1.524   0.366
 7136SOL    HW222308   2.109   1.405   0.396
 7137SOL     OW22309   4.212   0.813   4.540
 7137SOL    HW122310   4.121   0.852   4.530
 7137SOL    HW222311   4.232   0.755   4.461
 7138SOL     OW22312   2.518   4.348   0.743
 7138SOL    HW122313   2.540   4.260   0.785
 7138SOL    HW222314   2.530   4.421   0.810
 7139SOL     OW22315   3.735   2.326   1.186
 7139SOL    HW122316   3.679   2.408   1.180
 7139SOL    HW222317   3.702   2.268   1.261
 7140SOL     OW22318   6.575   3.505   5.012
 7140SOL    HW122319   6.590   3.410   5.039
 7140SOL    HW222320   6.498   3.511   4.949
 7141SOL     OW22321   2.760   6.862   0.592
 7141SOL    HW122322   2.858   6.858   0.571
 7141SOL    HW222323   2.743   6.812   0.678
 7142SOL     OW22324   4.100   5.621   3.962
 7142SOL    HW122325   4.092   5.664   4.051
 7142SOL    HW222326   4.140   5.686   3.897
 7143SOL     OW22327   1.974   3.460   4.758
 7143SOL    HW122328   2.020   3.383   4.713
 7143SOL    HW222329   1.971   3.538   4.696
 7144SOL     OW22330   0.682   2.473   3.389
 7144SOL    HW122331   0.693   2.558   3.441
 7144SOL    HW222332   0.588   2.467   3.355
 7145SOL     OW22333   5.027   0.019   6.931
 7145SOL    HW122334   5.085   7.012   7.008
 7145SOL    HW222335   5.007   0.117   6.938
 7146SOL     OW22336   3.424   5.016   0.782
 7146SOL    HW122337   3.431   4.924   0.743
 7146SOL    HW222338   3.513   5.045   0.816
 7147SOL     OW22339   0.304   0.510   2.852
 7147SOL    HW122340   0.357   0.516   2.937
 7147SOL    HW222341   0.366   0.494   2.775
 7148SOL     OW22342   0.546   0.656   1.703
 7148SOL    HW122343   0.605   0.731   1.731
 7148SOL    HW222344   0.553   0.643   1.604
 7149SOL     OW22345   6.204   1.633   3.878
 7149SOL    HW122346   6.107   1.624   3.859
 7149SOL    HW222347   6.254   1.646   3.792
 7150SOL     OW22348   5.940   3.427   6.932
 7150SOL    HW122349   5.991   3.463   7.011
 7150SOL    HW222350   5.874   3.359   6.964
 7151SOL     OW22351   2.485   6.020   1.258
 7151SOL    HW122352   2.577   6.057   1.271
 7151SOL    HW222353   2.473   5.995   1.162
 7152SOL     OW22354   1.456   2.597   3.655
 7152SOL    HW122355   1.469   2.555   3.565
 7152SOL    HW222356   1.415   2.688   3.643
 7153SOL     OW22357   3.493   1.284   3.714
 7153SOL    HW122358   3.508   1.338   3.798
 7153SOL    HW222359   3.563   1.213   3.707
 7154SOL     OW22360   5.023   5.756   4.122
 7154SOL    HW122361   5.014   5.668   4.169
 7154SOL    HW222362   5.015   5.741   4.023
 7155SOL     OW22363   2.729   0.060   1.218
 7155SOL    HW122364   2.821   0.032   1.189
 7155SOL    HW222365   2.667   7.002   1.211
 7156SOL     OW22366   6.935   5.817   5.263
 7156SOL    HW122367   6.838   5.842   5.256
 7156SOL    HW222368   6.990   5.900   5.272
 7157SOL     OW22369   4.464   4.464   1.202
 7157SOL    HW122370   4.508   4.394   1.144
 7157SOL    HW222371   4.444   4.424   1.291
 7158SOL     OW22372   6.592   6.669   4.316
 7158SOL    HW122373   6.589   6.590   4.377
 7158SOL    HW222374   6.559   6.643   4.226
 7159SOL     OW22375   0.759   5.606   6.951
 7159SOL    HW122376   0.841   5.553   6.926
 7159SOL    HW222377   0.703   5.553   7.014
 7160SOL     OW22378   5.264   0.682   2.141
 7160SOL    HW122379   5.184   0.629   2.169
 7160SOL    HW222380   5.345   0.625   2.147
 7161SOL     OW22381   3.658   3.279   3.971
 7161SOL    HW122382   3.571   3.262   3.925
 7161SOL    HW222383   3.715   3.339   3.915
 7162SOL     OW22384   3.377   5.070   3.225
 7162SOL    HW122385   3.364   5.169   3.215
 7162SOL    HW222386   3.351   5.042   3.318
 7163SOL     OW22387   2.506   0.359   2.895
 7163SOL    HW122388   2.474   0.379   2.802
 7163SOL    HW222389   2.475   0.268   2.922
 7164SOL     OW22390   2.375   1.042   3.080
 7164SOL    HW122391   2.303   1.079   3.021
 7164SOL    HW222392   2.430   0.977   3.027
 7165SOL     OW22393   4.755   0.929   1.515
 7165SOL    HW122394   4.667   0.890   1.545
 7165SOL    HW222395   4.778   0.892   1.425
 7166SOL     OW22396   5.022   4.636   1.624
 7166SOL    HW122397   5.039   4.558   1.684
 7166SOL    HW222398   4.968   4.607   1.546
 7167SOL     OW22399   4.798   2.732   4.947
 7167SOL    HW122400   4.817   2.829   4.960
 7167SOL    HW222401   4.875   2.678   4.983
 7168SOL     OW22402   1.463   0.696   3.803
 7168SOL    HW122403   1.415   0.637   3.738
 7168SOL    HW222404   1.397   0.736   3.867
 7169SOL     OW22405   1.570   2.307   5.660
 7169SOL    HW122406   1.613   2.396   5.672
 7169SOL    HW222407   1.475   2.310   5.690
 7170SOL     OW22408   6.607   4.791   4.533
 7170SOL    HW122409   6.641   4.849   4.459
 7170SOL    HW222410   6.671   4.715   4.547
 7171SOL     OW22411   4.111   3.273   5.165
 7171SOL    HW122412   4.108   3.276   5.065
 7171SOL    HW222413   4.143   3.360   5.201
 7172SOL     OW22414   1.593   0.117   0.461
 7172SOL    HW122415   1.532   0.074   0.395
 7172SOL    HW222416   1.539   0.153   0.537
 7173SOL     OW22417   6.640   6.074   5.900
 7173SOL    HW122418   6.615   6.167   5.873
 7173SOL    HW222419   6.730   6.052   5.864
 7174SOL     OW22420   1.210   5.329   0.215
 7174SOL    HW122421   1.240   5.378   0.297
 7174SOL    HW222422   1.232   5.382   0.134
 7175SOL     OW22423   0.058   3.844   5.626
 7175SOL    HW122424   0.136   3.831   5.565
 7175SOL    HW222425   0.041   3.760   5.677
 7176SOL     OW22426   5.958   3.874   1.580
 7176SOL    HW122427   6.000   3.864   1.489
 7176SOL    HW222428   5.893   3.801   1.595
 7177SOL     OW22429   0.558   6.323   2.150
 7177SOL    HW122430   0.586   6.393   2.085
 7177SOL    HW222431   0.532   6.240   2.100
 7178SOL     OW22432   0.726   2.711   6.328
 7178SOL    HW122433   0.669   2.660   6.262
 7178SOL    HW222434   0.787   2.648   6.375
 7179SOL     OW22435   2.794   3.555   6.083
 7179SOL    HW122436   2.773   3.620   6.010
 7179SOL    HW222437   2.751   3.467   6.063
 7180SOL     OW22438   0.180   6.273   2.087
 7180SOL    HW122439   0.176   6.363   2.131
 7180SOL    HW222440   0.190   6.202   2.157
 7181SOL     OW22441   5.148   1.126   1.968
 7181SOL    HW122442   5.182   1.218   1.950
 7181SOL    HW222443   5.225   1.063   1.977
 7182SOL     OW22444   2.999   3.828   5.576
 7182SOL    HW122445   2.902   3.852   5.580
 7182SOL    HW222446   3.008   3.734   5.543
 7183SOL     OW22447   0.898   5.713   2.555
 7183SOL    HW122448   0.893   5.645   2.628
 7183SOL    HW222449   0.974   5.690   2.494
 7184SOL     OW22450   2.170   6.380   3.616
 7184SOL    HW122451   2.174   6.388   3.716
 7184SOL    HW222452   2.260   6.398   3.578
 7185SOL     OW22453   4.864   2.246   6.585
 7185SOL    HW122454   4.945   2.235   6.642
 7185SOL    HW222455   4.819   2.157   6.574
 7186SOL     OW22456   0.632   6.687   4.627
 7186SOL    HW122457   0.541   6.649   4.643
 7186SOL    HW222458   0.687   6.621   4.576
 7187SOL     OW22459   2.113   4.568   1.610
 7187SOL    HW122460   2.105   4.594   1.706
 7187SOL    HW222461   2.050   4.623   1.555
 7188SOL     OW22462   5.091   1.347   1.056
 7188SOL    HW122463   5.039   1.418   1.104
 7188SOL    HW222464   5.142   1.293   1.123
 7189SOL     OW22465   6.097   1.097   4.450
 7189SOL    HW122466   6.073   1.113   4.546
 7189SOL    HW222467   6.184   1.143   4.430
 7190SOL     OW22468   4.670   4.738   3.368
 7190SOL    HW122469   4.748   4.791   3.336
 7190SOL    HW222470   4.703   4.652   3.408
 7191SOL     OW22471   1.850   3.320   2.437
 7191SOL    HW122472   1.938   3.336   2.482
 7191SOL    HW222473   1.839   3.382   2.360
 7192SOL     OW22474   2.930   4.785   5.850
 7192SOL    HW122475   2.919   4.742   5.760
 7192SOL    HW222476   2.913   4.717   5.922
 7193SOL     OW22477   4.328   1.658   3.431
 7193SOL    HW122478   4.241   1.658   3.480
 7193SOL    HW222479   4.317   1.612   3.343
 7194SOL     OW22480   2.629   1.559   2.064
 7194SOL    HW122481   2.645   1.649   2.104
 7194SOL    HW222482   2.542   1.559   2.015
 7195SOL     OW22483   0.890   5.529   1.436
 7195SOL    HW122484   0.852   5.511   1.346
 7195SOL    HW222485   0.924   5.444   1.476
 7196SOL     OW22486   3.390   2.992   2.323
 7196SOL    HW122487   3.325   2.932   2.368
 7196SOL    HW222488   3.399   3.077   2.376
 7197SOL     OW22489   0.361   2.334   6.186
 7197SOL    HW122490   0.382   2.363   6.092
 7197SOL    HW222491   0.410   2.249   6.206
 7198SOL     OW22492   1.454   6.291   6.923
 7198SOL    HW122493   1.415   6.348   6.995
 7198SOL    HW222494   1.489   6.349   6.850
 7199SOL     OW22495   6.488   6.522   2.872
 7199SOL    HW122496   6.558   6.450   2.864
 7199SOL    HW222497   6.406   6.484   2.913
 7200SOL     OW22498   1.991   1.193   1.530
 7200SOL    HW122499   2.074   1.245   1.552
 7200SOL    HW222500   1.924   1.203   1.603
 7201SOL     OW22501   2.462   4.437   3.759
 7201SOL    HW122502   2.471   4.424   3.858
 7201SOL    HW222503   2.399   4.368   3.722
 7202SOL     OW22504   4.003   1.347   6.374
 7202SOL    HW122505   4.023   1.343   6.472
 7202SOL    HW222506   3.957   1.433   6.353
 7203SOL     OW22507   5.401   1.100   6.973
 7203SOL    HW122508   5.483   1.135   6.928
 7203SOL    HW222509   5.361   1.172   0.010
 7204SOL     OW22510   5.992   1.773   2.574
 7204SOL    HW122511   5.928   1.813   2.640
 7204SOL    HW222512   5.984   1.821   2.487
 7205SOL     OW22513   2.108   4.569   2.334
 7205SOL    HW122514   2.193   4.519   2.350
 7205SOL    HW222515   2.031   4.514   2.366
 7206SOL     OW22516   6.021   0.978   1.733
 7206SOL    HW122517   6.038   0.885   1.701
 7206SOL    HW222518   6.107   1.016   1.769
 7207SOL     OW22519   3.758   0.040   2.116
 7207SOL    HW122520   3.851   0.014   2.142
 7207SOL    HW222521   3.745   0.137   2.135
 7208SOL     OW22522   3.172   0.426   5.469
 7208SOL    HW122523   3.261   0.387   5.446
 7208SOL    HW222524   3.136   0.381   5.551
 7209SOL     OW22525   4.087   3.780   4.607
 7209SOL    HW122526   4.029   3.746   4.533
 7209SOL    HW222527   4.098   3.879   4.598
 7210SOL     OW22528   4.232   0.342   4.339
 7210SOL    HW122529   4.321   0.361   4.299
 7210SOL    HW222530   4.228   0.380   4.431
 7211SOL     OW22531   1.468   5.419   3.109
 7211SOL    HW122532   1.560   5.388   3.087
 7211SOL    HW222533   1.472   5.493   3.176
 7212SOL     OW22534   5.283   6.599   4.409
 7212SOL    HW122535   5.373   6.559   4.427
 7212SOL    HW222536   5.271   6.680   4.468
 7213SOL     OW22537   5.380   0.876   5.605
 7213SOL    HW122538   5.361   0.783   5.638
 7213SOL    HW222539   5.479   0.888   5.597
 7214SOL     OW22540   1.356   4.925   5.166
 7214SOL    HW122541   1.410   4.981   5.103
 7214SOL    HW222542   1.329   4.980   5.245
 7215SOL     OW22543   1.343   3.699   3.652
 7215SOL    HW122544   1.381   3.609   3.631
 7215SOL    HW222545   1.415   3.759   3.687
 7216SOL     OW22546   2.134   0.911   1.742
 7216SOL    HW122547   2.149   0.858   1.659
 7216SOL    HW222548   2.065   0.866   1.799
 7217SOL     OW22549   1.106   2.777   2.411
 7217SOL    HW122550   1.053   2.808   2.332
 7217SOL    HW222551   1.057   2.800   2.495
 7218SOL     OW22552   5.497   2.650   5.556
 7218SOL    HW122553   5.534   2.674   5.467
 7218SOL    HW222554   5.423   2.584   5.545
 7219SOL     OW22555   3.755   1.390   2.054
 7219SOL    HW122556   3.664   1.356   2.030
 7219SOL    HW222557   3.747   1.461   2.124
 7220SOL     OW22558   6.830   0.898   2.902
 7220SOL    HW122559   6.843   0.820   2.964
 7220SOL    HW222560   6.900   0.967   2.920
 7221SOL     OW22561   5.919   5.607   5.848
 7221SOL    HW122562   5.948   5.533   5.787
 7221SOL    HW222563   5.903   5.570   5.940
 7222SOL     OW22564   0.006   6.295   1.888
 7222SOL    HW122565   0.072   6.284   1.961
 7222SOL    HW222566   6.999   6.205   1.853
 7223SOL     OW22567   3.198   0.912   5.426
 7223SOL    HW122568   3.230   0.818   5.415
 7223SOL    HW222569   3.194   0.957   5.336
 7224SOL     OW22570   4.688   6.771   4.465
 7224SOL    HW122571   4.617   6.742   4.402
 7224SOL    HW222572   4.770   6.795   4.413
 7225SOL     OW22573   2.444   6.260   0.003
 7225SOL    HW122574   2.372   6.318   0.043
 7225SOL    HW222575   2.445   6.172   0.049
 7226SOL     OW22576   6.545   0.123   0.854
 7226SOL    HW122577   6.463   0.072   0.827
 7226SOL    HW222578   6.626   0.076   0.821
 7227SOL     OW22579   6.107   2.755   6.251
 7227SOL    HW122580   6.194   2.716   6.218
 7227SOL    HW222581   6.101   2.744   6.350
 7228SOL     OW22582   1.134   0.813   3.175
 7228SOL    HW122583   1.123   0.745   3.102
 7228SOL    HW222584   1.223   0.857   3.166
 7229SOL     OW22585   0.737   0.358   3.431
 7229SOL    HW122586   0.746   0.259   3.423
 7229SOL    HW222587   0.780   0.390   3.515
 7230SOL     OW22588   5.818   3.574   2.995
 7230SOL    HW122589   5.788   3.664   3.025
 7230SOL    HW222590   5.793   3.560   2.899
 7231SOL     OW22591   5.251   1.133   6.697
 7231SOL    HW122592   5.247   1.119   6.598
 7231SOL    HW222593   5.338   1.100   6.732
 7232SOL     OW22594   3.628   4.663   1.313
 7232SOL    HW122595   3.569   4.677   1.393
 7232SOL    HW222596   3.708   4.610   1.340
 7233SOL     OW22597   6.900   2.069   6.150
 7233SOL    HW122598   6.931   2.099   6.060
 7233SOL    HW222599   6.928   2.136   6.219
 7234SOL     OW22600   6.165   1.979   2.078
 7234SOL    HW122601   6.211   1.891   2.071
 7234SOL    HW222602   6.070   1.970   2.047
 7235SOL     OW22603   5.887   3.410   4.879
 7235SOL    HW122604   5.877   3.473   4.802
 7235SOL    HW222605   5.981   3.414   4.913
 7236SOL     OW22606   3.667   0.795   3.104
 7236SOL    HW122607   3.625   0.751   3.026
 7236SOL    HW222608   3.621   0.767   3.188
 7237SOL     OW22609   5.939   5.915   6.037
 7237SOL    HW122610   5.843   5.932   6.014
 7237SOL    HW222611   5.949   5.907   6.136
 7238SOL     OW22612   1.227   1.168   1.273
 7238SOL    HW122613   1.316   1.158   1.318
 7238SOL    HW222614   1.236   1.230   1.195
 7239SOL     OW22615   4.009   1.588   1.758
 7239SOL    HW122616   3.923   1.626   1.724
 7239SOL    HW222617   4.001   1.488   1.765
 7240SOL     OW22618   3.195   4.209   0.449
 7240SOL    HW122619   3.241   4.121   0.438
 7240SOL    HW222620   3.169   4.244   0.359
 7241SOL     OW22621   3.336   0.416   5.144
 7241SOL    HW122622   3.314   0.378   5.234
 7241SOL    HW222623   3.424   0.463   5.148
 7242SOL     OW22624   4.548   4.469   0.040
 7242SOL    HW122625   4.507   4.433   6.976
 7242SOL    HW222626   4.543   4.399   0.112
 7243SOL     OW22627   0.060   5.679   0.413
 7243SOL    HW122628   0.092   5.769   0.444
 7243SOL    HW222629   0.088   5.664   0.319
 7244SOL     OW22630   5.782   1.291   0.812
 7244SOL    HW122631   5.727   1.240   0.745
 7244SOL    HW222632   5.722   1.347   0.868
 7245SOL     OW22633   6.884   2.024   3.818
 7245SOL    HW122634   6.796   2.050   3.779
 7245SOL    HW222635   6.880   1.930   3.852
 7246SOL     OW22636   0.588   6.079   5.487
 7246SOL    HW122637   0.576   6.122   5.577
 7246SOL    HW222638   0.507   6.096   5.431
 7247SOL     OW22639   3.293   5.514   2.653
 7247SOL    HW122640   3.219   5.454   2.624
 7247SOL    HW222641   3.255   5.602   2.684
 7248SOL     OW22642   3.060   0.434   4.632
 7248SOL    HW122643   3.047   0.496   4.710
 7248SOL    HW222644   2.979   0.435   4.574
 7249SOL     OW22645   5.952   5.420   6.912
 7249SOL    HW122646   5.949   5.393   6.816
 7249SOL    HW222647   5.873   5.479   6.932
 7250SOL     OW22648   2.941   4.111   6.294
 7250SOL    HW122649   3.029   4.093   6.252
 7250SOL    HW222650   2.875   4.041   6.266
 7251SOL     OW22651   5.191   0.283   5.260
 7251SOL    HW122652   5.150   0.354   5.317
 7251SOL    HW222653   5.149   0.195   5.281
 7252SOL     OW22654   3.953   3.721   4.876
 7252SOL    HW122655   3.948   3.816   4.843
 7252SOL    HW222656   4.040   3.680   4.848
 7253SOL     OW22657   5.244   5.298   1.024
 7253SOL    HW122658   5.308   5.265   1.094
 7253SOL    HW222659   5.293   5.309   0.937
 7254SOL     OW22660   4.901   6.408   5.226
 7254SOL    HW122661   4.805   6.395   5.252
 7254SOL    HW222662   4.926   6.504   5.238
 7255SOL     OW22663   3.720   4.096   2.045
 7255SOL    HW122664   3.711   4.092   2.145
 7255SOL    HW222665   3.814   4.119   2.021
 7256SOL     OW22666   4.818   4.851   4.031
 7256SOL    HW122667   4.804   4.948   4.009
 7256SOL    HW222668   4.736   4.799   4.007
 7257SOL     OW22669   6.011   4.264   3.578
 7257SOL    HW122670   5.937   4.287   3.514
 7257SOL    HW222671   6.012   4.331   3.652
 7258SOL     OW22672   3.284   0.026   5.009
 7258SOL    HW122673   3.233   6.969   4.970
 7258SOL    HW222674   3.231   0.068   5.082
 7259SOL     OW22675   1.867   5.402   5.849
 7259SOL    HW122676   1.819   5.449   5.775
 7259SOL    HW222677   1.897   5.470   5.917
 7260SOL     OW22678   3.622   2.016   1.830
 7260SOL    HW122679   3.708   2.033   1.782
 7260SOL    HW222680   3.599   2.096   1.885
 7261SOL     OW22681   1.235   3.934   1.875
 7261SOL    HW122682   1.266   4.029   1.877
 7261SOL    HW222683   1.311   3.875   1.847
 7262SOL     OW22684   6.453   1.906   5.093
 7262SOL    HW122685   6.428   1.995   5.131
 7262SOL    HW222686   6.553   1.901   5.082
 7263SOL     OW22687   4.082   6.784   1.680
 7263SOL    HW122688   3.984   6.766   1.672
 7263SOL    HW222689   4.116   6.747   1.766
 7264SOL     OW22690   1.222   6.654   4.947
 7264SOL    HW122691   1.141   6.611   4.987
 7264SOL    HW222692   1.255   6.726   5.007
 7265SOL     OW22693   4.347   3.941   5.991
 7265SOL    HW122694   4.399   3.865   6.029
 7265SOL    HW222695   4.306   3.993   6.065
 7266SOL     OW22696   5.183   1.739   1.456
 7266SOL    HW122697   5.244   1.798   1.509
 7266SOL    HW222698   5.135   1.793   1.387
 7267SOL     OW22699   0.290   2.945   4.399
 7267SOL    HW122700   0.377   2.905   4.429
 7267SOL    HW222701   0.309   3.025   4.342
 7268SOL     OW22702   3.211   6.876   1.263
 7268SOL    HW122703   3.264   6.805   1.216
 7268SOL    HW222704   3.148   6.833   1.327
 7269SOL     OW22705   1.777   6.913   1.685
 7269SOL    HW122706   1.819   6.830   1.649
 7269SOL    HW222707   1.746   6.970   1.609
 7270SOL     OW22708   3.422   1.417   2.503
 7270SOL    HW122709   3.329   1.447   2.519
 7270SOL    HW222710   3.429   1.374   2.412
 7271SOL     OW22711   6.219   4.731   4.132
 7271SOL    HW122712   6.134   4.723   4.185
 7271SOL    HW222713   6.268   4.814   4.160
 7272SOL     OW22714   5.821   2.195   1.255
 7272SOL    HW122715   5.748   2.209   1.321
 7272SOL    HW222716   5.806   2.109   1.206
 7273SOL     OW22717   6.008   5.885   6.297
 7273SOL    HW122718   6.107   5.868   6.302
 7273SOL    HW222719   5.976   5.921   6.385
 7274SOL     OW22720   0.193   4.104   4.753
 7274SOL    HW122721   0.176   4.202   4.744
 7274SOL    HW222722   0.126   4.064   4.817
 7275SOL     OW22723   5.972   6.995   1.307
 7275SOL    HW122724   6.008   0.011   1.393
 7275SOL    HW222725   5.921   6.911   1.324
 7276SOL     OW22726   2.845   2.336   4.152
 7276SOL    HW122727   2.795   2.294   4.076
 7276SOL    HW222728   2.894   2.417   4.120
 7277SOL     OW22729   5.234   1.648   4.271
 7277SOL    HW122730   5.186   1.733   4.247
 7277SOL    HW222731   5.210   1.623   4.365
 7278SOL     OW22732   2.373   1.507   3.527
 7278SOL    HW122733   2.436   1.512   3.449
 7278SOL    HW222734   2.351   1.412   3.546
 7279SOL     OW22735   4.199   4.423   1.051
 7279SOL    HW122736   4.261   4.398   0.977
 7279SOL    HW222737   4.251   4.458   1.128
 7280SOL     OW22738   6.345   1.949   5.447
 7280SOL    HW122739   6.368   1.911   5.358
 7280SOL    HW222740   6.403   2.028   5.466
 7281SOL     OW22741   3.971   5.702   1.968
 7281SOL    HW122742   3.975   5.796   2.000
 7281SOL    HW222743   3.915   5.647   2.030
 7282SOL     OW22744   6.191   3.711   2.223
 7282SOL    HW122745   6.142   3.761   2.295
 7282SOL    HW222746   6.200   3.615   2.251
 7283SOL     OW22747   4.536   4.980   3.030
 7283SOL    HW122748   4.575   5.007   2.942
 7283SOL    HW222749   4.606   4.985   3.101
 7284SOL     OW22750   0.248   1.533   2.377
 7284SOL    HW122751   0.266   1.440   2.409
 7284SOL    HW222752   0.179   1.576   2.434
 7285SOL     OW22753   4.844   3.123   1.763
 7285SOL    HW122754   4.894   3.126   1.849
 7285SOL    HW222755   4.753   3.086   1.778
 7286SOL     OW22756   6.422   1.655   3.642
 7286SOL    HW122757   6.411   1.557   3.623
 7286SOL    HW222758   6.494   1.692   3.584
 7287SOL     OW22759   2.739   1.524   3.037
 7287SOL    HW122760   2.704   1.612   3.008
 7287SOL    HW222761   2.664   1.459   3.045
 7288SOL     OW22762   2.463   1.645   2.354
 7288SOL    HW122763   2.563   1.650   2.348
 7288SOL    HW222764   2.424   1.655   2.262
 7289SOL     OW22765   6.772   2.080   1.401
 7289SOL    HW122766   6.837   2.139   1.448
 7289SOL    HW222767   6.691   2.067   1.458
 7290SOL     OW22768   3.996   1.095   4.689
 7290SOL    HW122769   4.022   1.192   4.693
 7290SOL    HW222770   3.993   1.066   4.593
 7291SOL     OW22771   2.458   1.250   1.062
 7291SOL    HW122772   2.456   1.340   1.106
 7291SOL    HW222773   2.503   1.184   1.123
 7292SOL     OW22774   2.772   0.102   2.592
 7292SOL    HW122775   2.805   0.014   2.557
 7292SOL    HW222776   2.844   0.171   2.585
 7293SOL     OW22777   6.583   1.684   4.087
 7293SOL    HW122778   6.663   1.626   4.104
 7293SOL    HW222779   6.589   1.766   4.144
 7294SOL     OW22780   3.501   6.390   2.067
 7294SOL    HW122781   3.557   6.400   2.150
 7294SOL    HW222782   3.517   6.300   2.027
 7295SOL     OW22783   5.440   4.077   0.969
 7295SOL    HW122784   5.400   4.129   1.045
 7295SOL    HW222785   5.521   4.028   1.002
 7296SOL     OW22786   4.488   5.039   2.129
 7296SOL    HW122787   4.484   5.074   2.035
 7296SOL    HW222788   4.457   5.110   2.192
 7297SOL     OW22789   4.390   7.007   1.240
 7297SOL    HW122790   4.464   0.013   1.178
 7297SOL    HW222791   4.342   0.070   1.269
 7298SOL     OW22792   3.901   5.050   0.291
 7298SOL    HW122793   3.943   5.060   0.381
 7298SOL    HW222794   3.973   5.032   0.223
 7299SOL     OW22795   1.250   3.215   6.504
 7299SOL    HW122796   1.283   3.281   6.571
 7299SOL    HW222797   1.280   3.123   6.529
 7300SOL     OW22798   0.178   5.537   2.256
 7300SOL    HW122799   0.103   5.472   2.243
 7300SOL    HW222800   0.259   5.505   2.208
 7301SOL     OW22801   4.549   1.872   6.203
 7301SOL    HW122802   4.556   1.947   6.269
 7301SOL    HW222803   4.547   1.911   6.110
 7302SOL     OW22804   5.681   1.974   6.120
 7302SOL    HW122805   5.616   2.042   6.154
 7302SOL    HW222806   5.639   1.884   6.123
 7303SOL     OW22807   2.567   1.844   2.110
 7303SOL    HW122808   2.597   1.907   2.039
 7303SOL    HW222809   2.470   1.823   2.097
 7304SOL     OW22810   2.792   5.621   0.676
 7304SOL    HW122811   2.761   5.577   0.592
 7304SOL    HW222812   2.767   5.565   0.755
 7305SOL     OW22813   6.143   1.280   0.429
 7305SOL    HW122814   6.101   1.310   0.344
 7305SOL    HW222815   6.231   1.326   0.442
 7306SOL     OW22816   1.020   2.954   1.696
 7306SOL    HW122817   1.075   2.906   1.764
 7306SOL    HW222818   1.074   3.026   1.653
 7307SOL     OW22819   1.852   0.193   0.502
 7307SOL    HW122820   1.754   0.181   0.487
 7307SOL    HW222821   1.873   0.180   0.599
 7308SOL     OW22822   4.337   1.247   2.951
 7308SOL    HW122823   4.239   1.270   2.953
 7308SOL    HW222824   4.353   1.178   2.880
 7309SOL     OW22825   2.409   5.154   3.743
 7309SOL    HW122826   2.492   5.130   3.793
 7309SOL    HW222827   2.380   5.246   3.769
 7310SOL     OW22828   2.579   2.667   6.168
 7310SOL    HW122829   2.562   2.638   6.074
 7310SOL    HW222830   2.600   2.765   6.169
 7311SOL     OW22831   0.470   5.787   5.909
 7311SOL    HW122832   0.528   5.856   5.866
 7311SOL    HW222833   0.380   5.789   5.866
 7312SOL     OW22834   6.316   2.007   3.950
 7312SOL    HW122835   6.364   1.920   3.937
 7312SOL    HW222836   6.382   2.078   3.974
 7313SOL     OW22837   2.593   0.826   2.734
 7313SOL    HW122838   2.565   0.731   2.718
 7313SOL    HW222839   2.619   0.868   2.648
 7314SOL     OW22840   0.854   4.565   5.739
 7314SOL    HW122841   0.792   4.640   5.715
 7314SOL    HW222842   0.911   4.592   5.817
 7315SOL     OW22843   2.234   4.903   2.297
 7315SOL    HW122844   2.288   4.946   2.224
 7315SOL    HW222845   2.289   4.831   2.341
 7316SOL     OW22846   3.686   1.742   1.280
 7316SOL    HW122847   3.714   1.796   1.359
 7316SOL    HW222848   3.728   1.651   1.286
 7317SOL     OW22849   4.049   2.068   0.191
 7317SOL    HW122850   4.091   2.037   0.276
 7317SOL    HW222851   4.109   2.045   0.114
 7318SOL     OW22852   5.213   6.533   0.695
 7318SOL    HW122853   5.119   6.563   0.714
 7318SOL    HW222854   5.231   6.448   0.743
 7319SOL     OW22855   5.549   6.231   6.282
 7319SOL    HW122856   5.599   6.219   6.197
 7319SOL    HW222857   5.454   6.202   6.270
 7320SOL     OW22858   0.595   2.484   0.954
 7320SOL    HW122859   0.674   2.545   0.943
 7320SOL    HW222860   0.580   2.433   0.870
 7321SOL     OW22861   1.892   1.639   6.968
 7321SOL    HW122862   1.954   1.576   7.016
 7321SOL    HW222863   1.937   1.728   6.958
 7322SOL     OW22864   1.255   3.196   3.443
 7322SOL    HW122865   1.354   3.200   3.444
 7322SOL    HW222866   1.218   3.270   3.387
 7323SOL     OW22867   0.736   2.800   0.445
 7323SOL    HW122868   0.772   2.738   0.515
 7323SOL    HW222869   0.728   2.892   0.483
 7324SOL     OW22870   4.847   3.918   3.426
 7324SOL    HW122871   4.839   3.862   3.509
 7324SOL    HW222872   4.781   3.993   3.430
 7325SOL     OW22873   4.318   1.210   5.493
 7325SOL    HW122874   4.277   1.130   5.536
 7325SOL    HW222875   4.261   1.290   5.510
 7326SOL     OW22876   3.736   0.769   0.655
 7326SOL    HW122877   3.814   0.742   0.599
 7326SOL    HW222878   3.653   0.770   0.599
 7327SOL     OW22879   1.597   4.390   3.329
 7327SOL    HW122880   1.682   4.350   3.294
 7327SOL    HW222881   1.561   4.333   3.403
 7328SOL     OW22882   4.624   4.879   4.893
 7328SOL    HW122883   4.642   4.804   4.829
 7328SOL    HW222884   4.534   4.867   4.935
 7329SOL     OW22885   3.120   3.271   1.247
 7329SOL    HW122886   3.084   3.192   1.199
 7329SOL    HW222887   3.220   3.272   1.239
 7330SOL     OW22888   2.868   3.351   1.620
 7330SOL    HW122889   2.805   3.404   1.676
 7330SOL    HW222890   2.907   3.410   1.549
 7331SOL     OW22891   5.064   2.561   2.170
 7331SOL    HW122892   5.135   2.630   2.156
 7331SOL    HW222893   5.080   2.514   2.257
 7332SOL     OW22894   2.894   6.216   6.096
 7332SOL    HW122895   2.896   6.144   6.027
 7332SOL    HW222896   2.881   6.305   6.052
 7333SOL     OW22897   0.541   1.162   1.282
 7333SOL    HW122898   0.457   1.191   1.328
 7333SOL    HW222899   0.582   1.086   1.331
 7334SOL     OW22900   1.790   5.996   3.719
 7334SOL    HW122901   1.806   6.078   3.663
 7334SOL    HW222902   1.869   5.979   3.777
 7335SOL     OW22903   0.223   3.859   2.201
 7335SOL    HW122904   0.293   3.788   2.194
 7335SOL    HW222905   0.179   3.853   2.291
 7336SOL     OW22906   2.613   6.221   2.041
 7336SOL    HW122907   2.524   6.189   2.009
 7336SOL    HW222908   2.635   6.308   1.998
 7337SOL     OW22909   2.561   1.299   3.316
 7337SOL    HW122910   2.550   1.360   3.237
 7337SOL    HW222911   2.490   1.229   3.314
 7338SOL     OW22912   5.259   3.676   1.288
 7338SOL    HW122913   5.235   3.772   1.301
 7338SOL    HW222914   5.176   3.620   1.294
 7339SOL     OW22915   6.862   5.963   4.629
 7339SOL    HW122916   6.956   5.998   4.631
 7339SOL    HW222917   6.859   5.875   4.677
 7340SOL     OW22918   3.062   6.964   0.600
 7340SOL    HW122919   3.117   6.956   0.517
 7340SOL    HW222920   3.102   6.907   0.672
 7341SOL     OW22921   6.710   5.176   4.936
 7341SOL    HW122922   6.723   5.250   5.003
 7341SOL    HW222923   6.615   5.144   4.941
 7342SOL     OW22924   1.469   5.130   1.060
 7342SOL    HW122925   1.552   5.140   1.115
 7342SOL    HW222926   1.403   5.073   1.108
 7343SOL     OW22927   5.163   2.793   2.641
 7343SOL    HW122928   5.081   2.839   2.674
 7343SOL    HW222929   5.159   2.696   2.664
 7344SOL     OW22930   2.605   1.020   0.233
 7344SOL    HW122931   2.557   1.043   0.318
 7344SOL    HW222932   2.634   1.105   0.188
 7345SOL     OW22933   3.710   5.400   0.659
 7345SOL    HW122934   3.706   5.392   0.559
 7345SOL    HW222935   3.766   5.325   0.695
 7346SOL     OW22936   3.664   4.905   1.738
 7346SOL    HW122937   3.657   4.827   1.800
 7346SOL    HW222938   3.756   4.944   1.743
 7347SOL     OW22939   6.378   3.206   2.355
 7347SOL    HW122940   6.460   3.256   2.383
 7347SOL    HW222941   6.402   3.111   2.335
 7348SOL     OW22942   0.862   1.861   5.105
 7348SOL    HW122943   0.926   1.903   5.041
 7348SOL    HW222944   0.876   1.899   5.197
 7349SOL     OW22945   3.365   1.092   0.561
 7349SOL    HW122946   3.376   1.040   0.477
 7349SOL    HW222947   3.423   1.174   0.558
 7350SOL     OW22948   2.106   1.357   2.831
 7350SOL    HW122949   2.017   1.370   2.788
 7350SOL    HW222950   2.147   1.446   2.852
 7351SOL     OW22951   4.388   4.406   6.829
 7351SOL    HW122952   4.311   4.349   6.858
 7351SOL    HW222953   4.413   4.382   6.735
 7352SOL     OW22954   6.784   1.181   3.361
 7352SOL    HW122955   6.685   1.178   3.346
 7352SOL    HW222956   6.811   1.105   3.420
 7353SOL     OW22957   4.915   2.170   4.963
 7353SOL    HW122958   4.976   2.167   5.041
 7353SOL    HW222959   4.966   2.149   4.879
 7354SOL     OW22960   6.549   4.222   4.968
 7354SOL    HW122961   6.464   4.171   4.983
 7354SOL    HW222962   6.616   4.163   4.923
 7355SOL     OW22963   0.996   4.541   1.496
 7355SOL    HW122964   1.094   4.542   1.515
 7355SOL    HW222965   0.978   4.591   1.411
 7356SOL     OW22966   6.488   1.137   5.548
 7356SOL    HW122967   6.391   1.115   5.564
 7356SOL    HW222968   6.543   1.103   5.624
 7357SOL     OW22969   0.036   1.463   0.771
 7357SOL    HW122970   0.072   1.465   0.678
 7357SOL    HW222971   6.998   1.383   0.782
 7358SOL     OW22972   3.215   0.761   4.004
 7358SOL    HW122973   3.288   0.785   4.068
 7358SOL    HW222974   3.129   0.801   4.036
 7359SOL     OW22975   3.556   3.272   2.900
 7359SOL    HW122976   3.590   3.336   2.968
 7359SOL    HW222977   3.619   3.194   2.893
 7360SOL     OW22978   0.639   3.028   5.366
 7360SOL    HW122979   0.672   3.064   5.278
 7360SOL    HW222980   0.702   3.056   5.438
 7361SOL     OW22981   5.017   0.092   1.940
 7361SOL    HW122982   5.018   7.012   1.952
 7361SOL    HW222983   4.942   0.131   1.994
 7362SOL     OW22984   1.994   6.828   6.342
 7362SOL    HW122985   1.907   6.856   6.383
 7362SOL    HW222986   1.985   6.735   6.307
 7363SOL     OW22987   5.589   2.907   6.122
 7363SOL    HW122988   5.595   2.814   6.086
 7363SOL    HW222989   5.524   2.959   6.068
 7364SOL     OW22990   5.457   0.981   1.481
 7364SOL    HW122991   5.443   1.015   1.388
 7364SOL    HW222992   5.370   0.983   1.530
 7365SOL     OW22993   3.403   0.769   2.133
 7365SOL    HW122994   3.309   0.743   2.108
 7365SOL    HW222995   3.447   0.693   2.181
 7366SOL     OW22996   0.830   5.340   0.400
 7366SOL    HW122997   0.874   5.381   0.320
 7366SOL    HW222998   0.881   5.259   0.429
 7367SOL     OW22999   5.220   3.469   6.683
 7367SOL    HW123000   5.242   3.373   6.667
 7367SOL    HW223001   5.159   3.477   6.762
 7368SOL     OW23002   3.128   3.253   3.555
 7368SOL    HW123003   3.067   3.274   3.631
 7368SOL    HW223004   3.182   3.335   3.533
 7369SOL     OW23005   4.990   2.350   6.337
 7369SOL    HW123006   4.942   2.426   6.293
 7369SOL    HW223007   4.933   2.313   6.410
 7370SOL     OW23008   1.807   6.529   1.218
 7370SOL    HW123009   1.790   6.433   1.243
 7370SOL    HW223010   1.737   6.587   1.259
 7371SOL     OW23011   2.473   4.870   4.554
 7371SOL    HW123012   2.538   4.801   4.584
 7371SOL    HW223013   2.480   4.881   4.455
 7372SOL     OW23014   3.167   6.666   5.891
 7372SOL    HW123015   3.152   6.762   5.915
 7372SOL    HW223016   3.164   6.611   5.974
 7373SOL     OW23017   3.839   0.815   1.538
 7373SOL    HW123018   3.852   0.902   1.586
 7373SOL    HW223019   3.749   0.778   1.562
 7374SOL     OW23020   2.076   3.308   6.509
 7374SOL    HW123021   2.020   3.225   6.518
 7374SOL    HW223022   2.030   3.373   6.450
 7375SOL     OW23023   1.516   6.847   2.999
 7375SOL    HW123024   1.501   6.749   2.991
 7375SOL    HW223025   1.498   6.877   3.092
 7376SOL     OW23026   2.440   3.693   5.781
 7376SOL    HW123027   2.405   3.715   5.690
 7376SOL    HW223028   2.539   3.686   5.778
 7377SOL     OW23029   4.763   4.797   1.632
 7377SOL    HW123030   4.765   4.782   1.731
 7377SOL    HW223031   4.844   4.755   1.590
 7378SOL     OW23032   6.780   2.442   5.981
 7378SOL    HW123033   6.693   2.393   5.987
 7378SOL    HW223034   6.818   2.453   6.073
 7379SOL     OW23035   4.269   1.135   1.299
 7379SOL    HW123036   4.321   1.209   1.257
 7379SOL    HW223037   4.188   1.116   1.244
 7380SOL     OW23038   6.894   2.680   4.755
 7380SOL    HW123039   6.838   2.709   4.832
 7380SOL    HW223040   6.848   2.705   4.669
 7381SOL     OW23041   5.371   2.372   0.056
 7381SOL    HW123042   5.446   2.359   7.012
 7381SOL    HW223043   5.308   2.294   0.052
 7382SOL     OW23044   6.631   5.855   3.922
 7382SOL    HW123045   6.704   5.787   3.929
 7382SOL    HW223046   6.543   5.809   3.911
 7383SOL     OW23047   6.648   6.120   3.840
 7383SOL    HW123048   6.742   6.145   3.819
 7383SOL    HW223049   6.643   6.023   3.865
 7384SOL     OW23050   5.598   1.468   1.754
 7384SOL    HW123051   5.515   1.417   1.776
 7384SOL    HW223052   5.663   1.463   1.830
 7385SOL     OW23053   4.839   0.226   1.726
 7385SOL    HW123054   4.921   0.172   1.710
 7385SOL    HW223055   4.864   0.321   1.745
 7386SOL     OW23056   0.451   2.852   5.751
 7386SOL    HW123057   0.467   2.887   5.843
 7386SOL    HW223058   0.372   2.898   5.711
 7387SOL     OW23059   3.936   5.720   3.667
 7387SOL    HW123060   3.969   5.633   3.629
 7387SOL    HW223061   3.950   5.720   3.766
 7388SOL     OW23062   6.359   4.527   4.671
 7388SOL    HW123063   6.422   4.493   4.741
 7388SOL    HW223064   6.404   4.599   4.619
 7389SOL     OW23065   0.718   4.078   5.612
 7389SOL    HW123066   0.666   4.076   5.526
 7389SOL    HW223067   0.717   3.987   5.653
 7390SOL     OW23068   2.054   6.552   5.717
 7390SOL    HW123069   2.035   6.462   5.756
 7390SOL    HW223070   1.972   6.608   5.721
 7391SOL     OW23071   0.197   3.655   0.291
 7391SOL    HW123072   0.145   3.595   0.352
 7391SOL    HW223073   0.265   3.601   0.242
 7392SOL     OW23074   2.177   4.968   3.229
 7392SOL    HW123075   2.142   5.053   3.269
 7392SOL    HW223076   2.174   4.975   3.129
 7393SOL     OW23077   0.598   3.513   1.110
 7393SOL    HW123078   0.548   3.457   1.176
 7393SOL    HW223079   0.542   3.525   1.027
 7394SOL     OW23080   2.920   3.277   6.569
 7394SOL    HW123081   2.997   3.261   6.630
 7394SOL    HW223082   2.948   3.339   6.496
 7395SOL     OW23083   1.639   6.759   0.426
 7395SOL    HW123084   1.677   6.804   0.506
 7395SOL    HW223085   1.714   6.730   0.365
 7396SOL     OW23086   1.260   6.955   0.832
 7396SOL    HW123087   1.170   6.973   0.792
 7396SOL    HW223088   1.263   6.993   0.924
 7397SOL     OW23089   6.551   4.473   4.873
 7397SOL    HW123090   6.515   4.385   4.905
 7397SOL    HW223091   6.651   4.470   4.872
 7398SOL     OW23092   3.959   5.993   3.616
 7398SOL    HW123093   3.946   5.896   3.636
 7398SOL    HW223094   4.056   6.014   3.608
 7399SOL     OW23095   5.077   4.312   5.051
 7399SOL    HW123096   5.041   4.369   4.977
 7399SOL    HW223097   5.125   4.369   5.117
 7400SOL     OW23098   2.503   5.059   6.905
 7400SOL    HW123099   2.448   5.028   6.827
 7400SOL    HW223100   2.543   5.148   6.884
 7401SOL     OW23101   5.595   1.410   4.418
 7401SOL    HW123102   5.607   1.455   4.330
 7401SOL    HW223103   5.530   1.334   4.408
 7402SOL     OW23104   2.035   6.951   3.260
 7402SOL    HW123105   2.010   6.871   3.206
 7402SOL    HW223106   2.118   6.931   3.312
 7403SOL     OW23107   1.848   3.578   1.663
 7403SOL    HW123108   1.835   3.632   1.580
 7403SOL    HW223109   1.946   3.556   1.674
 7404SOL     OW23110   1.222   1.294   2.839
 7404SOL    HW123111   1.204   1.352   2.919
 7404SOL    HW223112   1.226   1.198   2.868
 7405SOL     OW23113   2.653   4.462   5.852
 7405SOL    HW123114   2.749   4.473   5.830
 7405SOL    HW223115   2.643   4.449   5.951
 7406SOL     OW23116   0.633   5.432   2.016
 7406SOL    HW123117   0.694   5.442   1.938
 7406SOL    HW223118   0.547   5.478   1.998
 7407SOL     OW23119   1.810   0.484   5.986
 7407SOL    HW123120   1.742   0.455   6.053
 7407SOL    HW223121   1.782   0.452   5.895
 7408SOL     OW23122   0.877   3.475   5.499
 7408SOL    HW123123   0.954   3.465   5.562
 7408SOL    HW223124   0.799   3.423   5.532
 7409SOL     OW23125   2.589   5.613   5.981
 7409SOL    HW123126   2.607   5.532   5.926
 7409SOL    HW223127   2.497   5.609   6.019
 7410SOL     OW23128   5.800   5.355   0.619
 7410SOL    HW123129   5.753   5.273   0.653
 7410SOL    HW223130   5.888   5.329   0.580
 7411SOL     OW23131   4.581   5.715   5.668
 7411SOL    HW123132   4.634   5.639   5.630
 7411SOL    HW223133   4.624   5.746   5.753
 7412SOL     OW23134   1.319   2.109   0.182
 7412SOL    HW123135   1.249   2.166   0.225
 7412SOL    HW223136   1.354   2.155   0.100
 7413SOL     OW23137   6.736   2.985   4.118
 7413SOL    HW123138   6.814   2.946   4.166
 7413SOL    HW223139   6.716   3.076   4.155
 7414SOL     OW23140   6.482   5.608   2.967
 7414SOL    HW123141   6.453   5.665   3.044
 7414SOL    HW223142   6.481   5.663   2.883
 7415SOL     OW23143   2.408   1.819   2.562
 7415SOL    HW123144   2.439   1.763   2.485
 7415SOL    HW223145   2.483   1.879   2.592
 7416SOL     OW23146   5.090   6.671   3.952
 7416SOL    HW123147   5.092   6.576   3.981
 7416SOL    HW223148   5.181   6.712   3.967
 7417SOL     OW23149   0.889   6.068   0.425
 7417SOL    HW123150   0.894   6.136   0.353
 7417SOL    HW223151   0.841   6.107   0.504
 7418SOL     OW23152   1.559   3.551   0.393
 7418SOL    HW123153   1.551   3.455   0.422
 7418SOL    HW223154   1.585   3.607   0.472
 7419SOL     OW23155   5.717   1.083   4.629
 7419SOL    HW123156   5.788   1.151   4.611
 7419SOL    HW223157   5.673   1.102   4.716
 7420SOL     OW23158   0.162   5.646   1.989
 7420SOL    HW123159   0.078   5.687   1.952
 7420SOL    HW223160   0.158   5.646   2.089
 7421SOL     OW23161   4.377   2.973   1.479
 7421SOL    HW123162   4.302   2.924   1.523
 7421SOL    HW223163   4.387   3.064   1.520
 7422SOL     OW23164   0.897   2.959   0.709
 7422SOL    HW123165   0.842   3.002   0.638
 7422SOL    HW223166   0.992   2.954   0.680
 7423SOL     OW23167   2.125   5.796   0.060
 7423SOL    HW123168   2.047   5.733   0.054
 7423SOL    HW223169   2.097   5.886   0.028
 7424SOL     OW23170   6.068   1.436   4.618
 7424SOL    HW123171   6.100   1.454   4.525
 7424SOL    HW223172   5.968   1.435   4.619
 7425SOL     OW23173   4.145   6.710   5.778
 7425SOL    HW123174   4.074   6.771   5.815
 7425SOL    HW223175   4.223   6.709   5.840
 7426SOL     OW23176   0.602   0.955   6.939
 7426SOL    HW123177   0.577   0.902   6.858
 7426SOL    HW223178   0.585   1.052   6.921
 7427SOL     OW23179   4.382   5.706   4.314
 7427SOL    HW123180   4.307   5.748   4.263
 7427SOL    HW223181   4.450   5.775   4.337
 7428SOL     OW23182   2.841   1.967   6.148
 7428SOL    HW123183   2.875   1.890   6.202
 7428SOL    HW223184   2.808   2.039   6.209
 7429SOL     OW23185   6.396   6.680   3.453
 7429SOL    HW123186   6.440   6.768   3.471
 7429SOL    HW223187   6.309   6.676   3.501
 7430SOL     OW23188   0.698   4.130   4.780
 7430SOL    HW123189   0.767   4.122   4.709
 7430SOL    HW223190   0.613   4.087   4.750
 7431SOL     OW23191   1.142   4.629   2.434
 7431SOL    HW123192   1.222   4.683   2.408
 7431SOL    HW223193   1.094   4.599   2.351
 7432SOL     OW23194   0.610   6.055   5.077
 7432SOL    HW123195   0.643   5.963   5.099
 7432SOL    HW223196   0.535   6.050   5.012
 7433SOL     OW23197   6.857   5.739   0.862
 7433SOL    HW123198   6.916   5.662   0.838
 7433SOL    HW223199   6.875   5.768   0.956
 7434SOL     OW23200   4.575   0.085   6.525
 7434SOL    HW123201   4.643   0.144   6.569
 7434SOL    HW223202   4.619   7.019   6.496
 7435SOL     OW23203   1.531   5.925   0.698
 7435SOL    HW123204   1.627   5.949   0.691
 7435SOL    HW223205   1.506   5.914   0.794
 7436SOL     OW23206   5.260   2.940   6.625
 7436SOL    HW123207   5.252   2.937   6.526
 7436SOL    HW223208   5.182   2.892   6.666
 7437SOL     OW23209   7.005   5.877   5.885
 7437SOL    HW123210   6.987   5.846   5.978
 7437SOL    HW223211   0.029   5.967   5.887
 7438SOL     OW23212   6.255   4.127   1.991
 7438SOL    HW123213   6.199   4.153   1.912
 7438SOL    HW223214   6.351   4.146   1.971
 7439SOL     OW23215   1.450   6.399   4.044
 7439SOL    HW123216   1.536   6.350   4.058
 7439SOL    HW223217   1.412   6.375   3.954
 7440SOL     OW23218   0.857   2.262   3.829
 7440SOL    HW123219   0.923   2.240   3.901
 7440SOL    HW223220   0.846   2.183   3.769
 7441SOL     OW23221   5.271   0.179   4.119
 7441SOL    HW123222   5.284   0.177   4.218
 7441SOL    HW223223   5.183   0.138   4.095
 7442SOL     OW23224   1.581   1.270   0.051
 7442SOL    HW123225   1.522   1.190   0.040
 7442SOL    HW223226   1.592   1.316   6.982
 7443SOL     OW23227   6.910   1.160   0.973
 7443SOL    HW123228   6.869   1.108   0.898
 7443SOL    HW223229   7.010   1.150   0.968
 7444SOL     OW23230   0.197   2.558   6.660
 7444SOL    HW123231   0.217   2.483   6.596
 7444SOL    HW223232   0.104   2.546   6.696
 7445SOL     OW23233   5.516   2.887   2.323
 7445SOL    HW123234   5.469   2.939   2.395
 7445SOL    HW223235   5.537   2.795   2.357
 7446SOL     OW23236   6.810   3.434   0.973
 7446SOL    HW123237   6.715   3.432   1.003
 7446SOL    HW223238   6.860   3.359   1.016
 7447SOL     OW23239   0.543   4.315   6.124
 7447SOL    HW123240   0.524   4.244   6.192
 7447SOL    HW223241   0.597   4.277   6.049
 7448SOL     OW23242   6.874   6.620   6.095
 7448SOL    HW123243   6.851   6.523   6.098
 7448SOL    HW223244   6.924   6.640   6.011
 7449SOL     OW23245   4.662   1.309   1.957
 7449SOL    HW123246   4.644   1.389   2.015
 7449SOL    HW223247   4.621   1.228   2.000
 7450SOL     OW23248   3.224   0.386   2.652
 7450SOL    HW123249   3.187   0.385   2.745
 7450SOL    HW223250   3.324   0.385   2.656
 7451SOL     OW23251   1.801   1.269   3.493
 7451SOL    HW123252   1.739   1.344   3.470
 7451SOL    HW223253   1.787   1.241   3.588
 7452SOL     OW23254   1.498   6.768   5.137
 7452SOL    HW123255   1.401   6.795   5.143
 7452SOL    HW223256   1.532   6.746   5.228
 7453SOL     OW23257   5.289   6.162   5.233
 7453SOL    HW123258   5.218   6.092   5.232
 7453SOL    HW223259   5.252   6.248   5.200
 7454SOL     OW23260   0.507   3.462   0.761
 7454SOL    HW123261   0.505   3.526   0.684
 7454SOL    HW223262   0.506   3.368   0.727
 7455SOL     OW23263   5.697   1.899   0.171
 7455SOL    HW123264   5.649   1.944   0.247
 7455SOL    HW223265   5.630   1.871   0.102
 7456SOL     OW23266   1.925   3.307   5.464
 7456SOL    HW123267   1.959   3.329   5.373
 7456SOL    HW223268   1.987   3.242   5.508
 7457SOL     OW23269   5.984   0.213   6.189
 7457SOL    HW123270   6.043   0.293   6.206
 7457SOL    HW223271   6.010   0.171   6.102
 7458SOL     OW23272   2.860   0.900   0.318
 7458SOL    HW123273   2.790   0.959   0.277
 7458SOL    HW223274   2.854   0.906   0.418
 7459SOL     OW23275   4.537   0.606   4.574
 7459SOL    HW123276   4.559   0.509   4.563
 7459SOL    HW223277   4.501   0.622   4.666
 7460SOL     OW23278   0.783   4.891   6.965
 7460SOL    HW123279   0.872   4.870   6.925
 7460SOL    HW223280   0.741   4.966   6.914
 7461SOL     OW23281   4.609   0.477   3.750
 7461SOL    HW123282   4.527   0.433   3.788
 7461SOL    HW223283   4.682   0.409   3.741
 7462SOL     OW23284   1.775   1.602   2.451
 7462SOL    HW123285   1.834   1.680   2.469
 7462SOL    HW223286   1.682   1.623   2.482
 7463SOL     OW23287   3.269   3.695   2.251
 7463SOL    HW123288   3.182   3.700   2.301
 7463SOL    HW223289   3.295   3.599   2.239
 7464SOL     OW23290   5.297   6.163   6.248
 7464SOL    HW123291   5.225   6.196   6.309
 7464SOL    HW223292   5.261   6.157   6.155
 7465SOL     OW23293   3.073   0.535   1.581
 7465SOL    HW123294   3.060   0.527   1.483
 7465SOL    HW223295   3.134   0.463   1.614
 7466SOL     OW23296   1.100   0.390   6.522
 7466SOL    HW123297   1.106   0.425   6.429
 7466SOL    HW223298   1.059   0.459   6.581
 7467SOL     OW23299   6.335   1.798   1.000
 7467SOL    HW123300   6.278   1.807   1.082
 7467SOL    HW223301   6.298   1.856   0.927
 7468SOL     OW23302   6.396   3.611   3.584
 7468SOL    HW123303   6.397   3.517   3.615
 7468SOL    HW223304   6.363   3.615   3.490
 7469SOL     OW23305   0.008   1.489   1.781
 7469SOL    HW123306   0.044   1.485   1.874
 7469SOL    HW223307   0.024   1.402   1.734
 7470SOL     OW23308   0.004   2.521   2.446
 7470SOL    HW123309   6.979   2.594   2.395
 7470SOL    HW223310   0.029   2.554   2.537
 7471SOL     OW23311   6.285   5.806   6.260
 7471SOL    HW123312   6.229   5.769   6.186
 7471SOL    HW223313   6.352   5.737   6.289
 7472SOL     OW23314   3.169   5.761   3.404
 7472SOL    HW123315   3.171   5.859   3.423
 7472SOL    HW223316   3.137   5.712   3.484
 7473SOL     OW23317   0.468   3.358   4.875
 7473SOL    HW123318   0.451   3.364   4.973
 7473SOL    HW223319   0.511   3.270   4.854
 7474SOL     OW23320   4.236   0.909   2.693
 7474SOL    HW123321   4.188   0.993   2.719
 7474SOL    HW223322   4.253   0.910   2.594
 7475SOL     OW23323   4.124   1.681   0.156
 7475SOL    HW123324   4.044   1.645   0.204
 7475SOL    HW223325   4.145   1.623   0.078
 7476SOL     OW23326   3.131   0.170   4.795
 7476SOL    HW123327   3.091   0.117   4.720
 7476SOL    HW223328   3.230   0.161   4.793
 7477SOL     OW23329   4.636   2.198   3.335
 7477SOL    HW123330   4.603   2.282   3.377
 7477SOL    HW223331   4.577   2.175   3.257
 7478SOL     OW23332   2.269   5.142   0.997
 7478SOL    HW123333   2.346   5.097   0.953
 7478SOL    HW223334   2.210   5.182   0.927
 7479SOL     OW23335   4.732   0.635   6.581
 7479SOL    HW123336   4.672   0.586   6.645
 7479SOL    HW223337   4.748   0.578   6.500
 7480SOL     OW23338   7.005   5.088   0.997
 7480SOL    HW123339   0.017   5.103   0.903
 7480SOL    HW223340   6.917   5.134   1.011
 7481SOL     OW23341   6.145   5.636   0.676
 7481SOL    HW123342   6.111   5.557   0.625
 7481SOL    HW223343   6.090   5.650   0.758
 7482SOL     OW23344   4.870   0.192   4.329
 7482SOL    HW123345   4.810   0.140   4.391
 7482SOL    HW223346   4.931   0.250   4.383
 7483SOL     OW23347   3.293   0.570   6.127
 7483SOL    HW123348   3.327   0.656   6.090
 7483SOL    HW223349   3.364   0.526   6.181
 7484SOL     OW23350   2.276   6.928   2.037
 7484SOL    HW123351   2.269   7.018   1.996
 7484SOL    HW223352   2.328   6.933   2.122
 7485SOL     OW23353   1.462   6.450   6.709
 7485SOL    HW123354   1.366   6.478   6.699
 7485SOL    HW223355   1.507   6.455   6.620
 7486SOL     OW23356   1.930   0.316   5.702
 7486SOL    HW123357   1.910   0.359   5.614
 7486SOL    HW223358   2.021   0.275   5.699
 7487SOL     OW23359   4.390   5.266   3.513
 7487SOL    HW123360   4.441   5.181   3.521
 7487SOL    HW223361   4.349   5.272   3.422
 7488SOL     OW23362   3.954   1.118   5.825
 7488SOL    HW123363   3.961   1.186   5.752
 7488SOL    HW223364   3.958   1.026   5.785
 7489SOL     OW23365   6.316   3.641   3.290
 7489SOL    HW123366   6.225   3.661   3.254
 7489SOL    HW223367   6.381   3.639   3.214
 7490SOL     OW23368   5.558   1.713   1.678
 7490SOL    HW123369   5.516   1.661   1.752
 7490SOL    HW223370   5.580   1.650   1.603
 7491SOL     OW23371   6.521   5.550   6.542
 7491SOL    HW123372   6.436   5.531   6.591
 7491SOL    HW223373   6.515   5.639   6.497
 7492SOL     OW23374   2.304   2.695   4.582
 7492SOL    HW123375   2.240   2.629   4.621
 7492SOL    HW223376   2.355   2.652   4.508
 7493SOL     OW23377   5.457   3.581   0.043
 7493SOL    HW123378   5.504   3.669   0.031
 7493SOL    HW223379   5.477   3.522   6.985
 7494SOL     OW23380   4.809   1.937   1.377
 7494SOL    HW123381   4.850   2.010   1.432
 7494SOL    HW223382   4.730   1.974   1.327
 7495SOL     OW23383   0.355   1.878   2.383
 7495SOL    HW123384   0.429   1.816   2.407
 7495SOL    HW223385   0.279   1.826   2.343
 7496SOL     OW23386   1.123   4.589   5.310
 7496SOL    HW123387   1.099   4.505   5.262
 7496SOL    HW223388   1.216   4.582   5.346
 7497SOL     OW23389   2.356   4.889   1.663
 7497SOL    HW123390   2.262   4.902   1.694
 7497SOL    HW223391   2.419   4.909   1.738
 7498SOL     OW23392   4.345   1.659   4.257
 7498SOL    HW123393   4.416   1.630   4.193
 7498SOL    HW223394   4.309   1.748   4.228
 7499SOL     OW23395   4.989   5.521   4.245
 7499SOL    HW123396   4.894   5.500   4.220
 7499SOL    HW223397   5.026   5.445   4.300
 7500SOL     OW23398   5.314   4.376   1.542
 7500SOL    HW123399   5.364   4.453   1.583
 7500SOL    HW223400   5.260   4.409   1.465
 7501SOL     OW23401   0.228   4.383   3.728
 7501SOL    HW123402   0.147   4.374   3.670
 7501SOL    HW223403   0.274   4.295   3.736
 7502SOL     OW23404   2.130   1.522   4.659
 7502SOL    HW123405   2.051   1.462   4.675
 7502SOL    HW223406   2.131   1.594   4.728
 7503SOL     OW23407   2.370   2.419   5.892
 7503SOL    HW123408   2.429   2.498   5.879
 7503SOL    HW223409   2.426   2.337   5.906
 7504SOL     OW23410   4.224   5.642   3.617
 7504SOL    HW123411   4.195   5.716   3.677
 7504SOL    HW223412   4.243   5.560   3.672
 7505SOL     OW23413   1.313   1.675   4.687
 7505SOL    HW123414   1.352   1.742   4.623
 7505SOL    HW223415   1.244   1.719   4.744
 7506SOL     OW23416   3.515   1.429   3.498
 7506SOL    HW123417   3.520   1.391   3.590
 7506SOL    HW223418   3.513   1.354   3.431
 7507SOL     OW23419   1.020   6.008   6.276
 7507SOL    HW123420   0.930   5.970   6.254
 7507SOL    HW223421   1.082   5.934   6.301
 7508SOL     OW23422   4.827   0.305   3.696
 7508SOL    HW123423   4.851   0.264   3.608
 7508SOL    HW223424   4.886   0.383   3.714
 7509SOL     OW23425   4.697   3.925   5.525
 7509SOL    HW123426   4.722   3.945   5.431
 7509SOL    HW223427   4.697   3.827   5.540
 7510SOL     OW23428   3.635   4.179   4.877
 7510SOL    HW123429   3.724   4.216   4.902
 7510SOL    HW223430   3.595   4.131   4.956
 7511SOL     OW23431   1.474   0.849   2.438
 7511SOL    HW123432   1.471   0.901   2.524
 7511SOL    HW223433   1.419   0.896   2.369
 7512SOL     OW23434   2.084   2.844   2.157
 7512SOL    HW123435   2.143   2.916   2.195
 7512SOL    HW223436   2.023   2.885   2.089
 7513SOL     OW23437   1.427   2.759   6.834
 7513SOL    HW123438   1.467   2.844   6.867
 7513SOL    HW223439   1.328   2.761   6.848
 7514SOL     OW23440   2.766   5.903   3.251
 7514SOL    HW123441   2.797   5.814   3.217
 7514SOL    HW223442   2.804   5.976   3.193
 7515SOL     OW23443   6.097   5.513   2.685
 7515SOL    HW123444   6.047   5.433   2.651
 7515SOL    HW223445   6.054   5.596   2.649
 7516SOL     OW23446   0.619   0.756   2.852
 7516SOL    HW123447   0.683   0.766   2.927
 7516SOL    HW223448   0.543   0.820   2.864
 7517SOL     OW23449   0.361   3.811   1.481
 7517SOL    HW123450   0.336   3.781   1.573
 7517SOL    HW223451   0.279   3.814   1.423
 7518SOL     OW23452   4.862   5.593   3.847
 7518SOL    HW123453   4.863   5.558   3.753
 7518SOL    HW223454   4.820   5.524   3.907
 7519SOL     OW23455   2.269   5.637   4.098
 7519SOL    HW123456   2.368   5.643   4.110
 7519SOL    HW223457   2.246   5.650   4.002
 7520SOL     OW23458   2.240   0.037   4.843
 7520SOL    HW123459   2.149   0.078   4.844
 7520SOL    HW223460   2.250   7.001   4.761
 7521SOL     OW23461   5.034   4.337   5.870
 7521SOL    HW123462   5.030   4.376   5.778
 7521SOL    HW223463   5.108   4.381   5.921
 7522SOL     OW23464   1.720   1.028   1.917
 7522SOL    HW123465   1.704   1.077   1.831
 7522SOL    HW223466   1.796   1.070   1.966
 7523SOL     OW23467   6.131   6.518   6.666
 7523SOL    HW123468   6.150   6.565   6.752
 7523SOL    HW223469   6.056   6.564   6.619
 7524SOL     OW23470   6.572   1.675   4.513
 7524SOL    HW123471   6.515   1.723   4.579
 7524SOL    HW223472   6.656   1.645   4.557
 7525SOL     OW23473   1.731   6.778   0.924
 7525SOL    HW123474   1.664   6.831   0.976
 7525SOL    HW223475   1.685   6.701   0.879
 7526SOL     OW23476   3.634   3.167   5.101
 7526SOL    HW123477   3.645   3.203   5.008
 7526SOL    HW223478   3.573   3.087   5.098
 7527SOL     OW23479   5.516   4.568   2.761
 7527SOL    HW123480   5.611   4.552   2.789
 7527SOL    HW223481   5.456   4.549   2.839
 7528SOL     OW23482   6.836   3.660   6.250
 7528SOL    HW123483   6.791   3.719   6.317
 7528SOL    HW223484   6.800   3.567   6.258
 7529SOL     OW23485   3.248   1.063   5.868
 7529SOL    HW123486   3.264   1.141   5.807
 7529SOL    HW223487   3.228   0.982   5.814
 7530SOL     OW23488   0.547   3.458   2.431
 7530SOL    HW123489   0.468   3.401   2.451
 7530SOL    HW223490   0.577   3.504   2.515
 7531SOL     OW23491   3.634   1.989   3.391
 7531SOL    HW123492   3.561   1.980   3.323
 7531SOL    HW223493   3.594   2.015   3.479
 7532SOL     OW23494   4.997   4.916   2.659
 7532SOL    HW123495   5.044   4.848   2.603
 7532SOL    HW223496   4.933   4.869   2.720
 7533SOL     OW23497   3.698   0.154   4.565
 7533SOL    HW123498   3.692   0.243   4.520
 7533SOL    HW223499   3.614   0.138   4.617
 7534SOL     OW23500   5.014   0.075   4.716
 7534SOL    HW123501   5.016   0.080   4.816
 7534SOL    HW223502   5.013   6.998   4.688
 7535SOL     OW23503   3.332   3.570   6.414
 7535SOL    HW123504   3.294   3.566   6.507
 7535SOL    HW223505   3.258   3.559   6.348
 7536SOL     OW23506   3.516   6.386   4.183
 7536SOL    HW123507   3.530   6.381   4.084
 7536SOL    HW223508   3.456   6.311   4.212
 7537SOL     OW23509   2.264   4.732   5.838
 7537SOL    HW123510   2.259   4.635   5.816
 7537SOL    HW223511   2.359   4.760   5.848
 7538SOL     OW23512   3.443   3.218   2.469
 7538SOL    HW123513   3.540   3.231   2.450
 7538SOL    HW223514   3.422   3.255   2.560
 7539SOL     OW23515   2.048   2.809   4.824
 7539SOL    HW123516   2.067   2.899   4.788
 7539SOL    HW223517   2.016   2.817   4.919
 7540SOL     OW23518   2.176   1.430   0.578
 7540SOL    HW123519   2.167   1.422   0.678
 7540SOL    HW223520   2.249   1.495   0.556
 7541SOL     OW23521   6.666   2.690   5.932
 7541SOL    HW123522   6.707   2.600   5.922
 7541SOL    HW223523   6.642   2.706   6.027
 7542SOL     OW23524   1.861   6.787   6.862
 7542SOL    HW123525   1.857   6.755   6.768
 7542SOL    HW223526   1.786   6.748   6.914
 7543SOL     OW23527   3.739   3.147   6.887
 7543SOL    HW123528   3.831   3.132   6.850
 7543SOL    HW223529   3.672   3.133   6.814
 7544SOL     OW23530   2.254   2.399   2.892
 7544SOL    HW123531   2.352   2.405   2.875
 7544SOL    HW223532   2.209   2.480   2.854
 7545SOL     OW23533   5.060   6.454   4.288
 7545SOL    HW123534   5.086   6.434   4.194
 7545SOL    HW223535   5.108   6.536   4.320
 7546SOL     OW23536   5.211   0.556   6.526
 7546SOL    HW123537   5.136   0.603   6.573
 7546SOL    HW223538   5.181   0.465   6.498
 7547SOL     OW23539   3.354   0.183   0.346
 7547SOL    HW123540   3.329   0.220   0.256
 7547SOL    HW223541   3.367   0.258   0.410
 7548SOL     OW23542   1.252   2.839   1.268
 7548SOL    HW123543   1.351   2.833   1.254
 7548SOL    HW223544   1.222   2.760   1.321
 7549SOL     OW23545   6.313   2.204   2.131
 7549SOL    HW123546   6.260   2.120   2.118
 7549SOL    HW223547   6.292   2.244   2.220
 7550SOL     OW23548   1.957   5.517   1.061
 7550SOL    HW123549   1.957   5.455   0.983
 7550SOL    HW223550   1.915   5.603   1.036
 7551SOL     OW23551   4.714   3.724   6.284
 7551SOL    HW123552   4.722   3.823   6.296
 7551SOL    HW223553   4.788   3.692   6.225
 7552SOL     OW23554   3.620   5.330   4.006
 7552SOL    HW123555   3.527   5.342   4.040
 7552SOL    HW223556   3.652   5.417   3.967
 7553SOL     OW23557   4.333   4.684   5.667
 7553SOL    HW123558   4.357   4.672   5.764
 7553SOL    HW223559   4.406   4.647   5.610
 7554SOL     OW23560   6.195   1.061   1.254
 7554SOL    HW123561   6.247   0.991   1.303
 7554SOL    HW223562   6.258   1.122   1.206
 7555SOL     OW23563   0.736   5.845   5.378
 7555SOL    HW123564   0.786   5.895   5.449
 7555SOL    HW223565   0.788   5.846   5.293
 7556SOL     OW23566   0.194   3.302   4.364
 7556SOL    HW123567   0.256   3.367   4.407
 7556SOL    HW223568   0.241   3.256   4.288
 7557SOL     OW23569   4.600   3.764   0.153
 7557SOL    HW123570   4.610   3.769   0.053
 7557SOL    HW223571   4.674   3.709   0.191
 7558SOL     OW23572   1.556   3.444   3.855
 7558SOL    HW123573   1.594   3.492   3.776
 7558SOL    HW223574   1.555   3.346   3.838
 7559SOL     OW23575   0.607   4.446   1.290
 7559SOL    HW123576   0.669   4.525   1.291
 7559SOL    HW223577   0.518   4.474   1.254
 7560SOL     OW23578   4.414   6.675   6.740
 7560SOL    HW123579   4.362   6.745   6.788
 7560SOL    HW223580   4.450   6.609   6.805
 7561SOL     OW23581   0.580   2.867   1.132
 7561SOL    HW123582   0.504   2.929   1.149
 7561SOL    HW223583   0.580   2.839   1.036
 7562SOL     OW23584   4.835   5.481   5.331
 7562SOL    HW123585   4.839   5.575   5.296
 7562SOL    HW223586   4.774   5.427   5.272
 7563SOL     OW23587   2.137   0.949   2.698
 7563SOL    HW123588   2.128   0.979   2.603
 7563SOL    HW223589   2.056   0.896   2.725
 7564SOL     OW23590   4.943   6.005   4.007
 7564SOL    HW123591   4.870   6.060   4.047
 7564SOL    HW223592   4.964   5.929   4.068
 7565SOL     OW23593   4.813   4.453   0.947
 7565SOL    HW123594   4.774   4.527   0.892
 7565SOL    HW223595   4.739   4.401   0.989
 7566SOL     OW23596   1.593   6.326   5.020
 7566SOL    HW123597   1.674   6.379   4.995
 7566SOL    HW223598   1.574   6.339   5.118
 7567SOL     OW23599   2.967   3.630   0.537
 7567SOL    HW123600   2.874   3.652   0.510
 7567SOL    HW223601   3.026   3.710   0.522
 7568SOL     OW23602   4.998   4.328   3.112
 7568SOL    HW123603   5.092   4.335   3.078
 7568SOL    HW223604   4.993   4.253   3.179
 7569SOL     OW23605   4.305   0.187   0.466
 7569SOL    HW123606   4.205   0.188   0.468
 7569SOL    HW223607   4.336   0.110   0.410
 7570SOL     OW23608   6.524   4.941   4.760
 7570SOL    HW123609   6.573   4.877   4.700
 7570SOL    HW223610   6.572   4.949   4.847
 7571SOL     OW23611   5.242   4.093   2.079
 7571SOL    HW123612   5.166   4.050   2.031
 7571SOL    HW223613   5.313   4.025   2.097
 7572SOL     OW23614   2.412   1.796   4.419
 7572SOL    HW123615   2.485   1.774   4.354
 7572SOL    HW223616   2.346   1.722   4.422
 7573SOL     OW23617   2.377   5.994   5.021
 7573SOL    HW123618   2.319   5.918   4.991
 7573SOL    HW223619   2.473   5.973   5.003
 7574SOL     OW23620   5.441   6.497   2.442
 7574SOL    HW123621   5.441   6.461   2.535
 7574SOL    HW223622   5.507   6.572   2.435
 7575SOL     OW23623   4.144   2.212   4.785
 7575SOL    HW123624   4.046   2.215   4.766
 7575SOL    HW223625   4.160   2.237   4.880
 7576SOL     OW23626   6.116   2.979   0.882
 7576SOL    HW123627   6.172   3.042   0.936
 7576SOL    HW223628   6.119   2.888   0.924
 7577SOL     OW23629   4.538   0.320   5.635
 7577SOL    HW123630   4.627   0.348   5.670
 7577SOL    HW223631   4.541   0.224   5.606
 7578SOL     OW23632   2.540   4.583   4.329
 7578SOL    HW123633   2.473   4.511   4.315
 7578SOL    HW223634   2.497   4.672   4.315
 7579SOL     OW23635   3.660   1.372   3.056
 7579SOL    HW123636   3.678   1.313   2.977
 7579SOL    HW223637   3.585   1.434   3.035
 7580SOL     OW23638   1.696   4.081   3.292
 7580SOL    HW123639   1.679   3.987   3.264
 7580SOL    HW223640   1.647   4.100   3.377
 7581SOL     OW23641   5.876   0.527   1.131
 7581SOL    HW123642   5.941   0.569   1.068
 7581SOL    HW223643   5.789   0.576   1.128
 7582SOL     OW23644   2.619   0.994   1.089
 7582SOL    HW123645   2.697   0.936   1.066
 7582SOL    HW223646   2.552   0.992   1.014
 7583SOL     OW23647   0.268   3.672   2.474
 7583SOL    HW123648   0.219   3.608   2.415
 7583SOL    HW223649   0.202   3.733   2.519
 7584SOL     OW23650   2.165   0.810   1.490
 7584SOL    HW123651   2.264   0.794   1.488
 7584SOL    HW223652   2.131   0.816   1.397
 7585SOL     OW23653   1.768   4.670   5.737
 7585SOL    HW123654   1.846   4.680   5.675
 7585SOL    HW223655   1.787   4.717   5.823
 7586SOL     OW23656   2.618   1.035   1.962
 7586SOL    HW123657   2.626   1.125   1.920
 7586SOL    HW223658   2.532   0.992   1.934
 7587SOL     OW23659   1.554   1.191   6.323
 7587SOL    HW123660   1.472   1.186   6.266
 7587SOL    HW223661   1.568   1.285   6.353
 7588SOL     OW23662   6.940   4.281   1.369
 7588SOL    HW123663   6.891   4.288   1.282
 7588SOL    HW223664   6.968   4.186   1.384
 7589SOL     OW23665   5.750   6.163   0.492
 7589SOL    HW123666   5.809   6.224   0.439
 7589SOL    HW223667   5.689   6.218   0.549
 7590SOL     OW23668   1.788   0.819   6.297
 7590SOL    HW123669   1.835   0.907   6.293
 7590SOL    HW223670   1.838   0.752   6.242
 7591SOL     OW23671   6.577   5.043   0.400
 7591SOL    HW123672   6.591   5.108   0.475
 7591SOL    HW223673   6.557   4.952   0.438
 7592SOL     OW23674   5.390   5.485   0.376
 7592SOL    HW123675   5.356   5.456   0.286
 7592SOL    HW223676   5.342   5.568   0.404
 7593SOL     OW23677   5.832   2.573   6.181
 7593SOL    HW123678   5.826   2.516   6.263
 7593SOL    HW223679   5.912   2.632   6.186
 7594SOL     OW23680   1.378   5.840   4.225
 7594SOL    HW123681   1.333   5.806   4.143
 7594SOL    HW223682   1.467   5.795   4.235
 7595SOL     OW23683   6.251   2.954   0.343
 7595SOL    HW123684   6.313   3.007   0.401
 7595SOL    HW223685   6.224   3.010   0.264
 7596SOL     OW23686   5.431   4.505   1.981
 7596SOL    HW123687   5.383   4.593   1.985
 7596SOL    HW223688   5.426   4.461   2.070
 7597SOL     OW23689   3.202   5.234   1.756
 7597SOL    HW123690   3.207   5.134   1.752
 7597SOL    HW223691   3.107   5.263   1.744
 7598SOL     OW23692   6.514   1.052   3.380
 7598SOL    HW123693   6.454   1.116   3.333
 7598SOL    HW223694   6.461   0.976   3.416
 7599SOL     OW23695   6.573   2.158   2.055
 7599SOL    HW123696   6.570   2.115   1.964
 7599SOL    HW223697   6.482   2.190   2.080
 7600SOL     OW23698   1.641   1.769   1.542
 7600SOL    HW123699   1.642   1.861   1.502
 7600SOL    HW223700   1.731   1.747   1.578
 7601SOL     OW23701   2.593   6.599   5.413
 7601SOL    HW123702   2.661   6.651   5.464
 7601SOL    HW223703   2.539   6.661   5.356
 7602SOL     OW23704   1.760   3.777   4.887
 7602SOL    HW123705   1.781   3.696   4.834
 7602SOL    HW223706   1.683   3.758   4.948
 7603SOL     OW23707   0.710   0.350   1.724
 7603SOL    HW123708   0.623   0.373   1.768
 7603SOL    HW223709   0.695   0.336   1.626
 7604SOL     OW23710   4.826   6.403   6.080
 7604SOL    HW123711   4.870   6.314   6.086
 7604SOL    HW223712   4.766   6.417   6.159
 7605SOL     OW23713   5.859   4.228   6.129
 7605SOL    HW123714   5.832   4.279   6.048
 7605SOL    HW223715   5.778   4.207   6.184
 7606SOL     OW23716   5.791   2.152   2.367
 7606SOL    HW123717   5.724   2.145   2.293
 7606SOL    HW223718   5.875   2.193   2.332
 7607SOL     OW23719   4.988   6.702   6.500
 7607SOL    HW123720   4.997   6.769   6.426
 7607SOL    HW223721   4.907   6.724   6.554
 7608SOL     OW23722   3.509   2.965   3.509
 7608SOL    HW123723   3.409   2.975   3.508
 7608SOL    HW223724   3.547   3.011   3.429
 7609SOL     OW23725   1.348   2.857   4.495
 7609SOL    HW123726   1.392   2.768   4.489
 7609SOL    HW223727   1.415   2.929   4.479
 7610SOL     OW23728   5.154   0.144   1.362
 7610SOL    HW123729   5.208   0.113   1.440
 7610SOL    HW223730   5.106   0.066   1.321
 7611SOL     OW23731   1.725   2.108   1.200
 7611SOL    HW123732   1.699   2.022   1.157
 7611SOL    HW223733   1.703   2.104   1.298
 7612SOL     OW23734   4.229   1.623   2.966
 7612SOL    HW123735   4.248   1.695   2.899
 7612SOL    HW223736   4.167   1.659   3.036
 7613SOL     OW23737   4.616   1.094   2.127
 7613SOL    HW123738   4.542   1.027   2.133
 7613SOL    HW223739   4.654   1.109   2.218
 7614SOL     OW23740   3.980   2.246   0.535
 7614SOL    HW123741   3.885   2.219   0.546
 7614SOL    HW223742   4.009   2.299   0.615
 7615SOL     OW23743   3.545   4.915   5.632
 7615SOL    HW123744   3.537   5.015   5.634
 7615SOL    HW223745   3.539   4.884   5.537
 7616SOL     OW23746   6.174   4.524   3.941
 7616SOL    HW123747   6.175   4.608   3.996
 7616SOL    HW223748   6.151   4.446   3.998
 7617SOL     OW23749   3.524   5.915   2.417
 7617SOL    HW123750   3.470   5.911   2.502
 7617SOL    HW223751   3.461   5.919   2.339
 7618SOL     OW23752   1.413   2.815   0.770
 7618SOL    HW123753   1.432   2.723   0.805
 7618SOL    HW223754   1.471   2.881   0.817
 7619SOL     OW23755   5.743   3.514   5.588
 7619SOL    HW123756   5.796   3.458   5.653
 7619SOL    HW223757   5.804   3.576   5.540
 7620SOL     OW23758   3.236   6.853   1.925
 7620SOL    HW123759   3.260   6.870   1.829
 7620SOL    HW223760   3.320   6.844   1.978
 7621SOL     OW23761   2.212   1.358   2.231
 7621SOL    HW123762   2.187   1.430   2.166
 7621SOL    HW223763   2.307   1.370   2.259
 7622SOL     OW23764   4.633   2.354   0.282
 7622SOL    HW123765   4.652   2.257   0.268
 7622SOL    HW223766   4.564   2.384   0.217
 7623SOL     OW23767   5.122   0.489   5.911
 7623SOL    HW123768   5.050   0.429   5.947
 7623SOL    HW223769   5.199   0.433   5.880
 7624SOL     OW23770   0.432   0.532   3.099
 7624SOL    HW123771   0.447   0.623   3.138
 7624SOL    HW223772   0.412   0.468   3.173
 7625SOL     OW23773   4.608   0.319   1.604
 7625SOL    HW123774   4.675   0.248   1.624
 7625SOL    HW223775   4.644   0.408   1.633
 7626SOL     OW23776   1.634   5.393   4.859
 7626SOL    HW123777   1.550   5.360   4.816
 7626SOL    HW223778   1.705   5.408   4.790
 7627SOL     OW23779   6.984   2.621   0.128
 7627SOL    HW123780   6.921   2.576   0.065
 7627SOL    HW223781   6.943   2.625   0.219
 7628SOL     OW23782   3.261   1.744   1.191
 7628SOL    HW123783   3.173   1.789   1.203
 7628SOL    HW223784   3.334   1.812   1.195
 7629SOL     OW23785   6.218   5.507   3.406
 7629SOL    HW123786   6.156   5.487   3.482
 7629SOL    HW223787   6.273   5.588   3.428
 7630SOL     OW23788   6.401   0.905   2.446
 7630SOL    HW123789   6.485   0.851   2.438
 7630SOL    HW223790   6.368   0.902   2.541
 7631SOL     OW23791   0.564   2.095   3.643
 7631SOL    HW123792   0.512   2.078   3.726
 7631SOL    HW223793   0.562   2.193   3.621
 7632SOL     OW23794   4.434   1.560   6.900
 7632SOL    HW123795   4.443   1.636   6.964
 7632SOL    HW223796   4.512   1.559   6.837
 7633SOL     OW23797   5.525   4.224   6.641
 7633SOL    HW123798   5.543   4.277   6.724
 7633SOL    HW223799   5.545   4.128   6.657
 7634SOL     OW23800   1.025   1.529   2.255
 7634SOL    HW123801   1.031   1.490   2.163
 7634SOL    HW223802   0.946   1.489   2.302
 7635SOL     OW23803   2.885   4.656   5.618
 7635SOL    HW123804   2.948   4.661   5.541
 7635SOL    HW223805   2.792   4.674   5.586
 7636SOL     OW23806   1.354   0.068   3.972
 7636SOL    HW123807   1.433   0.092   4.028
 7636SOL    HW223808   1.327   0.146   3.917
 7637SOL     OW23809   1.812   5.863   4.144
 7637SOL    HW123810   1.798   5.772   4.183
 7637SOL    HW223811   1.744   5.926   4.180
 7638SOL     OW23812   4.843   4.944   2.083
 7638SOL    HW123813   4.882   5.031   2.054
 7638SOL    HW223814   4.821   4.949   2.180
 7639SOL     OW23815   0.856   1.735   4.672
 7639SOL    HW123816   0.827   1.650   4.627
 7639SOL    HW223817   0.932   1.715   4.734
 7640SOL     OW23818   2.580   2.105   6.857
 7640SOL    HW123819   2.675   2.092   6.888
 7640SOL    HW223820   2.572   2.075   6.762
 7641SOL     OW23821   6.260   3.564   2.544
 7641SOL    HW123822   6.255   3.533   2.449
 7641SOL    HW223823   6.351   3.602   2.562
 7642SOL     OW23824   2.789   1.842   2.861
 7642SOL    HW123825   2.815   1.784   2.784
 7642SOL    HW223826   2.699   1.883   2.844
 7643SOL     OW23827   4.907   2.889   3.006
 7643SOL    HW123828   4.896   2.801   3.052
 7643SOL    HW223829   4.880   2.963   3.068
 7644SOL     OW23830   0.384   3.507   3.219
 7644SOL    HW123831   0.357   3.425   3.271
 7644SOL    HW223832   0.335   3.508   3.132
 7645SOL     OW23833   4.716   4.184   6.588
 7645SOL    HW123834   4.725   4.214   6.683
 7645SOL    HW223835   4.807   4.165   6.551
 7646SOL     OW23836   1.624   1.969   2.397
 7646SOL    HW123837   1.603   1.872   2.412
 7646SOL    HW223838   1.678   2.003   2.473
 7647SOL     OW23839   2.392   4.213   1.486
 7647SOL    HW123840   2.297   4.194   1.462
 7647SOL    HW223841   2.439   4.128   1.510
 7648SOL     OW23842   4.364   0.663   3.250
 7648SOL    HW123843   4.458   0.693   3.238
 7648SOL    HW223844   4.302   0.723   3.199
 7649SOL     OW23845   3.036   0.942   1.456
 7649SOL    HW123846   2.953   0.887   1.465
 7649SOL    HW223847   3.021   1.032   1.496
 7650SOL     OW23848   6.376   4.809   2.523
 7650SOL    HW123849   6.405   4.898   2.558
 7650SOL    HW223850   6.442   4.777   2.454
 7651SOL     OW23851   3.876   1.593   6.382
 7651SOL    HW123852   3.800   1.574   6.320
 7651SOL    HW223853   3.841   1.639   6.464
 7652SOL     OW23854   1.270   2.995   2.340
 7652SOL    HW123855   1.267   3.084   2.385
 7652SOL    HW223856   1.225   2.927   2.397
 7653SOL     OW23857   3.172   2.292   1.099
 7653SOL    HW123858   3.224   2.272   1.182
 7653SOL    HW223859   3.217   2.366   1.048
 7654SOL     OW23860   4.838   3.795   3.661
 7654SOL    HW123861   4.870   3.701   3.669
 7654SOL    HW223862   4.859   3.845   3.745
 7655SOL     OW23863   4.280   6.468   5.367
 7655SOL    HW123864   4.197   6.513   5.399
 7655SOL    HW223865   4.356   6.534   5.370
 7656SOL     OW23866   0.807   6.252   4.812
 7656SOL    HW123867   0.870   6.179   4.787
 7656SOL    HW223868   0.858   6.338   4.819
 7657SOL     OW23869   3.978   1.351   3.952
 7657SOL    HW123870   4.050   1.323   3.888
 7657SOL    HW223871   3.903   1.394   3.902
 7658SOL     OW23872   3.949   0.550   6.018
 7658SOL    HW123873   3.980   0.610   5.944
 7658SOL    HW223874   4.010   0.471   6.025
 7659SOL     OW23875   5.747   0.291   1.174
 7659SOL    HW123876   5.796   0.216   1.130
 7659SOL    HW223877   5.809   0.367   1.191
 7660SOL     OW23878   6.081   4.750   4.609
 7660SOL    HW123879   6.180   4.754   4.594
 7660SOL    HW223880   6.034   4.799   4.535
 7661SOL     OW23881   5.747   3.064   3.277
 7661SOL    HW123882   5.783   3.067   3.370
 7661SOL    HW223883   5.776   2.979   3.232
 7662SOL     OW23884   0.003   5.391   1.977
 7662SOL    HW123885   0.099   5.401   1.952
 7662SOL    HW223886   6.965   5.419   1.900
 7663SOL     OW23887   0.033   5.452   0.556
 7663SOL    HW123888   0.026   5.539   0.508
 7663SOL    HW223889   7.005   5.381   0.504
 7664SOL     OW23890   2.424   5.422   3.773
 7664SOL    HW123891   2.458   5.448   3.683
 7664SOL    HW223892   2.496   5.436   3.841
 7665SOL     OW23893   2.761   6.841   4.967
 7665SOL    HW123894   2.859   6.856   4.981
 7665SOL    HW223895   2.710   6.891   5.037
 7666SOL     OW23896   0.824   0.947   1.106
 7666SOL    HW123897   0.792   1.041   1.111
 7666SOL    HW223898   0.924   0.946   1.111
 7667SOL     OW23899   4.506   5.625   6.492
 7667SOL    HW123900   4.416   5.669   6.488
 7667SOL    HW223901   4.516   5.564   6.413
 7668SOL     OW23902   3.404   3.747   1.061
 7668SOL    HW123903   3.476   3.783   1.120
 7668SOL    HW223904   3.362   3.667   1.104
 7669SOL     OW23905   4.754   6.288   4.373
 7669SOL    HW123906   4.655   6.283   4.383
 7669SOL    HW223907   4.776   6.341   4.291
 7670SOL     OW23908   1.699   4.755   0.810
 7670SOL    HW123909   1.765   4.692   0.768
 7670SOL    HW223910   1.726   4.772   0.905
 7671SOL     OW23911   6.019   2.300   4.669
 7671SOL    HW123912   6.109   2.336   4.645
 7671SOL    HW223913   5.952   2.329   4.601
 7672SOL     OW23914   5.310   1.197   2.646
 7672SOL    HW123915   5.268   1.234   2.564
 7672SOL    HW223916   5.383   1.133   2.621
 7673SOL     OW23917   0.989   4.734   1.294
 7673SOL    HW123918   1.032   4.803   1.353
 7673SOL    HW223919   0.890   4.737   1.305
 7674SOL     OW23920   5.680   1.066   4.899
 7674SOL    HW123921   5.694   1.156   4.940
 7674SOL    HW223922   5.616   1.014   4.954
 7675SOL     OW23923   4.393   6.289   3.627
 7675SOL    HW123924   4.395   6.289   3.527
 7675SOL    HW223925   4.462   6.353   3.661
 7676SOL     OW23926   1.694   0.061   0.853
 7676SOL    HW123927   1.654   0.133   0.796
 7676SOL    HW223928   1.760   0.009   0.800
 7677SOL     OW23929   2.193   2.970   2.830
 7677SOL    HW123930   2.192   3.064   2.794
 7677SOL    HW223931   2.195   2.906   2.753
 7678SOL     OW23932   5.978   6.829   0.290
 7678SOL    HW123933   5.990   6.786   0.200
 7678SOL    HW223934   5.882   6.849   0.305
 7679SOL     OW23935   1.292   5.150   5.342
 7679SOL    HW123936   1.236   5.156   5.425
 7679SOL    HW223937   1.388   5.168   5.364
 7680SOL     OW23938   4.197   2.396   6.924
 7680SOL    HW123939   4.185   2.431   6.831
 7680SOL    HW223940   4.150   2.458   6.988
 7681SOL     OW23941   2.889   1.582   6.828
 7681SOL    HW123942   2.826   1.515   6.866
 7681SOL    HW223943   2.886   1.666   6.882
 7682SOL     OW23944   3.551   0.009   1.511
 7682SOL    HW123945   3.473   0.039   1.456
 7682SOL    HW223946   3.541   6.931   1.533
 7683SOL     OW23947   5.491   2.079   3.110
 7683SOL    HW123948   5.547   2.048   3.186
 7683SOL    HW223949   5.468   2.002   3.051
 7684SOL     OW23950   4.355   2.214   6.360
 7684SOL    HW123951   4.333   2.189   6.266
 7684SOL    HW223952   4.271   2.216   6.415
 7685SOL     OW23953   3.405   2.929   1.050
 7685SOL    HW123954   3.331   2.944   1.116
 7685SOL    HW223955   3.452   2.844   1.074
 7686SOL     OW23956   3.605   0.143   3.969
 7686SOL    HW123957   3.519   0.093   3.976
 7686SOL    HW223958   3.586   0.240   3.951
 7687SOL     OW23959   4.879   5.144   5.518
 7687SOL    HW123960   4.927   5.178   5.438
 7687SOL    HW223961   4.863   5.046   5.509
 7688SOL     OW23962   6.859   6.218   4.313
 7688SOL    HW123963   6.856   6.209   4.214
 7688SOL    HW223964   6.948   6.186   4.347
 7689SOL     OW23965   3.858   6.390   4.743
 7689SOL    HW123966   3.877   6.440   4.658
 7689SOL    HW223967   3.762   6.364   4.745
 7690SOL     OW23968   0.274   5.804   3.321
 7690SOL    HW123969   0.371   5.812   3.343
 7690SOL    HW223970   0.262   5.797   3.222
 7691SOL     OW23971   4.935   3.416   4.470
 7691SOL    HW123972   4.917   3.329   4.516
 7691SOL    HW223973   4.893   3.414   4.379
 7692SOL     OW23974   2.613   6.456   1.893
 7692SOL    HW123975   2.513   6.465   1.894
 7692SOL    HW223976   2.646   6.468   1.799
 7693SOL     OW23977   5.126   1.547   6.589
 7693SOL    HW123978   5.117   1.639   6.628
 7693SOL    HW223979   5.223   1.524   6.582
 7694SOL     OW23980   0.029   5.182   4.265
 7694SOL    HW123981   6.962   5.177   4.216
 7694SOL    HW223982   0.041   5.099   4.319
 7695SOL     OW23983   3.838   0.608   0.437
 7695SOL    HW123984   3.746   0.570   0.434
 7695SOL    HW223985   3.893   0.559   0.504
 7696SOL     OW23986   0.434   3.203   5.728
 7696SOL    HW123987   0.481   3.134   5.672
 7696SOL    HW223988   0.344   3.221   5.689
 7697SOL     OW23989   3.785   1.860   2.001
 7697SOL    HW123990   3.727   1.929   1.958
 7697SOL    HW223991   3.781   1.872   2.101
 7698SOL     OW23992   6.969   3.211   5.841
 7698SOL    HW123993   6.897   3.277   5.863
 7698SOL    HW223994   0.007   3.247   5.767
 7699SOL     OW23995   2.343   4.912   6.710
 7699SOL    HW123996   2.280   4.912   6.788
 7699SOL    HW223997   2.410   4.839   6.722
 7700SOL     OW23998   5.063   6.619   4.765
 7700SOL    HW123999   5.023   6.572   4.844
 7700SOL    HW224000   5.015   6.589   4.682
 7701SOL     OW24001   5.792   2.100   4.663
 7701SOL    HW124002   5.714   2.145   4.706
 7701SOL    HW224003   5.854   2.169   4.626
 7702SOL     OW24004   2.500   6.618   6.039
 7702SOL    HW124005   2.579   6.667   6.076
 7702SOL    HW224006   2.499   6.628   5.939
 7703SOL     OW24007   0.385   1.504   6.405
 7703SOL    HW124008   0.321   1.438   6.365
 7703SOL    HW224009   0.443   1.457   6.472
 7704SOL     OW24010   4.454   4.254   0.213
 7704SOL    HW124011   4.412   4.277   0.300
 7704SOL    HW224012   4.383   4.219   0.151
 7705SOL     OW24013   3.205   5.196   4.982
 7705SOL    HW124014   3.243   5.269   4.925
 7705SOL    HW224015   3.108   5.183   4.960
 7706SOL     OW24016   0.137   1.081   4.715
 7706SOL    HW124017   0.094   1.165   4.748
 7706SOL    HW224018   0.222   1.104   4.666
 7707SOL     OW24019   0.516   5.136   6.098
 7707SOL    HW124020   0.496   5.136   6.196
 7707SOL    HW224021   0.591   5.200   6.080
 7708SOL     OW24022   4.230   6.368   4.567
 7708SOL    HW124023   4.184   6.451   4.535
 7708SOL    HW224024   4.162   6.299   4.590
 7709SOL     OW24025   3.710   2.061   2.224
 7709SOL    HW124026   3.659   2.094   2.145
 7709SOL    HW224027   3.799   2.107   2.228
 7710SOL     OW24028   2.242   1.612   6.876
 7710SOL    HW124029   2.189   1.588   6.957
 7710SOL    HW224030   2.200   1.689   6.829
 7711SOL     OW24031   5.523   6.414   6.459
 7711SOL    HW124032   5.543   6.345   6.390
 7711SOL    HW224033   5.559   6.385   6.548
 7712SOL     OW24034   5.184   5.462   1.308
 7712SOL    HW124035   5.260   5.409   1.270
 7712SOL    HW224036   5.142   5.516   1.235
 7713SOL     OW24037   1.683   4.663   6.399
 7713SOL    HW124038   1.744   4.723   6.347
 7713SOL    HW224039   1.589   4.695   6.391
 7714SOL     OW24040   5.536   4.380   4.050
 7714SOL    HW124041   5.460   4.441   4.074
 7714SOL    HW224042   5.619   4.434   4.037
 7715SOL     OW24043   4.657   1.017   0.911
 7715SOL    HW124044   4.558   1.021   0.923
 7715SOL    HW224045   4.679   0.969   0.827
 7716SOL     OW24046   4.383   1.868   2.976
 7716SOL    HW124047   4.461   1.923   2.947
 7716SOL    HW224048   4.300   1.924   2.971
 7717SOL     OW24049   3.294   1.269   6.053
 7717SOL    HW124050   3.293   1.359   6.010
 7717SOL    HW224051   3.279   1.198   5.985
 7718SOL     OW24052   3.019   6.079   4.032
 7718SOL    HW124053   3.095   6.036   3.984
 7718SOL    HW224054   2.940   6.085   3.971
 7719SOL     OW24055   6.709   2.151   4.382
 7719SOL    HW124056   6.755   2.120   4.299
 7719SOL    HW224057   6.613   2.170   4.363
 7720SOL     OW24058   5.738   5.727   1.780
 7720SOL    HW124059   5.797   5.773   1.846
 7720SOL    HW224060   5.794   5.694   1.703
 7721SOL     OW24061   1.925   4.361   2.372
 7721SOL    HW124062   1.938   4.360   2.471
 7721SOL    HW224063   1.828   4.374   2.351
 7722SOL     OW24064   6.939   5.531   4.020
 7722SOL    HW124065   7.016   5.595   4.022
 7722SOL    HW224066   6.966   5.445   4.065
 7723SOL     OW24067   6.541   3.441   0.306
 7723SOL    HW124068   6.566   3.346   0.323
 7723SOL    HW224069   6.624   3.497   0.305
 7724SOL     OW24070   1.860   4.784   1.068
 7724SOL    HW124071   1.805   4.801   1.150
 7724SOL    HW224072   1.941   4.732   1.093
 7725SOL     OW24073   4.889   3.176   4.597
 7725SOL    HW124074   4.976   3.149   4.557
 7725SOL    HW224075   4.823   3.101   4.586
 7726SOL     OW24076   6.780   4.716   3.476
 7726SOL    HW124077   6.788   4.719   3.376
 7726SOL    HW224078   6.848   4.778   3.516
 7727SOL     OW24079   6.741   2.639   1.835
 7727SOL    HW124080   6.778   2.709   1.897
 7727SOL    HW224081   6.775   2.549   1.862
 7728SOL     OW24082   2.993   2.264   2.876
 7728SOL    HW124083   2.946   2.242   2.790
 7728SOL    HW224084   3.091   2.271   2.859
 7729SOL     OW24085   5.423   2.384   0.466
 7729SOL    HW124086   5.487   2.383   0.390
 7729SOL    HW224087   5.383   2.475   0.475
 7730SOL     OW24088   5.504   0.743   2.310
 7730SOL    HW124089   5.419   0.795   2.311
 7730SOL    HW224090   5.500   0.673   2.239
 7731SOL     OW24091   5.967   1.423   6.518
 7731SOL    HW124092   5.881   1.450   6.474
 7731SOL    HW224093   5.999   1.498   6.576
 7732SOL     OW24094   4.494   5.283   0.804
 7732SOL    HW124095   4.556   5.217   0.847
 7732SOL    HW224096   4.399   5.258   0.823
 7733SOL     OW24097   3.115   0.169   2.161
 7733SOL    HW124098   3.159   0.217   2.238
 7733SOL    HW224099   3.148   0.207   2.075
 7734SOL     OW24100   2.278   1.789   3.100
 7734SOL    HW124101   2.276   1.889   3.112
 7734SOL    HW224102   2.367   1.754   3.131
 7735SOL     OW24103   4.682   4.106   0.089
 7735SOL    HW124104   4.757   4.043   0.111
 7735SOL    HW224105   4.617   4.108   0.164
 7736SOL     OW24106   6.513   4.817   6.399
 7736SOL    HW124107   6.513   4.900   6.455
 7736SOL    HW224108   6.499   4.738   6.459
 7737SOL     OW24109   5.012   1.180   0.836
 7737SOL    HW124110   5.014   1.087   0.875
 7737SOL    HW224111   5.036   1.246   0.907
 7738SOL     OW24112   2.968   4.786   6.827
 7738SOL    HW124113   3.031   4.832   6.764
 7738SOL    HW224114   2.885   4.841   6.838
 7739SOL     OW24115   6.236   2.867   1.422
 7739SOL    HW124116   6.169   2.925   1.376
 7739SOL    HW224117   6.225   2.877   1.521
 7740SOL     OW24118   0.208   6.510   3.185
 7740SOL    HW124119   0.251   6.474   3.268
 7740SOL    HW224120   0.244   6.601   3.166
 7741SOL     OW24121   2.310   5.799   4.628
 7741SOL    HW124122   2.308   5.766   4.533
 7741SOL    HW224123   2.283   5.725   4.690
 7742SOL     OW24124   6.636   1.250   3.944
 7742SOL    HW124125   6.621   1.250   3.846
 7742SOL    HW224126   6.559   1.296   3.990
 7743SOL     OW24127   4.268   2.392   3.223
 7743SOL    HW124128   4.204   2.334   3.273
 7743SOL    HW224129   4.275   2.481   3.268
 7744SOL     OW24130   6.713   0.355   4.692
 7744SOL    HW124131   6.744   0.264   4.719
 7744SOL    HW224132   6.716   0.363   4.592
 7745SOL     OW24133   4.736   3.729   5.951
 7745SOL    HW124134   4.729   3.670   5.870
 7745SOL    HW224135   4.830   3.730   5.984
 7746SOL     OW24136   1.548   0.787   0.437
 7746SOL    HW124137   1.560   0.800   0.536
 7746SOL    HW224138   1.628   0.741   0.400
 7747SOL     OW24139   5.516   5.901   1.122
 7747SOL    HW124140   5.543   5.953   1.204
 7747SOL    HW224141   5.580   5.826   1.108
 7748SOL     OW24142   3.130   4.120   6.756
 7748SOL    HW124143   3.058   4.098   6.822
 7748SOL    HW224144   3.088   4.142   6.668
 7749SOL     OW24145   6.165   3.303   5.966
 7749SOL    HW124146   6.094   3.249   5.920
 7749SOL    HW224147   6.215   3.244   6.030
 7750SOL     OW24148   5.737   4.744   2.532
 7750SOL    HW124149   5.660   4.680   2.539
 7750SOL    HW224150   5.822   4.693   2.522
 7751SOL     OW24151   0.676   2.745   2.166
 7751SOL    HW124152   0.711   2.831   2.130
 7751SOL    HW224153   0.633   2.761   2.255
 7752SOL     OW24154   4.887   2.205   3.227
 7752SOL    HW124155   4.795   2.213   3.265
 7752SOL    HW224156   4.954   2.209   3.300
 7753SOL     OW24157   3.280   1.728   4.808
 7753SOL    HW124158   3.357   1.676   4.771
 7753SOL    HW224159   3.313   1.810   4.854
 7754SOL     OW24160   4.964   6.278   2.265
 7754SOL    HW124161   4.938   6.222   2.344
 7754SOL    HW224162   5.053   6.321   2.283
 7755SOL     OW24163   0.522   4.598   4.705
 7755SOL    HW124164   0.548   4.670   4.641
 7755SOL    HW224165   0.516   4.635   4.797
 7756SOL     OW24166   2.888   5.065   2.080
 7756SOL    HW124167   2.982   5.066   2.047
 7756SOL    HW224168   2.885   5.094   2.176
 7757SOL     OW24169   0.166   4.273   2.066
 7757SOL    HW124170   0.143   4.176   2.057
 7757SOL    HW224171   0.183   4.311   1.975
 7758SOL     OW24172   1.521   1.518   5.289
 7758SOL    HW124173   1.510   1.433   5.236
 7758SOL    HW224174   1.527   1.596   5.226
 7759SOL     OW24175   2.581   2.083   0.910
 7759SOL    HW124176   2.522   2.099   0.830
 7759SOL    HW224177   2.613   2.170   0.945
 7760SOL     OW24178   4.785   2.701   0.008
 7760SOL    HW124179   4.695   2.675   6.993
 7760SOL    HW224180   4.787   2.686   0.107
 7761SOL     OW24181   4.386   5.512   4.112
 7761SOL    HW124182   4.303   5.466   4.081
 7761SOL    HW224183   4.367   5.559   4.198
 7762SOL     OW24184   6.298   1.737   2.014
 7762SOL    HW124185   6.281   1.642   1.986
 7762SOL    HW224186   6.393   1.747   2.042
 7763SOL     OW24187   2.367   0.070   4.144
 7763SOL    HW124188   2.402   6.999   4.123
 7763SOL    HW224189   2.277   0.081   4.102
 7764SOL     OW24190   2.400   3.829   6.266
 7764SOL    HW124191   2.429   3.851   6.173
 7764SOL    HW224192   2.334   3.897   6.298
 7765SOL     OW24193   5.825   2.835   5.138
 7765SOL    HW124194   5.873   2.901   5.080
 7765SOL    HW224195   5.736   2.814   5.099
 7766SOL     OW24196   6.018   3.826   6.239
 7766SOL    HW124197   5.937   3.857   6.289
 7766SOL    HW224198   5.999   3.736   6.199
 7767SOL     OW24199   3.251   0.550   3.872
 7767SOL    HW124200   3.302   0.552   3.786
 7767SOL    HW224201   3.229   0.643   3.901
 7768SOL     OW24202   4.385   5.007   3.751
 7768SOL    HW124203   4.469   5.017   3.698
 7768SOL    HW224204   4.388   5.065   3.832
 7769SOL     OW24205   3.938   3.084   5.470
 7769SOL    HW124206   3.876   3.133   5.408
 7769SOL    HW224207   3.978   3.148   5.535
 7770SOL     OW24208   1.790   2.955   4.390
 7770SOL    HW124209   1.860   2.887   4.414
 7770SOL    HW224210   1.788   2.965   4.291
 7771SOL     OW24211   2.626   3.169   6.771
 7771SOL    HW124212   2.557   3.241   6.761
 7771SOL    HW224213   2.584   3.089   6.815
 7772SOL     OW24214   5.646   0.036   1.803
 7772SOL    HW124215   5.619   0.126   1.770
 7772SOL    HW224216   5.576   0.000   1.864
 7773SOL     OW24217   3.256   5.961   6.995
 7773SOL    HW124218   3.193   6.022   0.024
 7773SOL    HW224219   3.349   5.997   7.001
 7774SOL     OW24220   4.778   1.408   2.569
 7774SOL    HW124221   4.683   1.400   2.600
 7774SOL    HW224222   4.838   1.357   2.631
 7775SOL     OW24223   2.507   1.773   1.326
 7775SOL    HW124224   2.425   1.786   1.270
 7775SOL    HW224225   2.494   1.817   1.414
 7776SOL     OW24226   1.366   1.324   4.503
 7776SOL    HW124227   1.300   1.397   4.523
 7776SOL    HW224228   1.457   1.364   4.493
 7777SOL     OW24229   6.136   5.461   4.222
 7777SOL    HW124230   6.133   5.546   4.273
 7777SOL    HW224231   6.128   5.384   4.285
 7778SOL     OW24232   6.990   4.604   2.819
 7778SOL    HW124233   6.992   4.646   2.910
 7778SOL    HW224234   0.051   4.632   2.767
 7779SOL     OW24235   4.601   6.058   1.477
 7779SOL    HW124236   4.600   6.015   1.387
 7779SOL    HW224237   4.671   6.130   1.479
 7780SOL     OW24238   5.828   6.551   4.899
 7780SOL    HW124239   5.918   6.507   4.896
 7780SOL    HW224240   5.777   6.517   4.978
 7781SOL     OW24241   1.570   2.963   0.935
 7781SOL    HW124242   1.540   3.058   0.942
 7781SOL    HW224243   1.576   2.923   1.026
 7782SOL     OW24244   5.298   2.782   4.454
 7782SOL    HW124245   5.203   2.790   4.484
 7782SOL    HW224246   5.317   2.850   4.383
 7783SOL     OW24247   1.659   6.510   4.727
 7783SOL    HW124248   1.578   6.564   4.751
 7783SOL    HW224249   1.727   6.517   4.799
 7784SOL     OW24250   1.364   1.793   1.758
 7784SOL    HW124251   1.457   1.804   1.722
 7784SOL    HW224252   1.298   1.802   1.683
 7785SOL     OW24253   7.005   6.375   3.091
 7785SOL    HW124254   0.071   6.358   3.141
 7785SOL    HW224255   6.932   6.319   3.131
 7786SOL     OW24256   4.021   0.980   4.941
 7786SOL    HW124257   4.022   1.026   4.853
 7786SOL    HW224258   4.102   1.006   4.994
 7787SOL     OW24259   2.518   2.472   1.805
 7787SOL    HW124260   2.490   2.386   1.762
 7787SOL    HW224261   2.617   2.470   1.822
 7788SOL     OW24262   6.853   4.615   1.307
 7788SOL    HW124263   6.860   4.600   1.406
 7788SOL    HW224264   6.758   4.600   1.278
 7789SOL     OW24265   3.291   1.543   6.038
 7789SOL    HW124266   3.244   1.620   5.995
 7789SOL    HW224267   3.380   1.531   5.994
 7790SOL     OW24268   4.321   4.414   1.777
 7790SOL    HW124269   4.239   4.370   1.740
 7790SOL    HW224270   4.378   4.345   1.821
 7791SOL     OW24271   2.853   5.567   2.511
 7791SOL    HW124272   2.849   5.660   2.475
 7791SOL    HW224273   2.857   5.570   2.610
 7792SOL     OW24274   0.518   1.659   3.096
 7792SOL    HW124275   0.481   1.609   3.174
 7792SOL    HW224276   0.455   1.733   3.071
 7793SOL     OW24277   5.237   0.601   0.243
 7793SOL    HW124278   5.305   0.628   0.174
 7793SOL    HW224279   5.159   0.662   0.238
 7794SOL     OW24280   0.997   6.857   3.164
 7794SOL    HW124281   0.954   6.795   3.099
 7794SOL    HW224282   0.932   6.877   3.238
 7795SOL     OW24283   3.048   5.048   0.353
 7795SOL    HW124284   3.119   5.046   0.423
 7795SOL    HW224285   3.086   5.018   0.266
 7796SOL     OW24286   3.096   2.875   0.220
 7796SOL    HW124287   3.119   2.872   0.123
 7796SOL    HW224288   3.003   2.912   0.231
 7797SOL     OW24289   0.611   5.893   3.658
 7797SOL    HW124290   0.628   5.805   3.702
 7797SOL    HW224291   0.516   5.920   3.673
 7798SOL     OW24292   1.613   3.301   0.519
 7798SOL    HW124293   1.670   3.273   0.443
 7798SOL    HW224294   1.668   3.307   0.602
 7799SOL     OW24295   2.923   6.027   3.451
 7799SOL    HW124296   2.896   5.960   3.382
 7799SOL    HW224297   2.857   6.027   3.525
 7800SOL     OW24298   0.455   6.449   2.364
 7800SOL    HW124299   0.456   6.382   2.439
 7800SOL    HW224300   0.490   6.406   2.281
 7801SOL     OW24301   1.418   1.872   2.146
 7801SOL    HW124302   1.368   1.936   2.088
 7801SOL    HW224303   1.352   1.816   2.197
 7802SOL     OW24304   6.726   3.720   4.401
 7802SOL    HW124305   6.706   3.787   4.330
 7802SOL    HW224306   6.730   3.765   4.490
 7803SOL     OW24307   3.124   2.445   5.574
 7803SOL    HW124308   3.204   2.394   5.542
 7803SOL    HW224309   3.102   2.516   5.507
 7804SOL     OW24310   3.507   2.008   5.210
 7804SOL    HW124311   3.501   1.910   5.231
 7804SOL    HW224312   3.511   2.020   5.111
 7805SOL     OW24313   5.326   3.370   0.193
 7805SOL    HW124314   5.353   3.446   0.134
 7805SOL    HW224315   5.268   3.404   0.266
 7806SOL     OW24316   6.850   1.223   5.842
 7806SOL    HW124317   6.788   1.150   5.814
 7806SOL    HW224318   6.944   1.195   5.824
 7807SOL     OW24319   1.866   4.837   6.247
 7807SOL    HW124320   1.868   4.936   6.235
 7807SOL    HW224321   1.873   4.792   6.158
 7808SOL     OW24322   6.968   3.589   3.201
 7808SOL    HW124323   6.878   3.549   3.185
 7808SOL    HW224324   6.958   3.676   3.251
 7809SOL     OW24325   4.866   5.307   2.495
 7809SOL    HW124326   4.884   5.326   2.591
 7809SOL    HW224327   4.791   5.365   2.463
 7810SOL     OW24328   2.748   6.698   6.077
 7810SOL    HW124329   2.746   6.797   6.088
 7810SOL    HW224330   2.776   6.676   5.983
 7811SOL     OW24331   1.448   5.911   3.283
 7811SOL    HW124332   1.466   5.846   3.209
 7811SOL    HW224333   1.410   5.862   3.361
 7812SOL     OW24334   2.946   1.705   6.175
 7812SOL    HW124335   2.945   1.606   6.163
 7812SOL    HW224336   3.034   1.742   6.144
 7813SOL     OW24337   5.310   0.392   0.425
 7813SOL    HW124338   5.222   0.380   0.471
 7813SOL    HW224339   5.297   0.445   0.342
 7814SOL     OW24340   6.626   3.325   2.355
 7814SOL    HW124341   6.668   3.413   2.374
 7814SOL    HW224342   6.639   3.301   2.258
 7815SOL     OW24343   6.132   4.529   5.475
 7815SOL    HW124344   6.171   4.577   5.396
 7815SOL    HW224345   6.087   4.595   5.536
 7816SOL     OW24346   0.797   1.379   5.583
 7816SOL    HW124347   0.729   1.341   5.520
 7816SOL    HW224348   0.766   1.366   5.677
 7817SOL     OW24349   3.976   2.636   6.861
 7817SOL    HW124350   4.057   2.685   6.829
 7817SOL    HW224351   3.997   2.590   6.948
 7818SOL     OW24352   6.100   0.273   3.783
 7818SOL    HW124353   6.013   0.255   3.737
 7818SOL    HW224354   6.163   0.316   3.718
 7819SOL     OW24355   1.429   3.166   4.783
 7819SOL    HW124356   1.511   3.187   4.730
 7819SOL    HW224357   1.445   3.186   4.879
 7820SOL     OW24358   1.112   6.880   5.412
 7820SOL    HW124359   1.020   6.842   5.409
 7820SOL    HW224360   1.109   6.978   5.394
 7821SOL     OW24361   4.111   6.717   0.307
 7821SOL    HW124362   4.127   6.750   0.400
 7821SOL    HW224363   4.101   6.617   0.308
 7822SOL     OW24364   0.442   1.460   5.146
 7822SOL    HW124365   0.403   1.368   5.136
 7822SOL    HW224366   0.491   1.485   5.062
 7823SOL     OW24367   2.461   3.501   5.389
 7823SOL    HW124368   2.478   3.404   5.403
 7823SOL    HW224369   2.370   3.525   5.422
 7824SOL     OW24370   5.540   3.268   3.274
 7824SOL    HW124371   5.493   3.244   3.359
 7824SOL    HW224372   5.586   3.187   3.237
 7825SOL     OW24373   3.763   3.557   2.031
 7825SOL    HW124374   3.799   3.512   1.949
 7825SOL    HW224375   3.663   3.558   2.028
 7826SOL     OW24376   6.678   0.096   1.465
 7826SOL    HW124377   6.615   0.093   1.542
 7826SOL    HW224378   6.631   0.068   1.381
 7827SOL     OW24379   4.585   3.368   0.656
 7827SOL    HW124380   4.547   3.336   0.742
 7827SOL    HW224381   4.567   3.300   0.584
 7828SOL     OW24382   0.609   5.904   0.622
 7828SOL    HW124383   0.619   5.805   0.618
 7828SOL    HW224384   0.696   5.945   0.651
 7829SOL     OW24385   4.109   3.280   2.975
 7829SOL    HW124386   4.193   3.280   3.029
 7829SOL    HW224387   4.115   3.350   2.904
 7830SOL     OW24388   6.252   3.269   6.961
 7830SOL    HW124389   6.180   3.288   6.894
 7830SOL    HW224390   6.317   3.345   6.963
 7831SOL     OW24391   2.127   2.087   6.619
 7831SOL    HW124392   2.188   2.069   6.696
 7831SOL    HW224393   2.062   2.011   6.610
 7832SOL     OW24394   2.571   2.700   5.348
 7832SOL    HW124395   2.476   2.697   5.317
 7832SOL    HW224396   2.580   2.654   5.436
 7833SOL     OW24397   1.610   6.607   0.721
 7833SOL    HW124398   1.583   6.542   0.792
 7833SOL    HW224399   1.529   6.653   0.685
 7834SOL     OW24400   0.098   0.329   1.755
 7834SOL    HW124401   0.118   0.403   1.690
 7834SOL    HW224402   7.019   0.315   1.761
 7835SOL     OW24403   2.759   2.089   4.407
 7835SOL    HW124404   2.833   2.024   4.388
 7835SOL    HW224405   2.683   2.042   4.451
 7836SOL     OW24406   1.802   0.841   6.579
 7836SOL    HW124407   1.792   0.842   6.479
 7836SOL    HW224408   1.877   0.902   6.606
 7837SOL     OW24409   5.206   6.405   3.176
 7837SOL    HW124410   5.295   6.444   3.199
 7837SOL    HW224411   5.134   6.463   3.212
 7838SOL     OW24412   3.315   6.983   4.166
 7838SOL    HW124413   3.347   6.996   4.260
 7838SOL    HW224414   3.216   6.999   4.162
 7839SOL     OW24415   0.344   4.798   4.323
 7839SOL    HW124416   0.374   4.704   4.341
 7839SOL    HW224417   0.321   4.842   4.410
 7840SOL     OW24418   5.294   3.013   5.647
 7840SOL    HW124419   5.298   3.064   5.561
 7840SOL    HW224420   5.387   2.992   5.678
 7841SOL     OW24421   1.295   1.887   6.513
 7841SOL    HW124422   1.232   1.952   6.468
 7841SOL    HW224423   1.359   1.938   6.570
 7842SOL     OW24424   2.788   1.041   2.171
 7842SOL    HW124425   2.874   0.994   2.150
 7842SOL    HW224426   2.727   1.036   2.092
 7843SOL     OW24427   6.540   3.479   0.983
 7843SOL    HW124428   6.537   3.579   0.976
 7843SOL    HW224429   6.469   3.448   1.047
 7844SOL     OW24430   3.701   1.276   4.199
 7844SOL    HW124431   3.704   1.351   4.133
 7844SOL    HW224432   3.704   1.313   4.292
 7845SOL     OW24433   0.959   0.865   3.949
 7845SOL    HW124434   0.868   0.879   3.910
 7845SOL    HW224435   0.974   0.929   4.025
 7846SOL     OW24436   3.520   6.936   2.057
 7846SOL    HW124437   3.503   6.859   2.119
 7846SOL    HW224438   3.617   6.962   2.063
 7847SOL     OW24439   6.727   0.456   0.198
 7847SOL    HW124440   6.702   0.546   0.164
 7847SOL    HW224441   6.816   0.429   0.161
 7848SOL     OW24442   4.482   4.144   0.786
 7848SOL    HW124443   4.575   4.109   0.778
 7848SOL    HW224444   4.417   4.069   0.776
 7849SOL     OW24445   5.681   4.140   4.849
 7849SOL    HW124446   5.671   4.224   4.796
 7849SOL    HW224447   5.656   4.062   4.792
 7850SOL     OW24448   0.912   1.105   4.215
 7850SOL    HW124449   0.875   1.108   4.122
 7850SOL    HW224450   0.964   1.188   4.233
 7851SOL     OW24451   4.782   6.542   0.292
 7851SOL    HW124452   4.772   6.640   0.279
 7851SOL    HW224453   4.694   6.501   0.314
 7852SOL     OW24454   2.000   6.634   0.036
 7852SOL    HW124455   1.960   6.697   6.989
 7852SOL    HW224456   2.025   6.549   7.010
 7853SOL     OW24457   2.264   3.033   0.866
 7853SOL    HW124458   2.253   3.011   0.963
 7853SOL    HW224459   2.307   2.955   0.819
 7854SOL     OW24460   3.313   3.906   2.917
 7854SOL    HW124461   3.231   3.910   2.860
 7854SOL    HW224462   3.324   3.992   2.967
 7855SOL     OW24463   3.464   0.155   5.619
 7855SOL    HW124464   3.529   0.205   5.676
 7855SOL    HW224465   3.409   0.094   5.677
 7856SOL     OW24466   4.354   3.507   6.094
 7856SOL    HW124467   4.369   3.429   6.155
 7856SOL    HW224468   4.258   3.535   6.100
 7857SOL     OW24469   0.608   1.956   4.706
 7857SOL    HW124470   0.647   2.043   4.675
 7857SOL    HW224471   0.678   1.884   4.701
 7858SOL     OW24472   6.052   4.399   3.228
 7858SOL    HW124473   6.053   4.384   3.129
 7858SOL    HW224474   6.078   4.494   3.247
 7859SOL     OW24475   0.702   5.806   6.466
 7859SOL    HW124476   0.617   5.810   6.517
 7859SOL    HW224477   0.777   5.840   6.523
 7860SOL     OW24478   3.610   0.206   1.685
 7860SOL    HW124479   3.610   0.135   1.614
 7860SOL    HW224480   3.642   0.292   1.646
 7861SOL     OW24481   5.539   3.988   0.377
 7861SOL    HW124482   5.499   4.044   0.450
 7861SOL    HW224483   5.613   3.933   0.415
 7862SOL     OW24484   3.277   4.405   1.697
 7862SOL    HW124485   3.247   4.501   1.699
 7862SOL    HW224486   3.197   4.345   1.700
 7863SOL     OW24487   5.995   5.716   2.436
 7863SOL    HW124488   5.961   5.729   2.529
 7863SOL    HW224489   5.968   5.794   2.380
 7864SOL     OW24490   0.609   5.839   4.291
 7864SOL    HW124491   0.697   5.856   4.334
 7864SOL    HW224492   0.541   5.903   4.328
 7865SOL     OW24493   3.261   0.308   2.377
 7865SOL    HW124494   3.232   0.296   2.472
 7865SOL    HW224495   3.350   0.354   2.375
 7866SOL     OW24496   2.290   2.714   4.128
 7866SOL    HW124497   2.254   2.767   4.204
 7866SOL    HW224498   2.271   2.762   4.042
 7867SOL     OW24499   5.594   4.196   2.713
 7867SOL    HW124500   5.564   4.246   2.631
 7867SOL    HW224501   5.518   4.188   2.777
 7868SOL     OW24502   5.387   0.155   0.778
 7868SOL    HW124503   5.393   0.092   0.700
 7868SOL    HW224504   5.426   0.243   0.752
 7869SOL     OW24505   6.967   2.209   3.637
 7869SOL    HW124506   0.037   2.249   3.617
 7869SOL    HW224507   6.977   2.136   3.704
 7870SOL     OW24508   0.265   6.218   3.237
 7870SOL    HW124509   0.251   6.186   3.144
 7870SOL    HW224510   0.359   6.198   3.266
 7871SOL     OW24511   5.702   3.549   4.047
 7871SOL    HW124512   5.713   3.506   4.137
 7871SOL    HW224513   5.747   3.493   3.977
 7872SOL     OW24514   6.559   3.288   3.912
 7872SOL    HW124515   6.641   3.233   3.898
 7872SOL    HW224516   6.577   3.359   3.980
 7873SOL     OW24517   6.526   5.276   5.340
 7873SOL    HW124518   6.526   5.187   5.294
 7873SOL    HW224519   6.516   5.262   5.439
 7874SOL     OW24520   6.134   1.055   0.622
 7874SOL    HW124521   6.136   0.965   0.577
 7874SOL    HW224522   6.108   1.125   0.555
 7875SOL     OW24523   4.664   3.446   6.775
 7875SOL    HW124524   4.564   3.444   6.774
 7875SOL    HW224525   4.695   3.538   6.799
 7876SOL     OW24526   6.410   0.845   4.776
 7876SOL    HW124527   6.387   0.903   4.698
 7876SOL    HW224528   6.334   0.783   4.795
 7877SOL     OW24529   6.506   2.495   2.351
 7877SOL    HW124530   6.476   2.517   2.258
 7877SOL    HW224531   6.586   2.435   2.347
 7878SOL     OW24532   4.725   4.257   1.435
 7878SOL    HW124533   4.691   4.295   1.522
 7878SOL    HW224534   4.650   4.253   1.369
 7879SOL     OW24535   5.057   0.617   5.204
 7879SOL    HW124536   4.965   0.624   5.240
 7879SOL    HW224537   5.122   0.654   5.270
 7880SOL     OW24538   1.018   6.479   6.081
 7880SOL    HW124539   0.984   6.573   6.070
 7880SOL    HW224540   1.046   6.465   6.175
 7881SOL     OW24541   0.636   5.338   3.899
 7881SOL    HW124542   0.543   5.355   3.868
 7881SOL    HW224543   0.697   5.336   3.819
 7882SOL     OW24544   0.594   4.070   1.955
 7882SOL    HW124545   0.569   4.123   1.874
 7882SOL    HW224546   0.690   4.044   1.950
 7883SOL     OW24547   3.481   2.039   3.660
 7883SOL    HW124548   3.490   1.955   3.714
 7883SOL    HW224549   3.538   2.110   3.699
 7884SOL     OW24550   0.895   3.843   4.358
 7884SOL    HW124551   0.897   3.781   4.280
 7884SOL    HW224552   0.978   3.900   4.357
 7885SOL     OW24553   5.621   5.457   3.832
 7885SOL    HW124554   5.588   5.451   3.926
 7885SOL    HW224555   5.720   5.467   3.832
 7886SOL     OW24556   4.917   3.532   3.352
 7886SOL    HW124557   4.965   3.576   3.277
 7886SOL    HW224558   4.838   3.481   3.317
 7887SOL     OW24559   2.003   2.862   1.090
 7887SOL    HW124560   1.977   2.768   1.112
 7887SOL    HW224561   2.103   2.869   1.092
 7888SOL     OW24562   5.896   1.593   4.893
 7888SOL    HW124563   5.892   1.687   4.860
 7888SOL    HW224564   5.990   1.569   4.917
 7889SOL     OW24565   5.814   4.656   0.098
 7889SOL    HW124566   5.715   4.644   0.098
 7889SOL    HW224567   5.844   4.680   0.005
 7890SOL     OW24568   1.751   3.450   4.360
 7890SOL    HW124569   1.776   3.361   4.399
 7890SOL    HW224570   1.728   3.439   4.264
 7891SOL     OW24571   6.826   1.858   4.251
 7891SOL    HW124572   6.864   1.782   4.303
 7891SOL    HW224573   6.738   1.884   4.292
 7892SOL     OW24574   0.946   1.875   5.398
 7892SOL    HW124575   0.932   1.777   5.415
 7892SOL    HW224576   0.872   1.927   5.439
 7893SOL     OW24577   5.619   0.045   0.093
 7893SOL    HW124578   5.636   0.061   7.016
 7893SOL    HW224579   5.617   0.132   0.142
 7894SOL     OW24580   3.750   1.973   6.333
 7894SOL    HW124581   3.720   1.908   6.403
 7894SOL    HW224582   3.671   2.028   6.304
 7895SOL     OW24583   5.718   6.820   2.823
 7895SOL    HW124584   5.763   6.757   2.886
 7895SOL    HW224585   5.660   6.883   2.874
 7896SOL     OW24586   2.446   2.497   1.154
 7896SOL    HW124587   2.455   2.596   1.162
 7896SOL    HW224588   2.349   2.472   1.147
 7897SOL     OW24589   3.848   2.638   0.932
 7897SOL    HW124590   3.837   2.732   0.903
 7897SOL    HW224591   3.937   2.627   0.977
 7898SOL     OW24592   5.264   6.221   3.458
 7898SOL    HW124593   5.215   6.192   3.376
 7898SOL    HW224594   5.355   6.254   3.433
 7899SOL     OW24595   6.882   4.505   3.865
 7899SOL    HW124596   6.893   4.470   3.958
 7899SOL    HW224597   6.941   4.585   3.853
 7900SOL     OW24598   0.681   3.771   1.206
 7900SOL    HW124599   0.654   3.686   1.162
 7900SOL    HW224600   0.779   3.769   1.227
 7901SOL     OW24601   0.163   1.272   6.782
 7901SOL    HW124602   0.212   1.278   6.695
 7901SOL    HW224603   0.131   1.362   6.809
 7902SOL     OW24604   1.229   6.988   2.626
 7902SOL    HW124605   1.227   0.010   2.716
 7902SOL    HW224606   1.301   6.919   2.622
 7903SOL     OW24607   2.862   2.241   5.093
 7903SOL    HW124608   2.957   2.272   5.094
 7903SOL    HW224609   2.820   2.264   5.005
 7904SOL     OW24610   4.994   1.227   2.665
 7904SOL    HW124611   5.052   1.211   2.745
 7904SOL    HW224612   5.045   1.203   2.582
 7905SOL     OW24613   5.111   1.600   0.893
 7905SOL    HW124614   5.208   1.624   0.880
 7905SOL    HW224615   5.102   1.537   0.970
 7906SOL     OW24616   1.300   5.389   0.697
 7906SOL    HW124617   1.225   5.370   0.761
 7906SOL    HW224618   1.387   5.358   0.737
 7907SOL     OW24619   6.275   0.100   2.652
 7907SOL    HW124620   6.181   0.098   2.685
 7907SOL    HW224621   6.287   0.032   2.580
 7908SOL     OW24622   0.737   0.239   6.387
 7908SOL    HW124623   0.792   0.167   6.428
 7908SOL    HW224624   0.644   0.235   6.424
 7909SOL     OW24625   5.749   3.962   2.363
 7909SOL    HW124626   5.660   4.006   2.373
 7909SOL    HW224627   5.796   3.999   2.282
 7910SOL     OW24628   0.721   4.117   6.893
 7910SOL    HW124629   0.774   4.135   6.975
 7910SOL    HW224630   0.728   4.195   6.831
 7911SOL     OW24631   0.078   4.577   6.625
 7911SOL    HW124632   0.055   4.612   6.534
 7911SOL    HW224633   0.017   4.501   6.648
 7912SOL     OW24634   6.243   4.961   0.832
 7912SOL    HW124635   6.277   5.018   0.907
 7912SOL    HW224636   6.251   5.011   0.746
 7913SOL     OW24637   1.234   4.562   1.295
 7913SOL    HW124638   1.271   4.525   1.210
 7913SOL    HW224639   1.145   4.603   1.278
 7914SOL     OW24640   6.492   6.867   5.200
 7914SOL    HW124641   6.512   6.778   5.241
 7914SOL    HW224642   6.451   6.854   5.110
 7915SOL     OW24643   3.727   5.451   2.754
 7915SOL    HW124644   3.733   5.467   2.852
 7915SOL    HW224645   3.787   5.515   2.706
 7916SOL     OW24646   1.186   0.073   4.407
 7916SOL    HW124647   1.134   0.145   4.362
 7916SOL    HW224648   1.138   0.043   4.489
 7917SOL     OW24649   4.380   3.316   0.922
 7917SOL    HW124650   4.373   3.232   0.868
 7917SOL    HW224651   4.451   3.305   0.992
 7918SOL     OW24652   2.150   2.039   3.603
 7918SOL    HW124653   2.177   1.971   3.535
 7918SOL    HW224654   2.227   2.061   3.662
 7919SOL     OW24655   2.031   6.387   4.805
 7919SOL    HW124656   2.057   6.445   4.727
 7919SOL    HW224657   2.112   6.363   4.857
 7920SOL     OW24658   4.976   0.466   1.140
 7920SOL    HW124659   4.968   0.549   1.085
 7920SOL    HW224660   5.069   0.431   1.135
 7921SOL     OW24661   5.678   2.362   0.818
 7921SOL    HW124662   5.633   2.452   0.818
 7921SOL    HW224663   5.634   2.303   0.885
 7922SOL     OW24664   1.582   6.009   1.830
 7922SOL    HW124665   1.510   5.953   1.870
 7922SOL    HW224666   1.572   6.011   1.731
 7923SOL     OW24667   5.664   0.904   0.479
 7923SOL    HW124668   5.739   0.970   0.475
 7923SOL    HW224669   5.608   0.913   0.397
 7924SOL     OW24670   6.562   6.071   0.363
 7924SOL    HW124671   6.493   6.004   0.389
 7924SOL    HW224672   6.623   6.032   0.294
 7925SOL     OW24673   1.476   5.765   6.351
 7925SOL    HW124674   1.559   5.777   6.406
 7925SOL    HW224675   1.416   5.698   6.395
 7926SOL     OW24676   4.944   5.367   0.408
 7926SOL    HW124677   4.972   5.281   0.367
 7926SOL    HW224678   4.844   5.369   0.417
 7927SOL     OW24679   4.349   6.723   2.389
 7927SOL    HW124680   4.430   6.777   2.410
 7927SOL    HW224681   4.308   6.689   2.474
 7928SOL     OW24682   5.687   2.199   3.345
 7928SOL    HW124683   5.704   2.297   3.359
 7928SOL    HW224684   5.697   2.177   3.248
 7929SOL     OW24685   4.273   4.430   5.995
 7929SOL    HW124686   4.181   4.423   5.958
 7929SOL    HW224687   4.271   4.423   6.094
 7930SOL     OW24688   4.332   6.328   6.175
 7930SOL    HW124689   4.323   6.241   6.126
 7930SOL    HW224690   4.296   6.402   6.118
 7931SOL     OW24691   4.082   2.164   1.358
 7931SOL    HW124692   4.043   2.249   1.393
 7931SOL    HW224693   4.078   2.094   1.428
 7932SOL     OW24694   1.753   3.833   2.257
 7932SOL    HW124695   1.723   3.886   2.178
 7932SOL    HW224696   1.728   3.882   2.341
 7933SOL     OW24697   1.017   1.360   0.192
 7933SOL    HW124698   1.088   1.371   0.122
 7933SOL    HW224699   0.946   1.429   0.179
 7934SOL     OW24700   0.795   5.579   1.182
 7934SOL    HW124701   0.862   5.653   1.187
 7934SOL    HW224702   0.827   5.510   1.116
 7935SOL     OW24703   4.861   3.042   3.358
 7935SOL    HW124704   4.836   2.949   3.381
 7935SOL    HW224705   4.841   3.103   3.435
 7936SOL     OW24706   3.180   5.748   3.697
 7936SOL    HW124707   3.159   5.730   3.793
 7936SOL    HW224708   3.267   5.706   3.673
 7937SOL     OW24709   3.311   0.943   6.935
 7937SOL    HW124710   3.314   1.002   6.854
 7937SOL    HW224711   3.351   0.992   7.013
 7938SOL     OW24712   2.736   6.472   4.387
 7938SOL    HW124713   2.795   6.548   4.413
 7938SOL    HW224714   2.743   6.454   4.289
 7939SOL     OW24715   0.311   1.563   3.974
 7939SOL    HW124716   0.375   1.633   4.005
 7939SOL    HW224717   0.220   1.604   3.962
 7940SOL     OW24718   5.524   1.165   3.429
 7940SOL    HW124719   5.569   1.237   3.481
 7940SOL    HW224720   5.586   1.131   3.358
 7941SOL     OW24721   3.694   6.881   1.194
 7941SOL    HW124722   3.665   6.813   1.261
 7941SOL    HW224723   3.790   6.866   1.171
 7942SOL     OW24724   1.505   5.216   0.787
 7942SOL    HW124725   1.471   5.171   0.870
 7942SOL    HW224726   1.564   5.153   0.737
 7943SOL     OW24727   1.601   6.177   6.017
 7943SOL    HW124728   1.576   6.081   6.005
 7943SOL    HW224729   1.578   6.229   5.935
 7944SOL     OW24730   1.223   2.589   1.396
 7944SOL    HW124731   1.148   2.560   1.456
 7944SOL    HW224732   1.309   2.551   1.428
 7945SOL     OW24733   6.294   4.510   3.410
 7945SOL    HW124734   6.250   4.599   3.395
 7945SOL    HW224735   6.234   4.453   3.467
 7946SOL     OW24736   3.554   1.357   6.420
 7946SOL    HW124737   3.469   1.321   6.382
 7946SOL    HW224738   3.604   1.407   6.350
 7947SOL     OW24739   0.792   3.748   6.291
 7947SOL    HW124740   0.790   3.675   6.223
 7947SOL    HW224741   0.802   3.836   6.244
 7948SOL     OW24742   1.585   4.682   2.470
 7948SOL    HW124743   1.493   4.709   2.500
 7948SOL    HW224744   1.646   4.761   2.475
 7949SOL     OW24745   3.454   6.425   6.480
 7949SOL    HW124746   3.543   6.391   6.450
 7949SOL    HW224747   3.404   6.351   6.526
 7950SOL     OW24748   5.958   4.402   5.297
 7950SOL    HW124749   5.881   4.462   5.278
 7950SOL    HW224750   6.031   4.454   5.341
 7951SOL     OW24751   4.110   5.848   2.542
 7951SOL    HW124752   4.051   5.918   2.502
 7951SOL    HW224753   4.147   5.881   2.629
 7952SOL     OW24754   6.324   4.190   6.154
 7952SOL    HW124755   6.382   4.110   6.167
 7952SOL    HW224756   6.268   4.177   6.073
 7953SOL     OW24757   2.315   0.400   0.420
 7953SOL    HW124758   2.274   0.309   0.427
 7953SOL    HW224759   2.414   0.391   0.412
 7954SOL     OW24760   3.994   3.717   6.614
 7954SOL    HW124761   3.991   3.800   6.671
 7954SOL    HW224762   3.928   3.725   6.539
 7955SOL     OW24763   1.768   1.863   6.762
 7955SOL    HW124764   1.860   1.893   6.786
 7955SOL    HW224765   1.738   1.791   6.825
 7956SOL     OW24766   6.378   6.327   0.506
 7956SOL    HW124767   6.324   6.276   0.574
 7956SOL    HW224768   6.460   6.276   0.483
 7957SOL     OW24769   4.631   1.010   5.948
 7957SOL    HW124770   4.628   1.109   5.953
 7957SOL    HW224771   4.604   0.979   5.857
 7958SOL     OW24772   6.214   2.652   0.344
 7958SOL    HW124773   6.226   2.718   0.270
 7958SOL    HW224774   6.121   2.659   0.380
 7959SOL     OW24775   6.232   1.026   6.694
 7959SOL    HW124776   6.205   1.060   6.604
 7959SOL    HW224777   6.318   1.070   6.721
 7960SOL     OW24778   0.544   1.097   5.688
 7960SOL    HW124779   0.535   1.148   5.602
 7960SOL    HW224780   0.573   1.003   5.667
 7961SOL     OW24781   6.430   6.240   0.166
 7961SOL    HW124782   6.335   6.242   0.198
 7961SOL    HW224783   6.488   6.197   0.235
 7962SOL     OW24784   5.827   0.063   5.999
 7962SOL    HW124785   5.905   0.002   6.010
 7962SOL    HW224786   5.829   0.134   6.070
 7963SOL     OW24787   6.890   6.882   4.434
 7963SOL    HW124788   6.955   6.905   4.361
 7963SOL    HW224789   6.928   6.809   4.490
 7964SOL     OW24790   6.833   4.256   1.938
 7964SOL    HW124791   6.872   4.253   1.846
 7964SOL    HW224792   6.797   4.348   1.956
 7965SOL     OW24793   4.160   2.616   6.439
 7965SOL    HW124794   4.159   2.595   6.341
 7965SOL    HW224795   4.070   2.649   6.467
 7966SOL     OW24796   4.973   3.586   4.843
 7966SOL    HW124797   5.069   3.586   4.868
 7966SOL    HW224798   4.917   3.600   4.924
 7967SOL     OW24799   1.849   4.435   1.218
 7967SOL    HW124800   1.792   4.448   1.300
 7967SOL    HW224801   1.928   4.495   1.223
 7968SOL     OW24802   7.009   2.930   4.819
 7968SOL    HW124803   0.001   2.832   4.801
 7968SOL    HW224804   0.077   2.970   4.844
 7969SOL     OW24805   4.416   5.309   6.937
 7969SOL    HW124806   4.435   5.217   6.905
 7969SOL    HW224807   4.502   5.356   6.956
 7970SOL     OW24808   6.261   2.936   2.789
 7970SOL    HW124809   6.298   2.895   2.873
 7970SOL    HW224810   6.290   3.032   2.783
 7971SOL     OW24811   2.583   1.577   0.177
 7971SOL    HW124812   2.519   1.505   0.205
 7971SOL    HW224813   2.660   1.536   0.128
 7972SOL     OW24814   4.003   3.700   3.518
 7972SOL    HW124815   4.050   3.669   3.600
 7972SOL    HW224816   3.905   3.709   3.538
 7973SOL     OW24817   6.493   4.322   2.357
 7973SOL    HW124818   6.466   4.231   2.328
 7973SOL    HW224819   6.593   4.331   2.350
 7974SOL     OW24820   0.025   2.824   6.510
 7974SOL    HW124821   6.978   2.890   6.545
 7974SOL    HW224822   0.069   2.777   6.586
 7975SOL     OW24823   5.631   0.640   1.209
 7975SOL    HW124824   5.548   0.590   1.187
 7975SOL    HW224825   5.628   0.731   1.168
 7976SOL     OW24826   0.610   0.200   0.729
 7976SOL    HW124827   0.626   0.287   0.683
 7976SOL    HW224828   0.511   0.186   0.740
 7977SOL     OW24829   5.321   5.441   3.756
 7977SOL    HW124830   5.306   5.347   3.724
 7977SOL    HW224831   5.419   5.460   3.756
 7978SOL     OW24832   0.105   4.491   1.888
 7978SOL    HW124833   0.016   4.513   1.848
 7978SOL    HW224834   0.176   4.542   1.840
 7979SOL     OW24835   1.634   2.355   4.277
 7979SOL    HW124836   1.692   2.292   4.227
 7979SOL    HW224837   1.549   2.309   4.302
 7980SOL     OW24838   4.250   5.342   0.129
 7980SOL    HW124839   4.305   5.351   0.046
 7980SOL    HW224840   4.310   5.330   0.208
 7981SOL     OW24841   1.850   4.331   3.249
 7981SOL    HW124842   1.870   4.375   3.161
 7981SOL    HW224843   1.840   4.232   3.235
 7982SOL     OW24844   6.214   1.619   5.414
 7982SOL    HW124845   6.191   1.712   5.386
 7982SOL    HW224846   6.201   1.557   5.337
 7983SOL     OW24847   4.725   0.970   1.917
 7983SOL    HW124848   4.668   0.995   1.995
 7983SOL    HW224849   4.668   0.932   1.844
 7984SOL     OW24850   0.629   2.261   3.110
 7984SOL    HW124851   0.561   2.208   3.060
 7984SOL    HW224852   0.603   2.358   3.108
 7985SOL     OW24853   2.703   2.932   5.489
 7985SOL    HW124854   2.676   2.842   5.454
 7985SOL    HW224855   2.697   2.999   5.415
 7986SOL     OW24856   3.536   1.062   4.149
 7986SOL    HW124857   3.604   1.134   4.167
 7986SOL    HW224858   3.521   1.055   4.051
 7987SOL     OW24859   0.805   3.786   0.026
 7987SOL    HW124860   0.795   3.815   6.951
 7987SOL    HW224861   0.824   3.865   0.084
 7988SOL     OW24862   6.738   1.105   2.071
 7988SOL    HW124863   6.774   1.119   1.978
 7988SOL    HW224864   6.794   1.037   2.118
 7989SOL     OW24865   0.450   4.495   0.837
 7989SOL    HW124866   0.460   4.568   0.769
 7989SOL    HW224867   0.355   4.492   0.869
 7990SOL     OW24868   4.260   5.911   5.364
 7990SOL    HW124869   4.250   5.880   5.269
 7990SOL    HW224870   4.328   5.854   5.411
 7991SOL     OW24871   5.844   1.287   5.252
 7991SOL    HW124872   5.910   1.312   5.324
 7991SOL    HW224873   5.755   1.270   5.293
 7992SOL     OW24874   2.710   6.902   6.638
 7992SOL    HW124875   2.777   6.971   6.665
 7992SOL    HW224876   2.734   6.865   6.548
 7993SOL     OW24877   6.351   6.047   0.987
 7993SOL    HW124878   6.316   6.089   0.903
 7993SOL    HW224879   6.445   6.078   1.003
 7994SOL     OW24880   5.935   6.937   3.880
 7994SOL    HW124881   5.943   6.947   3.979
 7994SOL    HW224882   6.025   6.918   3.841
 7995SOL     OW24883   0.611   5.259   1.700
 7995SOL    HW124884   0.672   5.298   1.768
 7995SOL    HW224885   0.665   5.206   1.634
 7996SOL     OW24886   3.151   0.492   2.914
 7996SOL    HW124887   3.051   0.490   2.914
 7996SOL    HW224888   3.183   0.570   2.969
 7997SOL     OW24889   1.533   1.689   6.146
 7997SOL    HW124890   1.632   1.686   6.139
 7997SOL    HW224891   1.492   1.673   6.056
 7998SOL     OW24892   2.057   0.964   0.886
 7998SOL    HW124893   1.975   0.960   0.830
 7998SOL    HW224894   2.112   1.043   0.860
 7999SOL     OW24895   1.097   0.456   4.218
 7999SOL    HW124896   1.194   0.438   4.199
 7999SOL    HW224897   1.049   0.369   4.233
 8000SOL     OW24898   4.351   4.915   7.004
 8000SOL    HW124899   4.435   4.928   0.036
 8000SOL    HW224900   4.319   4.821   7.014
 8001SOL     OW24901   4.108   5.806   1.121
 8001SOL    HW124902   4.198   5.794   1.079
 8001SOL    HW224903   4.037   5.780   1.056
 8002SOL     OW24904   0.882   0.193   5.700
 8002SOL    HW124905   0.915   0.158   5.788
 8002SOL    HW224906   0.897   0.292   5.695
 8003SOL     OW24907   2.325   5.365   2.198
 8003SOL    HW124908   2.418   5.329   2.197
 8003SOL    HW224909   2.301   5.399   2.107
 8004SOL     OW24910   1.609   2.805   4.013
 8004SOL    HW124911   1.634   2.760   3.927
 8004SOL    HW224912   1.609   2.738   4.087
 8005SOL     OW24913   2.359   0.201   3.234
 8005SOL    HW124914   2.428   0.195   3.162
 8005SOL    HW224915   2.358   0.116   3.287
 8006SOL     OW24916   3.724   4.673   5.336
 8006SOL    HW124917   3.649   4.607   5.337
 8006SOL    HW224918   3.811   4.623   5.324
 8007SOL     OW24919   6.471   0.109   0.141
 8007SOL    HW124920   6.441   0.184   0.200
 8007SOL    HW224921   6.392   0.074   0.090
 8008SOL     OW24922   5.601   6.437   0.128
 8008SOL    HW124923   5.675   6.370   0.118
 8008SOL    HW224924   5.625   6.502   0.200
 8009SOL     OW24925   5.436   1.572   6.835
 8009SOL    HW124926   5.340   1.597   6.846
 8009SOL    HW224927   5.489   1.607   6.912
 8010SOL     OW24928   3.282   1.358   5.744
 8010SOL    HW124929   3.299   1.437   5.686
 8010SOL    HW224930   3.184   1.339   5.747
 8011SOL     OW24931   3.853   1.741   2.974
 8011SOL    HW124932   3.762   1.780   2.987
 8011SOL    HW224933   3.909   1.806   2.921
 8012SOL     OW24934   6.550   1.858   4.330
 8012SOL    HW124935   6.549   1.774   4.384
 8012SOL    HW224936   6.457   1.895   4.324
 8013SOL     OW24937   3.151   1.629   2.282
 8013SOL    HW124938   3.111   1.544   2.247
 8013SOL    HW224939   3.098   1.707   2.249
 8014SOL     OW24940   2.213   2.227   2.655
 8014SOL    HW124941   2.172   2.289   2.588
 8014SOL    HW224942   2.198   2.263   2.747
 8015SOL     OW24943   3.494   0.080   5.312
 8015SOL    HW124944   3.512   0.062   5.215
 8015SOL    HW224945   3.492   0.179   5.327
 8016SOL     OW24946   3.377   1.695   5.081
 8016SOL    HW124947   3.287   1.738   5.070
 8016SOL    HW224948   3.382   1.612   5.025
 8017SOL     OW24949   6.629   6.083   0.988
 8017SOL    HW124950   6.681   6.045   0.911
 8017SOL    HW224951   6.681   6.071   1.072
 8018SOL     OW24952   4.221   1.914   0.029
 8018SOL    HW124953   4.271   1.877   6.970
 8018SOL    HW224954   4.181   1.838   0.081
 8019SOL     OW24955   3.080   3.472   1.000
 8019SOL    HW124956   3.103   3.470   0.903
 8019SOL    HW224957   3.016   3.398   1.021
 8020SOL     OW24958   0.167   0.907   5.543
 8020SOL    HW124959   0.210   0.938   5.627
 8020SOL    HW224960   0.232   0.914   5.467
 8021SOL     OW24961   1.300   2.166   1.318
 8021SOL    HW124962   1.300   2.188   1.416
 8021SOL    HW224963   1.277   2.248   1.265
 8022SOL     OW24964   5.183   1.663   2.174
 8022SOL    HW124965   5.131   1.616   2.103
 8022SOL    HW224966   5.277   1.675   2.144
 8023SOL     OW24967   5.021   5.998   1.686
 8023SOL    HW124968   4.922   5.991   1.694
 8023SOL    HW224969   5.044   6.065   1.615
 8024SOL     OW24970   2.586   1.029   6.594
 8024SOL    HW124971   2.562   1.040   6.498
 8024SOL    HW224972   2.673   1.076   6.612
 8025SOL     OW24973   1.394   6.168   2.130
 8025SOL    HW124974   1.390   6.071   2.105
 8025SOL    HW224975   1.417   6.222   2.050
 8026SOL     OW24976   0.532   5.704   6.824
 8026SOL    HW124977   0.528   5.688   6.725
 8026SOL    HW224978   0.622   5.675   6.858
 8027SOL     OW24979   3.319   1.120   6.646
 8027SOL    HW124980   3.268   1.206   6.653
 8027SOL    HW224981   3.256   1.045   6.627
 8028SOL     OW24982   3.198   5.426   5.403
 8028SOL    HW124983   3.126   5.422   5.473
 8028SOL    HW224984   3.187   5.349   5.340
 8029SOL     OW24985   0.655   0.026   0.070
 8029SOL    HW124986   0.573   0.060   0.024
 8029SOL    HW224987   0.692   0.099   0.129
 8030SOL     OW24988   0.485   3.807   0.899
 8030SOL    HW124989   0.436   3.872   0.840
 8030SOL    HW224990   0.558   3.763   0.846
 8031SOL     OW24991   0.017   0.280   3.485
 8031SOL    HW124992   0.020   0.190   3.442
 8031SOL    HW224993   0.086   0.340   3.443
 8032SOL     OW24994   6.763   3.013   1.051
 8032SOL    HW124995   6.696   2.978   0.985
 8032SOL    HW224996   6.734   3.104   1.083
 8033SOL     OW24997   4.580   3.708   1.246
 8033SOL    HW124998   4.523   3.654   1.308
 8033SOL    HW224999   4.626   3.647   1.181
 8034SOL     OW25000   6.172   0.592   5.799
 8034SOL    HW125001   6.192   0.614   5.895
 8034SOL    HW225002   6.250   0.546   5.758
 8035SOL     OW25003   5.993   1.841   3.171
 8035SOL    HW125004   5.953   1.894   3.246
 8035SOL    HW225005   6.024   1.752   3.205
 8036SOL     OW25006   5.671   2.653   4.107
 8036SOL    HW125007   5.740   2.598   4.154
 8036SOL    HW225008   5.716   2.726   4.056
 8037SOL     OW25009   1.721   1.599   5.505
 8037SOL    HW125010   1.772   1.678   5.471
 8037SOL    HW225011   1.652   1.572   5.437
 8038SOL     OW25012   0.057   5.089   2.061
 8038SOL    HW125013   6.996   5.030   2.069
 8038SOL    HW225014   0.035   5.167   2.001
 8039SOL     OW25015   1.112   2.537   5.552
 8039SOL    HW125016   1.149   2.619   5.596
 8039SOL    HW225017   1.167   2.514   5.472
 8040SOL     OW25018   1.767   5.030   6.599
 8040SOL    HW125019   1.827   4.954   6.628
 8040SOL    HW225020   1.820   5.095   6.545
 8041SOL     OW25021   3.330   1.446   3.036
 8041SOL    HW125022   3.392   1.524   3.034
 8041SOL    HW225023   3.258   1.462   3.104
 8042SOL     OW25024   4.220   4.129   5.646
 8042SOL    HW125025   4.129   4.163   5.625
 8042SOL    HW225026   4.276   4.203   5.685
 8043SOL     OW25027   5.006   5.789   6.732
 8043SOL    HW125028   5.066   5.802   6.653
 8043SOL    HW225029   4.963   5.699   6.727
 8044SOL     OW25030   2.668   3.494   1.771
 8044SOL    HW125031   2.588   3.463   1.821
 8044SOL    HW225032   2.724   3.553   1.829
 8045SOL     OW25033   6.742   2.714   3.581
 8045SOL    HW125034   6.714   2.618   3.580
 8045SOL    HW225035   6.830   2.723   3.628
 8046SOL     OW25036   6.887   4.907   2.110
 8046SOL    HW125037   6.849   4.820   2.079
 8046SOL    HW225038   6.814   4.975   2.118
 8047SOL     OW25039   3.333   6.618   6.625
 8047SOL    HW125040   3.381   6.551   6.569
 8047SOL    HW225041   3.236   6.618   6.601
 8048SOL     OW25042   4.060   2.421   5.936
 8048SOL    HW125043   3.964   2.441   5.958
 8048SOL    HW225044   4.117   2.438   6.016
 8049SOL     OW25045   1.797   2.016   0.487
 8049SOL    HW125046   1.841   2.103   0.509
 8049SOL    HW225047   1.699   2.022   0.509
 8050SOL     OW25048   0.657   4.929   5.502
 8050SOL    HW125049   0.695   4.886   5.420
 8050SOL    HW225050   0.724   4.992   5.541
 8051SOL     OW25051   4.235   6.040   3.638
 8051SOL    HW125052   4.270   5.958   3.593
 8051SOL    HW225053   4.300   6.115   3.624
 8052SOL     OW25054   2.612   2.112   2.301
 8052SOL    HW125055   2.712   2.108   2.302
 8052SOL    HW225056   2.576   2.033   2.250
 8053SOL     OW25057   2.178   2.585   6.574
 8053SOL    HW125058   2.195   2.547   6.482
 8053SOL    HW225059   2.190   2.513   6.642
 8054SOL     OW25060   4.650   3.443   5.394
 8054SOL    HW125061   4.652   3.484   5.303
 8054SOL    HW225062   4.605   3.354   5.390
 8055SOL     OW25063   5.852   0.545   6.823
 8055SOL    HW125064   5.884   0.457   6.787
 8055SOL    HW225065   5.890   0.559   6.914
 8056SOL     OW25066   2.246   0.568   4.351
 8056SOL    HW125067   2.282   0.511   4.424
 8056SOL    HW225068   2.298   0.654   4.347
 8057SOL     OW25069   2.701   2.271   1.908
 8057SOL    HW125070   2.784   2.293   1.959
 8057SOL    HW225071   2.726   2.234   1.819
 8058SOL     OW25072   3.467   0.071   2.292
 8058SOL    HW125073   3.432   7.008   2.335
 8058SOL    HW225074   3.487   0.054   2.196
 8059SOL     OW25075   2.896   2.613   5.948
 8059SOL    HW125076   2.957   2.540   5.917
 8059SOL    HW225077   2.910   2.629   6.046
 8060SOL     OW25078   6.118   0.691   6.195
 8060SOL    HW125079   6.118   0.719   6.291
 8060SOL    HW225080   6.034   0.721   6.151
 8061SOL     OW25081   0.110   0.284   2.867
 8061SOL    HW125082   0.152   0.194   2.882
 8061SOL    HW225083   0.182   0.351   2.847
 8062SOL     OW25084   4.207   5.679   5.805
 8062SOL    HW125085   4.260   5.595   5.796
 8062SOL    HW225086   4.156   5.678   5.891
 8063SOL     OW25087   3.576   5.300   3.322
 8063SOL    HW125088   3.612   5.219   3.276
 8063SOL    HW225089   3.513   5.348   3.260
 8064SOL     OW25090   6.344   1.894   0.328
 8064SOL    HW125091   6.367   1.909   0.232
 8064SOL    HW225092   6.303   1.803   0.339
 8065SOL     OW25093   4.280   5.548   6.766
 8065SOL    HW125094   4.225   5.619   6.810
 8065SOL    HW225095   4.248   5.534   6.672
 8066SOL     OW25096   0.181   6.771   5.745
 8066SOL    HW125097   0.186   6.788   5.647
 8066SOL    HW225098   0.158   6.855   5.793
 8067SOL     OW25099   4.928   2.496   3.572
 8067SOL    HW125100   4.992   2.556   3.525
 8067SOL    HW225101   4.955   2.487   3.668
 8068SOL     OW25102   5.758   4.129   1.132
 8068SOL    HW125103   5.816   4.129   1.051
 8068SOL    HW225104   5.723   4.221   1.149
 8069SOL     OW25105   2.449   4.994   3.311
 8069SOL    HW125106   2.469   5.080   3.359
 8069SOL    HW225107   2.350   4.981   3.306
 8070SOL     OW25108   4.430   4.616   0.696
 8070SOL    HW125109   4.523   4.636   0.729
 8070SOL    HW225110   4.430   4.616   0.596
 8071SOL     OW25111   2.518   0.045   6.347
 8071SOL    HW125112   2.612   0.070   6.373
 8071SOL    HW225113   2.518   6.972   6.310
 8072SOL     OW25114   1.662   1.708   5.768
 8072SOL    HW125115   1.691   1.666   5.682
 8072SOL    HW225116   1.563   1.702   5.777
 8073SOL     OW25117   4.149   0.609   6.872
 8073SOL    HW125118   4.071   0.548   6.880
 8073SOL    HW225119   4.194   0.619   6.961
 8074SOL     OW25120   1.464   1.109   5.933
 8074SOL    HW125121   1.499   1.030   5.983
 8074SOL    HW225122   1.519   1.123   5.851
 8075SOL     OW25123   0.042   6.694   0.525
 8075SOL    HW125124   0.032   6.596   0.545
 8075SOL    HW225125   6.988   6.723   0.465
 8076SOL     OW25126   6.808   5.987   0.472
 8076SOL    HW125127   6.759   6.073   0.457
 8076SOL    HW225128   6.906   6.002   0.459
 8077SOL     OW25129   4.727   4.427   0.570
 8077SOL    HW125130   4.627   4.430   0.561
 8077SOL    HW225131   4.755   4.334   0.594
 8078SOL     OW25132   0.704   1.083   2.278
 8078SOL    HW125133   0.688   1.182   2.276
 8078SOL    HW225134   0.717   1.054   2.373
 8079SOL     OW25135   1.199   1.756   6.103
 8079SOL    HW125136   1.229   1.845   6.138
 8079SOL    HW225137   1.252   1.683   6.146
 8080SOL     OW25138   1.514   3.173   2.890
 8080SOL    HW125139   1.497   3.237   2.964
 8080SOL    HW225140   1.577   3.213   2.824
 8081SOL     OW25141   5.758   6.179   4.911
 8081SOL    HW125142   5.837   6.158   4.969
 8081SOL    HW225143   5.676   6.136   4.949
 8082SOL     OW25144   3.901   1.809   2.609
 8082SOL    HW125145   3.909   1.714   2.637
 8082SOL    HW225146   3.950   1.868   2.673
 8083SOL     OW25147   5.612   2.016   4.279
 8083SOL    HW125148   5.536   1.951   4.284
 8083SOL    HW225149   5.690   1.980   4.331
 8084SOL     OW25150   3.857   1.753   5.923
 8084SOL    HW125151   3.762   1.725   5.930
 8084SOL    HW225152   3.883   1.806   6.004
 8085SOL     OW25153   1.556   6.205   4.419
 8085SOL    HW125154   1.539   6.145   4.341
 8085SOL    HW225155   1.501   6.287   4.411
 8086SOL     OW25156   6.614   0.719   2.400
 8086SOL    HW125157   6.700   0.683   2.363
 8086SOL    HW225158   6.544   0.648   2.395
 8087SOL     OW25159   0.865   0.525   0.107
 8087SOL    HW125160   0.858   0.562   0.200
 8087SOL    HW225161   0.956   0.484   0.095
 8088SOL     OW25162   6.285   0.164   4.610
 8088SOL    HW125163   6.293   0.104   4.690
 8088SOL    HW225164   6.370   0.161   4.558
 8089SOL     OW25165   6.364   1.956   5.985
 8089SOL    HW125166   6.445   2.014   5.989
 8089SOL    HW225167   6.392   1.861   5.968
 8090SOL     OW25168   4.251   1.842   5.029
 8090SOL    HW125169   4.236   1.744   5.014
 8090SOL    HW225170   4.261   1.859   5.127
 8091SOL     OW25171   1.875   5.207   4.221
 8091SOL    HW125172   1.909   5.234   4.131
 8091SOL    HW225173   1.950   5.168   4.274
 8092SOL     OW25174   4.744   1.880   5.723
 8092SOL    HW125175   4.844   1.882   5.720
 8092SOL    HW225176   4.710   1.811   5.660
 8093SOL     OW25177   3.483   6.215   2.396
 8093SOL    HW125178   3.488   6.122   2.434
 8093SOL    HW225179   3.558   6.229   2.331
 8094SOL     OW25180   2.035   4.758   4.051
 8094SOL    HW125181   1.984   4.711   3.980
 8094SOL    HW225182   1.975   4.779   4.128
 8095SOL     OW25183   1.444   4.778   5.533
 8095SOL    HW125184   1.367   4.831   5.568
 8095SOL    HW225185   1.526   4.796   5.587
 8096SOL     OW25186   1.431   5.785   1.484
 8096SOL    HW125187   1.335   5.770   1.509
 8096SOL    HW225188   1.444   5.881   1.458
 8097SOL     OW25189   4.306   6.344   5.711
 8097SOL    HW125190   4.340   6.325   5.619
 8097SOL    HW225191   4.376   6.390   5.764
 8098SOL     OW25192   1.747   5.727   4.958
 8098SOL    HW125193   1.666   5.671   4.974
 8098SOL    HW225194   1.720   5.814   4.916
 8099SOL     OW25195   2.579   4.940   2.883
 8099SOL    HW125196   2.658   4.897   2.839
 8099SOL    HW225197   2.602   4.961   2.978
 8100SOL     OW25198   0.505   0.853   6.713
 8100SOL    HW125199   0.430   0.797   6.749
 8100SOL    HW225200   0.526   0.825   6.620
 8101SOL     OW25201   2.720   6.222   1.118
 8101SOL    HW125202   2.623   6.211   1.099
 8101SOL    HW225203   2.758   6.136   1.153
 8102SOL     OW25204   1.784   3.346   4.910
 8102SOL    HW125205   1.691   3.382   4.907
 8102SOL    HW225206   1.845   3.407   4.860
 8103SOL     OW25207   3.300   0.814   1.549
 8103SOL    HW125208   3.221   0.862   1.512
 8103SOL    HW225209   3.304   0.722   1.510
 8104SOL     OW25210   2.197   5.974   0.400
 8104SOL    HW125211   2.201   5.881   0.365
 8104SOL    HW225212   2.197   6.038   0.323
 8105SOL     OW25213   6.808   0.445   3.368
 8105SOL    HW125214   6.820   0.531   3.418
 8105SOL    HW225215   6.852   0.371   3.418
 8106SOL     OW25216   2.088   6.914   5.970
 8106SOL    HW125217   2.139   6.829   5.954
 8106SOL    HW225218   2.094   6.938   6.067
 8107SOL     OW25219   1.864   6.209   6.105
 8107SOL    HW125220   1.772   6.248   6.113
 8107SOL    HW225221   1.921   6.268   6.049
 8108SOL     OW25222   0.475   1.249   6.824
 8108SOL    HW125223   0.566   1.288   6.836
 8108SOL    HW225224   0.420   1.265   6.906
 8109SOL     OW25225   6.380   3.057   0.740
 8109SOL    HW125226   6.368   3.130   0.673
 8109SOL    HW225227   6.343   2.972   0.704
 8110SOL     OW25228   4.118   5.051   1.335
 8110SOL    HW125229   4.028   5.093   1.329
 8110SOL    HW225230   4.117   4.960   1.294
 8111SOL     OW25231   6.483   1.382   2.713
 8111SOL    HW125232   6.464   1.334   2.627
 8111SOL    HW225233   6.459   1.324   2.790
 8112SOL     OW25234   1.434   3.688   6.125
 8112SOL    HW125235   1.519   3.708   6.175
 8112SOL    HW225236   1.397   3.773   6.089
 8113SOL     OW25237   5.651   3.177   5.888
 8113SOL    HW125238   5.637   3.221   5.977
 8113SOL    HW225239   5.617   3.084   5.892
 8114SOL     OW25240   2.124   4.310   1.553
 8114SOL    HW125241   2.118   4.408   1.572
 8114SOL    HW225242   2.161   4.263   1.633
 8115SOL     OW25243   2.331   1.745   6.321
 8115SOL    HW125244   2.321   1.713   6.227
 8115SOL    HW225245   2.412   1.803   6.328
 8116SOL     OW25246   3.856   3.659   0.858
 8116SOL    HW125247   3.855   3.574   0.909
 8116SOL    HW225248   3.827   3.735   0.917
 8117SOL     OW25249   2.526   6.890   3.175
 8117SOL    HW125250   2.521   6.833   3.093
 8117SOL    HW225251   2.576   6.974   3.154
 8118SOL     OW25252   6.640   3.175   0.373
 8118SOL    HW125253   6.596   3.090   0.346
 8118SOL    HW225254   6.650   3.178   0.473
 8119SOL     OW25255   5.994   5.929   0.246
 8119SOL    HW125256   6.048   5.898   0.323
 8119SOL    HW225257   6.054   5.967   0.176
 8120SOL     OW25258   2.930   6.564   1.400
 8120SOL    HW125259   2.958   6.660   1.404
 8120SOL    HW225260   2.981   6.518   1.327
 8121SOL     OW25261   1.218   3.478   2.883
 8121SOL    HW125262   1.278   3.489   2.962
 8121SOL    HW225263   1.200   3.381   2.868
 8122SOL     OW25264   0.994   4.817   1.809
 8122SOL    HW125265   1.058   4.768   1.749
 8122SOL    HW225266   1.013   4.792   1.904
 8123SOL     OW25267   0.697   1.835   6.776
 8123SOL    HW125268   0.755   1.865   6.700
 8123SOL    HW225269   0.745   1.764   6.828
 8124SOL     OW25270   5.271   4.550   4.916
 8124SOL    HW125271   5.201   4.576   4.983
 8124SOL    HW225272   5.288   4.626   4.854
 8125SOL     OW25273   1.610   6.138   3.285
 8125SOL    HW125274   1.591   6.159   3.381
 8125SOL    HW225275   1.591   6.041   3.268
 8126SOL     OW25276   3.626   4.981   4.189
 8126SOL    HW125277   3.535   4.947   4.168
 8126SOL    HW225278   3.657   4.943   4.276
 8127SOL     OW25279   3.359   3.041   6.935
 8127SOL    HW125280   3.412   2.997   6.862
 8127SOL    HW225281   3.297   2.974   6.976
 8128SOL     OW25282   3.667   3.103   1.557
 8128SOL    HW125283   3.631   3.048   1.482
 8128SOL    HW225284   3.613   3.187   1.566
 8129SOL     OW25285   1.898   3.182   2.026
 8129SOL    HW125286   1.919   3.086   2.012
 8129SOL    HW225287   1.965   3.239   1.979
 8130SOL     OW25288   1.401   5.434   6.386
 8130SOL    HW125289   1.353   5.354   6.350
 8130SOL    HW225290   1.495   5.410   6.408
 8131SOL     OW25291   1.864   3.353   6.844
 8131SOL    HW125292   1.840   3.363   6.941
 8131SOL    HW225293   1.943   3.292   6.836
 8132SOL     OW25294   0.120   0.070   5.058
 8132SOL    HW125295   0.087   0.144   4.998
 8132SOL    HW225296   0.060   7.011   5.049
 8133SOL     OW25297   3.712   4.853   0.540
 8133SOL    HW125298   3.654   4.794   0.595
 8133SOL    HW225299   3.667   4.941   0.526
 8134SOL     OW25300   5.428   0.797   6.050
 8134SOL    HW125301   5.349   0.852   6.025
 8134SOL    HW225302   5.433   0.716   5.993
 8135SOL     OW25303   2.048   7.012   1.729
 8135SOL    HW125304   2.089   0.050   1.799
 8135SOL    HW225305   1.950   7.004   1.744
 8136SOL     OW25306   4.539   4.488   2.231
 8136SOL    HW125307   4.530   4.571   2.177
 8136SOL    HW225308   4.539   4.408   2.171
 8137SOL     OW25309   3.971   1.475   4.618
 8137SOL    HW125310   4.031   1.407   4.662
 8137SOL    HW225311   4.025   1.533   4.557
 8138SOL     OW25312   4.555   1.392   1.557
 8138SOL    HW125313   4.628   1.441   1.509
 8138SOL    HW225314   4.555   1.296   1.529
 8139SOL     OW25315   0.998   2.031   3.439
 8139SOL    HW125316   1.081   2.025   3.383
 8139SOL    HW225317   0.927   2.082   3.389
 8140SOL     OW25318   3.917   0.894   3.303
 8140SOL    HW125319   3.985   0.842   3.354
 8140SOL    HW225320   3.963   0.956   3.239
 8141SOL     OW25321   4.547   4.811   4.589
 8141SOL    HW125322   4.534   4.910   4.598
 8141SOL    HW225323   4.458   4.766   4.593
 8142SOL     OW25324   6.444   5.948   0.652
 8142SOL    HW125325   6.543   5.948   0.666
 8142SOL    HW225326   6.408   5.856   0.665
 8143SOL     OW25327   6.133   3.723   4.681
 8143SOL    HW125328   6.099   3.762   4.595
 8143SOL    HW225329   6.222   3.763   4.702
 8144SOL     OW25330   6.168   6.245   6.401
 8144SOL    HW125331   6.073   6.251   6.372
 8144SOL    HW225332   6.174   6.248   6.500
 8145SOL     OW25333   5.944   5.766   2.678
 8145SOL    HW125334   5.847   5.786   2.667
 8145SOL    HW225335   5.991   5.846   2.714
 8146SOL     OW25336   3.013   1.439   4.549
 8146SOL    HW125337   3.093   1.455   4.491
 8146SOL    HW225338   3.040   1.385   4.629
 8147SOL     OW25339   4.832   0.941   3.962
 8147SOL    HW125340   4.743   0.894   3.962
 8147SOL    HW225341   4.904   0.876   3.983
 8148SOL     OW25342   5.567   3.924   3.559
 8148SOL    HW125343   5.654   3.930   3.607
 8148SOL    HW225344   5.504   3.993   3.594
 8149SOL     OW25345   4.235   4.628   3.372
 8149SOL    HW125346   4.191   4.587   3.292
 8149SOL    HW225347   4.314   4.681   3.343
 8150SOL     OW25348   0.542   5.431   0.864
 8150SOL    HW125349   0.485   5.370   0.920
 8150SOL    HW225350   0.610   5.475   0.922
 8151SOL     OW25351   1.198   1.626   5.097
 8151SOL    HW125352   1.174   1.705   5.152
 8151SOL    HW225353   1.297   1.610   5.102
 8152SOL     OW25354   1.090   1.353   3.264
 8152SOL    HW125355   1.147   1.419   3.313
 8152SOL    HW225356   1.140   1.268   3.253
 8153SOL     OW25357   2.221   6.680   0.748
 8153SOL    HW125358   2.220   6.767   0.699
 8153SOL    HW225359   2.131   6.664   0.789
 8154SOL     OW25360   1.846   6.781   4.065
 8154SOL    HW125361   1.920   6.717   4.041
 8154SOL    HW225362   1.760   6.731   4.075
 8155SOL     OW25363   3.234   3.007   3.469
 8155SOL    HW125364   3.176   2.965   3.399
 8155SOL    HW225365   3.195   3.096   3.494
 8156SOL     OW25366   6.308   0.706   6.020
 8156SOL    HW125367   6.238   0.714   6.090
 8156SOL    HW225368   6.315   0.793   5.970
 8157SOL     OW25369   6.391   3.807   6.476
 8157SOL    HW125370   6.345   3.773   6.395
 8157SOL    HW225371   6.401   3.733   6.543
 8158SOL     OW25372   1.895   5.159   2.200
 8158SOL    HW125373   1.900   5.066   2.165
 8158SOL    HW225374   1.986   5.191   2.225
 8159SOL     OW25375   1.777   5.770   2.155
 8159SOL    HW125376   1.770   5.853   2.210
 8159SOL    HW225377   1.843   5.707   2.196
 8160SOL     OW25378   4.438   2.010   1.970
 8160SOL    HW125379   4.363   1.975   2.026
 8160SOL    HW225380   4.457   1.945   1.896
 8161SOL     OW25381   4.877   1.248   0.609
 8161SOL    HW125382   4.941   1.210   0.675
 8161SOL    HW225383   4.835   1.330   0.647
 8162SOL     OW25384   5.507   0.555   2.109
 8162SOL    HW125385   5.493   0.611   2.027
 8162SOL    HW225386   5.591   0.502   2.099
 8163SOL     OW25387   2.585   4.110   5.319
 8163SOL    HW125388   2.536   4.031   5.283
 8163SOL    HW225389   2.546   4.194   5.281
 8164SOL     OW25390   4.140   2.063   1.837
 8164SOL    HW125391   4.198   1.984   1.854
 8164SOL    HW225392   4.196   2.146   1.835
 8165SOL     OW25393   2.388   5.224   1.465
 8165SOL    HW125394   2.475   5.192   1.501
 8165SOL    HW225395   2.395   5.237   1.366
 8166SOL     OW25396   2.505   6.909   1.849
 8166SOL    HW125397   2.523   7.006   1.865
 8166SOL    HW225398   2.417   6.884   1.890
 8167SOL     OW25399   5.201   2.778   3.669
 8167SOL    HW125400   5.291   2.754   3.706
 8167SOL    HW225401   5.130   2.736   3.725
 8168SOL     OW25402   3.311   0.919   2.924
 8168SOL    HW125403   3.371   0.841   2.906
 8168SOL    HW225404   3.250   0.933   2.846
 8169SOL     OW25405   4.946   3.684   6.126
 8169SOL    HW125406   5.020   3.626   6.158
 8169SOL    HW225407   4.983   3.771   6.095
 8170SOL     OW25408   0.631   5.823   4.021
 8170SOL    HW125409   0.627   5.811   4.121
 8170SOL    HW225410   0.538   5.834   3.986
 8171SOL     OW25411   0.771   1.822   5.984
 8171SOL    HW125412   0.828   1.772   5.919
 8171SOL    HW225413   0.722   1.758   6.043
 8172SOL     OW25414   6.795   6.288   0.450
 8172SOL    HW125415   6.738   6.307   0.531
 8172SOL    HW225416   6.761   6.342   0.373
 8173SOL     OW25417   5.292   2.882   6.364
 8173SOL    HW125418   5.296   2.940   6.283
 8173SOL    HW225419   5.301   2.786   6.337
 8174SOL     OW25420   5.811   0.659   2.491
 8174SOL    HW125421   5.713   0.678   2.490
 8174SOL    HW225422   5.834   0.604   2.411
 8175SOL     OW25423   1.094   3.502   6.519
 8175SOL    HW125424   1.121   3.417   6.564
 8175SOL    HW225425   1.169   3.536   6.463
 8176SOL     OW25426   2.457   5.445   2.705
 8176SOL    HW125427   2.524   5.370   2.707
 8176SOL    HW225428   2.487   5.513   2.638
 8177SOL     OW25429   0.690   6.724   6.011
 8177SOL    HW125430   0.785   6.695   6.002
 8177SOL    HW225431   0.653   6.744   5.920
 8178SOL     OW25432   2.153   6.838   6.636
 8178SOL    HW125433   2.189   6.747   6.658
 8178SOL    HW225434   2.113   6.837   6.545
 8179SOL     OW25435   2.935   1.450   0.274
 8179SOL    HW125436   2.935   1.474   0.371
 8179SOL    HW225437   2.911   1.353   0.264
 8180SOL     OW25438   5.217   5.560   5.214
 8180SOL    HW125439   5.284   5.633   5.209
 8180SOL    HW225440   5.163   5.569   5.298
 8181SOL     OW25441   2.469   2.215   2.517
 8181SOL    HW125442   2.374   2.238   2.539
 8181SOL    HW225443   2.480   2.212   2.417
 8182SOL     OW25444   3.815   2.564   5.927
 8182SOL    HW125445   3.820   2.613   5.840
 8182SOL    HW225446   3.719   2.546   5.949
 8183SOL     OW25447   1.573   3.489   4.877
 8183SOL    HW125448   1.526   3.501   4.790
 8183SOL    HW225449   1.506   3.494   4.952
 8184SOL     OW25450   5.759   6.177   5.683
 8184SOL    HW125451   5.792   6.265   5.716
 8184SOL    HW225452   5.712   6.130   5.758
 8185SOL     OW25453   1.629   1.603   3.238
 8185SOL    HW125454   1.721   1.562   3.238
 8185SOL    HW225455   1.628   1.682   3.177
 8186SOL     OW25456   3.530   4.716   6.151
 8186SOL    HW125457   3.534   4.737   6.053
 8186SOL    HW225458   3.455   4.766   6.193
 8187SOL     OW25459   1.155   1.808   5.839
 8187SOL    HW125460   1.140   1.779   5.933
 8187SOL    HW225461   1.132   1.733   5.777
 8188SOL     OW25462   5.746   3.952   2.651
 8188SOL    HW125463   5.686   4.030   2.667
 8188SOL    HW225464   5.782   3.956   2.558
 8189SOL     OW25465   6.160   4.478   2.194
 8189SOL    HW125466   6.196   4.387   2.214
 8189SOL    HW225467   6.076   4.493   2.245
 8190SOL     OW25468   5.301   3.450   2.738
 8190SOL    HW125469   5.210   3.455   2.696
 8190SOL    HW225470   5.331   3.542   2.763
 8191SOL     OW25471   0.605   5.176   2.291
 8191SOL    HW125472   0.552   5.164   2.207
 8191SOL    HW225473   0.700   5.197   2.267
 8192SOL     OW25474   1.563   3.970   1.185
 8192SOL    HW125475   1.637   3.953   1.251
 8192SOL    HW225476   1.479   3.927   1.218
 8193SOL     OW25477   3.762   0.856   5.952
 8193SOL    HW125478   3.726   0.929   5.893
 8193SOL    HW225479   3.833   0.894   6.012
 8194SOL     OW25480   1.633   0.507   0.569
 8194SOL    HW125481   1.627   0.599   0.609
 8194SOL    HW225482   1.724   0.493   0.531
 8195SOL     OW25483   5.879   0.083   1.079
 8195SOL    HW125484   5.948   0.114   1.014
 8195SOL    HW225485   5.924   0.030   1.151
 8196SOL     OW25486   2.756   0.522   6.204
 8196SOL    HW125487   2.781   0.429   6.231
 8196SOL    HW225488   2.705   0.566   6.278
 8197SOL     OW25489   0.919   6.756   6.978
 8197SOL    HW125490   0.877   6.700   0.030
 8197SOL    HW225491   0.900   6.853   6.996
 8198SOL     OW25492   4.085   6.280   2.686
 8198SOL    HW125493   4.162   6.298   2.747
 8198SOL    HW225494   4.043   6.366   2.659
 8199SOL     OW25495   6.060   3.968   0.586
 8199SOL    HW125496   5.984   4.029   0.561
 8199SOL    HW225497   6.028   3.873   0.582
 8200SOL     OW25498   5.013   3.585   1.360
 8200SOL    HW125499   4.972   3.677   1.359
 8200SOL    HW225500   4.982   3.536   1.441
 8201SOL     OW25501   6.236   1.227   4.690
 8201SOL    HW125502   6.182   1.304   4.655
 8201SOL    HW225503   6.192   1.190   4.772
 8202SOL     OW25504   1.830   4.492   4.021
 8202SOL    HW125505   1.775   4.493   3.937
 8202SOL    HW225506   1.771   4.475   4.100
 8203SOL     OW25507   6.100   3.497   1.048
 8203SOL    HW125508   6.116   3.561   1.123
 8203SOL    HW225509   6.175   3.504   0.981
 8204SOL     OW25510   3.582   0.012   0.597
 8204SOL    HW125511   3.613   0.016   0.502
 8204SOL    HW225512   3.646   6.978   0.651
 8205SOL     OW25513   5.728   5.334   3.011
 8205SOL    HW125514   5.791   5.408   2.990
 8205SOL    HW225515   5.669   5.360   3.087
 8206SOL     OW25516   4.588   2.193   3.886
 8206SOL    HW125517   4.684   2.219   3.877
 8206SOL    HW225518   4.530   2.273   3.869
 8207SOL     OW25519   2.907   6.454   0.061
 8207SOL    HW125520   2.858   6.445   6.994
 8207SOL    HW225521   2.918   6.364   0.102
 8208SOL     OW25522   1.536   4.899   6.103
 8208SOL    HW125523   1.511   4.832   6.172
 8208SOL    HW225524   1.634   4.890   6.082
 8209SOL     OW25525   0.667   6.380   5.524
 8209SOL    HW125526   0.671   6.295   5.575
 8209SOL    HW225527   0.709   6.367   5.434
 8210SOL     OW25528   3.237   1.845   0.043
 8210SOL    HW125529   3.314   1.867   0.103
 8210SOL    HW225530   3.173   1.786   0.093
 8211SOL     OW25531   2.867   3.685   4.792
 8211SOL    HW125532   2.782   3.636   4.770
 8211SOL    HW225533   2.944   3.622   4.787
 8212SOL     OW25534   3.872   6.208   1.523
 8212SOL    HW125535   3.935   6.143   1.481
 8212SOL    HW225536   3.923   6.287   1.556
 8213SOL     OW25537   4.421   4.077   1.625
 8213SOL    HW125538   4.351   4.010   1.648
 8213SOL    HW225539   4.437   4.137   1.703
 8214SOL     OW25540   3.951   5.288   4.397
 8214SOL    HW125541   4.014   5.269   4.322
 8214SOL    HW225542   3.994   5.353   4.460
 8215SOL     OW25543   3.355   6.077   6.341
 8215SOL    HW125544   3.275   6.107   6.394
 8215SOL    HW225545   3.332   5.993   6.291
 8216SOL     OW25546   6.045   4.585   1.668
 8216SOL    HW125547   5.955   4.551   1.639
 8216SOL    HW225548   6.062   4.556   1.762
 8217SOL     OW25549   2.322   6.129   3.717
 8217SOL    HW125550   2.362   6.220   3.705
 8217SOL    HW225551   2.303   6.114   3.814
 8218SOL     OW25552   3.074   6.668   5.364
 8218SOL    HW125553   3.034   6.616   5.288
 8218SOL    HW225554   3.078   6.610   5.446
 8219SOL     OW25555   4.093   3.024   1.756
 8219SOL    HW125556   4.149   3.107   1.763
 8219SOL    HW225557   4.147   2.950   1.716
 8220SOL     OW25558   3.167   4.050   4.635
 8220SOL    HW125559   3.161   4.069   4.733
 8220SOL    HW225560   3.083   4.005   4.604
 8221SOL     OW25561   5.680   4.127   3.305
 8221SOL    HW125562   5.583   4.152   3.311
 8221SOL    HW225563   5.690   4.029   3.322
 8222SOL     OW25564   6.514   2.762   0.587
 8222SOL    HW125565   6.519   2.676   0.536
 8222SOL    HW225566   6.427   2.767   0.635
 8223SOL     OW25567   1.944   6.537   6.253
 8223SOL    HW125568   1.882   6.541   6.174
 8223SOL    HW225569   2.015   6.469   6.236
 8224SOL     OW25570   5.169   1.006   0.250
 8224SOL    HW125571   5.230   1.007   0.329
 8224SOL    HW225572   5.116   1.091   0.248
 8225SOL     OW25573   5.969   2.406   0.199
 8225SOL    HW125574   6.058   2.399   0.244
 8225SOL    HW225575   5.933   2.314   0.182
 8226SOL     OW25576   3.981   0.960   0.567
 8226SOL    HW125577   4.012   0.948   0.472
 8226SOL    HW225578   3.897   1.014   0.568
 8227SOL     OW25579   3.693   2.006   2.763
 8227SOL    HW125580   3.737   2.077   2.820
 8227SOL    HW225581   3.700   2.032   2.667
 8228SOL     OW25582   2.510   0.212   4.634
 8228SOL    HW125583   2.517   0.171   4.725
 8228SOL    HW225584   2.580   0.283   4.624
 8229SOL     OW25585   4.431   4.335   0.509
 8229SOL    HW125586   4.338   4.370   0.503
 8229SOL    HW225587   4.429   4.235   0.504
 8230SOL     OW25588   5.771   0.469   6.081
 8230SOL    HW125589   5.775   0.562   6.117
 8230SOL    HW225590   5.859   0.446   6.038
 8231SOL     OW25591   2.858   1.277   2.283
 8231SOL    HW125592   2.803   1.270   2.366
 8231SOL    HW225593   2.848   1.194   2.230
 8232SOL     OW25594   3.356   5.678   3.199
 8232SOL    HW125595   3.435   5.734   3.176
 8232SOL    HW225596   3.299   5.726   3.266
 8233SOL     OW25597   1.330   1.215   6.146
 8233SOL    HW125598   1.357   1.169   6.062
 8233SOL    HW225599   1.237   1.251   6.137
 8234SOL     OW25600   1.369   2.234   0.542
 8234SOL    HW125601   1.294   2.169   0.545
 8234SOL    HW225602   1.345   2.315   0.596
 8235SOL     OW25603   0.590   0.555   1.455
 8235SOL    HW125604   0.631   0.468   1.428
 8235SOL    HW225605   0.517   0.580   1.392
 8236SOL     OW25606   0.926   0.068   1.709
 8236SOL    HW125607   0.989   0.081   1.786
 8236SOL    HW225608   0.939   0.141   1.642
 8237SOL     OW25609   3.921   4.648   5.946
 8237SOL    HW125610   3.976   4.649   5.863
 8237SOL    HW225611   3.961   4.711   6.013
 8238SOL     OW25612   0.885   4.929   0.892
 8238SOL    HW125613   0.930   4.842   0.873
 8238SOL    HW225614   0.841   4.925   0.982
 8239SOL     OW25615   1.806   1.607   6.153
 8239SOL    HW125616   1.894   1.632   6.113
 8239SOL    HW225617   1.820   1.544   6.230
 8240SOL     OW25618   3.672   3.886   4.599
 8240SOL    HW125619   3.758   3.938   4.596
 8240SOL    HW225620   3.687   3.801   4.650
 8241SOL     OW25621   1.807   3.698   5.502
 8241SOL    HW125622   1.851   3.763   5.565
 8241SOL    HW225623   1.788   3.613   5.551
 8242SOL     OW25624   0.862   3.567   2.683
 8242SOL    HW125625   0.766   3.592   2.677
 8242SOL    HW225626   0.871   3.468   2.674
 8243SOL     OW25627   1.508   5.167   3.969
 8243SOL    HW125628   1.541   5.259   3.947
 8243SOL    HW225629   1.475   5.165   4.063
 8244SOL     OW25630   6.636   1.234   3.651
 8244SOL    HW125631   6.650   1.148   3.602
 8244SOL    HW225632   6.715   1.293   3.637
 8245SOL     OW25633   5.536   2.573   2.236
 8245SOL    HW125634   5.488   2.486   2.223
 8245SOL    HW225635   5.590   2.594   2.155
 8246SOL     OW25636   1.994   5.269   6.391
 8246SOL    HW125637   1.972   5.237   6.299
 8246SOL    HW225638   2.028   5.192   6.445
 8247SOL     OW25639   3.049   5.444   2.987
 8247SOL    HW125640   3.120   5.374   2.998
 8247SOL    HW225641   3.091   5.532   2.965
 8248SOL     OW25642   6.347   5.099   3.983
 8248SOL    HW125643   6.328   5.103   3.884
 8248SOL    HW225644   6.350   5.191   4.020
 8249SOL     OW25645   3.170   1.343   6.660
 8249SOL    HW125646   3.119   1.371   6.741
 8249SOL    HW225647   3.148   1.405   6.584
 8250SOL     OW25648   0.997   1.974   6.955
 8250SOL    HW125649   1.080   1.921   6.975
 8250SOL    HW225650   0.991   1.990   6.857
 8251SOL     OW25651   0.803   2.417   4.866
 8251SOL    HW125652   0.724   2.477   4.878
 8251SOL    HW225653   0.878   2.469   4.825
 8252SOL     OW25654   0.949   2.025   6.681
 8252SOL    HW125655   0.895   2.109   6.677
 8252SOL    HW225656   0.942   1.976   6.594
 8253SOL     OW25657   4.241   5.974   6.810
 8253SOL    HW125658   4.201   5.956   6.900
 8253SOL    HW225659   4.169   6.003   6.747
 8254SOL     OW25660   5.880   5.311   0.322
 8254SOL    HW125661   5.791   5.339   0.359
 8254SOL    HW225662   5.888   5.211   0.328
 8255SOL     OW25663   2.275   0.586   5.488
 8255SOL    HW125664   2.230   0.663   5.533
 8255SOL    HW225665   2.218   0.554   5.412
 8256SOL     OW25666   1.047   5.216   5.094
 8256SOL    HW125667   1.056   5.315   5.080
 8256SOL    HW225668   1.097   5.190   5.177
 8257SOL     OW25669   5.159   3.964   3.072
 8257SOL    HW125670   5.083   3.954   3.007
 8257SOL    HW225671   5.198   3.875   3.092
 8258SOL     OW25672   0.606   3.184   2.685
 8258SOL    HW125673   0.534   3.204   2.619
 8258SOL    HW225674   0.586   3.232   2.771
 8259SOL     OW25675   5.582   1.690   3.948
 8259SOL    HW125676   5.520   1.764   3.920
 8259SOL    HW225677   5.560   1.607   3.897
 8260SOL     OW25678   4.932   2.663   1.109
 8260SOL    HW125679   4.939   2.720   1.191
 8260SOL    HW225680   4.847   2.610   1.113
 8261SOL     OW25681   5.483   1.452   2.706
 8261SOL    HW125682   5.400   1.508   2.698
 8261SOL    HW225683   5.458   1.356   2.719
 8262SOL     OW25684   5.447   3.368   1.982
 8262SOL    HW125685   5.435   3.463   2.008
 8262SOL    HW225686   5.545   3.346   1.978
 8263SOL     OW25687   6.461   1.632   5.604
 8263SOL    HW125688   6.515   1.561   5.559
 8263SOL    HW225689   6.492   1.722   5.573
 8264SOL     OW25690   3.508   0.359   2.656
 8264SOL    HW125691   3.530   0.456   2.647
 8264SOL    HW225692   3.567   0.317   2.726
 8265SOL     OW25693   5.010   6.301   0.562
 8265SOL    HW125694   5.007   6.214   0.513
 8265SOL    HW225695   5.041   6.285   0.656
 8266SOL     OW25696   3.089   1.070   4.155
 8266SOL    HW125697   3.052   0.981   4.129
 8266SOL    HW225698   3.016   1.126   4.195
 8267SOL     OW25699   2.101   3.349   2.481
 8267SOL    HW125700   2.109   3.381   2.387
 8267SOL    HW225701   2.138   3.256   2.487
 8268SOL     OW25702   3.294   4.185   6.421
 8268SOL    HW125703   3.316   4.149   6.331
 8268SOL    HW225704   3.198   4.168   6.442
 8269SOL     OW25705   6.445   3.101   4.638
 8269SOL    HW125706   6.516   3.081   4.571
 8269SOL    HW225707   6.485   3.145   4.718
 8270SOL     OW25708   4.107   6.007   6.547
 8270SOL    HW125709   4.017   6.012   6.590
 8270SOL    HW225710   4.125   6.093   6.497
 8271SOL     OW25711   3.479   6.782   5.961
 8271SOL    HW125712   3.518   6.696   5.926
 8271SOL    HW225713   3.432   6.764   6.048
 8272SOL     OW25714   1.092   0.802   2.211
 8272SOL    HW125715   1.031   0.739   2.161
 8272SOL    HW225716   1.097   0.774   2.307
 8273SOL     OW25717   3.943   0.852   0.038
 8273SOL    HW125718   4.011   0.855   6.985
 8273SOL    HW225719   3.864   0.908   0.013
 8274SOL     OW25720   5.396   6.229   5.657
 8274SOL    HW125721   5.336   6.301   5.622
 8274SOL    HW225722   5.418   6.165   5.583
 8275SOL     OW25723   5.323   0.696   4.433
 8275SOL    HW125724   5.267   0.723   4.355
 8275SOL    HW225725   5.412   0.740   4.427
 8276SOL     OW25726   6.736   2.079   6.866
 8276SOL    HW125727   6.651   2.096   6.816
 8276SOL    HW225728   6.810   2.134   6.827
 8277SOL     OW25729   1.551   0.231   0.174
 8277SOL    HW125730   1.526   0.135   0.186
 8277SOL    HW225731   1.536   0.281   0.259
 8278SOL     OW25732   2.622   1.236   0.816
 8278SOL    HW125733   2.543   1.269   0.868
 8278SOL    HW225734   2.697   1.213   0.879
 8279SOL     OW25735   3.896   5.721   5.394
 8279SOL    HW125736   3.812   5.727   5.447
 8279SOL    HW225737   3.965   5.782   5.433
 8280SOL     OW25738   5.397   3.734   6.769
 8280SOL    HW125739   5.373   3.663   6.835
 8280SOL    HW225740   5.384   3.824   6.811
 8281SOL     OW25741   3.047   5.309   6.913
 8281SOL    HW125742   3.097   5.396   6.911
 8281SOL    HW225743   2.951   5.326   6.889
 8282SOL     OW25744   2.949   3.145   1.744
 8282SOL    HW125745   2.898   3.063   1.717
 8282SOL    HW225746   2.924   3.220   1.684
 8283SOL     OW25747   0.457   7.015   3.830
 8283SOL    HW125748   0.365   0.001   3.869
 8283SOL    HW225749   0.463   0.054   3.749
 8284SOL     OW25750   3.656   1.611   2.246
 8284SOL    HW125751   3.633   1.599   2.342
 8284SOL    HW225752   3.628   1.702   2.215
 8285SOL     OW25753   1.923   4.350   6.904
 8285SOL    HW125754   1.944   4.448   6.906
 8285SOL    HW225755   1.842   4.332   6.959
 8286SOL     OW25756   5.953   2.428   5.674
 8286SOL    HW125757   5.958   2.338   5.632
 8286SOL    HW225758   5.912   2.419   5.765
 8287SOL     OW25759   1.880   0.399   3.468
 8287SOL    HW125760   1.854   0.359   3.556
 8287SOL    HW225761   1.912   0.326   3.407
 8288SOL     OW25762   1.980   6.982   2.935
 8288SOL    HW125763   1.939   6.911   2.993
 8288SOL    HW225764   2.076   6.994   2.959
 8289SOL     OW25765   6.281   0.660   6.498
 8289SOL    HW125766   6.227   0.744   6.493
 8289SOL    HW225767   6.233   0.587   6.450
 8290SOL     OW25768   4.532   2.828   1.719
 8290SOL    HW125769   4.582   2.896   1.772
 8290SOL    HW225770   4.505   2.867   1.631
 8291SOL     OW25771   4.725   5.875   6.393
 8291SOL    HW125772   4.670   5.860   6.311
 8291SOL    HW225773   4.707   5.804   6.460
 8292SOL     OW25774   0.664   2.572   5.149
 8292SOL    HW125775   0.642   2.550   5.054
 8292SOL    HW225776   0.609   2.651   5.178
 8293SOL     OW25777   2.863   5.350   3.941
 8293SOL    HW125778   2.894   5.361   3.847
 8293SOL    HW225779   2.916   5.276   3.985
 8294SOL     OW25780   5.337   4.073   5.723
 8294SOL    HW125781   5.362   3.982   5.691
 8294SOL    HW225782   5.413   4.137   5.707
 8295SOL     OW25783   5.058   4.545   2.293
 8295SOL    HW125784   5.067   4.638   2.258
 8295SOL    HW225785   4.969   4.507   2.266
 8296SOL     OW25786   3.779   6.662   2.281
 8296SOL    HW125787   3.823   6.576   2.307
 8296SOL    HW225788   3.691   6.671   2.327
 8297SOL     OW25789   5.327   4.367   3.455
 8297SOL    HW125790   5.423   4.387   3.439
 8297SOL    HW225791   5.298   4.409   3.541
 8298SOL     OW25792   0.135   6.734   6.911
 8298SOL    HW125793   0.147   6.791   6.992
 8298SOL    HW225794   0.185   6.648   6.923
 8299SOL     OW25795   0.656   3.201   0.293
 8299SOL    HW125796   0.751   3.222   0.268
 8299SOL    HW225797   0.602   3.184   0.211
 8300SOL     OW25798   6.103   5.001   4.015
 8300SOL    HW125799   6.193   5.044   4.018
 8300SOL    HW225800   6.115   4.903   3.997
 8301SOL     OW25801   5.579   6.328   0.618
 8301SOL    HW125802   5.493   6.328   0.567
 8301SOL    HW225803   5.620   6.419   0.615
 8302SOL     OW25804   3.653   6.814   5.417
 8302SOL    HW125805   3.728   6.846   5.359
 8302SOL    HW225806   3.667   6.717   5.437
 8303SOL     OW25807   0.308   5.313   2.475
 8303SOL    HW125808   0.274   5.232   2.427
 8303SOL    HW225809   0.388   5.349   2.428
 8304SOL     OW25810   5.826   4.342   3.379
 8304SOL    HW125811   5.767   4.264   3.360
 8304SOL    HW225812   5.891   4.353   3.304
 8305SOL     OW25813   5.339   6.417   5.954
 8305SOL    HW125814   5.425   6.443   5.910
 8305SOL    HW225815   5.263   6.448   5.898
 8306SOL     OW25816   6.450   1.544   3.163
 8306SOL    HW125817   6.414   1.458   3.198
 8306SOL    HW225818   6.440   1.548   3.064
 8307SOL     OW25819   1.763   3.435   2.934
 8307SOL    HW125820   1.820   3.516   2.922
 8307SOL    HW225821   1.681   3.444   2.877
 8308SOL     OW25822   1.031   5.629   1.000
 8308SOL    HW125823   1.040   5.706   1.064
 8308SOL    HW225824   0.955   5.646   0.938
 8309SOL     OW25825   6.156   5.261   4.385
 8309SOL    HW125826   6.082   5.209   4.426
 8309SOL    HW225827   6.243   5.232   4.425
 8310SOL     OW25828   1.637   0.789   1.376
 8310SOL    HW125829   1.639   0.689   1.384
 8310SOL    HW225830   1.716   0.828   1.424
 8311SOL     OW25831   5.110   5.845   3.126
 8311SOL    HW125832   5.180   5.790   3.171
 8311SOL    HW225833   5.064   5.790   3.056
 8312SOL     OW25834   6.278   1.496   0.166
 8312SOL    HW125835   6.377   1.491   0.174
 8312SOL    HW225836   6.242   1.563   0.231
 8313SOL     OW25837   5.665   2.099   5.441
 8313SOL    HW125838   5.663   2.180   5.500
 8313SOL    HW225839   5.572   2.064   5.431
 8314SOL     OW25840   4.795   6.019   4.331
 8314SOL    HW125841   4.784   6.118   4.347
 8314SOL    HW225842   4.759   5.996   4.241
 8315SOL     OW25843   3.555   2.954   4.796
 8315SOL    HW125844   3.637   2.952   4.854
 8315SOL    HW225845   3.582   2.946   4.700
 8316SOL     OW25846   2.348   2.298   5.243
 8316SOL    HW125847   2.326   2.385   5.198
 8316SOL    HW225848   2.415   2.249   5.188
 8317SOL     OW25849   1.306   1.535   4.205
 8317SOL    HW125850   1.208   1.553   4.201
 8317SOL    HW225851   1.328   1.454   4.151
 8318SOL     OW25852   4.223   6.507   6.017
 8318SOL    HW125853   4.248   6.599   5.989
 8318SOL    HW225854   4.124   6.496   6.015
 8319SOL     OW25855   2.257   5.614   6.137
 8319SOL    HW125856   2.293   5.552   6.067
 8319SOL    HW225857   2.214   5.693   6.093
 8320SOL     OW25858   3.724   3.442   5.292
 8320SOL    HW125859   3.694   3.355   5.331
 8320SOL    HW225860   3.643   3.498   5.272
 8321SOL     OW25861   0.072   6.880   0.129
 8321SOL    HW125862   0.052   6.977   0.122
 8321SOL    HW225863   0.123   6.862   0.213
 8322SOL     OW25864   0.935   6.985   0.403
 8322SOL    HW125865   0.963   6.891   0.386
 8322SOL    HW225866   0.971   0.024   0.332
 8323SOL     OW25867   5.757   4.604   0.388
 8323SOL    HW125868   5.790   4.632   0.297
 8323SOL    HW225869   5.659   4.619   0.393
 8324SOL     OW25870   5.310   6.392   0.211
 8324SOL    HW125871   5.402   6.418   0.179
 8324SOL    HW225872   5.295   6.295   0.194
 8325SOL     OW25873   1.564   6.687   5.371
 8325SOL    HW125874   1.496   6.703   5.442
 8325SOL    HW225875   1.654   6.675   5.413
 8326SOL     OW25876   1.841   3.014   6.859
 8326SOL    HW125877   1.857   3.028   6.762
 8326SOL    HW225878   1.928   3.022   6.908
 8327SOL     OW25879   0.956   6.007   4.792
 8327SOL    HW125880   1.008   5.949   4.855
 8327SOL    HW225881   1.011   6.025   4.710
 8328SOL     OW25882   0.740   6.533   6.874
 8328SOL    HW125883   0.810   6.604   6.865
 8328SOL    HW225884   0.742   6.495   6.967
 8329SOL     OW25885   1.055   2.491   4.475
 8329SOL    HW125886   1.067   2.566   4.410
 8329SOL    HW225887   0.969   2.443   4.455
 8330SOL     OW25888   3.056   0.841   6.921
 8330SOL    HW125889   3.025   0.935   6.913
 8330SOL    HW225890   3.156   0.838   6.916
 8331SOL     OW25891   1.874   2.103   6.343
 8331SOL    HW125892   1.784   2.108   6.299
 8331SOL    HW225893   1.941   2.150   6.286
 8332SOL     OW25894   6.630   4.110   1.631
 8332SOL    HW125895   6.638   4.208   1.617
 8332SOL    HW225896   6.533   4.085   1.639
 8333SOL     OW25897   2.006   3.765   6.812
 8333SOL    HW125898   2.083   3.717   6.853
 8333SOL    HW225899   2.022   3.864   6.818
 8334SOL     OW25900   3.185   1.796   5.391
 8334SOL    HW125901   3.251   1.811   5.465
 8334SOL    HW225902   3.232   1.806   5.303
 8335SOL     OW25903   5.462   4.685   5.982
 8335SOL    HW125904   5.437   4.687   5.885
 8335SOL    HW225905   5.476   4.778   6.015
 8336SOL     OW25906   1.073   4.228   3.574
 8336SOL    HW125907   1.081   4.146   3.632
 8336SOL    HW225908   1.149   4.229   3.509
 8337SOL     OW25909   6.962   1.063   3.989
 8337SOL    HW125910   7.015   1.145   4.010
 8337SOL    HW225911   6.877   1.089   3.944
 8338SOL     OW25912   3.096   5.385   0.964
 8338SOL    HW125913   3.125   5.321   1.035
 8338SOL    HW225914   3.076   5.474   1.005
 8339SOL     OW25915   5.898   0.454   1.578
 8339SOL    HW125916   5.859   0.526   1.522
 8339SOL    HW225917   5.941   0.494   1.659
 8340SOL     OW25918   6.328   1.996   6.689
 8340SOL    HW125919   6.311   1.903   6.659
 8340SOL    HW225920   6.270   2.017   6.768
 8341SOL     OW25921   3.677   1.333   0.741
 8341SOL    HW125922   3.748   1.403   0.734
 8341SOL    HW225923   3.620   1.352   0.821
 8342SOL     OW25924   4.811   0.530   6.918
 8342SOL    HW125925   4.723   0.542   6.872
 8342SOL    HW225926   4.869   0.610   6.900
 8343SOL     OW25927   5.919   4.769   3.723
 8343SOL    HW125928   5.938   4.753   3.820
 8343SOL    HW225929   6.003   4.798   3.677
 8344SOL     OW25930   1.461   4.835   6.379
 8344SOL    HW125931   1.443   4.840   6.477
 8344SOL    HW225932   1.500   4.922   6.347
 8345SOL     OW25933   5.256   6.904   3.721
 8345SOL    HW125934   5.335   6.850   3.748
 8345SOL    HW225935   5.211   6.940   3.803
 8346SOL     OW25936   5.855   2.911   4.508
 8346SOL    HW125937   5.857   2.855   4.591
 8346SOL    HW225938   5.765   2.903   4.465
 8347SOL     OW25939   2.405   1.813   6.641
 8347SOL    HW125940   2.441   1.906   6.649
 8347SOL    HW225941   2.475   1.747   6.671
 8348SOL     OW25942   2.601   6.089   2.301
 8348SOL    HW125943   2.586   6.123   2.209
 8348SOL    HW225944   2.688   6.126   2.336
 8349SOL     OW25945   5.894   6.159   2.186
 8349SOL    HW125946   5.919   6.182   2.092
 8349SOL    HW225947   5.858   6.240   2.231
 8350SOL     OW25948   2.027   1.485   6.701
 8350SOL    HW125949   2.061   1.495   6.795
 8350SOL    HW225950   2.035   1.572   6.653
 8351SOL     OW25951   0.371   2.913   2.804
 8351SOL    HW125952   0.309   2.846   2.844
 8351SOL    HW225953   0.377   2.993   2.863
 8352SOL     OW25954   3.047   5.723   0.656
 8352SOL    HW125955   3.096   5.640   0.683
 8352SOL    HW225956   2.949   5.711   0.669
 8353SOL     OW25957   0.857   5.369   1.803
 8353SOL    HW125958   0.922   5.310   1.850
 8353SOL    HW225959   0.896   5.461   1.795
 8354SOL     OW25960   3.411   0.926   3.580
 8354SOL    HW125961   3.342   0.957   3.515
 8354SOL    HW225962   3.501   0.956   3.549
 8355SOL     OW25963   3.152   5.803   6.811
 8355SOL    HW125964   3.199   5.878   6.857
 8355SOL    HW225965   3.063   5.788   6.855
 8356SOL     OW25966   2.377   5.093   0.460
 8356SOL    HW125967   2.386   5.007   0.409
 8356SOL    HW225968   2.449   5.156   0.432
 8357SOL     OW25969   4.983   6.648   5.278
 8357SOL    HW125970   4.927   6.724   5.311
 8357SOL    HW225971   5.077   6.660   5.311
 8358SOL     OW25972   1.320   0.911   5.031
 8358SOL    HW125973   1.382   0.854   5.084
 8358SOL    HW225974   1.272   0.974   5.092
 8359SOL     OW25975   4.289   2.092   6.096
 8359SOL    HW125976   4.278   2.032   6.017
 8359SOL    HW225977   4.201   2.136   6.117
 8360SOL     OW25978   4.453   0.359   0.648
 8360SOL    HW125979   4.408   0.445   0.669
 8360SOL    HW225980   4.396   0.304   0.587
 8361SOL     OW25981   4.176   1.525   6.947
 8361SOL    HW125982   4.139   1.558   6.860
 8361SOL    HW225983   4.276   1.520   6.942
 8362SOL     OW25984   0.219   4.140   1.518
 8362SOL    HW125985   0.199   4.107   1.610
 8362SOL    HW225986   0.307   4.187   1.517
 8363SOL     OW25987   1.859   3.133   1.026
 8363SOL    HW125988   1.898   3.055   1.075
 8363SOL    HW225989   1.890   3.131   0.931
 8364SOL     OW25990   0.220   2.736   4.197
 8364SOL    HW125991   0.212   2.798   4.276
 8364SOL    HW225992   0.236   2.643   4.230
 8365SOL     OW25993   1.519   2.171   2.216
 8365SOL    HW125994   1.546   2.077   2.234
 8365SOL    HW225995   1.420   2.176   2.204
 8366SOL     OW25996   5.239   4.895   2.405
 8366SOL    HW125997   5.273   4.955   2.477
 8366SOL    HW225998   5.275   4.803   2.419
 8367SOL     OW25999   2.436   4.841   4.279
 8367SOL    HW126000   2.492   4.920   4.253
 8367SOL    HW226001   2.362   4.829   4.213
 8368SOL     OW26002   6.116   6.431   5.654
 8368SOL    HW126003   6.138   6.528   5.640
 8368SOL    HW226004   6.022   6.424   5.689
 8369SOL     OW26005   2.482   6.384   0.761
 8369SOL    HW126006   2.521   6.395   0.669
 8369SOL    HW226007   2.498   6.467   0.814
 8370SOL     OW26008   3.047   3.737   6.634
 8370SOL    HW126009   3.107   3.787   6.696
 8370SOL    HW226010   2.957   3.781   6.633
 8371SOL     OW26011   2.389   4.396   5.577
 8371SOL    HW126012   2.485   4.400   5.551
 8371SOL    HW226013   2.379   4.420   5.673
 8372SOL     OW26014   2.169   6.858   1.017
 8372SOL    HW126015   2.133   6.949   1.038
 8372SOL    HW226016   2.113   6.815   0.947
 8373SOL     OW26017   6.297   1.615   4.144
 8373SOL    HW126018   6.390   1.650   4.141
 8373SOL    HW226019   6.252   1.631   4.056
 8374SOL     OW26020   6.922   1.072   4.472
 8374SOL    HW126021   6.995   1.068   4.540
 8374SOL    HW226022   6.957   1.041   4.384
 8375SOL     OW26023   2.626   1.665   5.269
 8375SOL    HW126024   2.716   1.655   5.312
 8375SOL    HW226025   2.635   1.720   5.186
 8376SOL     OW26026   0.742   1.701   3.366
 8376SOL    HW126027   0.835   1.714   3.332
 8376SOL    HW226028   0.725   1.763   3.442
 8377SOL     OW26029   4.674   4.854   0.357
 8377SOL    HW126030   4.605   4.790   0.322
 8377SOL    HW226031   4.668   4.859   0.457
 8378SOL     OW26032   4.911   5.853   4.533
 8378SOL    HW126033   4.876   5.899   4.452
 8378SOL    HW226034   4.887   5.756   4.529
 8379SOL     OW26035   6.033   1.932   1.425
 8379SOL    HW126036   5.974   2.012   1.414
 8379SOL    HW226037   5.977   1.852   1.443
 8380SOL     OW26038   0.001   6.338   0.897
 8380SOL    HW126039   0.062   6.354   0.976
 8380SOL    HW226040   7.017   6.240   0.878
 8381SOL     OW26041   0.206   1.385   2.906
 8381SOL    HW126042   0.185   1.482   2.901
 8381SOL    HW226043   0.227   1.351   2.814
 8382SOL     OW26044   1.548   0.533   0.945
 8382SOL    HW126045   1.545   0.603   1.017
 8382SOL    HW226046   1.640   0.493   0.941
 8383SOL     OW26047   3.018   0.581   6.524
 8383SOL    HW126048   3.013   0.613   6.429
 8383SOL    HW226049   3.040   0.484   6.525
 8384SOL     OW26050   0.977   3.937   3.067
 8384SOL    HW126051   0.945   4.007   3.003
 8384SOL    HW226052   0.956   3.846   3.031
 8385SOL     OW26053   4.497   2.983   1.212
 8385SOL    HW126054   4.490   2.991   1.312
 8385SOL    HW226055   4.422   2.926   1.178
 8386SOL     OW26056   2.088   5.912   1.662
 8386SOL    HW126057   2.075   5.816   1.686
 8386SOL    HW226058   2.186   5.934   1.664
 8387SOL     OW26059   0.838   1.520   3.148
 8387SOL    HW126060   0.889   1.438   3.122
 8387SOL    HW226061   0.770   1.496   3.217
 8388SOL     OW26062   4.499   5.887   0.476
 8388SOL    HW126063   4.506   5.788   0.483
 8388SOL    HW226064   4.574   5.929   0.527
 8389SOL     OW26065   0.311   2.995   3.800
 8389SOL    HW126066   0.305   2.979   3.899
 8389SOL    HW226067   0.221   2.986   3.759
 8390SOL     OW26068   2.608   6.983   5.875
 8390SOL    HW126069   2.594   6.983   5.776
 8390SOL    HW226070   2.524   6.953   5.920
 8391SOL     OW26071   5.543   6.212   0.886
 8391SOL    HW126072   5.541   6.249   0.793
 8391SOL    HW226073   5.632   6.171   0.903
 8392SOL     OW26074   5.575   6.426   5.786
 8392SOL    HW126075   5.621   6.507   5.748
 8392SOL    HW226076   5.535   6.373   5.712
 8393SOL     OW26077   0.099   5.422   2.651
 8393SOL    HW126078   0.160   5.397   2.576
 8393SOL    HW226079   0.151   5.427   2.736
 8394SOL     OW26080   0.365   1.882   3.047
 8394SOL    HW126081   0.354   1.975   3.011
 8394SOL    HW226082   0.277   1.836   3.048
 8395SOL     OW26083   0.871   6.173   5.449
 8395SOL    HW126084   0.780   6.177   5.409
 8395SOL    HW226085   0.936   6.138   5.381
 8396SOL     OW26086   4.375   3.557   0.792
 8396SOL    HW126087   4.382   3.476   0.850
 8396SOL    HW226088   4.278   3.574   0.771
 8397SOL     OW26089   1.982   5.099   3.423
 8397SOL    HW126090   1.897   5.091   3.475
 8397SOL    HW226091   2.059   5.071   3.480
 8398SOL     OW26092   5.112   1.515   0.264
 8398SOL    HW126093   5.111   1.420   0.293
 8398SOL    HW226094   5.057   1.570   0.327
 8399SOL     OW26095   5.969   5.657   0.178
 8399SOL    HW126096   5.979   5.730   0.111
 8399SOL    HW226097   5.927   5.694   0.261
 8400SOL     OW26098   6.014   0.500   4.614
 8400SOL    HW126099   6.098   0.499   4.561
 8400SOL    HW226100   6.031   0.462   4.704
 8401SOL     OW26101   3.024   4.668   6.477
 8401SOL    HW126102   3.121   4.664   6.501
 8401SOL    HW226103   3.000   4.763   6.458
 8402SOL     OW26104   4.523   1.369   0.111
 8402SOL    HW126105   4.464   1.320   0.047
 8402SOL    HW226106   4.478   1.453   0.140
 8403SOL     OW26107   1.136   2.142   4.334
 8403SOL    HW126108   1.125   2.171   4.429
 8403SOL    HW226109   1.062   2.079   4.310
 8404SOL     OW26110   4.230   5.113   5.298
 8404SOL    HW126111   4.256   5.035   5.355
 8404SOL    HW226112   4.285   5.192   5.323
 8405SOL     OW26113   1.075   2.468   5.153
 8405SOL    HW126114   1.044   2.454   5.059
 8405SOL    HW226115   0.999   2.450   5.216
 8406SOL     OW26116   5.147   3.485   0.830
 8406SOL    HW126117   5.131   3.422   0.754
 8406SOL    HW226118   5.195   3.437   0.903
 8407SOL     OW26119   5.051   3.519   2.506
 8407SOL    HW126120   5.148   3.540   2.492
 8407SOL    HW226121   5.004   3.520   2.419
 8408SOL     OW26122   4.776   2.821   3.751
 8408SOL    HW126123   4.785   2.826   3.651
 8408SOL    HW226124   4.767   2.913   3.788
 8409SOL     OW26125   1.255   1.958   3.913
 8409SOL    HW126126   1.317   1.912   3.977
 8409SOL    HW226127   1.299   2.041   3.878
 8410SOL     OW26128   3.129   6.535   2.260
 8410SOL    HW126129   3.037   6.494   2.260
 8410SOL    HW226130   3.147   6.575   2.170
 8411SOL     OW26131   1.866   3.080   3.566
 8411SOL    HW126132   1.951   3.112   3.524
 8411SOL    HW226133   1.816   3.023   3.502
 8412SOL     OW26134   6.428   2.926   2.319
 8412SOL    HW126135   6.496   2.860   2.351
 8412SOL    HW226136   6.340   2.881   2.310
 8413SOL     OW26137   2.470   4.463   1.397
 8413SOL    HW126138   2.505   4.508   1.479
 8413SOL    HW226139   2.417   4.383   1.423
 8414SOL     OW26140   5.179   6.962   2.211
 8414SOL    HW126141   5.128   6.929   2.131
 8414SOL    HW226142   5.139   6.925   2.294
 8415SOL     OW26143   6.499   3.415   2.079
 8415SOL    HW126144   6.599   3.415   2.076
 8415SOL    HW226145   6.466   3.505   2.105
 8416SOL     OW26146   5.021   4.043   2.355
 8416SOL    HW126147   5.005   4.043   2.256
 8416SOL    HW226148   5.008   3.950   2.390
 8417SOL     OW26149   2.419   5.999   6.415
 8417SOL    HW126150   2.419   5.901   6.398
 8417SOL    HW226151   2.513   6.034   6.417
 8418SOL     OW26152   5.745   5.414   2.169
 8418SOL    HW126153   5.649   5.441   2.174
 8418SOL    HW226154   5.781   5.403   2.262
 8419SOL     OW26155   3.841   6.930   3.507
 8419SOL    HW126156   3.820   6.835   3.532
 8419SOL    HW226157   3.802   6.992   3.575
 8420SOL     OW26158   3.774   2.038   5.891
 8420SOL    HW126159   3.840   2.035   5.816
 8420SOL    HW226160   3.822   2.021   5.978
 8421SOL     OW26161   1.810   6.647   1.804
 8421SOL    HW126162   1.775   6.602   1.722
 8421SOL    HW226163   1.746   6.717   1.833
 8422SOL     OW26164   3.982   6.607   1.308
 8422SOL    HW126165   3.885   6.627   1.297
 8422SOL    HW226166   3.994   6.539   1.381
 8423SOL     OW26167   2.130   4.193   1.297
 8423SOL    HW126168   2.109   4.097   1.281
 8423SOL    HW226169   2.105   4.217   1.391
 8424SOL     OW26170   2.865   2.188   2.637
 8424SOL    HW126171   2.791   2.254   2.634
 8424SOL    HW226172   2.909   2.182   2.548
 8425SOL     OW26173   6.016   4.777   0.256
 8425SOL    HW126174   6.068   4.694   0.281
 8425SOL    HW226175   5.961   4.758   0.175
 8426SOL     OW26176   4.068   3.461   2.266
 8426SOL    HW126177   4.132   3.414   2.205
 8426SOL    HW226178   4.045   3.550   2.227
 8427SOL     OW26179   2.347   3.260   6.440
 8427SOL    HW126180   2.353   3.302   6.349
 8427SOL    HW226181   2.250   3.251   6.466
 8428SOL     OW26182   6.070   4.460   1.925
 8428SOL    HW126183   5.984   4.410   1.928
 8428SOL    HW226184   6.096   4.488   2.018
 8429SOL     OW26185   2.158   6.545   3.109
 8429SOL    HW126186   2.091   6.560   3.036
 8429SOL    HW226187   2.200   6.455   3.096
 8430SOL     OW26188   4.767   4.069   3.115
 8430SOL    HW126189   4.793   3.974   3.133
 8430SOL    HW226190   4.793   4.095   3.022
 8431SOL     OW26191   3.138   3.903   1.315
 8431SOL    HW126192   3.097   3.911   1.224
 8431SOL    HW226193   3.196   3.822   1.319
 8432SOL     OW26194   4.798   6.465   0.019
 8432SOL    HW126195   4.860   6.396   7.004
 8432SOL    HW226196   4.806   6.470   0.119
 8433SOL     OW26197   1.160   1.027   5.219
 8433SOL    HW126198   1.226   1.089   5.262
 8433SOL    HW226199   1.086   1.081   5.178
 8434SOL     OW26200   5.725   6.151   6.070
 8434SOL    HW126201   5.817   6.175   6.040
 8434SOL    HW226202   5.666   6.140   5.989
 8435SOL     OW26203   4.772   2.409   1.381
 8435SOL    HW126204   4.720   2.340   1.431
 8435SOL    HW226205   4.815   2.472   1.445
 8436SOL     OW26206   3.793   4.456   1.356
 8436SOL    HW126207   3.785   4.390   1.430
 8436SOL    HW226208   3.886   4.453   1.319
 8437SOL     OW26209   0.069   1.978   1.340
 8437SOL    HW126210   7.011   2.009   1.394
 8437SOL    HW226211   0.135   2.052   1.330
 8438SOL     OW26212   2.073   6.550   1.804
 8438SOL    HW126213   2.126   6.533   1.721
 8438SOL    HW226214   1.998   6.613   1.784
 8439SOL     OW26215   6.083   6.662   2.256
 8439SOL    HW126216   6.043   6.721   2.325
 8439SOL    HW226217   6.089   6.568   2.291
 8440SOL     OW26218   0.149   1.745   3.307
 8440SOL    HW126219   0.070   1.721   3.364
 8440SOL    HW226220   0.207   1.811   3.355
 8441SOL     OW26221   4.666   4.684   1.238
 8441SOL    HW126222   4.616   4.745   1.300
 8441SOL    HW226223   4.611   4.603   1.220
 8442SOL     OW26224   1.711   3.558   0.039
 8442SOL    HW126225   1.619   3.530   0.010
 8442SOL    HW226226   1.725   3.655   0.015
 8443SOL     OW26227   1.262   1.546   2.434
 8443SOL    HW126228   1.278   1.491   2.516
 8443SOL    HW226229   1.166   1.540   2.408
 8444SOL     OW26230   4.115   6.973   3.214
 8444SOL    HW126231   4.175   7.011   3.284
 8444SOL    HW226232   4.023   6.963   3.251
 8445SOL     OW26233   3.845   5.247   1.934
 8445SOL    HW126234   3.917   5.304   1.974
 8445SOL    HW226235   3.785   5.213   2.006
 8446SOL     OW26236   6.899   5.172   3.685
 8446SOL    HW126237   6.820   5.193   3.627
 8446SOL    HW226238   6.870   5.165   3.780
 8447SOL     OW26239   4.671   2.896   1.469
 8447SOL    HW126240   4.685   2.995   1.472
 8447SOL    HW226241   4.730   2.852   1.538
 8448SOL     OW26242   0.997   2.820   6.289
 8448SOL    HW126243   0.900   2.798   6.296
 8448SOL    HW226244   1.011   2.892   6.221
 8449SOL     OW26245   1.484   1.729   5.131
 8449SOL    HW126246   1.573   1.766   5.159
 8449SOL    HW226247   1.444   1.788   5.060
 8450SOL     OW26248   2.457   5.188   2.395
 8450SOL    HW126249   2.521   5.263   2.407
 8450SOL    HW226250   2.507   5.102   2.387
 8451SOL     OW26251   4.165   3.051   0.541
 8451SOL    HW126252   4.139   2.967   0.494
 8451SOL    HW226253   4.172   3.126   0.475
 8452SOL     OW26254   6.742   5.958   0.737
 8452SOL    HW126255   6.793   5.903   0.804
 8452SOL    HW226256   6.777   5.939   0.645
 8453SOL     OW26257   0.932   5.055   5.378
 8453SOL    HW126258   0.997   5.004   5.321
 8453SOL    HW226259   0.850   5.075   5.325
 8454SOL     OW26260   1.596   6.658   4.461
 8454SOL    HW126261   1.657   6.737   4.468
 8454SOL    HW226262   1.600   6.606   4.547
 8455SOL     OW26263   6.213   2.141   1.178
 8455SOL    HW126264   6.278   2.090   1.121
 8455SOL    HW226265   6.125   2.147   1.132
 8456SOL     OW26266   5.511   5.467   3.172
 8456SOL    HW126267   5.539   5.551   3.220
 8456SOL    HW226268   5.464   5.492   3.087
 8457SOL     OW26269   6.880   6.361   6.706
 8457SOL    HW126270   6.795   6.336   6.752
 8457SOL    HW226271   6.922   6.439   6.751
 8458SOL     OW26272   0.973   1.498   1.642
 8458SOL    HW126273   1.071   1.479   1.637
 8458SOL    HW226274   0.955   1.561   1.718
 8459SOL     OW26275   2.966   5.501   2.245
 8459SOL    HW126276   2.989   5.466   2.154
 8459SOL    HW226277   2.935   5.425   2.302
 8460SOL     OW26278   4.008   1.191   0.262
 8460SOL    HW126279   4.044   1.203   0.170
 8460SOL    HW226280   3.935   1.123   0.261
 8461SOL     OW26281   5.288   3.970   2.766
 8461SOL    HW126282   5.329   4.039   2.825
 8461SOL    HW226283   5.192   3.956   2.792
 8462SOL     OW26284   2.690   4.452   0.108
 8462SOL    HW126285   2.775   4.415   0.070
 8462SOL    HW226286   2.706   4.478   0.203
 8463SOL     OW26287   6.683   0.837   6.774
 8463SOL    HW126288   6.694   0.744   6.738
 8463SOL    HW226289   6.590   0.846   6.811
 8464SOL     OW26290   0.108   3.776   6.410
 8464SOL    HW126291   0.204   3.767   6.382
 8464SOL    HW226292   0.050   3.776   6.328
 8465SOL     OW26293   4.970   3.218   0.894
 8465SOL    HW126294   5.041   3.157   0.927
 8465SOL    HW226295   4.993   3.250   0.802
 8466SOL     OW26296   5.968   1.357   5.533
 8466SOL    HW126297   6.027   1.288   5.491
 8466SOL    HW226298   5.928   1.320   5.617
 8467SOL     OW26299   3.101   1.465   0.765
 8467SOL    HW126300   3.161   1.391   0.795
 8467SOL    HW226301   3.025   1.474   0.829
 8468SOL     OW26302   6.212   3.235   0.250
 8468SOL    HW126303   6.127   3.182   0.237
 8468SOL    HW226304   6.244   3.267   0.161
 8469SOL     OW26305   4.537   3.340   6.297
 8469SOL    HW126306   4.636   3.350   6.283
 8469SOL    HW226307   4.518   3.251   6.339
 8470SOL     OW26308   1.427   5.220   1.467
 8470SOL    HW126309   1.506   5.240   1.408
 8470SOL    HW226310   1.347   5.200   1.411
 8471SOL     OW26311   3.378   2.133   4.504
 8471SOL    HW126312   3.361   2.035   4.495
 8471SOL    HW226313   3.476   2.151   4.503
 8472SOL     OW26314   6.015   1.587   5.790
 8472SOL    HW126315   5.949   1.659   5.809
 8472SOL    HW226316   6.074   1.574   5.869
 8473SOL     OW26317   4.690   4.482   6.764
 8473SOL    HW126318   4.738   4.402   6.800
 8473SOL    HW226319   4.629   4.454   6.690
 8474SOL     OW26320   4.061   3.843   3.280
 8474SOL    HW126321   4.108   3.792   3.207
 8474SOL    HW226322   4.042   3.781   3.357
 8475SOL     OW26323   0.271   2.811   2.540
 8475SOL    HW126324   0.227   2.736   2.589
 8475SOL    HW226325   0.303   2.880   2.605
 8476SOL     OW26326   6.165   0.777   1.624
 8476SOL    HW126327   6.174   0.825   1.536
 8476SOL    HW226328   6.183   0.680   1.610
 8477SOL     OW26329   5.323   6.829   1.736
 8477SOL    HW126330   5.415   6.819   1.698
 8477SOL    HW226331   5.285   6.916   1.708
 8478SOL     OW26332   6.555   0.922   5.961
 8478SOL    HW126333   6.642   0.888   5.997
 8478SOL    HW226334   6.538   1.014   5.997
 8479SOL     OW26335   0.857   2.627   0.635
 8479SOL    HW126336   0.944   2.669   0.608
 8479SOL    HW226337   0.851   2.624   0.735
 8480SOL     OW26338   4.010   3.744   6.970
 8480SOL    HW126339   4.072   3.806   6.923
 8480SOL    HW226340   3.954   3.795   0.015
 8481SOL     OW26341   4.526   1.743   3.153
 8481SOL    HW126342   4.473   1.788   3.081
 8481SOL    HW226343   4.473   1.669   3.193
 8482SOL     OW26344   4.454   0.718   0.931
 8482SOL    HW126345   4.514   0.672   0.997
 8482SOL    HW226346   4.448   0.815   0.954
 8483SOL     OW26347   3.438   5.176   2.843
 8483SOL    HW126348   3.505   5.223   2.785
 8483SOL    HW226349   3.434   5.079   2.815
 8484SOL     OW26350   5.543   5.634   4.635
 8484SOL    HW126351   5.580   5.716   4.592
 8484SOL    HW226352   5.451   5.652   4.670
 8485SOL     OW26353   3.531   2.511   0.203
 8485SOL    HW126354   3.500   2.418   0.223
 8485SOL    HW226355   3.614   2.531   0.254
 8486SOL     OW26356   0.014   2.227   3.077
 8486SOL    HW126357   7.016   2.272   3.165
 8486SOL    HW226358   0.023   2.129   3.091
 8487SOL     OW26359   6.794   1.441   5.686
 8487SOL    HW126360   6.821   1.364   5.744
 8487SOL    HW226361   6.740   1.407   5.608
 8488SOL     OW26362   4.395   4.867   1.790
 8488SOL    HW126363   4.455   4.787   1.782
 8488SOL    HW226364   4.365   4.896   1.699
 8489SOL     OW26365   5.635   2.277   1.459
 8489SOL    HW126366   5.620   2.366   1.417
 8489SOL    HW226367   5.549   2.242   1.495
 8490SOL     OW26368   3.305   0.703   6.396
 8490SOL    HW126369   3.328   0.775   6.330
 8490SOL    HW226370   3.218   0.661   6.371
 8491SOL     OW26371   2.972   5.973   2.043
 8491SOL    HW126372   3.067   5.965   2.013
 8491SOL    HW226373   2.947   5.891   2.094
 8492SOL     OW26374   6.145   6.288   4.370
 8492SOL    HW126375   6.130   6.191   4.390
 8492SOL    HW226376   6.086   6.316   4.295
 8493SOL     OW26377   4.815   1.542   6.964
 8493SOL    HW126378   4.718   1.566   6.959
 8493SOL    HW226379   4.841   1.488   6.884
 8494SOL     OW26380   6.628   4.815   2.364
 8494SOL    HW126381   6.671   4.725   2.359
 8494SOL    HW226382   6.644   4.854   2.455
 8495SOL     OW26383   6.216   5.422   6.273
 8495SOL    HW126384   6.186   5.477   6.351
 8495SOL    HW226385   6.146   5.353   6.253
 8496SOL     OW26386   5.598   2.962   2.093
 8496SOL    HW126387   5.521   2.992   2.036
 8496SOL    HW226388   5.563   2.927   2.180
 8497SOL     OW26389   6.528   0.593   3.737
 8497SOL    HW126390   6.487   0.619   3.824
 8497SOL    HW226391   6.458   0.595   3.665
 8498SOL     OW26392   4.601   6.734   3.792
 8498SOL    HW126393   4.646   6.737   3.882
 8498SOL    HW226394   4.506   6.704   3.804
 8499SOL     OW26395   5.720   6.540   5.552
 8499SOL    HW126396   5.726   6.440   5.550
 8499SOL    HW226397   5.791   6.579   5.494
 8500SOL     OW26398   0.752   0.729   5.678
 8500SOL    HW126399   0.660   0.765   5.669
 8500SOL    HW226400   0.798   0.773   5.755
 8501SOL     OW26401   1.198   1.811   6.780
 8501SOL    HW126402   1.181   1.838   6.685
 8501SOL    HW226403   1.269   1.871   6.818
 8502SOL     OW26404   0.502   4.527   6.886
 8502SOL    HW126405   0.436   4.559   6.818
 8502SOL    HW226406   0.506   4.427   6.884
 8503SOL     OW26407   5.053   0.611   4.609
 8503SOL    HW126408   4.961   0.624   4.646
 8503SOL    HW226409   5.066   0.670   4.529
 8504SOL     OW26410   1.034   0.170   1.960
 8504SOL    HW126411   0.959   0.235   1.946
 8504SOL    HW226412   1.063   0.173   2.056
 8505SOL     OW26413   5.179   3.167   2.689
 8505SOL    HW126414   5.252   3.129   2.632
 8505SOL    HW226415   5.213   3.182   2.781
 8506SOL     OW26416   1.523   0.642   6.103
 8506SOL    HW126417   1.532   0.642   6.003
 8506SOL    HW226418   1.555   0.554   6.139
 8507SOL     OW26419   3.544   5.920   5.516
 8507SOL    HW126420   3.610   5.880   5.579
 8507SOL    HW226421   3.507   6.004   5.555
 8508SOL     OW26422   3.079   1.648   6.627
 8508SOL    HW126423   3.005   1.618   6.688
 8508SOL    HW226424   3.162   1.663   6.681
 8509SOL     OW26425   5.633   2.057   2.746
 8509SOL    HW126426   5.640   2.154   2.770
 8509SOL    HW226427   5.563   2.014   2.804
 8510SOL     OW26428   0.202   2.223   4.165
 8510SOL    HW126429   0.146   2.197   4.087
 8510SOL    HW226430   0.202   2.149   4.233
 8511SOL     OW26431   5.199   2.527   2.424
 8511SOL    HW126432   5.286   2.566   2.454
 8511SOL    HW226433   5.207   2.428   2.420
 8512SOL     OW26434   1.787   6.578   6.032
 8512SOL    HW126435   1.820   6.651   5.972
 8512SOL    HW226436   1.699   6.545   5.999
 8513SOL     OW26437   4.973   0.124   6.384
 8513SOL    HW126438   5.002   0.095   6.476
 8513SOL    HW226439   5.021   0.070   6.315
 8514SOL     OW26440   3.165   5.970   4.402
 8514SOL    HW126441   3.164   5.879   4.361
 8514SOL    HW226442   3.071   5.998   4.423
 8515SOL     OW26443   5.818   1.761   0.633
 8515SOL    HW126444   5.729   1.806   0.640
 8515SOL    HW226445   5.885   1.827   0.600
 8516SOL     OW26446   0.448   2.130   2.308
 8516SOL    HW126447   0.415   2.165   2.220
 8516SOL    HW226448   0.419   2.035   2.319
 8517SOL     OW26449   0.841   3.923   0.697
 8517SOL    HW126450   0.920   3.872   0.665
 8517SOL    HW226451   0.870   3.991   0.765
 8518SOL     OW26452   3.168   5.499   0.729
 8518SOL    HW126453   3.138   5.458   0.816
 8518SOL    HW226454   3.264   5.475   0.713
 8519SOL     OW26455   1.783   5.182   2.663
 8519SOL    HW126456   1.805   5.092   2.627
 8519SOL    HW226457   1.791   5.250   2.590
 8520SOL     OW26458   3.122   0.173   6.779
 8520SOL    HW126459   3.188   0.101   6.802
 8520SOL    HW226460   3.143   0.209   6.688
 8521SOL     OW26461   0.948   0.001   6.979
 8521SOL    HW126462   0.938   0.046   0.048
 8521SOL    HW226463   1.046   7.011   6.958
 8522SOL     OW26464   1.871   6.176   4.883
 8522SOL    HW126465   1.922   6.258   4.855
 8522SOL    HW226466   1.895   6.151   4.977
 8523SOL     OW26467   1.271   6.818   0.081
 8523SOL    HW126468   1.322   6.736   0.055
 8523SOL    HW226469   1.264   6.878   0.001
 8524SOL     OW26470   1.726   2.513   6.163
 8524SOL    HW126471   1.629   2.525   6.186
 8524SOL    HW226472   1.782   2.539   6.241
 8525SOL     OW26473   5.149   3.348   3.227
 8525SOL    HW126474   5.158   3.438   3.269
 8525SOL    HW226475   5.190   3.279   3.286
 8526SOL     OW26476   2.236   2.951   1.818
 8526SOL    HW126477   2.182   2.962   1.901
 8526SOL    HW226478   2.253   3.041   1.777
 8527SOL     OW26479   4.208   6.823   4.110
 8527SOL    HW126480   4.111   6.827   4.133
 8527SOL    HW226481   4.261   6.871   4.181
 8528SOL     OW26482   4.924   2.876   6.878
 8528SOL    HW126483   4.877   2.810   6.936
 8528SOL    HW226484   5.001   2.832   6.833
 8529SOL     OW26485   0.211   5.088   0.009
 8529SOL    HW126486   0.199   5.019   6.958
 8529SOL    HW226487   0.255   5.047   0.089
 8530SOL     OW26488   1.389   3.196   5.608
 8530SOL    HW126489   1.411   3.292   5.592
 8530SOL    HW226490   1.428   3.167   5.695
 8531SOL     OW26491   3.901   4.798   1.942
 8531SOL    HW126492   3.803   4.781   1.951
 8531SOL    HW226493   3.937   4.835   2.027
 8532SOL     OW26494   1.881   4.318   6.634
 8532SOL    HW126495   1.872   4.321   6.734
 8532SOL    HW226496   1.799   4.278   6.594
 8533SOL     OW26497   4.071   0.743   5.856
 8533SOL    HW126498   4.123   0.828   5.869
 8533SOL    HW226499   4.008   0.755   5.780
 8534SOL     OW26500   2.194   2.887   3.087
 8534SOL    HW126501   2.215   2.920   2.995
 8534SOL    HW226502   2.220   2.790   3.094
 8535SOL     OW26503   6.364   3.416   4.189
 8535SOL    HW126504   6.330   3.441   4.279
 8535SOL    HW226505   6.297   3.357   4.144
 8536SOL     OW26506   0.267   0.758   4.171
 8536SOL    HW126507   0.292   0.674   4.219
 8536SOL    HW226508   0.168   0.762   4.160
 8537SOL     OW26509   5.936   6.870   2.641
 8537SOL    HW126510   5.979   6.780   2.635
 8537SOL    HW226511   5.856   6.864   2.701
 8538SOL     OW26512   5.493   0.874   4.936
 8538SOL    HW126513   5.406   0.878   4.887
 8538SOL    HW226514   5.484   0.812   5.015
 8539SOL     OW26515   0.031   3.196   2.947
 8539SOL    HW126516   0.084   3.158   2.870
 8539SOL    HW226517   6.953   3.186   2.928
 8540SOL     OW26518   3.772   0.624   0.006
 8540SOL    HW126519   3.744   0.571   0.086
 8540SOL    HW226520   3.830   0.700   0.035
 8541SOL     OW26521   3.331   6.679   5.226
 8541SOL    HW126522   3.234   6.659   5.241
 8541SOL    HW226523   3.371   6.605   5.171
 8542SOL     OW26524   1.247   6.096   6.064
 8542SOL    HW126525   1.168   6.060   6.015
 8542SOL    HW226526   1.248   6.061   6.158
 8543SOL     OW26527   2.571   2.622   5.889
 8543SOL    HW126528   2.579   2.678   5.806
 8543SOL    HW226529   2.660   2.584   5.914
 8544SOL     OW26530   5.502   4.895   5.701
 8544SOL    HW126531   5.497   4.968   5.633
 8544SOL    HW226532   5.593   4.894   5.743
 8545SOL     OW26533   2.804   0.105   6.429
 8545SOL    HW126534   2.826   0.126   6.524
 8545SOL    HW226535   2.824   0.185   6.372
 8546SOL     OW26536   4.672   0.928   2.958
 8546SOL    HW126537   4.593   0.960   2.906
 8546SOL    HW226538   4.725   0.864   2.902
 8547SOL     OW26539   5.974   6.244   5.985
 8547SOL    HW126540   6.028   6.163   5.959
 8547SOL    HW226541   6.032   6.306   6.038
 8548SOL     OW26542   0.884   3.606   4.801
 8548SOL    HW126543   0.903   3.702   4.782
 8548SOL    HW226544   0.970   3.556   4.807
 8549SOL     OW26545   1.588   0.130   4.098
 8549SOL    HW126546   1.646   0.068   4.151
 8549SOL    HW226547   1.629   0.222   4.098
 8550SOL     OW26548   6.639   5.291   6.122
 8550SOL    HW126549   6.595   5.381   6.122
 8550SOL    HW226550   6.572   5.221   6.143
 8551SOL     OW26551   2.398   0.367   5.925
 8551SOL    HW126552   2.430   0.323   6.010
 8551SOL    HW226553   2.302   0.392   5.935
 8552SOL     OW26554   2.781   1.633   2.339
 8552SOL    HW126555   2.846   1.695   2.295
 8552SOL    HW226556   2.795   1.540   2.304
 8553SOL     OW26557   5.350   3.945   6.913
 8553SOL    HW126558   5.417   3.980   6.978
 8553SOL    HW226559   5.259   3.946   6.954
 8554SOL     OW26560   2.249   1.110   0.589
 8554SOL    HW126561   2.166   1.160   0.563
 8554SOL    HW226562   2.263   1.118   0.688
 8555SOL     OW26563   3.391   1.888   4.044
 8555SOL    HW126564   3.356   1.981   4.057
 8555SOL    HW226565   3.464   1.870   4.110
 8556SOL     OW26566   0.942   5.618   6.448
 8556SOL    HW126567   0.989   5.633   6.361
 8556SOL    HW226568   0.845   5.638   6.437
 8557SOL     OW26569   6.664   1.037   6.589
 8557SOL    HW126570   6.604   1.003   6.517
 8557SOL    HW226571   6.673   0.969   6.660
 8558SOL     OW26572   2.942   6.220   4.240
 8558SOL    HW126573   2.984   6.159   4.173
 8558SOL    HW226574   2.890   6.291   4.192
 8559SOL     OW26575   2.106   4.556   2.741
 8559SOL    HW126576   2.099   4.572   2.839
 8559SOL    HW226577   2.134   4.640   2.695
 8560SOL     OW26578   2.472   4.833   0.596
 8560SOL    HW126579   2.475   4.763   0.525
 8560SOL    HW226580   2.411   4.804   0.669
 8561SOL     OW26581   3.850   0.584   3.389
 8561SOL    HW126582   3.809   0.574   3.480
 8561SOL    HW226583   3.824   0.673   3.350
 8562SOL     OW26584   5.600   2.431   0.260
 8562SOL    HW126585   5.655   2.515   0.269
 8562SOL    HW226586   5.540   2.439   0.181
 8563SOL     OW26587   2.846   5.125   2.552
 8563SOL    HW126588   2.805   5.036   2.533
 8563SOL    HW226589   2.907   5.118   2.631
 8564SOL     OW26590   4.091   0.017   0.204
 8564SOL    HW126591   4.011   6.977   0.191
 8564SOL    HW226592   4.171   6.995   0.160
 8565SOL     OW26593   1.892   4.694   1.431
 8565SOL    HW126594   1.966   4.758   1.412
 8565SOL    HW226595   1.810   4.722   1.381
 8566SOL     OW26596   3.034   0.948   2.094
 8566SOL    HW126597   3.067   0.863   2.052
 8566SOL    HW226598   3.111   1.009   2.110
 8567SOL     OW26599   1.832   3.055   2.304
 8567SOL    HW126600   1.881   3.103   2.378
 8567SOL    HW226601   1.840   3.108   2.220
 8568SOL     OW26602   6.157   0.428   6.175
 8568SOL    HW126603   6.246   0.398   6.211
 8568SOL    HW226604   6.158   0.526   6.160
 8569SOL     OW26605   4.395   2.276   0.507
 8569SOL    HW126606   4.428   2.186   0.479
 8569SOL    HW226607   4.339   2.315   0.435
 8570SOL     OW26608   1.951   2.643   1.850
 8570SOL    HW126609   1.870   2.585   1.864
 8570SOL    HW226610   2.032   2.595   1.885
 8571SOL     OW26611   1.632   0.530   3.157
 8571SOL    HW126612   1.639   0.611   3.215
 8571SOL    HW226613   1.580   0.459   3.204
 8572SOL     OW26614   2.529   4.114   5.585
 8572SOL    HW126615   2.429   4.121   5.586
 8572SOL    HW226616   2.560   4.098   5.491
 8573SOL     OW26617   3.240   6.712   0.514
 8573SOL    HW126618   3.271   6.798   0.473
 8573SOL    HW226619   3.318   6.654   0.536
 8574SOL     OW26620   4.471   0.748   5.424
 8574SOL    HW126621   4.560   0.749   5.469
 8574SOL    HW226622   4.424   0.663   5.445
 8575SOL     OW26623   3.436   6.102   3.470
 8575SOL    HW126624   3.351   6.079   3.422
 8575SOL    HW226625   3.449   6.201   3.469
 8576SOL     OW26626   1.903   4.827   4.267
 8576SOL    HW126627   1.891   4.757   4.338
 8576SOL    HW226628   1.821   4.884   4.262
 8577SOL     OW26629   1.731   1.376   0.846
 8577SOL    HW126630   1.822   1.392   0.885
 8577SOL    HW226631   1.731   1.401   0.750
 8578SOL     OW26632   0.416   0.172   6.348
 8578SOL    HW126633   0.415   0.101   6.278
 8578SOL    HW226634   0.322   0.193   6.375
 8579SOL     OW26635   2.845   6.503   2.328
 8579SOL    HW126636   2.829   6.510   2.229
 8579SOL    HW226637   2.853   6.596   2.366
 8580SOL     OW26638   1.691   0.525   1.469
 8580SOL    HW126639   1.704   0.436   1.424
 8580SOL    HW226640   1.703   0.514   1.567
 8581SOL     OW26641   3.201   4.930   1.344
 8581SOL    HW126642   3.269   4.996   1.311
 8581SOL    HW226643   3.120   4.980   1.375
 8582SOL     OW26644   3.930   5.362   5.691
 8582SOL    HW126645   3.984   5.278   5.697
 8582SOL    HW226646   3.906   5.379   5.596
 8583SOL     OW26647   3.884   6.921   2.340
 8583SOL    HW126648   3.845   6.829   2.344
 8583SOL    HW226649   3.984   6.914   2.337
 8584SOL     OW26650   6.340   1.817   4.625
 8584SOL    HW126651   6.331   1.913   4.652
 8584SOL    HW226652   6.285   1.801   4.542
 8585SOL     OW26653   5.309   2.718   2.964
 8585SOL    HW126654   5.265   2.803   2.993
 8585SOL    HW226655   5.248   2.667   2.904
 8586SOL     OW26656   6.701   6.432   0.252
 8586SOL    HW126657   6.736   6.455   0.161
 8586SOL    HW226658   6.614   6.480   0.267
 8587SOL     OW26659   0.109   1.797   0.314
 8587SOL    HW126660   0.162   1.822   0.395
 8587SOL    HW226661   0.094   1.878   0.257
 8588SOL     OW26662   2.721   1.178   6.025
 8588SOL    HW126663   2.727   1.244   6.099
 8588SOL    HW226664   2.726   1.085   6.063
 8589SOL     OW26665   6.488   3.603   6.798
 8589SOL    HW126666   6.472   3.560   6.709
 8589SOL    HW226667   6.484   3.534   6.870
 8590SOL     OW26668   0.733   0.652   4.031
 8590SOL    HW126669   0.687   0.740   4.042
 8590SOL    HW226670   0.750   0.635   3.934
 8591SOL     OW26671   6.757   4.646   6.573
 8591SOL    HW126672   6.668   4.625   6.533
 8591SOL    HW226673   6.794   4.563   6.616
 8592SOL     OW26674   0.424   1.661   4.698
 8592SOL    HW126675   0.338   1.611   4.698
 8592SOL    HW226676   0.485   1.623   4.768
 8593SOL     OW26677   5.060   1.630   6.913
 8593SOL    HW126678   4.963   1.611   6.929
 8593SOL    HW226679   5.102   1.551   6.868
 8594SOL     OW26680   6.502   3.329   5.855
 8594SOL    HW126681   6.534   3.416   5.894
 8594SOL    HW226682   6.404   3.336   5.837
 8595SOL     OW26683   6.307   6.387   3.020
 8595SOL    HW126684   6.332   6.469   3.070
 8595SOL    HW226685   6.220   6.352   3.054
 8596SOL     OW26686   0.735   1.451   4.002
 8596SOL    HW126687   0.818   1.504   3.984
 8596SOL    HW226688   0.679   1.499   4.070
 8597SOL     OW26689   6.249   3.333   5.685
 8597SOL    HW126690   6.271   3.430   5.684
 8597SOL    HW226691   6.186   3.314   5.760
 8598SOL     OW26692   6.353   7.010   4.853
 8598SOL    HW126693   6.407   0.066   4.888
 8598SOL    HW226694   6.413   6.946   4.804
 8599SOL     OW26695   0.183   3.846   3.869
 8599SOL    HW126696   0.196   3.844   3.770
 8599SOL    HW226697   0.099   3.798   3.893
 8600SOL     OW26698   4.810   2.166   0.629
 8600SOL    HW126699   4.736   2.101   0.615
 8600SOL    HW226700   4.895   2.117   0.649
 8601SOL     OW26701   6.955   6.025   3.575
 8601SOL    HW126702   0.026   6.042   3.536
 8601SOL    HW226703   6.950   5.931   3.610
 8602SOL     OW26704   1.900   5.952   5.994
 8602SOL    HW126705   1.806   5.931   5.967
 8602SOL    HW226706   1.904   6.042   6.035
 8603SOL     OW26707   0.482   0.320   0.111
 8603SOL    HW126708   0.558   0.378   0.082
 8603SOL    HW226709   0.459   0.256   0.037
 8604SOL     OW26710   0.818   4.708   6.425
 8604SOL    HW126711   0.818   4.659   6.513
 8604SOL    HW226712   0.872   4.791   6.432
 8605SOL     OW26713   0.058   4.492   4.593
 8605SOL    HW126714   0.094   4.471   4.502
 8605SOL    HW226715   0.078   4.587   4.616
 8606SOL     OW26716   1.623   2.465   0.501
 8606SOL    HW126717   1.691   2.480   0.429
 8606SOL    HW226718   1.566   2.387   0.477
 8607SOL     OW26719   2.097   3.969   1.567
 8607SOL    HW126720   2.027   4.015   1.513
 8607SOL    HW226721   2.104   4.012   1.657
 8608SOL     OW26722   1.970   5.219   2.876
 8608SOL    HW126723   1.918   5.193   2.795
 8608SOL    HW226724   2.022   5.302   2.857
 8609SOL     OW26725   3.985   1.779   4.427
 8609SOL    HW126726   4.066   1.721   4.442
 8609SOL    HW226727   3.938   1.750   4.344
 8610SOL     OW26728   6.807   6.224   3.187
 8610SOL    HW126729   6.877   6.165   3.148
 8610SOL    HW226730   6.716   6.191   3.158
 8611SOL     OW26731   2.637   0.853   4.947
 8611SOL    HW126732   2.556   0.795   4.955
 8611SOL    HW226733   2.613   0.946   4.974
 8612SOL     OW26734   3.023   3.237   4.498
 8612SOL    HW126735   3.053   3.147   4.531
 8612SOL    HW226736   3.035   3.241   4.398
 8613SOL     OW26737   4.133   3.360   2.526
 8613SOL    HW126738   4.116   3.262   2.530
 8613SOL    HW226739   4.111   3.393   2.434
 8614SOL     OW26740   1.402   2.094   3.013
 8614SOL    HW126741   1.400   2.175   3.071
 8614SOL    HW226742   1.380   2.120   2.919
 8615SOL     OW26743   3.640   1.275   4.786
 8615SOL    HW126744   3.645   1.341   4.861
 8615SOL    HW226745   3.613   1.323   4.702
 8616SOL     OW26746   5.723   4.545   3.955
 8616SOL    HW126747   5.777   4.624   3.983
 8616SOL    HW226748   5.708   4.548   3.856
 8617SOL     OW26749   2.525   0.280   3.474
 8617SOL    HW126750   2.442   0.330   3.450
 8617SOL    HW226751   2.506   0.182   3.476
 8618SOL     OW26752   5.645   3.889   1.089
 8618SOL    HW126753   5.711   3.815   1.077
 8618SOL    HW226754   5.694   3.976   1.097
 8619SOL     OW26755   4.923   4.765   0.370
 8619SOL    HW126756   4.834   4.794   0.334
 8619SOL    HW226757   4.945   4.819   0.451
 8620SOL     OW26758   2.314   0.378   4.514
 8620SOL    HW126759   2.220   0.344   4.515
 8620SOL    HW226760   2.371   0.320   4.572
 8621SOL     OW26761   5.656   2.981   1.619
 8621SOL    HW126762   5.686   2.889   1.593
 8621SOL    HW226763   5.565   2.976   1.661
 8622SOL     OW26764   6.875   5.193   2.381
 8622SOL    HW126765   6.870   5.207   2.480
 8622SOL    HW226766   6.929   5.111   2.361
 8623SOL     OW26767   1.012   3.295   4.581
 8623SOL    HW126768   1.023   3.303   4.482
 8623SOL    HW226769   1.082   3.234   4.618
 8624SOL     OW26770   3.141   4.103   4.900
 8624SOL    HW126771   3.183   4.151   4.977
 8624SOL    HW226772   3.051   4.068   4.927
 8625SOL     OW26773   3.959   2.826   5.407
 8625SOL    HW126774   3.929   2.827   5.311
 8625SOL    HW226775   3.972   2.920   5.438
 8626SOL     OW26776   4.002   3.090   0.814
 8626SOL    HW126777   4.024   3.072   0.910
 8626SOL    HW226778   4.067   3.043   0.755
 8627SOL     OW26779   1.901   1.152   2.594
 8627SOL    HW126780   1.853   1.228   2.637
 8627SOL    HW226781   1.971   1.187   2.532
 8628SOL     OW26782   0.474   6.195   0.601
 8628SOL    HW126783   0.398   6.248   0.639
 8628SOL    HW226784   0.475   6.205   0.501
 8629SOL     OW26785   6.802   6.671   5.211
 8629SOL    HW126786   6.704   6.684   5.198
 8629SOL    HW226787   6.817   6.590   5.268
 8630SOL     OW26788   4.786   2.879   2.244
 8630SOL    HW126789   4.787   2.933   2.329
 8630SOL    HW226790   4.761   2.939   2.167
 8631SOL     OW26791   2.769   6.473   6.427
 8631SOL    HW126792   2.793   6.390   6.476
 8631SOL    HW226793   2.850   6.510   6.381
 8632SOL     OW26794   5.523   5.256   4.845
 8632SOL    HW126795   5.432   5.220   4.828
 8632SOL    HW226796   5.521   5.356   4.838
 8633SOL     OW26797   6.019   4.161   5.445
 8633SOL    HW126798   6.083   4.184   5.518
 8633SOL    HW226799   5.995   4.244   5.395
 8634SOL     OW26800   4.289   2.858   0.069
 8634SOL    HW126801   4.376   2.863   0.019
 8634SOL    HW226802   4.305   2.823   0.161
 8635SOL     OW26803   4.996   2.694   6.042
 8635SOL    HW126804   4.960   2.763   5.978
 8635SOL    HW226805   4.922   2.632   6.068
 8636SOL     OW26806   4.569   6.640   1.569
 8636SOL    HW126807   4.582   6.564   1.506
 8636SOL    HW226808   4.615   6.721   1.533
 8637SOL     OW26809   2.202   2.039   6.335
 8637SOL    HW126810   2.169   2.053   6.429
 8637SOL    HW226811   2.233   1.945   6.324
 8638SOL     OW26812   4.755   2.785   3.433
 8638SOL    HW126813   4.854   2.769   3.436
 8638SOL    HW226814   4.720   2.758   3.343
 8639SOL     OW26815   3.755   3.749   0.243
 8639SOL    HW126816   3.741   3.751   0.342
 8639SOL    HW226817   3.828   3.813   0.218
 8640SOL     OW26818   3.183   2.922   0.566
 8640SOL    HW126819   3.234   2.897   0.484
 8640SOL    HW226820   3.135   3.008   0.551
 8641SOL     OW26821   4.429   5.184   1.896
 8641SOL    HW126822   4.386   5.272   1.918
 8641SOL    HW226823   4.413   5.163   1.800
 8642SOL     OW26824   1.111   5.254   3.168
 8642SOL    HW126825   1.201   5.213   3.155
 8642SOL    HW226826   1.041   5.190   3.134
 8643SOL     OW26827   4.039   6.236   1.122
 8643SOL    HW126828   4.062   6.243   1.220
 8643SOL    HW226829   3.969   6.304   1.100
 8644SOL     OW26830   6.137   2.104   6.125
 8644SOL    HW126831   6.118   2.062   6.213
 8644SOL    HW226832   6.221   2.066   6.086
 8645SOL     OW26833   5.922   4.636   2.751
 8645SOL    HW126834   5.988   4.709   2.735
 8645SOL    HW226835   5.840   4.674   2.794
 8646SOL     OW26836   6.750   2.155   5.111
 8646SOL    HW126837   6.693   2.238   5.112
 8646SOL    HW226838   6.836   2.175   5.064
 8647SOL     OW26839   2.108   5.663   1.737
 8647SOL    HW126840   2.160   5.599   1.680
 8647SOL    HW226841   2.101   5.626   1.830
 8648SOL     OW26842   4.928   4.642   0.672
 8648SOL    HW126843   5.015   4.603   0.702
 8648SOL    HW226844   4.869   4.569   0.636
 8649SOL     OW26845   5.100   0.658   0.674
 8649SOL    HW126846   5.092   0.747   0.630
 8649SOL    HW226847   5.042   0.592   0.625
 8650SOL     OW26848   2.338   6.725   5.536
 8650SOL    HW126849   2.280   6.797   5.576
 8650SOL    HW226850   2.301   6.697   5.448
 8651SOL     OW26851   4.272   2.307   1.749
 8651SOL    HW126852   4.358   2.310   1.800
 8651SOL    HW226853   4.267   2.385   1.687
 8652SOL     OW26854   1.348   2.960   3.758
 8652SOL    HW126855   1.279   2.956   3.685
 8652SOL    HW226856   1.310   2.919   3.841
 8653SOL     OW26857   6.334   1.739   6.613
 8653SOL    HW126858   6.378   1.728   6.702
 8653SOL    HW226859   6.400   1.720   6.540
 8654SOL     OW26860   0.413   4.678   2.062
 8654SOL    HW126861   0.441   4.627   2.143
 8654SOL    HW226862   0.372   4.765   2.090
 8655SOL     OW26863   0.311   1.020   4.488
 8655SOL    HW126864   0.314   0.922   4.509
 8655SOL    HW226865   0.395   1.046   4.440
 8656SOL     OW26866   4.758   0.013   1.241
 8656SOL    HW126867   4.692   0.014   1.166
 8656SOL    HW226868   4.785   0.107   1.263
 8657SOL     OW26869   4.181   0.832   3.118
 8657SOL    HW126870   4.233   0.801   3.038
 8657SOL    HW226871   4.085   0.844   3.093
 8658SOL     OW26872   5.726   4.259   0.816
 8658SOL    HW126873   5.668   4.242   0.896
 8658SOL    HW226874   5.672   4.301   0.743
 8659SOL     OW26875   3.065   0.846   2.545
 8659SOL    HW126876   3.066   0.900   2.629
 8659SOL    HW226877   2.979   0.795   2.539
 8660SOL     OW26878   0.450   4.211   1.769
 8660SOL    HW126879   0.487   4.289   1.819
 8660SOL    HW226880   0.464   4.225   1.671
 8661SOL     OW26881   6.423   4.038   2.236
 8661SOL    HW126882   6.506   3.989   2.262
 8661SOL    HW226883   6.446   4.108   2.168
 8662SOL     OW26884   1.578   4.318   3.817
 8662SOL    HW126885   1.636   4.389   3.777
 8662SOL    HW226886   1.634   4.237   3.837
 8663SOL     OW26887   4.198   5.493   2.410
 8663SOL    HW126888   4.108   5.522   2.378
 8663SOL    HW226889   4.244   5.569   2.455
 8664SOL     OW26890   3.797   6.149   3.487
 8664SOL    HW126891   3.733   6.173   3.560
 8664SOL    HW226892   3.873   6.096   3.525
 8665SOL     OW26893   5.493   3.461   6.818
 8665SOL    HW126894   5.573   3.414   6.782
 8665SOL    HW226895   5.425   3.471   6.744
 8666SOL     OW26896   4.575   0.049   2.085
 8666SOL    HW126897   4.531   0.052   2.175
 8666SOL    HW226898   4.507   0.030   2.015
 8667SOL     OW26899   4.897   2.037   2.797
 8667SOL    HW126900   4.995   2.036   2.777
 8667SOL    HW226901   4.846   2.055   2.713
 8668SOL     OW26902   5.034   2.453   4.876
 8668SOL    HW126903   4.954   2.398   4.895
 8668SOL    HW226904   5.040   2.528   4.943
 8669SOL     OW26905   6.474   6.397   6.711
 8669SOL    HW126906   6.510   6.489   6.724
 8669SOL    HW226907   6.534   6.346   6.649
 8670SOL     OW26908   6.429   4.559   5.840
 8670SOL    HW126909   6.517   4.605   5.846
 8670SOL    HW226910   6.360   4.609   5.892
 8671SOL     OW26911   0.919   3.257   3.146
 8671SOL    HW126912   0.875   3.177   3.105
 8671SOL    HW226913   0.893   3.263   3.242
 8672SOL     OW26914   0.318   0.905   2.654
 8672SOL    HW126915   0.261   0.903   2.737
 8672SOL    HW226916   0.397   0.964   2.670
 8673SOL     OW26917   0.633   1.904   1.285
 8673SOL    HW126918   0.654   1.807   1.300
 8673SOL    HW226919   0.707   1.961   1.321
 8674SOL     OW26920   0.146   3.929   3.603
 8674SOL    HW126921   0.118   3.845   3.556
 8674SOL    HW226922   0.075   3.998   3.592
 8675SOL     OW26923   3.833   2.110   4.828
 8675SOL    HW126924   3.846   2.024   4.778
 8675SOL    HW226925   3.853   2.096   4.925
 8676SOL     OW26926   5.531   1.176   1.067
 8676SOL    HW126927   5.510   1.169   0.970
 8676SOL    HW226928   5.447   1.163   1.120
 8677SOL     OW26929   2.207   6.973   6.235
 8677SOL    HW126930   2.297   6.947   6.268
 8677SOL    HW226931   2.137   6.916   6.278
 8678SOL     OW26932   1.168   2.073   0.570
 8678SOL    HW126933   1.202   1.979   0.559
 8678SOL    HW226934   1.097   2.075   0.640
 8679SOL     OW26935   1.521   2.239   5.973
 8679SOL    HW126936   1.429   2.202   5.955
 8679SOL    HW226937   1.585   2.204   5.904
 8680SOL     OW26938   6.476   0.834   6.994
 8680SOL    HW126939   6.468   0.909   0.040
 8680SOL    HW226940   6.392   0.829   6.940
 8681SOL     OW26941   5.547   6.576   1.493
 8681SOL    HW126942   5.550   6.661   1.546
 8681SOL    HW226943   5.568   6.596   1.397
 8682SOL     OW26944   1.911   0.798   1.904
 8682SOL    HW126945   1.841   0.867   1.889
 8682SOL    HW226946   1.931   0.791   2.002
 8683SOL     OW26947   2.284   4.680   4.676
 8683SOL    HW126948   2.342   4.604   4.703
 8683SOL    HW226949   2.341   4.760   4.657
 8684SOL     OW26950   2.478   4.477   4.030
 8684SOL    HW126951   2.504   4.478   4.126
 8684SOL    HW226952   2.404   4.543   4.014
 8685SOL     OW26953   4.820   2.635   4.532
 8685SOL    HW126954   4.755   2.652   4.607
 8685SOL    HW226955   4.806   2.543   4.496
 8686SOL     OW26956   1.208   4.938   3.323
 8686SOL    HW126957   1.204   4.851   3.373
 8686SOL    HW226958   1.168   4.926   3.232
 8687SOL     OW26959   5.253   4.428   5.999
 8687SOL    HW126960   5.352   4.438   5.988
 8687SOL    HW226961   5.232   4.415   6.096
 8688SOL     OW26962   1.110   4.093   4.963
 8688SOL    HW126963   1.181   4.055   4.903
 8688SOL    HW226964   1.048   4.149   4.910
 8689SOL     OW26965   3.792   3.403   6.595
 8689SOL    HW126966   3.783   3.469   6.669
 8689SOL    HW226967   3.706   3.397   6.545
 8690SOL     OW26968   1.637   2.632   2.784
 8690SOL    HW126969   1.674   2.723   2.803
 8690SOL    HW226970   1.581   2.603   2.862
 8691SOL     OW26971   3.629   2.497   5.679
 8691SOL    HW126972   3.657   2.457   5.766
 8691SOL    HW226973   3.600   2.424   5.617
 8692SOL     OW26974   4.538   1.737   5.270
 8692SOL    HW126975   4.445   1.772   5.275
 8692SOL    HW226976   4.580   1.766   5.184
 8693SOL     OW26977   6.641   0.299   6.097
 8693SOL    HW126978   6.739   0.316   6.084
 8693SOL    HW226979   6.609   0.349   6.177
 8694SOL     OW26980   5.008   2.991   5.293
 8694SOL    HW126981   5.015   2.945   5.381
 8694SOL    HW226982   5.097   2.991   5.248
 8695SOL     OW26983   3.594   4.455   6.596
 8695SOL    HW126984   3.593   4.474   6.497
 8695SOL    HW226985   3.522   4.509   6.640
 8696SOL     OW26986   3.032   5.442   5.917
 8696SOL    HW126987   3.129   5.428   5.893
 8696SOL    HW226988   3.020   5.536   5.951
 8697SOL     OW26989   1.968   3.578   5.827
 8697SOL    HW126990   1.979   3.657   5.886
 8697SOL    HW226991   2.051   3.564   5.772
 8698SOL     OW26992   4.546   5.525   5.993
 8698SOL    HW126993   4.603   5.446   5.969
 8698SOL    HW226994   4.591   5.609   5.963
 8699SOL     OW26995   1.700   2.665   6.816
 8699SOL    HW126996   1.606   2.668   6.784
 8699SOL    HW226997   1.741   2.577   6.793
 8700SOL     OW26998   1.207   0.520   3.758
 8700SOL    HW126999   1.127   0.516   3.699
 8700SOL    HW227000   1.186   0.574   3.840
 8701SOL     OW27001   1.362   2.192   6.899
 8701SOL    HW127002   1.292   2.190   6.828
 8701SOL    HW227003   1.398   2.285   6.908
 8702SOL     OW27004   5.403   4.550   1.015
 8702SOL    HW127005   5.329   4.609   1.047
 8702SOL    HW227006   5.491   4.595   1.029
 8703SOL     OW27007   2.517   5.902   0.661
 8703SOL    HW127008   2.542   5.987   0.709
 8703SOL    HW227009   2.522   5.918   0.562
 8704SOL     OW27010   0.807   0.983   5.158
 8704SOL    HW127011   0.874   1.057   5.145
 8704SOL    HW227012   0.727   1.019   5.205
 8705SOL     OW27013   4.286   2.161   6.817
 8705SOL    HW127014   4.384   2.174   6.831
 8705SOL    HW227015   4.237   2.244   6.846
 8706SOL     OW27016   5.088   3.384   5.958
 8706SOL    HW127017   5.129   3.437   6.031
 8706SOL    HW227018   4.992   3.410   5.947
 8707SOL     OW27019   2.081   1.829   4.812
 8707SOL    HW127020   2.124   1.919   4.809
 8707SOL    HW227021   2.124   1.774   4.884
 8708SOL     OW27022   5.676   2.994   0.128
 8708SOL    HW127023   5.752   2.981   0.065
 8708SOL    HW227024   5.669   2.914   0.188
 8709SOL     OW27025   5.957   6.999   5.587
 8709SOL    HW127026   6.018   0.054   5.613
 8709SOL    HW227027   5.884   0.015   5.528
 8710SOL     OW27028   2.053   1.443   3.728
 8710SOL    HW127029   2.105   1.478   3.805
 8710SOL    HW227030   2.115   1.401   3.661
 8711SOL     OW27031   1.384   1.507   1.821
 8711SOL    HW127032   1.350   1.601   1.832
 8711SOL    HW227033   1.332   1.462   1.748
 8712SOL     OW27034   1.208   4.100   5.538
 8712SOL    HW127035   1.152   4.093   5.620
 8712SOL    HW227036   1.287   4.039   5.546
 8713SOL     OW27037   6.933   3.658   1.104
 8713SOL    HW127038   6.881   3.623   1.183
 8713SOL    HW227039   6.917   3.600   1.025
 8714SOL     OW27040   6.643   5.514   0.003
 8714SOL    HW127041   6.621   5.586   6.958
 8714SOL    HW227042   6.707   5.449   6.982
 8715SOL     OW27043   1.817   3.734   1.888
 8715SOL    HW127044   1.910   3.742   1.925
 8715SOL    HW227045   1.822   3.696   1.795
 8716SOL     OW27046   6.500   0.353   1.966
 8716SOL    HW127047   6.433   0.327   1.897
 8716SOL    HW227048   6.575   0.405   1.924
 8717SOL     OW27049   2.866   3.032   0.329
 8717SOL    HW127050   2.768   3.050   0.326
 8717SOL    HW227051   2.902   3.058   0.419
 8718SOL     OW27052   2.667   5.011   6.179
 8718SOL    HW127053   2.606   5.043   6.253
 8718SOL    HW227054   2.669   5.080   6.107
 8719SOL     OW27055   3.291   1.006   4.702
 8719SOL    HW127056   3.353   0.952   4.758
 8719SOL    HW227057   3.208   1.025   4.754
 8720SOL     OW27058   6.971   4.933   4.875
 8720SOL    HW127059   6.938   4.925   4.969
 8720SOL    HW227060   0.047   4.905   4.870
 8721SOL     OW27061   0.530   0.093   6.622
 8721SOL    HW127062   0.502   0.119   6.530
 8721SOL    HW227063   0.471   0.020   6.656
 8722SOL     OW27064   3.043   1.113   0.749
 8722SOL    HW127065   2.972   1.100   0.818
 8722SOL    HW227066   3.118   1.049   0.766
 8723SOL     OW27067   3.973   0.166   2.596
 8723SOL    HW127068   3.885   0.180   2.550
 8723SOL    HW227069   4.032   0.108   2.539
 8724SOL     OW27070   3.856   1.657   4.216
 8724SOL    HW127071   3.793   1.618   4.149
 8724SOL    HW227072   3.950   1.643   4.186
 8725SOL     OW27073   6.893   6.834   3.780
 8725SOL    HW127074   6.944   6.865   3.860
 8725SOL    HW227075   6.827   6.904   3.753
 8726SOL     OW27076   0.167   1.019   0.970
 8726SOL    HW127077   0.246   1.068   1.007
 8726SOL    HW227078   0.147   1.052   0.878
 8727SOL     OW27079   5.059   6.552   6.149
 8727SOL    HW127080   5.144   6.513   6.183
 8727SOL    HW227081   4.994   6.479   6.128
 8728SOL     OW27082   6.737   0.384   4.418
 8728SOL    HW127083   6.664   0.362   4.353
 8728SOL    HW227084   6.752   0.482   4.421
 8729SOL     OW27085   5.316   6.091   6.736
 8729SOL    HW127086   5.258   6.025   6.687
 8729SOL    HW227087   5.301   6.081   6.835
 8730SOL     OW27088   4.668   5.141   1.247
 8730SOL    HW127089   4.749   5.193   1.219
 8730SOL    HW227090   4.666   5.054   1.197
 8731SOL     OW27091   6.498   1.812   3.876
 8731SOL    HW127092   6.462   1.750   3.806
 8731SOL    HW227093   6.529   1.759   3.955
 8732SOL     OW27094   5.852   6.684   0.074
 8732SOL    HW127095   5.778   6.738   0.033
 8732SOL    HW227096   5.818   6.639   0.157
 8733SOL     OW27097   6.474   4.561   2.858
 8733SOL    HW127098   6.437   4.529   2.946
 8733SOL    HW227099   6.421   4.522   2.784
 8734SOL     OW27100   0.406   3.878   1.932
 8734SOL    HW127101   0.466   3.951   1.965
 8734SOL    HW227102   0.410   3.801   1.996
 8735SOL     OW27103   6.927   3.048   5.207
 8735SOL    HW127104   6.991   3.112   5.163
 8735SOL    HW227105   6.936   2.958   5.165
 8736SOL     OW27106   1.153   6.164   3.697
 8736SOL    HW127107   1.232   6.211   3.736
 8736SOL    HW227108   1.181   6.073   3.666
 8737SOL     OW27109   1.247   5.808   0.299
 8737SOL    HW127110   1.307   5.872   0.348
 8737SOL    HW227111   1.300   5.755   0.233
 8738SOL     OW27112   1.559   3.024   3.212
 8738SOL    HW127113   1.547   2.958   3.139
 8738SOL    HW227114   1.607   3.105   3.177
 8739SOL     OW27115   5.786   4.573   5.157
 8739SOL    HW127116   5.841   4.624   5.090
 8739SOL    HW227117   5.727   4.636   5.206
 8740SOL     OW27118   3.072   0.649   4.800
 8740SOL    HW127119   3.012   0.691   4.731
 8740SOL    HW227120   3.086   0.714   4.875
 8741SOL     OW27121   1.219   1.114   3.132
 8741SOL    HW127122   1.298   1.144   3.186
 8741SOL    HW227123   1.246   1.103   3.036
 8742SOL     OW27124   2.638   1.917   1.833
 8742SOL    HW127125   2.579   1.992   1.864
 8742SOL    HW227126   2.668   1.933   1.739
 8743SOL     OW27127   0.689   2.727   1.612
 8743SOL    HW127128   0.783   2.749   1.585
 8743SOL    HW227129   0.685   2.715   1.711
 8744SOL     OW27130   3.370   4.208   5.794
 8744SOL    HW127131   3.286   4.155   5.780
 8744SOL    HW227132   3.449   4.155   5.765
 8745SOL     OW27133   6.172   1.573   6.028
 8745SOL    HW127134   6.161   1.632   6.108
 8745SOL    HW227135   6.193   1.480   6.058
 8746SOL     OW27136   4.466   4.912   5.556
 8746SOL    HW127137   4.408   4.844   5.601
 8746SOL    HW227138   4.492   4.879   5.465
 8747SOL     OW27139   0.720   0.104   2.818
 8747SOL    HW127140   0.724   0.204   2.822
 8747SOL    HW227141   0.809   0.068   2.791
 8748SOL     OW27142   5.895   1.751   4.233
 8748SOL    HW127143   5.807   1.764   4.280
 8748SOL    HW227144   5.898   1.808   4.151
 8749SOL     OW27145   2.324   0.895   3.951
 8749SOL    HW127146   2.394   0.966   3.941
 8749SOL    HW227147   2.251   0.929   4.011
 8750SOL     OW27148   3.617   3.775   0.488
 8750SOL    HW127149   3.676   3.821   0.554
 8750SOL    HW227150   3.562   3.706   0.534
 8751SOL     OW27151   2.445   6.638   0.895
 8751SOL    HW127152   2.373   6.640   0.826
 8751SOL    HW227153   2.404   6.651   0.986
 8752SOL     OW27154   6.608   2.758   5.294
 8752SOL    HW127155   6.578   2.729   5.385
 8752SOL    HW227156   6.528   2.766   5.234
 8753SOL     OW27157   2.655   2.353   0.875
 8753SOL    HW127158   2.601   2.434   0.894
 8753SOL    HW227159   2.751   2.378   0.867
 8754SOL     OW27160   1.669   5.096   6.827
 8754SOL    HW127161   1.613   5.014   6.836
 8754SOL    HW227162   1.706   5.101   6.734
 8755SOL     OW27163   0.571   3.011   1.929
 8755SOL    HW127164   0.496   2.956   1.893
 8755SOL    HW227165   0.536   3.073   1.998
 8756SOL     OW27166   1.542   1.606   2.183
 8756SOL    HW127167   1.533   1.629   2.280
 8756SOL    HW227168   1.555   1.690   2.130
 8757SOL     OW27169   4.785   6.123   5.473
 8757SOL    HW127170   4.749   6.160   5.559
 8757SOL    HW227171   4.885   6.122   5.476
 8758SOL     OW27172   3.955   5.713   5.129
 8758SOL    HW127173   4.039   5.665   5.104
 8758SOL    HW227174   3.945   5.713   5.229
 8759SOL     OW27175   5.941   0.768   0.715
 8759SOL    HW127176   5.962   0.700   0.785
 8759SOL    HW227177   6.026   0.811   0.684
 8760SOL     OW27178   2.400   2.539   4.375
 8760SOL    HW127179   2.487   2.493   4.389
 8760SOL    HW227180   2.378   2.538   4.277
 8761SOL     OW27181   5.146   1.678   2.876
 8761SOL    HW127182   5.200   1.646   2.798
 8761SOL    HW227183   5.172   1.627   2.957
 8762SOL     OW27184   3.151   4.914   3.381
 8762SOL    HW127185   3.073   4.889   3.439
 8762SOL    HW227186   3.236   4.894   3.430
 8763SOL     OW27187   0.537   0.738   6.435
 8763SOL    HW127188   0.513   0.641   6.446
 8763SOL    HW227189   0.626   0.745   6.389
 8764SOL     OW27190   2.824   5.305   5.341
 8764SOL    HW127191   2.836   5.255   5.255
 8764SOL    HW227192   2.797   5.399   5.321
 8765SOL     OW27193   4.010   6.535   4.515
 8765SOL    HW127194   3.984   6.624   4.552
 8765SOL    HW227195   3.997   6.536   4.415
 8766SOL     OW27196   4.603   6.678   6.025
 8766SOL    HW127197   4.657   6.638   5.951
 8766SOL    HW227198   4.573   6.605   6.088
 8767SOL     OW27199   1.711   0.890   3.927
 8767SOL    HW127200   1.723   0.792   3.912
 8767SOL    HW227201   1.673   0.932   3.845
 8768SOL     OW27202   6.706   1.977   6.468
 8768SOL    HW127203   6.653   2.023   6.539
 8768SOL    HW227204   6.803   1.982   6.491
 8769SOL     OW27205   6.242   6.930   0.279
 8769SOL    HW127206   6.264   6.957   0.185
 8769SOL    HW227207   6.146   6.902   0.285
 8770SOL     OW27208   5.067   2.748   0.128
 8770SOL    HW127209   5.110   2.829   0.088
 8770SOL    HW227210   5.138   2.689   0.168
 8771SOL     OW27211   0.528   2.664   0.113
 8771SOL    HW127212   0.564   2.588   0.058
 8771SOL    HW227213   0.429   2.659   0.115
 8772SOL     OW27214   7.007   0.145   4.590
 8772SOL    HW127215   0.050   0.069   4.603
 8772SOL    HW227216   6.965   0.138   4.499
 8773SOL     OW27217   0.599   0.925   4.627
 8773SOL    HW127218   0.651   0.963   4.550
 8773SOL    HW227219   0.655   0.856   4.673
 8774SOL     OW27220   0.754   1.181   0.150
 8774SOL    HW127221   0.839   1.220   0.186
 8774SOL    HW227222   0.765   1.083   0.138
 8775SOL     OW27223   5.935   2.647   3.552
 8775SOL    HW127224   6.028   2.621   3.578
 8775SOL    HW227225   5.880   2.564   3.540
 8776SOL     OW27226   4.530   2.582   0.405
 8776SOL    HW127227   4.597   2.507   0.406
 8776SOL    HW227228   4.495   2.596   0.498
 8777SOL     OW27229   6.648   2.284   2.721
 8777SOL    HW127230   6.726   2.345   2.708
 8777SOL    HW227231   6.669   2.218   2.793
 8778SOL     OW27232   3.006   4.808   0.068
 8778SOL    HW127233   2.988   4.796   6.991
 8778SOL    HW227234   3.075   4.880   0.081
 8779SOL     OW27235   4.190   4.731   2.874
 8779SOL    HW127236   4.124   4.754   2.945
 8779SOL    HW227237   4.156   4.761   2.785
 8780SOL     OW27238   0.421   4.582   3.695
 8780SOL    HW127239   0.349   4.512   3.693
 8780SOL    HW227240   0.443   4.605   3.790
 8781SOL     OW27241   2.941   0.984   1.823
 8781SOL    HW127242   2.950   1.013   1.918
 8781SOL    HW227243   2.910   1.062   1.767
 8782SOL     OW27244   5.193   2.270   0.498
 8782SOL    HW127245   5.213   2.220   0.582
 8782SOL    HW227246   5.258   2.345   0.487
 8783SOL     OW27247   5.220   3.592   4.945
 8783SOL    HW127248   5.284   3.593   4.868
 8783SOL    HW227249   5.268   3.618   5.029
 8784SOL     OW27250   4.789   0.780   0.418
 8784SOL    HW127251   4.761   0.865   0.373
 8784SOL    HW227252   4.709   0.719   0.426
 8785SOL     OW27253   0.091   5.606   5.255
 8785SOL    HW127254   0.124   5.637   5.344
 8785SOL    HW227255   0.014   5.662   5.226
 8786SOL     OW27256   5.179   1.485   2.411
 8786SOL    HW127257   5.144   1.394   2.387
 8786SOL    HW227258   5.164   1.547   2.334
 8787SOL     OW27259   3.729   5.991   0.828
 8787SOL    HW127260   3.789   5.939   0.767
 8787SOL    HW227261   3.779   6.017   0.910
 8788SOL     OW27262   0.198   7.005   3.621
 8788SOL    HW127263   0.150   0.021   3.702
 8788SOL    HW227264   0.174   6.909   3.609
 8789SOL     OW27265   0.632   2.563   6.104
 8789SOL    HW127266   0.719   2.566   6.055
 8789SOL    HW227267   0.562   2.526   6.043
 8790SOL     OW27268   4.347   2.917   5.494
 8790SOL    HW127269   4.322   3.004   5.450
 8790SOL    HW227270   4.352   2.845   5.424
 8791SOL     OW27271   2.959   6.330   4.564
 8791SOL    HW127272   2.924   6.383   4.487
 8791SOL    HW227273   2.933   6.234   4.554
 8792SOL     OW27274   5.380   4.302   1.787
 8792SOL    HW127275   5.386   4.315   1.688
 8792SOL    HW227276   5.387   4.390   1.833
 8793SOL     OW27277   0.036   6.195   4.857
 8793SOL    HW127278   0.129   6.184   4.822
 8793SOL    HW227279   0.004   6.288   4.839
 8794SOL     OW27280   6.431   1.259   2.488
 8794SOL    HW127281   6.504   1.225   2.429
 8794SOL    HW227282   6.355   1.193   2.487
 8795SOL     OW27283   1.738   6.216   6.763
 8795SOL    HW127284   1.817   6.156   6.776
 8795SOL    HW227285   1.748   6.297   6.822
 8796SOL     OW27286   6.377   3.591   4.425
 8796SOL    HW127287   6.302   3.638   4.378
 8796SOL    HW227288   6.462   3.639   4.406
 8797SOL     OW27289   4.577   6.450   3.746
 8797SOL    HW127290   4.664   6.493   3.770
 8797SOL    HW227291   4.516   6.451   3.826
 8798SOL     OW27292   3.076   6.847   5.689
 8798SOL    HW127293   3.088   6.748   5.681
 8798SOL    HW227294   3.002   6.866   5.753
 8799SOL     OW27295   1.496   5.733   2.142
 8799SOL    HW127296   1.596   5.731   2.140
 8799SOL    HW227297   1.462   5.793   2.070
 8800SOL     OW27298   6.591   5.879   5.293
 8800SOL    HW127299   6.576   5.782   5.312
 8800SOL    HW227300   6.624   5.891   5.200
 8801SOL     OW27301   6.272   3.632   5.714
 8801SOL    HW127302   6.220   3.717   5.706
 8801SOL    HW227303   6.334   3.624   5.636
 8802SOL     OW27304   1.185   6.154   6.625
 8802SOL    HW127305   1.182   6.186   6.720
 8802SOL    HW227306   1.278   6.167   6.589
 8803SOL     OW27307   6.561   6.322   5.866
 8803SOL    HW127308   6.462   6.327   5.851
 8803SOL    HW227309   6.592   6.409   5.904
 8804SOL     OW27310   2.203   6.178   2.444
 8804SOL    HW127311   2.285   6.123   2.460
 8804SOL    HW227312   2.132   6.120   2.404
 8805SOL     OW27313   5.481   4.760   3.382
 8805SOL    HW127314   5.490   4.815   3.299
 8805SOL    HW227315   5.466   4.821   3.461
 8806SOL     OW27316   1.609   0.282   1.269
 8806SOL    HW127317   1.519   0.321   1.255
 8806SOL    HW227318   1.616   0.194   1.221
 8807SOL     OW27319   5.441   2.881   1.343
 8807SOL    HW127320   5.355   2.841   1.309
 8807SOL    HW227321   5.498   2.908   1.265
 8808SOL     OW27322   1.536   1.962   6.925
 8808SOL    HW127323   1.603   1.952   6.852
 8808SOL    HW227324   1.483   2.045   6.911
 8809SOL     OW27325   0.629   3.725   2.957
 8809SOL    HW127326   0.669   3.639   2.990
 8809SOL    HW227327   0.611   3.786   3.034
 8810SOL     OW27328   0.918   1.165   5.818
 8810SOL    HW127329   0.879   1.076   5.841
 8810SOL    HW227330   0.977   1.155   5.737
 8811SOL     OW27331   4.183   4.738   2.436
 8811SOL    HW127332   4.151   4.763   2.527
 8811SOL    HW227333   4.265   4.681   2.445
 8812SOL     OW27334   4.861   1.190   6.511
 8812SOL    HW127335   4.892   1.097   6.531
 8812SOL    HW227336   4.885   1.214   6.417
 8813SOL     OW27337   2.016   3.924   3.499
 8813SOL    HW127338   1.945   3.887   3.440
 8813SOL    HW227339   2.100   3.937   3.446
 8814SOL     OW27340   4.857   6.887   5.377
 8814SOL    HW127341   4.760   6.911   5.384
 8814SOL    HW227342   4.893   6.865   5.468
 8815SOL     OW27343   5.409   0.878   0.703
 8815SOL    HW127344   5.335   0.845   0.762
 8815SOL    HW227345   5.411   0.824   0.619
 8816SOL     OW27346   0.737   6.095   4.548
 8816SOL    HW127347   0.760   6.009   4.501
 8816SOL    HW227348   0.811   6.161   4.535
 8817SOL     OW27349   1.631   2.894   3.742
 8817SOL    HW127350   1.538   2.896   3.778
 8817SOL    HW227351   1.630   2.910   3.643
 8818SOL     OW27352   0.717   0.049   5.911
 8818SOL    HW127353   0.673   0.137   5.923
 8818SOL    HW227354   0.649   6.996   5.917
 8819SOL     OW27355   5.120   4.963   6.687
 8819SOL    HW127356   5.143   4.944   6.592
 8819SOL    HW227357   5.040   5.023   6.691
 8820SOL     OW27358   3.944   0.011   5.693
 8820SOL    HW127359   3.988   7.006   5.780
 8820SOL    HW227360   3.992   0.088   5.652
 8821SOL     OW27361   0.055   4.511   6.088
 8821SOL    HW127362   7.002   4.497   6.021
 8821SOL    HW227363   0.138   4.464   6.058
 8822SOL     OW27364   6.289   0.375   4.802
 8822SOL    HW127365   6.384   0.389   4.773
 8822SOL    HW227366   6.245   0.311   4.740
 8823SOL     OW27367   3.684   1.060   3.170
 8823SOL    HW127368   3.775   1.092   3.144
 8823SOL    HW227369   3.673   0.965   3.140
 8824SOL     OW27370   1.553   0.578   2.546
 8824SOL    HW127371   1.636   0.590   2.600
 8824SOL    HW227372   1.513   0.667   2.525
 8825SOL     OW27373   0.227   6.811   0.332
 8825SOL    HW127374   0.186   6.803   0.423
 8825SOL    HW227375   0.299   6.880   0.335
 8826SOL     OW27376   1.053   4.264   1.051
 8826SOL    HW127377   1.060   4.191   1.119
 8826SOL    HW227378   1.128   4.329   1.064
 8827SOL     OW27379   4.687   6.816   3.047
 8827SOL    HW127380   4.644   6.867   3.121
 8827SOL    HW227381   4.646   6.844   2.960
 8828SOL     OW27382   4.781   2.495   6.178
 8828SOL    HW127383   4.721   2.482   6.098
 8828SOL    HW227384   4.734   2.553   6.245
 8829SOL     OW27385   6.763   1.191   1.781
 8829SOL    HW127386   6.854   1.209   1.743
 8829SOL    HW227387   6.718   1.119   1.729
 8830SOL     OW27388   3.195   0.997   3.425
 8830SOL    HW127389   3.123   0.929   3.441
 8830SOL    HW227390   3.216   1.001   3.327
 8831SOL     OW27391   0.370   2.900   2.144
 8831SOL    HW127392   0.400   2.994   2.162
 8831SOL    HW227393   0.370   2.848   2.230
 8832SOL     OW27394   5.436   0.728   5.192
 8832SOL    HW127395   5.351   0.768   5.226
 8832SOL    HW227396   5.414   0.650   5.132
 8833SOL     OW27397   5.370   2.511   1.804
 8833SOL    HW127398   5.337   2.492   1.712
 8833SOL    HW227399   5.424   2.595   1.804
 8834SOL     OW27400   5.923   3.925   5.323
 8834SOL    HW127401   5.973   4.007   5.351
 8834SOL    HW227402   5.908   3.928   5.224
 8835SOL     OW27403   6.621   0.704   5.536
 8835SOL    HW127404   6.696   0.728   5.475
 8835SOL    HW227405   6.539   0.684   5.483
 8836SOL     OW27406   4.420   1.491   1.769
 8836SOL    HW127407   4.470   1.539   1.840
 8836SOL    HW227408   4.479   1.475   1.690
 8837SOL     OW27409   3.405   6.521   0.606
 8837SOL    HW127410   3.504   6.524   0.594
 8837SOL    HW227411   3.383   6.500   0.701
 8838SOL     OW27412   1.553   3.880   3.744
 8838SOL    HW127413   1.641   3.896   3.699
 8838SOL    HW227414   1.553   3.927   3.833
 8839SOL     OW27415   5.412   5.644   2.439
 8839SOL    HW127416   5.449   5.718   2.383
 8839SOL    HW227417   5.314   5.635   2.421
 8840SOL     OW27418   6.623   0.490   1.081
 8840SOL    HW127419   6.676   0.415   1.120
 8840SOL    HW227420   6.626   0.568   1.144
 8841SOL     OW27421   3.446   0.465   0.987
 8841SOL    HW127422   3.369   0.484   1.048
 8841SOL    HW227423   3.517   0.415   1.037
 8842SOL     OW27424   3.874   3.967   4.267
 8842SOL    HW127425   3.950   3.931   4.213
 8842SOL    HW227426   3.788   3.953   4.217
 8843SOL     OW27427   2.950   6.097   6.746
 8843SOL    HW127428   2.900   6.174   6.708
 8843SOL    HW227429   2.893   6.050   6.814
 8844SOL     OW27430   3.608   2.417   6.423
 8844SOL    HW127431   3.622   2.441   6.327
 8844SOL    HW227432   3.628   2.497   6.480
 8845SOL     OW27433   6.671   3.985   2.279
 8845SOL    HW127434   6.687   3.988   2.378
 8845SOL    HW227435   6.753   4.018   2.232
 8846SOL     OW27436   5.214   3.942   4.454
 8846SOL    HW127437   5.221   3.846   4.429
 8846SOL    HW227438   5.225   3.951   4.553
 8847SOL     OW27439   1.848   1.816   3.713
 8847SOL    HW127440   1.763   1.865   3.694
 8847SOL    HW227441   1.838   1.720   3.685
 8848SOL     OW27442   5.495   1.441   0.437
 8848SOL    HW127443   5.406   1.453   0.393
 8848SOL    HW227444   5.567   1.466   0.373
 8849SOL     OW27445   2.979   4.839   4.503
 8849SOL    HW127446   3.072   4.866   4.529
 8849SOL    HW227447   2.929   4.809   4.585
 8850SOL     OW27448   3.253   1.123   1.034
 8850SOL    HW127449   3.176   1.066   1.063
 8850SOL    HW227450   3.231   1.219   1.051
 8851SOL     OW27451   6.696   4.710   2.046
 8851SOL    HW127452   6.749   4.625   2.054
 8851SOL    HW227453   6.686   4.734   1.950
 8852SOL     OW27454   4.633   2.682   4.732
 8852SOL    HW127455   4.694   2.683   4.812
 8852SOL    HW227456   4.551   2.629   4.753
 8853SOL     OW27457   4.184   1.514   5.482
 8853SOL    HW127458   4.086   1.526   5.468
 8853SOL    HW227459   4.224   1.466   5.404
 8854SOL     OW27460   1.439   1.696   7.003
 8854SOL    HW127461   1.365   1.670   0.046
 8854SOL    HW227462   1.429   1.792   6.979
 8855SOL     OW27463   6.217   4.948   0.246
 8855SOL    HW127464   6.248   4.948   0.151
 8855SOL    HW227465   6.132   4.894   0.252
 8856SOL     OW27466   5.550   1.123   4.392
 8856SOL    HW127467   5.563   1.066   4.312
 8856SOL    HW227468   5.610   1.092   4.466
 8857SOL     OW27469   0.132   2.648   4.851
 8857SOL    HW127470   0.044   2.616   4.816
 8857SOL    HW227471   0.177   2.705   4.783
 8858SOL     OW27472   6.990   4.199   6.429
 8858SOL    HW127473   6.943   4.284   6.405
 8858SOL    HW227474   0.063   4.219   6.461
 8859SOL     OW27475   2.820   5.135   5.136
 8859SOL    HW127476   2.842   5.182   5.050
 8859SOL    HW227477   2.801   5.039   5.117
 8860SOL     OW27478   1.342   2.697   1.674
 8860SOL    HW127479   1.335   2.699   1.574
 8860SOL    HW227480   1.312   2.607   1.707
 8861SOL     OW27481   2.934   2.735   0.498
 8861SOL    HW127482   3.005   2.805   0.511
 8861SOL    HW227483   2.904   2.701   0.587
 8862SOL     OW27484   6.864   2.301   4.552
 8862SOL    HW127485   6.922   2.241   4.608
 8862SOL    HW227486   6.796   2.245   4.504
 8863SOL     OW27487   1.542   5.574   5.053
 8863SOL    HW127488   1.570   5.517   5.131
 8863SOL    HW227489   1.545   5.519   4.969
 8864SOL     OW27490   1.051   3.118   6.333
 8864SOL    HW127491   0.958   3.149   6.353
 8864SOL    HW227492   1.114   3.155   6.401
 8865SOL     OW27493   2.339   2.089   5.959
 8865SOL    HW127494   2.411   2.119   5.896
 8865SOL    HW227495   2.361   2.121   6.051
 8866SOL     OW27496   3.982   6.859   5.459
 8866SOL    HW127497   3.939   6.903   5.538
 8866SOL    HW227498   3.938   6.891   5.376
 8867SOL     OW27499   6.782   2.363   3.746
 8867SOL    HW127500   6.854   2.319   3.692
 8867SOL    HW227501   6.706   2.386   3.686
 8868SOL     OW27502   4.531   3.992   1.182
 8868SOL    HW127503   4.504   4.038   1.267
 8868SOL    HW227504   4.557   3.897   1.202
 8869SOL     OW27505   5.145   3.047   3.714
 8869SOL    HW127506   5.175   2.952   3.718
 8869SOL    HW227507   5.050   3.054   3.744
 8870SOL     OW27508   3.888   1.613   0.870
 8870SOL    HW127509   3.799   1.633   0.911
 8870SOL    HW227510   3.875   1.574   0.779
 8871SOL     OW27511   1.701   1.743   4.320
 8871SOL    HW127512   1.719   1.797   4.402
 8871SOL    HW227513   1.697   1.803   4.240
 8872SOL     OW27514   1.988   3.400   3.557
 8872SOL    HW127515   2.013   3.382   3.652
 8872SOL    HW227516   2.011   3.494   3.533
 8873SOL     OW27517   6.444   6.428   4.851
 8873SOL    HW127518   6.443   6.340   4.804
 8873SOL    HW227519   6.512   6.488   4.809
 8874SOL     OW27520   1.548   1.384   0.300
 8874SOL    HW127521   1.553   1.366   0.201
 8874SOL    HW227522   1.479   1.454   0.318
 8875SOL     OW27523   1.563   1.344   4.121
 8875SOL    HW127524   1.570   1.409   4.045
 8875SOL    HW227525   1.645   1.350   4.178
 8876SOL     OW27526   2.100   0.299   4.321
 8876SOL    HW127527   2.151   0.325   4.239
 8876SOL    HW227528   2.088   0.380   4.379
 8877SOL     OW27529   3.042   6.489   5.039
 8877SOL    HW127530   3.028   6.428   4.960
 8877SOL    HW227531   2.958   6.492   5.093
 8878SOL     OW27532   6.007   4.547   6.392
 8878SOL    HW127533   6.052   4.562   6.480
 8878SOL    HW227534   6.026   4.454   6.360
 8879SOL     OW27535   4.442   5.658   4.823
 8879SOL    HW127536   4.458   5.624   4.916
 8879SOL    HW227537   4.455   5.757   4.822
 8880SOL     OW27538   7.001   5.363   5.252
 8880SOL    HW127539   6.973   5.303   5.177
 8880SOL    HW227540   0.060   5.418   5.223
 8881SOL     OW27541   6.831   0.613   2.249
 8881SOL    HW127542   6.920   0.569   2.254
 8881SOL    HW227543   6.766   0.552   2.204
 8882SOL     OW27544   6.123   2.047   6.394
 8882SOL    HW127545   6.222   2.035   6.402
 8882SOL    HW227546   6.095   2.130   6.443
 8883SOL     OW27547   6.422   0.970   5.269
 8883SOL    HW127548   6.434   1.027   5.187
 8883SOL    HW227549   6.390   1.026   5.345
 8884SOL     OW27550   6.344   0.422   5.441
 8884SOL    HW127551   6.385   0.448   5.528
 8884SOL    HW227552   6.244   0.427   5.449
 8885SOL     OW27553   4.960   3.415   1.564
 8885SOL    HW127554   5.000   3.335   1.607
 8885SOL    HW227555   4.869   3.432   1.602
 8886SOL     OW27556   3.223   6.994   6.485
 8886SOL    HW127557   3.138   6.946   6.466
 8886SOL    HW227558   3.273   6.945   6.557
 8887SOL     OW27559   2.106   0.814   1.222
 8887SOL    HW127560   2.192   0.852   1.188
 8887SOL    HW227561   2.041   0.806   1.147
 8888SOL     OW27562   3.270   1.026   3.171
 8888SOL    HW127563   3.349   1.086   3.168
 8888SOL    HW227564   3.253   0.989   3.079
 8889SOL     OW27565   3.681   6.956   5.010
 8889SOL    HW127566   3.677   0.034   4.986
 8889SOL    HW227567   3.590   6.915   4.999
 8890SOL     OW27568   1.198   5.056   4.561
 8890SOL    HW127569   1.279   5.001   4.542
 8890SOL    HW227570   1.211   5.105   4.647
 8891SOL     OW27571   2.877   1.796   6.967
 8891SOL    HW127572   2.790   1.774   7.012
 8891SOL    HW227573   2.949   1.807   0.016
 8892SOL     OW27574   1.128   6.609   2.417
 8892SOL    HW127575   1.228   6.612   2.430
 8892SOL    HW227576   1.104   6.655   2.332
 8893SOL     OW27577   0.773   1.298   1.697
 8893SOL    HW127578   0.816   1.229   1.756
 8893SOL    HW227579   0.830   1.380   1.696
 8894SOL     OW27580   4.033   3.409   6.445
 8894SOL    HW127581   3.957   3.418   6.508
 8894SOL    HW227582   4.071   3.499   6.424
 8895SOL     OW27583   0.618   6.920   1.981
 8895SOL    HW127584   0.613   6.833   2.031
 8895SOL    HW227585   0.637   6.994   2.045
 8896SOL     OW27586   2.167   4.062   5.284
 8896SOL    HW127587   2.211   4.031   5.199
 8896SOL    HW227588   2.089   4.002   5.304
 8897SOL     OW27589   1.395   2.130   1.610
 8897SOL    HW127590   1.325   2.058   1.615
 8897SOL    HW227591   1.390   2.187   1.692
 8898SOL     OW27592   6.581   3.225   4.882
 8898SOL    HW127593   6.569   3.236   4.981
 8898SOL    HW227594   6.631   3.140   4.864
 8899SOL     OW27595   2.406   4.408   0.101
 8899SOL    HW127596   2.433   4.384   0.008
 8899SOL    HW227597   2.487   4.435   0.153
 8900SOL     OW27598   5.829   2.153   3.084
 8900SOL    HW127599   5.794   2.220   3.018
 8900SOL    HW227600   5.800   2.062   3.057
 8901SOL     OW27601   2.287   6.641   2.465
 8901SOL    HW127602   2.384   6.619   2.465
 8901SOL    HW227603   2.244   6.603   2.547
 8902SOL     OW27604   1.756   5.352   6.160
 8902SOL    HW127605   1.799   5.432   6.119
 8902SOL    HW227606   1.706   5.301   6.090
 8903SOL     OW27607   1.072   1.762   3.466
 8903SOL    HW127608   1.083   1.860   3.484
 8903SOL    HW227609   1.074   1.746   3.367
 8904SOL     OW27610   1.010   5.297   3.424
 8904SOL    HW127611   1.049   5.273   3.335
 8904SOL    HW227612   0.944   5.227   3.451
 8905SOL     OW27613   2.893   4.047   5.251
 8905SOL    HW127614   2.889   4.035   5.152
 8905SOL    HW227615   2.863   3.963   5.297
 8906SOL     OW27616   1.569   5.224   5.075
 8906SOL    HW127617   1.617   5.278   5.005
 8906SOL    HW227618   1.603   5.130   5.073
 8907SOL     OW27619   3.613   2.941   5.481
 8907SOL    HW127620   3.621   3.029   5.435
 8907SOL    HW227621   3.618   2.867   5.413
 8908SOL     OW27622   0.266   2.813   1.396
 8908SOL    HW127623   0.246   2.911   1.399
 8908SOL    HW227624   0.199   2.767   1.337
 8909SOL     OW27625   2.880   7.009   5.809
 8909SOL    HW127626   2.792   6.988   5.851
 8909SOL    HW227627   2.904   0.085   5.827
 8910SOL     OW27628   3.926   3.991   6.686
 8910SOL    HW127629   3.855   4.060   6.674
 8910SOL    HW227630   4.016   4.035   6.689
 8911SOL     OW27631   3.324   2.123   4.186
 8911SOL    HW127632   3.234   2.166   4.192
 8911SOL    HW227633   3.352   2.092   4.276
 8912SOL     OW27634   4.957   2.453   5.781
 8912SOL    HW127635   4.876   2.427   5.835
 8912SOL    HW227636   5.030   2.480   5.842
 8913SOL     OW27637   5.004   3.720   0.861
 8913SOL    HW127638   5.061   3.640   0.843
 8913SOL    HW227639   4.919   3.693   0.906
 8914SOL     OW27640   4.171   1.901   3.600
 8914SOL    HW127641   4.230   1.937   3.672
 8914SOL    HW227642   4.217   1.911   3.512
 8915SOL     OW27643   1.304   5.202   1.876
 8915SOL    HW127644   1.364   5.170   1.802
 8915SOL    HW227645   1.326   5.153   1.960
 8916SOL     OW27646   6.853   3.926   1.663
 8916SOL    HW127647   6.921   3.939   1.591
 8916SOL    HW227648   6.777   3.990   1.650
 8917SOL     OW27649   5.923   5.457   6.078
 8917SOL    HW127650   5.955   5.411   6.161
 8917SOL    HW227651   5.832   5.422   6.054
 8918SOL     OW27652   4.560   4.209   6.093
 8918SOL    HW127653   4.588   4.248   6.181
 8918SOL    HW227654   4.560   4.279   6.023
 8919SOL     OW27655   2.334   4.239   1.122
 8919SOL    HW127656   2.405   4.173   1.146
 8919SOL    HW227657   2.258   4.231   1.186
 8920SOL     OW27658   6.160   6.017   5.919
 8920SOL    HW127659   6.156   5.973   5.829
 8920SOL    HW227660   6.087   5.981   5.977
 8921SOL     OW27661   1.219   6.574   3.484
 8921SOL    HW127662   1.161   6.612   3.411
 8921SOL    HW227663   1.282   6.645   3.516
 8922SOL     OW27664   6.243   4.274   0.364
 8922SOL    HW127665   6.259   4.262   0.462
 8922SOL    HW227666   6.184   4.201   0.330
 8923SOL     OW27667   1.884   4.163   5.451
 8923SOL    HW127668   1.931   4.085   5.410
 8923SOL    HW227669   1.867   4.232   5.381
 8924SOL     OW27670   2.491   5.920   5.286
 8924SOL    HW127671   2.454   5.902   5.195
 8924SOL    HW227672   2.591   5.919   5.282
 8925SOL     OW27673   5.933   6.853   2.114
 8925SOL    HW127674   5.979   6.765   2.112
 8925SOL    HW227675   5.961   6.904   2.195
 8926SOL     OW27676   5.984   1.613   0.391
 8926SOL    HW127677   5.945   1.547   0.456
 8926SOL    HW227678   5.930   1.613   0.307
 8927SOL     OW27679   2.872   1.991   5.453
 8927SOL    HW127680   2.874   1.931   5.374
 8927SOL    HW227681   2.902   2.083   5.426
 8928SOL     OW27682   0.329   0.045   5.214
 8928SOL    HW127683   0.250   0.055   5.154
 8928SOL    HW227684   0.314   6.988   5.276
 8929SOL     OW27685   6.090   3.435   4.564
 8929SOL    HW127686   6.082   3.533   4.582
 8929SOL    HW227687   6.185   3.406   4.578
 8930SOL     OW27688   0.991   4.870   4.817
 8930SOL    HW127689   1.064   4.811   4.853
 8930SOL    HW227690   0.910   4.860   4.874
 8931SOL     OW27691   5.230   0.851   1.173
 8931SOL    HW127692   5.313   0.799   1.195
 8931SOL    HW227693   5.173   0.859   1.254
 8932SOL     OW27694   6.836   0.595   6.676
 8932SOL    HW127695   6.907   0.580   6.745
 8932SOL    HW227696   6.857   0.678   6.624
 8933SOL     OW27697   1.823   6.801   5.890
 8933SOL    HW127698   1.909   6.846   5.915
 8933SOL    HW227699   1.776   6.856   5.821
 8934SOL     OW27700   4.755   6.539   3.030
 8934SOL    HW127701   4.842   6.533   2.981
 8934SOL    HW227702   4.725   6.635   3.032
 8935SOL     OW27703   5.597   2.799   3.393
 8935SOL    HW127704   5.514   2.854   3.384
 8935SOL    HW227705   5.579   2.705   3.363
 8936SOL     OW27706   1.949   4.351   2.645
 8936SOL    HW127707   2.002   4.436   2.653
 8936SOL    HW227708   1.862   4.361   2.694
 8937SOL     OW27709   5.124   6.753   5.776
 8937SOL    HW127710   5.114   6.801   5.862
 8937SOL    HW227711   5.187   6.803   5.716
 8938SOL     OW27712   5.687   6.746   2.196
 8938SOL    HW127713   5.729   6.805   2.128
 8938SOL    HW227714   5.602   6.788   2.229
 8939SOL     OW27715   0.381   2.611   3.416
 8939SOL    HW127716   0.289   2.575   3.400
 8939SOL    HW227717   0.390   2.637   3.512
 8940SOL     OW27718   6.584   2.935   0.877
 8940SOL    HW127719   6.558   2.840   0.895
 8940SOL    HW227720   6.505   2.986   0.843
 8941SOL     OW27721   4.453   2.442   1.876
 8941SOL    HW127722   4.403   2.517   1.833
 8941SOL    HW227723   4.474   2.466   1.971
 8942SOL     OW27724   6.074   4.003   4.504
 8942SOL    HW127725   6.019   3.979   4.423
 8942SOL    HW227726   6.148   4.063   4.477
 8943SOL     OW27727   4.729   3.612   0.911
 8943SOL    HW127728   4.743   3.581   1.004
 8943SOL    HW227729   4.652   3.677   0.908
 8944SOL     OW27730   5.499   5.243   5.129
 8944SOL    HW127731   5.490   5.152   5.089
 8944SOL    HW227732   5.495   5.312   5.057
 8945SOL     OW27733   5.026   4.101   3.276
 8945SOL    HW127734   4.959   4.032   3.301
 8945SOL    HW227735   5.074   4.072   3.193
 8946SOL     OW27736   5.125   1.101   5.299
 8946SOL    HW127737   5.042   1.128   5.250
 8946SOL    HW227738   5.204   1.146   5.258
 8947SOL     OW27739   2.350   4.930   6.438
 8947SOL    HW127740   2.335   4.928   6.537
 8947SOL    HW227741   2.262   4.919   6.392
 8948SOL     OW27742   5.149   1.100   2.854
 8948SOL    HW127743   5.160   1.002   2.872
 8948SOL    HW227744   5.231   1.135   2.809
 8949SOL     OW27745   3.895   6.035   1.037
 8949SOL    HW127746   3.950   6.118   1.047
 8949SOL    HW227747   3.858   6.009   1.126
 8950SOL     OW27748   4.074   3.615   1.135
 8950SOL    HW127749   4.098   3.569   1.050
 8950SOL    HW227750   4.138   3.690   1.152
 8951SOL     OW27751   1.433   0.690   4.605
 8951SOL    HW127752   1.372   0.763   4.575
 8951SOL    HW227753   1.433   0.685   4.705
 8952SOL     OW27754   2.011   5.062   3.992
 8952SOL    HW127755   2.012   4.964   3.972
 8952SOL    HW227756   2.050   5.079   4.083
 8953SOL     OW27757   0.982   5.280   1.212
 8953SOL    HW127758   0.973   5.276   1.311
 8953SOL    HW227759   1.077   5.296   1.187
 8954SOL     OW27760   2.622   4.146   5.880
 8954SOL    HW127761   2.576   4.120   5.794
 8954SOL    HW227762   2.621   4.245   5.890
 8955SOL     OW27763   5.287   2.363   4.967
 8955SOL    HW127764   5.217   2.399   4.905
 8955SOL    HW227765   5.294   2.422   5.047
 8956SOL     OW27766   0.902   6.164   0.167
 8956SOL    HW127767   0.803   6.160   0.153
 8956SOL    HW227768   0.947   6.091   0.115
 8957SOL     OW27769   7.012   6.125   2.831
 8957SOL    HW127770   0.022   6.086   2.744
 8957SOL    HW227771   0.029   6.218   2.840
 8958SOL     OW27772   1.867   3.001   4.678
 8958SOL    HW127773   1.793   3.065   4.698
 8958SOL    HW227774   1.831   2.908   4.680
 8959SOL     OW27775   6.390   2.556   3.401
 8959SOL    HW127776   6.346   2.636   3.360
 8959SOL    HW227777   6.407   2.488   3.329
 8960SOL     OW27778   5.360   4.584   2.997
 8960SOL    HW127779   5.325   4.671   2.962
 8960SOL    HW227780   5.366   4.589   3.097
 8961SOL     OW27781   2.401   1.297   4.883
 8961SOL    HW127782   2.350   1.291   4.797
 8961SOL    HW227783   2.350   1.353   4.948
 8962SOL     OW27784   6.664   5.822   2.121
 8962SOL    HW127785   6.642   5.856   2.213
 8962SOL    HW227786   6.588   5.768   2.086
 8963SOL     OW27787   4.535   6.434   5.861
 8963SOL    HW127788   4.621   6.470   5.825
 8963SOL    HW227789   4.545   6.417   5.959
 8964SOL     OW27790   1.777   2.743   4.744
 8964SOL    HW127791   1.728   2.669   4.789
 8964SOL    HW227792   1.864   2.759   4.790
 8965SOL     OW27793   3.880   6.023   6.682
 8965SOL    HW127794   3.818   5.957   6.639
 8965SOL    HW227795   3.839   6.114   6.678
 8966SOL     OW27796   4.324   5.971   4.640
 8966SOL    HW127797   4.245   5.923   4.678
 8966SOL    HW227798   4.298   6.016   4.554
 8967SOL     OW27799   3.233   0.420   3.259
 8967SOL    HW127800   3.282   0.334   3.241
 8967SOL    HW227801   3.298   0.490   3.286
 8968SOL     OW27802   3.251   5.021   2.293
 8968SOL    HW127803   3.336   4.988   2.252
 8968SOL    HW227804   3.266   5.112   2.332
 8969SOL     OW27805   1.064   0.986   2.562
 8969SOL    HW127806   1.103   0.924   2.494
 8969SOL    HW227807   1.028   0.934   2.639
 8970SOL     OW27808   2.064   0.053   3.577
 8970SOL    HW127809   2.062   0.111   3.659
 8970SOL    HW227810   2.042   6.979   3.602
 8971SOL     OW27811   3.178   4.314   0.194
 8971SOL    HW127812   3.277   4.304   0.200
 8971SOL    HW227813   3.150   4.397   0.242
 8972SOL     OW27814   6.076   3.957   6.957
 8972SOL    HW127815   6.021   3.967   0.020
 8972SOL    HW227816   6.156   4.016   6.964
 8973SOL     OW27817   1.657   2.622   3.122
 8973SOL    HW127818   1.562   2.618   3.154
 8973SOL    HW227819   1.716   2.648   3.199
 8974SOL     OW27820   2.485   4.528   4.777
 8974SOL    HW127821   2.516   4.572   4.861
 8974SOL    HW227822   2.489   4.429   4.788
 8975SOL     OW27823   0.220   5.090   5.591
 8975SOL    HW127824   0.278   5.099   5.671
 8975SOL    HW227825   0.262   5.028   5.525
 8976SOL     OW27826   6.010   0.361   2.531
 8976SOL    HW127827   6.080   0.432   2.533
 8976SOL    HW227828   6.044   0.279   2.578
 8977SOL     OW27829   6.456   4.387   6.348
 8977SOL    HW127830   6.507   4.344   6.423
 8977SOL    HW227831   6.413   4.316   6.292
 8978SOL     OW27832   6.240   6.047   0.083
 8978SOL    HW127833   6.304   6.006   0.147
 8978SOL    HW227834   6.233   6.145   0.100
 8979SOL     OW27835   1.376   5.374   4.621
 8979SOL    HW127836   1.408   5.281   4.637
 8979SOL    HW227837   1.438   5.421   4.558
 8980SOL     OW27838   3.688   0.928   6.907
 8980SOL    HW127839   3.663   0.834   6.887
 8980SOL    HW227840   3.654   0.988   6.835
 8981SOL     OW27841   4.505   3.597   6.424
 8981SOL    HW127842   4.519   3.516   6.367
 8981SOL    HW227843   4.559   3.673   6.388
 8982SOL     OW27844   0.286   2.218   2.051
 8982SOL    HW127845   0.331   2.300   2.015
 8982SOL    HW227846   0.195   2.242   2.085
 8983SOL     OW27847   2.055   6.395   2.018
 8983SOL    HW127848   2.054   6.467   2.087
 8983SOL    HW227849   2.040   6.435   1.928
 8984SOL     OW27850   0.009   0.804   4.039
 8984SOL    HW127851   7.003   0.900   4.030
 8984SOL    HW227852   6.967   0.759   4.104
 8985SOL     OW27853   4.819   1.710   1.718
 8985SOL    HW127854   4.776   1.702   1.628
 8985SOL    HW227855   4.824   1.620   1.761
 8986SOL     OW27856   6.927   4.712   0.109
 8986SOL    HW127857   6.990   4.640   0.082
 8986SOL    HW227858   6.972   4.774   0.173
 8987SOL     OW27859   2.195   6.269   1.768
 8987SOL    HW127860   2.124   6.241   1.833
 8987SOL    HW227861   2.247   6.345   1.806
 8988SOL     OW27862   2.393   0.016   0.945
 8988SOL    HW127863   2.356   6.951   0.985
 8988SOL    HW227864   2.324   0.088   0.949
 8989SOL     OW27865   5.302   1.394   3.193
 8989SOL    HW127866   5.271   1.308   3.233
 8989SOL    HW227867   5.231   1.464   3.205
 8990SOL     OW27868   2.710   0.469   2.461
 8990SOL    HW127869   2.798   0.515   2.470
 8990SOL    HW227870   2.646   0.529   2.413
 8991SOL     OW27871   1.042   1.745   0.726
 8991SOL    HW127872   0.982   1.819   0.754
 8991SOL    HW227873   0.992   1.658   0.730
 8992SOL     OW27874   0.552   4.111   6.279
 8992SOL    HW127875   0.552   4.139   6.375
 8992SOL    HW227876   0.473   4.052   6.262
 8993SOL     OW27877   5.463   3.842   4.965
 8993SOL    HW127878   5.455   3.785   5.047
 8993SOL    HW227879   5.440   3.937   4.988
 8994SOL     OW27880   1.223   5.619   2.908
 8994SOL    HW127881   1.155   5.609   2.981
 8994SOL    HW227882   1.264   5.529   2.889
 8995SOL     OW27883   1.935   3.898   5.058
 8995SOL    HW127884   1.965   3.986   5.022
 8995SOL    HW227885   1.861   3.862   5.001
 8996SOL     OW27886   1.525   3.927   1.985
 8996SOL    HW127887   1.481   3.887   2.065
 8996SOL    HW227888   1.502   3.873   1.904
 8997SOL     OW27889   4.306   1.866   5.327
 8997SOL    HW127890   4.284   1.843   5.422
 8997SOL    HW227891   4.295   1.964   5.312
 8998SOL     OW27892   0.932   1.649   6.368
 8998SOL    HW127893   1.031   1.637   6.355
 8998SOL    HW227894   0.884   1.575   6.321
 8999SOL     OW27895   4.990   1.276   4.774
 8999SOL    HW127896   4.930   1.328   4.713
 8999SOL    HW227897   5.007   1.186   4.736
 9000SOL     OW27898   2.255   4.356   0.363
 9000SOL    HW127899   2.302   4.422   0.303
 9000SOL    HW227900   2.291   4.364   0.456
 9001SOL     OW27901   2.095   4.628   3.605
 9001SOL    HW127902   2.188   4.657   3.624
 9001SOL    HW227903   2.034   4.662   3.677
 9002SOL     OW27904   5.196   4.519   5.633
 9002SOL    HW127905   5.285   4.550   5.667
 9002SOL    HW227906   5.198   4.419   5.621
 9003SOL     OW27907   6.395   3.287   6.161
 9003SOL    HW127908   6.355   3.195   6.165
 9003SOL    HW227909   6.334   3.351   6.207
 9004SOL     OW27910   4.678   5.361   0.475
 9004SOL    HW127911   4.603   5.296   0.465
 9004SOL    HW227912   4.699   5.373   0.572
 9005SOL     OW27913   4.165   2.061   2.963
 9005SOL    HW127914   4.162   2.115   2.879
 9005SOL    HW227915   4.106   2.102   3.032
 9006SOL     OW27916   1.984   6.752   0.839
 9006SOL    HW127917   1.907   6.745   0.903
 9006SOL    HW227918   1.951   6.737   0.746
 9007SOL     OW27919   2.335   6.487   4.165
 9007SOL    HW127920   2.394   6.407   4.163
 9007SOL    HW227921   2.241   6.459   4.181
 9008SOL     OW27922   6.729   4.522   2.711
 9008SOL    HW127923   6.811   4.549   2.763
 9008SOL    HW227924   6.657   4.495   2.775
 9009SOL     OW27925   4.101   6.022   0.809
 9009SOL    HW127926   4.057   5.940   0.771
 9009SOL    HW227927   4.081   6.027   0.907
 9010SOL     OW27928   0.843   5.507   4.977
 9010SOL    HW127929   0.838   5.434   4.908
 9010SOL    HW227930   0.756   5.513   5.025
 9011SOL     OW27931   4.216   1.885   2.061
 9011SOL    HW127932   4.239   1.897   2.157
 9011SOL    HW227933   4.160   1.802   2.050
 9012SOL     OW27934   5.867   5.413   1.752
 9012SOL    HW127935   5.936   5.427   1.823
 9012SOL    HW227936   5.784   5.374   1.793
 9013SOL     OW27937   4.795   6.002   2.929
 9013SOL    HW127938   4.695   6.001   2.928
 9013SOL    HW227939   4.830   5.916   2.894
 9014SOL     OW27940   2.542   0.836   0.672
 9014SOL    HW127941   2.447   0.816   0.648
 9014SOL    HW227942   2.564   0.930   0.648
 9015SOL     OW27943   6.701   1.445   5.059
 9015SOL    HW127944   6.608   1.475   5.084
 9015SOL    HW227945   6.754   1.430   5.143
 9016SOL     OW27946   6.701   5.891   6.590
 9016SOL    HW127947   6.711   5.953   6.668
 9016SOL    HW227948   6.609   5.901   6.551
 9017SOL     OW27949   0.316   4.110   3.819
 9017SOL    HW127950   0.230   4.059   3.824
 9017SOL    HW227951   0.392   4.047   3.801
 9018SOL     OW27952   3.616   1.669   5.975
 9018SOL    HW127953   3.546   1.740   5.968
 9018SOL    HW227954   3.582   1.585   5.934
 9019SOL     OW27955   1.844   6.005   0.256
 9019SOL    HW127956   1.871   5.975   0.348
 9019SOL    HW227957   1.819   5.926   0.201
 9020SOL     OW27958   0.209   4.703   2.732
 9020SOL    HW127959   0.263   4.732   2.811
 9020SOL    HW227960   0.265   4.645   2.673
 9021SOL     OW27961   6.509   6.131   5.227
 9021SOL    HW127962   6.467   6.095   5.143
 9021SOL    HW227963   6.532   6.055   5.288
 9022SOL     OW27964   3.318   1.324   6.324
 9022SOL    HW127965   3.229   1.345   6.365
 9022SOL    HW227966   3.308   1.314   6.225
 9023SOL     OW27967   3.351   3.094   2.869
 9023SOL    HW127968   3.330   3.010   2.920
 9023SOL    HW227969   3.445   3.121   2.888
 9024SOL     OW27970   1.777   0.370   6.403
 9024SOL    HW127971   1.787   0.461   6.445
 9024SOL    HW227972   1.866   0.336   6.376
 9025SOL     OW27973   0.209   4.459   1.003
 9025SOL    HW127974   0.111   4.452   1.019
 9025SOL    HW227975   0.254   4.373   1.026
 9026SOL     OW27976   2.928   3.111   5.450
 9026SOL    HW127977   3.019   3.075   5.473
 9026SOL    HW227978   2.858   3.044   5.475
 9027SOL     OW27979   2.553   2.482   2.856
 9027SOL    HW127980   2.516   2.561   2.904
 9027SOL    HW227981   2.613   2.430   2.918
 9028SOL     OW27982   2.286   5.079   5.218
 9028SOL    HW127983   2.373   5.055   5.259
 9028SOL    HW227984   2.273   5.025   5.134
 9029SOL     OW27985   4.770   5.042   3.177
 9029SOL    HW127986   4.750   5.134   3.143
 9029SOL    HW227987   4.777   5.043   3.276
 9030SOL     OW27988   3.059   1.822   1.633
 9030SOL    HW127989   3.149   1.782   1.611
 9030SOL    HW227990   3.056   1.846   1.730
 9031SOL     OW27991   1.639   1.173   1.024
 9031SOL    HW127992   1.547   1.213   1.033
 9031SOL    HW227993   1.688   1.219   0.950
 9032SOL     OW27994   1.003   1.985   2.719
 9032SOL    HW127995   1.008   2.047   2.640
 9032SOL    HW227996   1.031   1.894   2.691
 9033SOL     OW27997   1.611   3.773   2.885
 9033SOL    HW127998   1.706   3.769   2.915
 9033SOL    HW227999   1.609   3.787   2.786
 9034SOL     OW28000   1.486   0.176   5.767
 9034SOL    HW128001   1.574   0.135   5.789
 9034SOL    HW228002   1.412   0.119   5.803
 9035SOL     OW28003   6.844   0.698   4.261
 9035SOL    HW128004   6.765   0.740   4.216
 9035SOL    HW228005   6.833   0.705   4.360
 9036SOL     OW28006   1.128   1.380   5.251
 9036SOL    HW128007   1.144   1.459   5.191
 9036SOL    HW228008   1.213   1.330   5.265
 9037SOL     OW28009   2.704   3.737   5.795
 9037SOL    HW128010   2.746   3.779   5.876
 9037SOL    HW228011   2.713   3.800   5.718
 9038SOL     OW28012   5.577   6.777   5.626
 9038SOL    HW128013   5.622   6.711   5.565
 9038SOL    HW228014   5.622   6.775   5.716
 9039SOL     OW28015   2.428   5.155   6.308
 9039SOL    HW128016   2.398   5.066   6.343
 9039SOL    HW228017   2.382   5.227   6.359
 9040SOL     OW28018   2.435   1.577   1.826
 9040SOL    HW128019   2.372   1.554   1.752
 9040SOL    HW228020   2.524   1.599   1.788
 9041SOL     OW28021   1.729   3.075   0.088
 9041SOL    HW128022   1.765   3.064   7.016
 9041SOL    HW228023   1.689   2.989   0.119
 9042SOL     OW28024   2.459   5.214   3.473
 9042SOL    HW128025   2.476   5.153   3.550
 9042SOL    HW228026   2.377   5.269   3.492
 9043SOL     OW28027   0.021   2.439   0.896
 9043SOL    HW128028   0.073   2.498   0.835
 9043SOL    HW228029   6.973   2.388   0.843
 9044SOL     OW28030   6.533   4.789   0.504
 9044SOL    HW128031   6.611   4.730   0.526
 9044SOL    HW228032   6.464   4.736   0.454
 9045SOL     OW28033   3.228   5.975   3.899
 9045SOL    HW128034   3.229   5.881   3.934
 9045SOL    HW228035   3.318   5.998   3.861
 9046SOL     OW28036   3.558   4.270   6.003
 9046SOL    HW128037   3.499   4.233   5.932
 9046SOL    HW228038   3.609   4.348   5.967
 9047SOL     OW28039   1.192   4.633   5.037
 9047SOL    HW128040   1.271   4.587   5.077
 9047SOL    HW228041   1.127   4.655   5.109
 9048SOL     OW28042   1.499   2.357   5.034
 9048SOL    HW128043   1.508   2.265   4.995
 9048SOL    HW228044   1.476   2.350   5.131
 9049SOL     OW28045   5.083   6.247   6.392
 9049SOL    HW128046   5.006   6.185   6.400
 9049SOL    HW228047   5.067   6.329   6.447
 9050SOL     OW28048   0.132   6.001   5.290
 9050SOL    HW128049   0.122   6.027   5.387
 9050SOL    HW228050   0.229   5.992   5.268
 9051SOL     OW28051   5.332   6.534   6.287
 9051SOL    HW128052   5.367   6.524   6.194
 9051SOL    HW228053   5.390   6.482   6.350
 9052SOL     OW28054   1.971   5.357   4.944
 9052SOL    HW128055   1.906   5.285   4.918
 9052SOL    HW228056   1.976   5.363   5.043
 9053SOL     OW28057   2.756   1.439   3.935
 9053SOL    HW128058   2.849   1.454   3.969
 9053SOL    HW228059   2.695   1.508   3.975
 9054SOL     OW28060   3.833   0.151   0.907
 9054SOL    HW128061   3.861   0.207   0.985
 9054SOL    HW228062   3.826   0.208   0.825
 9055SOL     OW28063   0.774   1.400   4.341
 9055SOL    HW128064   0.829   1.463   4.286
 9055SOL    HW228065   0.750   1.320   4.285
 9056SOL     OW28066   5.604   1.629   2.477
 9056SOL    HW128067   5.644   1.718   2.499
 9056SOL    HW228068   5.580   1.582   2.562
 9057SOL     OW28069   4.288   6.699   7.010
 9057SOL    HW128070   4.348   6.620   6.995
 9057SOL    HW228071   4.193   6.672   6.991
 9058SOL     OW28072   2.130   2.424   4.508
 9058SOL    HW128073   2.182   2.339   4.511
 9058SOL    HW228074   2.125   2.464   4.599
 9059SOL     OW28075   6.435   0.762   3.053
 9059SOL    HW128076   6.385   0.715   2.980
 9059SOL    HW228077   6.475   0.695   3.115
 9060SOL     OW28078   1.061   5.669   1.990
 9060SOL    HW128079   1.093   5.589   1.939
 9060SOL    HW228080   1.044   5.745   1.926
 9061SOL     OW28081   5.767   3.861   2.931
 9061SOL    HW128082   5.688   3.820   2.977
 9061SOL    HW228083   5.742   3.885   2.837
 9062SOL     OW28084   0.383   5.917   2.798
 9062SOL    HW128085   0.437   5.898   2.716
 9062SOL    HW228086   0.312   5.847   2.807
 9063SOL     OW28087   4.550   1.842   1.774
 9063SOL    HW128088   4.497   1.821   1.691
 9063SOL    HW228089   4.643   1.809   1.762
 9064SOL     OW28090   0.616   5.741   3.123
 9064SOL    HW128091   0.617   5.840   3.110
 9064SOL    HW228092   0.706   5.704   3.099
 9065SOL     OW28093   2.994   4.430   5.714
 9065SOL    HW128094   2.973   4.342   5.670
 9065SOL    HW228095   2.926   4.498   5.687
 9066SOL     OW28096   4.725   4.702   4.419
 9066SOL    HW128097   4.641   4.738   4.460
 9066SOL    HW228098   4.702   4.628   4.356
 9067SOL     OW28099   0.928   6.254   4.464
 9067SOL    HW128100   0.925   6.217   4.371
 9067SOL    HW228101   1.021   6.245   4.500
 9068SOL     OW28102   4.570   0.133   6.104
 9068SOL    HW128103   4.529   0.207   6.050
 9068SOL    HW228104   4.652   0.167   6.149
 9069SOL     OW28105   5.118   2.414   0.737
 9069SOL    HW128106   5.037   2.376   0.783
 9069SOL    HW228107   5.091   2.447   0.647
 9070SOL     OW28108   1.875   1.568   5.874
 9070SOL    HW128109   1.958   1.581   5.821
 9070SOL    HW228110   1.799   1.617   5.830
 9071SOL     OW28111   5.153   2.625   6.260
 9071SOL    HW128112   5.178   2.529   6.260
 9071SOL    HW228113   5.108   2.648   6.173
 9072SOL     OW28114   4.988   0.581   2.907
 9072SOL    HW128115   5.062   0.563   2.841
 9072SOL    HW228116   4.952   0.494   2.940
 9073SOL     OW28117   4.592   2.208   5.216
 9073SOL    HW128118   4.579   2.200   5.117
 9073SOL    HW228119   4.667   2.148   5.244
 9074SOL     OW28120   1.692   0.971   2.243
 9074SOL    HW128121   1.646   1.047   2.289
 9074SOL    HW228122   1.637   0.941   2.165
 9075SOL     OW28123   6.028   6.257   0.697
 9075SOL    HW128124   6.098   6.193   0.663
 9075SOL    HW228125   6.008   6.324   0.626
 9076SOL     OW28126   6.446   0.300   2.576
 9076SOL    HW128127   6.506   0.303   2.656
 9076SOL    HW228128   6.359   0.257   2.601
 9077SOL     OW28129   6.698   1.472   6.352
 9077SOL    HW128130   6.763   1.412   6.400
 9077SOL    HW228131   6.725   1.478   6.256
 9078SOL     OW28132   5.039   6.279   0.177
 9078SOL    HW128133   5.107   6.231   0.232
 9078SOL    HW228134   5.001   6.355   0.230
 9079SOL     OW28135   1.228   1.586   0.194
 9079SOL    HW128136   1.241   1.678   0.229
 9079SOL    HW228137   1.180   1.530   0.262
 9080SOL     OW28138   6.341   3.336   1.683
 9080SOL    HW128139   6.432   3.343   1.724
 9080SOL    HW228140   6.273   3.370   1.747
 9081SOL     OW28141   5.339   1.034   0.434
 9081SOL    HW128142   5.322   1.090   0.516
 9081SOL    HW228143   5.427   1.062   0.393
 9082SOL     OW28144   3.351   5.868   6.112
 9082SOL    HW128145   3.402   5.866   6.027
 9082SOL    HW228146   3.337   5.774   6.145
 9083SOL     OW28147   4.419   5.070   6.785
 9083SOL    HW128148   4.512   5.035   6.782
 9083SOL    HW228149   4.365   5.017   6.850
 9084SOL     OW28150   0.022   2.568   6.299
 9084SOL    HW128151   7.010   2.560   6.393
 9084SOL    HW228152   7.017   2.658   6.262
 9085SOL     OW28153   2.129   4.865   6.883
 9085SOL    HW128154   2.081   4.812   6.952
 9085SOL    HW228155   2.114   4.963   6.900
 9086SOL     OW28156   0.540   4.761   0.978
 9086SOL    HW128157   0.508   4.673   1.012
 9086SOL    HW228158   0.587   4.748   0.890
 9087SOL     OW28159   5.750   0.966   1.569
 9087SOL    HW128160   5.802   1.050   1.559
 9087SOL    HW228161   5.653   0.985   1.552
 9088SOL     OW28162   6.289   6.522   0.784
 9088SOL    HW128163   6.209   6.582   0.790
 9088SOL    HW228164   6.371   6.577   0.767
 9089SOL     OW28165   5.331   5.149   3.781
 9089SOL    HW128166   5.278   5.069   3.807
 9089SOL    HW228167   5.384   5.182   3.860
 9090SOL     OW28168   5.037   6.270   5.460
 9090SOL    HW128169   4.982   6.320   5.394
 9090SOL    HW228170   5.132   6.300   5.455
 9091SOL     OW28171   2.164   1.536   1.740
 9091SOL    HW128172   2.140   1.472   1.813
 9091SOL    HW228173   2.187   1.485   1.657
 9092SOL     OW28174   2.033   1.194   5.703
 9092SOL    HW128175   1.976   1.257   5.650
 9092SOL    HW228176   1.978   1.116   5.733
 9093SOL     OW28177   2.112   4.200   0.678
 9093SOL    HW128178   2.141   4.114   0.636
 9093SOL    HW228179   2.028   4.184   0.730
 9094SOL     OW28180   6.818   4.488   1.548
 9094SOL    HW128181   6.837   4.418   1.479
 9094SOL    HW228182   6.741   4.459   1.605
 9095SOL     OW28183   3.389   2.670   0.020
 9095SOL    HW128184   3.441   2.617   0.087
 9095SOL    HW228185   3.423   2.652   6.948
 9096SOL     OW28186   5.177   2.948   3.037
 9096SOL    HW128187   5.173   3.024   2.972
 9096SOL    HW228188   5.084   2.917   3.057
 9097SOL     OW28189   0.851   5.260   6.591
 9097SOL    HW128190   0.871   5.353   6.563
 9097SOL    HW228191   0.780   5.221   6.532
 9098SOL     OW28192   4.037   3.569   3.057
 9098SOL    HW128193   4.095   3.543   2.980
 9098SOL    HW228194   3.956   3.616   3.023
 9099SOL     OW28195   2.143   3.463   0.801
 9099SOL    HW128196   2.223   3.506   0.842
 9099SOL    HW228197   2.072   3.451   0.871
 9100SOL     OW28198   0.570   3.265   1.437
 9100SOL    HW128199   0.626   3.344   1.414
 9100SOL    HW228200   0.627   3.182   1.436
 9101SOL     OW28201   1.771   2.542   1.419
 9101SOL    HW128202   1.799   2.584   1.506
 9101SOL    HW228203   1.798   2.601   1.343
 9102SOL     OW28204   3.744   5.422   2.377
 9102SOL    HW128205   3.707   5.382   2.294
 9102SOL    HW228206   3.678   5.486   2.417
 9103SOL     OW28207   0.238   3.929   0.055
 9103SOL    HW128208   0.238   3.924   0.155
 9103SOL    HW228209   0.184   3.853   0.017
 9104SOL     OW28210   4.802   6.731   1.362
 9104SOL    HW128211   4.719   6.723   1.307
 9104SOL    HW228212   4.853   6.813   1.334
 9105SOL     OW28213   1.804   2.149   5.801
 9105SOL    HW128214   1.817   2.221   5.868
 9105SOL    HW228215   1.806   2.187   5.708
 9106SOL     OW28216   6.768   5.243   1.013
 9106SOL    HW128217   6.703   5.191   0.957
 9106SOL    HW228218   6.720   5.317   1.061
 9107SOL     OW28219   4.221   0.710   1.710
 9107SOL    HW128220   4.280   0.675   1.636
 9107SOL    HW228221   4.277   0.731   1.790
 9108SOL     OW28222   4.587   5.253   5.923
 9108SOL    HW128223   4.666   5.280   5.868
 9108SOL    HW228224   4.515   5.218   5.863
 9109SOL     OW28225   2.710   1.915   4.066
 9109SOL    HW128226   2.622   1.949   4.098
 9109SOL    HW228227   2.703   1.818   4.043
 9110SOL     OW28228   1.762   4.127   3.830
 9110SOL    HW128229   1.844   4.129   3.773
 9110SOL    HW228230   1.767   4.050   3.894
 9111SOL     OW28231   3.873   4.187   1.529
 9111SOL    HW128232   3.816   4.125   1.582
 9111SOL    HW228233   3.898   4.144   1.442
 9112SOL     OW28234   0.107   4.598   2.130
 9112SOL    HW128235   0.101   4.544   2.047
 9112SOL    HW228236   0.108   4.695   2.107
 9113SOL     OW28237   4.405   6.921   0.369
 9113SOL    HW128238   4.325   6.877   0.411
 9113SOL    HW228239   4.486   6.903   0.425
 9114SOL     OW28240   2.813   4.480   1.584
 9114SOL    HW128241   2.839   4.491   1.680
 9114SOL    HW228242   2.797   4.570   1.544
 9115SOL     OW28243   1.508   4.705   5.160
 9115SOL    HW128244   1.452   4.785   5.183
 9115SOL    HW228245   1.485   4.674   5.067
 9116SOL     OW28246   0.400   1.347   6.024
 9116SOL    HW128247   0.308   1.383   6.008
 9116SOL    HW228248   0.468   1.418   6.004
 9117SOL     OW28249   6.528   2.254   6.974
 9117SOL    HW128250   6.538   2.327   6.906
 9117SOL    HW228251   6.616   2.208   6.988
 9118SOL     OW28252   6.250   6.864   1.860
 9118SOL    HW128253   6.312   6.785   1.855
 9118SOL    HW228254   6.233   6.899   1.768
 9119SOL     OW28255   6.663   0.656   1.523
 9119SOL    HW128256   6.575   0.644   1.569
 9119SOL    HW228257   6.737   0.643   1.589
 9120SOL     OW28258   5.542   1.405   6.176
 9120SOL    HW128259   5.630   1.452   6.166
 9120SOL    HW228260   5.492   1.410   6.089
 9121SOL     OW28261   0.864   1.060   6.247
 9121SOL    HW128262   0.829   1.151   6.226
 9121SOL    HW228263   0.920   1.063   6.329
 9122SOL     OW28264   1.797   2.775   2.336
 9122SOL    HW128265   1.843   2.862   2.354
 9122SOL    HW228266   1.743   2.782   2.253
 9123SOL     OW28267   2.288   5.809   6.828
 9123SOL    HW128268   2.246   5.742   6.767
 9123SOL    HW228269   2.296   5.770   6.920
 9124SOL     OW28270   6.297   5.742   5.357
 9124SOL    HW128271   6.315   5.645   5.342
 9124SOL    HW228272   6.318   5.793   5.274
 9125SOL     OW28273   5.146   4.173   3.663
 9125SOL    HW128274   5.069   4.200   3.606
 9125SOL    HW228275   5.139   4.219   3.752
 9126SOL     OW28276   6.080   0.652   1.279
 9126SOL    HW128277   6.036   0.683   1.194
 9126SOL    HW228278   6.009   0.630   1.346
 9127SOL     OW28279   5.493   0.641   0.070
 9127SOL    HW128280   5.515   0.607   6.999
 9127SOL    HW228281   5.577   0.672   0.115
 9128SOL     OW28282   3.914   1.931   5.056
 9128SOL    HW128283   4.004   1.888   5.056
 9128SOL    HW228284   3.843   1.861   5.044
 9129SOL     OW28285   2.144   1.748   6.653
 9129SOL    HW128286   2.236   1.787   6.642
 9129SOL    HW228287   2.091   1.764   6.570
 9130SOL     OW28288   5.873   4.755   0.834
 9130SOL    HW128289   5.955   4.705   0.860
 9130SOL    HW228290   5.884   4.852   0.854
 9131SOL     OW28291   1.138   4.028   4.344
 9131SOL    HW128292   1.205   4.100   4.326
 9131SOL    HW228293   1.057   4.044   4.288
 9132SOL     OW28294   6.988   3.468   4.365
 9132SOL    HW128295   6.910   3.444   4.423
 9132SOL    HW228296   0.044   3.405   4.384
 9133SOL     OW28297   2.857   4.346   0.899
 9133SOL    HW128298   2.902   4.308   0.818
 9133SOL    HW228299   2.880   4.291   0.979
 9134SOL     OW28300   3.110   6.042   6.511
 9134SOL    HW128301   3.057   6.091   6.441
 9134SOL    HW228302   3.058   6.040   6.596
 9135SOL     OW28303   6.369   5.805   3.858
 9135SOL    HW128304   6.353   5.853   3.772
 9135SOL    HW228305   6.344   5.864   3.935
 9136SOL     OW28306   4.794   5.285   5.742
 9136SOL    HW128307   4.860   5.289   5.817
 9136SOL    HW228308   4.829   5.226   5.670
 9137SOL     OW28309   4.429   1.209   1.749
 9137SOL    HW128310   4.441   1.306   1.730
 9137SOL    HW228311   4.513   1.160   1.728
 9138SOL     OW28312   4.777   5.277   6.284
 9138SOL    HW128313   4.724   5.362   6.278
 9138SOL    HW228314   4.733   5.206   6.229
 9139SOL     OW28315   3.422   1.404   5.367
 9139SOL    HW128316   3.424   1.466   5.445
 9139SOL    HW228317   3.396   1.313   5.398
 9140SOL     OW28318   6.868   2.420   2.678
 9140SOL    HW128319   6.846   2.514   2.706
 9140SOL    HW228320   6.952   2.391   2.724
 9141SOL     OW28321   5.273   0.113   5.553
 9141SOL    HW128322   5.345   0.183   5.546
 9141SOL    HW228323   5.184   0.156   5.537
 9142SOL     OW28324   0.354   3.051   6.349
 9142SOL    HW128325   0.279   3.019   6.292
 9142SOL    HW228326   0.358   2.996   6.433
 9143SOL     OW28327   4.566   2.947   0.633
 9143SOL    HW128328   4.654   2.945   0.681
 9143SOL    HW228329   4.571   2.888   0.552
 9144SOL     OW28330   2.261   5.619   5.622
 9144SOL    HW128331   2.228   5.526   5.609
 9144SOL    HW228332   2.311   5.649   5.540
 9145SOL     OW28333   0.101   4.589   6.901
 9145SOL    HW128334   0.022   4.532   6.926
 9145SOL    HW228335   0.124   4.573   6.805
 9146SOL     OW28336   6.125   2.733   1.037
 9146SOL    HW128337   6.059   2.774   1.100
 9146SOL    HW228338   6.159   2.647   1.075
 9147SOL     OW28339   4.499   5.577   4.555
 9147SOL    HW128340   4.458   5.616   4.637
 9147SOL    HW228341   4.467   5.628   4.475
 9148SOL     OW28342   4.966   5.564   3.463
 9148SOL    HW128343   5.036   5.550   3.394
 9148SOL    HW228344   4.954   5.662   3.479
 9149SOL     OW28345   5.076   2.987   4.747
 9149SOL    HW128346   5.117   2.976   4.837
 9149SOL    HW228347   4.979   2.964   4.751
 9150SOL     OW28348   4.884   0.345   3.037
 9150SOL    HW128349   4.806   0.399   3.069
 9150SOL    HW228350   4.859   0.248   3.035
 9151SOL     OW28351   1.669   4.129   2.127
 9151SOL    HW128352   1.607   4.078   2.068
 9151SOL    HW228353   1.666   4.226   2.103
 9152SOL     OW28354   2.390   6.085   3.468
 9152SOL    HW128355   2.481   6.119   3.444
 9152SOL    HW228356   2.363   6.122   3.557
 9153SOL     OW28357   1.768   2.686   6.434
 9153SOL    HW128358   1.675   2.707   6.402
 9153SOL    HW228359   1.762   2.626   6.513
 9154SOL     OW28360   2.758   5.923   6.899
 9154SOL    HW128361   2.771   5.960   6.991
 9154SOL    HW228362   2.678   5.966   6.857
 9155SOL     OW28363   1.983   4.172   6.403
 9155SOL    HW128364   1.922   4.119   6.461
 9155SOL    HW228365   2.030   4.241   6.458
 9156SOL     OW28366   4.265   2.440   1.503
 9156SOL    HW128367   4.328   2.371   1.467
 9156SOL    HW228368   4.201   2.467   1.431
 9157SOL     OW28369   5.517   3.865   5.401
 9157SOL    HW128370   5.536   3.829   5.310
 9157SOL    HW228371   5.552   3.801   5.470
 9158SOL     OW28372   0.723   3.404   4.080
 9158SOL    HW128373   0.757   3.431   4.171
 9158SOL    HW228374   0.665   3.477   4.043
 9159SOL     OW28375   6.364   5.588   2.189
 9159SOL    HW128376   6.447   5.553   2.232
 9159SOL    HW228377   6.385   5.616   2.095
 9160SOL     OW28378   0.779   6.854   6.240
 9160SOL    HW128379   0.717   6.842   6.317
 9160SOL    HW228380   0.752   6.792   6.166
 9161SOL     OW28381   4.935   3.320   4.841
 9161SOL    HW128382   4.937   3.417   4.816
 9161SOL    HW228383   4.907   3.266   4.761
 9162SOL     OW28384   4.584   2.605   2.482
 9162SOL    HW128385   4.543   2.649   2.402
 9162SOL    HW228386   4.659   2.545   2.452
 9163SOL     OW28387   2.932   2.102   3.558
 9163SOL    HW128388   2.877   2.020   3.574
 9163SOL    HW228389   3.029   2.079   3.567
 9164SOL     OW28390   2.807   0.639   6.694
 9164SOL    HW128391   2.867   0.629   6.615
 9164SOL    HW228392   2.741   0.711   6.676
 9165SOL     OW28393   5.612   0.937   6.622
 9165SOL    HW128394   5.676   0.864   6.649
 9165SOL    HW228395   5.601   1.001   6.698
 9166SOL     OW28396   3.537   5.268   1.090
 9166SOL    HW128397   3.508   5.354   1.047
 9166SOL    HW228398   3.582   5.210   1.023
 9167SOL     OW28399   1.517   3.787   5.821
 9167SOL    HW128400   1.465   3.736   5.754
 9167SOL    HW228401   1.614   3.766   5.811
 9168SOL     OW28402   2.337   0.149   5.690
 9168SOL    HW128403   2.311   0.211   5.616
 9168SOL    HW228404   2.331   0.197   5.777
 9169SOL     OW28405   0.587   0.878   4.025
 9169SOL    HW128406   0.511   0.927   3.982
 9169SOL    HW228407   0.621   0.931   4.103
 9170SOL     OW28408   6.888   5.228   0.451
 9170SOL    HW128409   6.851   5.263   0.365
 9170SOL    HW228410   6.827   5.251   0.526
 9171SOL     OW28411   2.920   5.703   6.897
 9171SOL    HW128412   2.881   5.624   6.850
 9171SOL    HW228413   2.858   5.781   6.888
 9172SOL     OW28414   3.515   1.137   4.455
 9172SOL    HW128415   3.530   1.211   4.389
 9172SOL    HW228416   3.490   1.176   4.543
 9173SOL     OW28417   6.593   4.716   5.123
 9173SOL    HW128418   6.582   4.618   5.140
 9173SOL    HW228419   6.629   4.729   5.030
 9174SOL     OW28420   0.131   4.864   6.852
 9174SOL    HW128421   0.072   4.902   6.781
 9174SOL    HW228422   0.110   4.767   6.864
 9175SOL     OW28423   2.146   5.849   6.034
 9175SOL    HW128424   2.054   5.885   6.017
 9175SOL    HW228425   2.199   5.848   5.949
 9176SOL     OW28426   2.130   0.788   5.612
 9176SOL    HW128427   2.046   0.742   5.640
 9176SOL    HW228428   2.118   0.828   5.522
 9177SOL     OW28429   1.423   4.197   4.078
 9177SOL    HW128430   1.514   4.232   4.055
 9177SOL    HW228431   1.354   4.259   4.040
 9178SOL     OW28432   2.428   5.305   0.727
 9178SOL    HW128433   2.333   5.330   0.706
 9178SOL    HW228434   2.452   5.222   0.676
 9179SOL     OW28435   3.230   5.086   3.891
 9179SOL    HW128436   3.196   5.105   3.799
 9179SOL    HW228437   3.300   5.014   3.887
 9180SOL     OW28438   5.795   2.199   3.747
 9180SOL    HW128439   5.883   2.157   3.724
 9180SOL    HW228440   5.796   2.227   3.843
 9181SOL     OW28441   4.322   2.007   2.301
 9181SOL    HW128442   4.304   2.081   2.237
 9181SOL    HW228443   4.248   2.003   2.369
 9182SOL     OW28444   1.254   6.362   2.246
 9182SOL    HW128445   1.320   6.411   2.302
 9182SOL    HW228446   1.296   6.277   2.213
 9183SOL     OW28447   4.943   6.096   0.931
 9183SOL    HW128448   4.980   6.089   1.024
 9183SOL    HW228449   4.903   6.008   0.905
 9184SOL     OW28450   5.029   0.104   0.957
 9184SOL    HW128451   5.125   0.109   0.983
 9184SOL    HW228452   4.998   0.194   0.925
 9185SOL     OW28453   3.562   0.855   5.185
 9185SOL    HW128454   3.464   0.858   5.167
 9185SOL    HW228455   3.601   0.774   5.141
 9186SOL     OW28456   6.134   1.230   5.345
 9186SOL    HW128457   6.186   1.205   5.426
 9186SOL    HW228458   6.136   1.155   5.279
 9187SOL     OW28459   2.317   6.339   2.189
 9187SOL    HW128460   2.294   6.436   2.198
 9187SOL    HW228461   2.271   6.287   2.261
 9188SOL     OW28462   3.235   6.804   0.900
 9188SOL    HW128463   3.273   6.754   0.977
 9188SOL    HW228464   3.171   6.745   0.850
 9189SOL     OW28465   5.352   5.579   2.973
 9189SOL    HW128466   5.381   5.566   2.878
 9189SOL    HW228467   5.360   5.676   2.996
 9190SOL     OW28468   1.862   5.667   0.617
 9190SOL    HW128469   1.855   5.579   0.570
 9190SOL    HW228470   1.889   5.652   0.712
 9191SOL     OW28471   6.410   0.447   5.745
 9191SOL    HW128472   6.474   0.505   5.795
 9191SOL    HW228473   6.409   0.356   5.786
 9192SOL     OW28474   0.672   3.968   4.130
 9192SOL    HW128475   0.605   3.946   4.060
 9192SOL    HW228476   0.641   3.933   4.218
 9193SOL     OW28477   3.344   3.291   6.542
 9193SOL    HW128478   3.265   3.266   6.487
 9193SOL    HW228479   3.319   3.363   6.607
 9194SOL     OW28480   3.055   0.704   3.541
 9194SOL    HW128481   3.096   0.763   3.610
 9194SOL    HW228482   2.984   0.648   3.584
 9195SOL     OW28483   2.169   2.144   4.222
 9195SOL    HW128484   2.085   2.197   4.229
 9195SOL    HW228485   2.245   2.196   4.260
 9196SOL     OW28486   4.920   1.498   5.039
 9196SOL    HW128487   4.918   1.464   4.945
 9196SOL    HW228488   4.911   1.598   5.039
 9197SOL     OW28489   2.341   3.896   1.755
 9197SOL    HW128490   2.325   3.962   1.828
 9197SOL    HW228491   2.431   3.912   1.714
 9198SOL     OW28492   6.319   5.487   5.723
 9198SOL    HW128493   6.274   5.537   5.648
 9198SOL    HW228494   6.251   5.440   5.778
 9199SOL     OW28495   7.014   4.309   5.140
 9199SOL    HW128496   0.081   4.267   5.114
 9199SOL    HW228497   6.952   4.239   5.175
 9200SOL     OW28498   3.284   0.608   0.683
 9200SOL    HW128499   3.209   0.674   0.675
 9200SOL    HW228500   3.287   0.573   0.777
 9201SOL     OW28501   1.501   3.895   6.994
 9201SOL    HW128502   1.596   3.862   6.991
 9201SOL    HW228503   1.440   3.823   6.962
 9202SOL     OW28504   1.643   6.606   3.398
 9202SOL    HW128505   1.657   6.546   3.320
 9202SOL    HW228506   1.674   6.698   3.376
 9203SOL     OW28507   6.983   5.343   0.794
 9203SOL    HW128508   6.994   5.413   0.724
 9203SOL    HW228509   6.894   5.354   0.839
 9204SOL     OW28510   4.935   1.300   6.251
 9204SOL    HW128511   5.000   1.289   6.176
 9204SOL    HW228512   4.888   1.387   6.241
 9205SOL     OW28513   6.935   3.919   2.837
 9205SOL    HW128514   6.940   3.850   2.908
 9205SOL    HW228515   6.852   3.974   2.849
 9206SOL     OW28516   4.078   5.963   0.457
 9206SOL    HW128517   4.053   5.971   0.360
 9206SOL    HW228518   4.160   6.016   0.476
 9207SOL     OW28519   4.791   5.675   0.293
 9207SOL    HW128520   4.879   5.664   0.338
 9207SOL    HW228521   4.771   5.594   0.238
 9208SOL     OW28522   0.241   3.807   4.652
 9208SOL    HW128523   0.165   3.836   4.710
 9208SOL    HW228524   0.236   3.708   4.637
 9209SOL     OW28525   2.787   1.378   6.560
 9209SOL    HW128526   2.784   1.445   6.634
 9209SOL    HW228527   2.726   1.408   6.486
 9210SOL     OW28528   6.678   1.324   2.964
 9210SOL    HW128529   6.707   1.267   3.040
 9210SOL    HW228530   6.610   1.275   2.910
 9211SOL     OW28531   0.244   1.916   3.790
 9211SOL    HW128532   0.196   1.873   3.866
 9211SOL    HW228533   0.267   2.011   3.815
 9212SOL     OW28534   2.923   5.247   4.906
 9212SOL    HW128535   2.911   5.265   4.808
 9212SOL    HW228536   2.924   5.334   4.956
 9213SOL     OW28537   5.945   3.597   5.814
 9213SOL    HW128538   6.036   3.576   5.779
 9213SOL    HW228539   5.884   3.520   5.797
 9214SOL     OW28540   0.275   5.842   0.554
 9214SOL    HW128541   0.361   5.813   0.512
 9214SOL    HW228542   0.293   5.889   0.640
 9215SOL     OW28543   1.218   0.687   0.156
 9215SOL    HW128544   1.139   0.724   0.205
 9215SOL    HW228545   1.299   0.741   0.178
 9216SOL     OW28546   2.430   6.892   2.674
 9216SOL    HW128547   2.393   6.821   2.734
 9216SOL    HW228548   2.372   6.901   2.593
 9217SOL     OW28549   0.224   2.002   6.547
 9217SOL    HW128550   0.185   1.963   6.463
 9217SOL    HW228551   0.287   1.936   6.587
 9218SOL     OW28552   3.359   0.171   0.686
 9218SOL    HW128553   3.434   0.115   0.650
 9218SOL    HW228554   3.351   0.156   0.785
 9219SOL     OW28555   1.157   2.576   0.954
 9219SOL    HW128556   1.211   2.574   0.870
 9219SOL    HW228557   1.134   2.670   0.976
 9220SOL     OW28558   3.710   6.639   1.305
 9220SOL    HW128559   3.712   6.651   1.404
 9220SOL    HW228560   3.671   6.550   1.283
 9221SOL     OW28561   2.870   6.295   3.794
 9221SOL    HW128562   2.867   6.394   3.809
 9221SOL    HW228563   2.966   6.266   3.787
 9222SOL     OW28564   2.191   1.287   6.606
 9222SOL    HW128565   2.113   1.336   6.645
 9222SOL    HW228566   2.241   1.349   6.545
 9223SOL     OW28567   1.963   2.724   5.425
 9223SOL    HW128568   1.923   2.751   5.512
 9223SOL    HW228569   2.000   2.804   5.379
 9224SOL     OW28570   2.042   5.482   4.395
 9224SOL    HW128571   2.008   5.403   4.446
 9224SOL    HW228572   2.109   5.451   4.327
 9225SOL     OW28573   3.261   6.272   6.626
 9225SOL    HW128574   3.254   6.307   6.719
 9225SOL    HW228575   3.173   6.235   6.597
 9226SOL     OW28576   5.023   5.998   1.195
 9226SOL    HW128577   4.947   6.041   1.245
 9226SOL    HW228578   5.102   5.990   1.255
 9227SOL     OW28579   1.098   5.601   2.405
 9227SOL    HW128580   1.195   5.582   2.396
 9227SOL    HW228581   1.049   5.516   2.425
 9228SOL     OW28582   1.512   1.034   6.550
 9228SOL    HW128583   1.521   1.092   6.468
 9228SOL    HW228584   1.592   1.046   6.608
 9229SOL     OW28585   1.375   6.017   3.951
 9229SOL    HW128586   1.296   6.067   3.986
 9229SOL    HW228587   1.358   5.919   3.955
 9230SOL     OW28588   5.565   0.243   3.995
 9230SOL    HW128589   5.545   0.315   4.061
 9230SOL    HW228590   5.605   0.164   4.043
 9231SOL     OW28591   1.146   2.391   4.136
 9231SOL    HW128592   1.161   2.484   4.169
 9231SOL    HW228593   1.152   2.326   4.212
 9232SOL     OW28594   3.458   5.528   0.725
 9232SOL    HW128595   3.476   5.621   0.692
 9232SOL    HW228596   3.535   5.469   0.700
 9233SOL     OW28597   5.832   4.816   1.193
 9233SOL    HW128598   5.892   4.896   1.180
 9233SOL    HW228599   5.756   4.842   1.253
 9234SOL     OW28600   2.963   5.326   3.676
 9234SOL    HW128601   3.060   5.339   3.654
 9234SOL    HW228602   2.912   5.410   3.654
 9235SOL     OW28603   0.707   1.863   3.064
 9235SOL    HW128604   0.658   1.776   3.070
 9235SOL    HW228605   0.660   1.923   3.000
 9236SOL     OW28606   3.167   3.630   4.832
 9236SOL    HW128607   3.225   3.660   4.907
 9236SOL    HW228608   3.206   3.547   4.791
 9237SOL     OW28609   1.482   3.937   4.405
 9237SOL    HW128610   1.580   3.924   4.419
 9237SOL    HW228611   1.432   3.888   4.476
 9238SOL     OW28612   4.746   2.907   6.673
 9238SOL    HW128613   4.803   2.914   6.755
 9238SOL    HW228614   4.695   2.821   6.675
 9239SOL     OW28615   1.110   3.728   0.896
 9239SOL    HW128616   1.075   3.758   0.808
 9239SOL    HW228617   1.043   3.668   0.940
 9240SOL     OW28618   4.726   1.692   1.469
 9240SOL    HW128619   4.776   1.769   1.430
 9240SOL    HW228620   4.629   1.703   1.451
 9241SOL     OW28621   6.829   5.375   6.897
 9241SOL    HW128622   6.866   5.284   6.878
 9241SOL    HW228623   6.809   5.422   6.811
 9242SOL     OW28624   6.415   6.104   1.839
 9242SOL    HW128625   6.473   6.086   1.918
 9242SOL    HW228626   6.386   6.199   1.840
 9243SOL     OW28627   6.434   6.205   4.684
 9243SOL    HW128628   6.357   6.146   4.660
 9243SOL    HW228629   6.520   6.160   4.660
 9244SOL     OW28630   4.175   5.245   6.763
 9244SOL    HW128631   4.201   5.164   6.711
 9244SOL    HW228632   4.255   5.278   6.814
 9245SOL     OW28633   0.526   5.742   2.122
 9245SOL    HW128634   0.521   5.751   2.023
 9245SOL    HW228635   0.601   5.679   2.146
 9246SOL     OW28636   6.332   5.111   3.701
 9246SOL    HW128637   6.262   5.143   3.638
 9246SOL    HW228638   6.413   5.081   3.650
 9247SOL     OW28639   0.955   6.523   2.852
 9247SOL    HW128640   0.952   6.503   2.755
 9247SOL    HW228641   0.967   6.438   2.904
 9248SOL     OW28642   2.750   2.333   5.946
 9248SOL    HW128643   2.748   2.357   6.044
 9248SOL    HW228644   2.844   2.325   5.915
 9249SOL     OW28645   4.922   1.150   4.151
 9249SOL    HW128646   4.893   1.093   4.074
 9249SOL    HW228647   5.014   1.184   4.134
 9250SOL     OW28648   4.862   3.711   4.014
 9250SOL    HW128649   4.885   3.668   4.101
 9250SOL    HW228650   4.911   3.798   4.006
 9251SOL     OW28651   3.496   1.664   3.071
 9251SOL    HW128652   3.543   1.749   3.047
 9251SOL    HW228653   3.461   1.670   3.164
 9252SOL     OW28654   0.110   6.771   4.856
 9252SOL    HW128655   0.061   6.695   4.813
 9252SOL    HW228656   0.063   6.798   4.940
 9253SOL     OW28657   2.110   7.000   5.699
 9253SOL    HW128658   2.125   6.977   5.796
 9253SOL    HW228659   2.187   0.036   5.666
 9254SOL     OW28660   5.491   3.768   1.414
 9254SOL    HW128661   5.417   3.703   1.401
 9254SOL    HW228662   5.509   3.817   1.329
 9255SOL     OW28663   5.370   3.646   0.728
 9255SOL    HW128664   5.333   3.599   0.808
 9255SOL    HW228665   5.430   3.585   0.678
 9256SOL     OW28666   4.226   4.646   2.053
 9256SOL    HW128667   4.215   4.603   1.964
 9256SOL    HW228668   4.317   4.686   2.060
 9257SOL     OW28669   1.010   4.205   2.168
 9257SOL    HW128670   0.918   4.222   2.203
 9257SOL    HW228671   1.015   4.112   2.131
 9258SOL     OW28672   3.424   2.983   3.943
 9258SOL    HW128673   3.466   2.921   3.876
 9258SOL    HW228674   3.419   3.075   3.904
 9259SOL     OW28675   0.837   2.051   1.860
 9259SOL    HW128676   0.828   2.145   1.828
 9259SOL    HW228677   0.799   1.989   1.791
 9260SOL     OW28678   5.030   3.141   6.202
 9260SOL    HW128679   4.979   3.123   6.286
 9260SOL    HW228680   5.127   3.152   6.223
 9261SOL     OW28681   4.047   0.297   6.809
 9261SOL    HW128682   4.033   0.260   6.900
 9261SOL    HW228683   4.015   0.391   6.805
 9262SOL     OW28684   5.343   1.139   5.096
 9262SOL    HW128685   5.293   1.225   5.102
 9262SOL    HW228686   5.358   1.116   5.000
 9263SOL     OW28687   5.392   3.800   1.064
 9263SOL    HW128688   5.357   3.736   1.132
 9263SOL    HW228689   5.480   3.836   1.094
 9264SOL     OW28690   6.214   3.599   6.253
 9264SOL    HW128691   6.212   3.581   6.154
 9264SOL    HW228692   6.136   3.657   6.277
 9265SOL     OW28693   2.692   1.729   0.521
 9265SOL    HW128694   2.753   1.650   0.528
 9265SOL    HW228695   2.625   1.726   0.594
 9266SOL     OW28696   2.350   6.404   2.675
 9266SOL    HW128697   2.313   6.319   2.639
 9266SOL    HW228698   2.410   6.446   2.606
 9267SOL     OW28699   0.891   4.168   4.594
 9267SOL    HW128700   0.989   4.175   4.577
 9267SOL    HW228701   0.841   4.214   4.521
 9268SOL     OW28702   0.365   6.638   2.787
 9268SOL    HW128703   0.272   6.627   2.751
 9268SOL    HW228704   0.370   6.597   2.878
 9269SOL     OW28705   3.286   1.983   6.817
 9269SOL    HW128706   3.330   1.933   6.742
 9269SOL    HW228707   3.253   1.918   6.885
 9270SOL     OW28708   6.708   6.670   6.325
 9270SOL    HW128709   6.755   6.718   6.251
 9270SOL    HW228710   6.754   6.690   6.412
 9271SOL     OW28711   1.675   6.448   1.002
 9271SOL    HW128712   1.584   6.489   1.004
 9271SOL    HW228713   1.730   6.484   1.078
 9272SOL     OW28714   2.542   4.300   6.471
 9272SOL    HW128715   2.480   4.319   6.394
 9272SOL    HW228716   2.602   4.224   6.447
 9273SOL     OW28717   4.265   4.972   4.156
 9273SOL    HW128718   4.185   4.923   4.120
 9273SOL    HW228719   4.336   4.906   4.180
 9274SOL     OW28720   5.353   2.352   6.302
 9274SOL    HW128721   5.325   2.386   6.392
 9274SOL    HW228722   5.419   2.415   6.262
 9275SOL     OW28723   0.995   0.572   6.266
 9275SOL    HW128724   0.954   0.483   6.246
 9275SOL    HW228725   1.000   0.586   6.365
 9276SOL     OW28726   3.845   6.006   4.673
 9276SOL    HW128727   3.756   5.994   4.629
 9276SOL    HW228728   3.833   6.050   4.762
 9277SOL     OW28729   3.576   3.222   6.652
 9277SOL    HW128730   3.587   3.306   6.705
 9277SOL    HW228731   3.509   3.236   6.579
 9278SOL     OW28732   1.364   2.164   3.794
 9278SOL    HW128733   1.353   2.147   3.696
 9278SOL    HW228734   1.406   2.254   3.807
 9279SOL     OW28735   3.033   0.499   2.405
 9279SOL    HW128736   2.989   0.421   2.450
 9279SOL    HW228737   3.126   0.509   2.438
 9280SOL     OW28738   1.503   0.049   3.681
 9280SOL    HW128739   1.443   7.009   3.734
 9280SOL    HW228740   1.580   0.077   3.738
 9281SOL     OW28741   1.944   2.593   1.115
 9281SOL    HW128742   2.000   2.559   1.039
 9281SOL    HW228743   1.986   2.568   1.202
 9282SOL     OW28744   4.128   1.315   4.386
 9282SOL    HW128745   4.088   1.326   4.295
 9282SOL    HW228746   4.195   1.241   4.384
 9283SOL     OW28747   6.074   2.511   2.492
 9283SOL    HW128748   6.020   2.559   2.561
 9283SOL    HW228749   6.168   2.501   2.525
 9284SOL     OW28750   3.808   3.888   1.008
 9284SOL    HW128751   3.743   3.939   0.952
 9284SOL    HW228752   3.787   3.902   1.105
 9285SOL     OW28753   6.928   2.637   6.760
 9285SOL    HW128754   6.986   2.697   6.815
 9285SOL    HW228755   6.832   2.653   6.783
 9286SOL     OW28756   5.400   0.049   5.255
 9286SOL    HW128757   5.411   0.126   5.193
 9286SOL    HW228758   5.344   0.077   5.333
 9287SOL     OW28759   2.769   6.004   1.265
 9287SOL    HW128760   2.772   5.914   1.222
 9287SOL    HW228761   2.832   6.007   1.342
 9288SOL     OW28762   4.045   1.805   5.734
 9288SOL    HW128763   4.019   1.890   5.689
 9288SOL    HW228764   3.979   1.783   5.806
 9289SOL     OW28765   4.793   2.118   2.522
 9289SOL    HW128766   4.695   2.111   2.543
 9289SOL    HW228767   4.805   2.154   2.430
 9290SOL     OW28768   4.470   1.855   4.857
 9290SOL    HW128769   4.541   1.886   4.920
 9290SOL    HW228770   4.381   1.855   4.903
 9291SOL     OW28771   1.518   0.492   5.007
 9291SOL    HW128772   1.488   0.397   5.010
 9291SOL    HW228773   1.612   0.497   4.974
 9292SOL     OW28774   0.196   3.308   6.062
 9292SOL    HW128775   0.243   3.363   5.992
 9292SOL    HW228776   0.182   3.215   6.028
 9293SOL     OW28777   5.069   4.348   0.319
 9293SOL    HW128778   4.977   4.386   0.317
 9293SOL    HW228779   5.076   4.283   0.395
 9294SOL     OW28780   5.386   5.826   0.252
 9294SOL    HW128781   5.477   5.863   0.274
 9294SOL    HW228782   5.344   5.790   0.335
 9295SOL     OW28783   4.355   1.534   3.188
 9295SOL    HW128784   4.400   1.445   3.178
 9295SOL    HW228785   4.310   1.557   3.101
 9296SOL     OW28786   6.280   6.289   5.859
 9296SOL    HW128787   6.241   6.200   5.880
 9296SOL    HW228788   6.227   6.332   5.786
 9297SOL     OW28789   0.567   0.578   1.081
 9297SOL    HW128790   0.487   0.595   1.139
 9297SOL    HW228791   0.543   0.516   1.008
 9298SOL     OW28792   1.806   6.143   5.660
 9298SOL    HW128793   1.751   6.089   5.724
 9298SOL    HW228794   1.777   6.239   5.664
 9299SOL     OW28795   1.198   3.548   4.171
 9299SOL    HW128796   1.296   3.557   4.191
 9299SOL    HW228797   1.178   3.453   4.146
 9300SOL     OW28798   5.556   4.690   4.619
 9300SOL    HW128799   5.555   4.634   4.536
 9300SOL    HW228800   5.646   4.732   4.630
 9301SOL     OW28801   5.038   4.357   2.685
 9301SOL    HW128802   4.971   4.330   2.754
 9301SOL    HW228803   5.003   4.333   2.594
 9302SOL     OW28804   2.581   2.433   3.382
 9302SOL    HW128805   2.523   2.379   3.443
 9302SOL    HW228806   2.523   2.483   3.318
 9303SOL     OW28807   3.884   6.209   0.112
 9303SOL    HW128808   3.824   6.239   0.037
 9303SOL    HW228809   3.873   6.271   0.190
 9304SOL     OW28810   3.280   3.737   0.791
 9304SOL    HW128811   3.339   3.775   0.862
 9304SOL    HW228812   3.286   3.794   0.709
 9305SOL     OW28813   6.237   2.468   1.934
 9305SOL    HW128814   6.217   2.372   1.952
 9305SOL    HW228815   6.289   2.477   1.849
 9306SOL     OW28816   0.043   4.851   3.845
 9306SOL    HW128817   0.129   4.864   3.796
 9306SOL    HW228818   0.057   4.869   3.943
 9307SOL     OW28819   1.581   2.233   0.772
 9307SOL    HW128820   1.607   2.325   0.745
 9307SOL    HW228821   1.554   2.181   0.691
 9308SOL     OW28822   0.507   3.088   0.920
 9308SOL    HW128823   0.452   3.088   1.004
 9308SOL    HW228824   0.491   3.174   0.870
 9309SOL     OW28825   4.359   3.882   5.680
 9309SOL    HW128826   4.391   3.896   5.774
 9309SOL    HW228827   4.301   3.958   5.653
 9310SOL     OW28828   4.142   6.217   6.364
 9310SOL    HW128829   4.061   6.274   6.378
 9310SOL    HW228830   4.224   6.270   6.382
 9311SOL     OW28831   5.714   3.860   0.566
 9311SOL    HW128832   5.737   3.957   0.558
 9311SOL    HW228833   5.650   3.847   0.641
 9312SOL     OW28834   1.578   4.308   6.629
 9312SOL    HW128835   1.541   4.400   6.644
 9312SOL    HW228836   1.566   4.253   6.712
 9313SOL     OW28837   0.259   0.025   2.528
 9313SOL    HW128838   0.197   6.967   2.517
 9313SOL    HW228839   0.349   7.020   2.492
 9314SOL     OW28840   4.470   5.640   6.984
 9314SOL    HW128841   4.404   5.584   6.933
 9314SOL    HW228842   4.525   5.693   6.920
 9315SOL     OW28843   0.077   0.524   5.792
 9315SOL    HW128844   0.177   0.525   5.798
 9315SOL    HW228845   0.038   0.550   5.880
 9316SOL     OW28846   3.703   5.864   3.796
 9316SOL    HW128847   3.747   5.790   3.745
 9316SOL    HW228848   3.736   5.864   3.890
 9317SOL     OW28849   6.490   4.991   3.258
 9317SOL    HW128850   6.485   4.902   3.213
 9317SOL    HW228851   6.402   5.037   3.249
 9318SOL     OW28852   7.015   0.821   6.712
 9318SOL    HW128853   0.045   0.799   6.796
 9318SOL    HW228854   7.006   0.920   6.704
 9319SOL     OW28855   1.024   3.058   6.777
 9319SOL    HW128856   0.956   3.105   6.721
 9319SOL    HW228857   1.052   3.118   6.852
 9320SOL     OW28858   4.470   2.566   5.874
 9320SOL    HW128859   4.444   2.472   5.893
 9320SOL    HW228860   4.399   2.610   5.819
 9321SOL     OW28861   6.370   6.150   2.918
 9321SOL    HW128862   6.329   6.235   2.952
 9321SOL    HW228863   6.439   6.171   2.849
 9322SOL     OW28864   0.587   6.237   5.764
 9322SOL    HW128865   0.526   6.212   5.839
 9322SOL    HW228866   0.664   6.290   5.799
 9323SOL     OW28867   0.558   1.378   6.572
 9323SOL    HW128868   0.528   1.339   6.659
 9323SOL    HW228869   0.657   1.366   6.563
 9324SOL     OW28870   1.311   5.460   0.423
 9324SOL    HW128871   1.390   5.519   0.434
 9324SOL    HW228872   1.311   5.390   0.495
 9325SOL     OW28873   5.578   1.927   1.032
 9325SOL    HW128874   5.674   1.946   1.051
 9325SOL    HW228875   5.569   1.836   0.990
 9326SOL     OW28876   1.558   0.053   1.109
 9326SOL    HW128877   1.614   0.052   1.026
 9326SOL    HW228878   1.502   6.990   1.112
 9327SOL     OW28879   4.793   0.055   2.681
 9327SOL    HW128880   4.797   0.154   2.667
 9327SOL    HW228881   4.869   0.011   2.634
 9328SOL     OW28882   3.502   1.560   0.325
 9328SOL    HW128883   3.551   1.637   0.365
 9328SOL    HW228884   3.519   1.558   0.226
 9329SOL     OW28885   0.602   3.855   2.710
 9329SOL    HW128886   0.662   3.935   2.701
 9329SOL    HW228887   0.621   3.809   2.796
 9330SOL     OW28888   6.093   0.163   0.929
 9330SOL    HW128889   6.126   0.149   0.836
 9330SOL    HW228890   6.170   0.174   0.991
 9331SOL     OW28891   0.385   0.645   6.907
 9331SOL    HW128892   0.392   0.546   6.894
 9331SOL    HW228893   0.476   0.683   6.924
 9332SOL     OW28894   3.038   3.677   4.299
 9332SOL    HW128895   3.124   3.724   4.315
 9332SOL    HW228896   3.025   3.605   4.368
 9333SOL     OW28897   6.393   4.511   1.059
 9333SOL    HW128898   6.387   4.570   0.978
 9333SOL    HW228899   6.309   4.519   1.113
 9334SOL     OW28900   2.575   0.237   4.210
 9334SOL    HW128901   2.622   0.293   4.143
 9334SOL    HW228902   2.489   0.203   4.172
 9335SOL     OW28903   1.701   0.941   6.896
 9335SOL    HW128904   1.737   1.024   6.854
 9335SOL    HW228905   1.626   0.905   6.840
 9336SOL     OW28906   2.939   6.403   5.898
 9336SOL    HW128907   2.882   6.476   5.861
 9336SOL    HW228908   3.035   6.421   5.874
 9337SOL     OW28909   4.811   0.614   2.194
 9337SOL    HW128910   4.805   0.636   2.292
 9337SOL    HW228911   4.877   0.539   2.181
 9338SOL     OW28912   3.561   0.443   2.995
 9338SOL    HW128913   3.556   0.395   3.083
 9338SOL    HW228914   3.649   0.426   2.952
 9339SOL     OW28915   4.824   6.205   1.249
 9339SOL    HW128916   4.794   6.224   1.343
 9339SOL    HW228917   4.743   6.192   1.191
 9340SOL     OW28918   6.260   3.552   5.987
 9340SOL    HW128919   6.277   3.590   5.896
 9340SOL    HW228920   6.223   3.460   5.979
 9341SOL     OW28921   0.669   5.532   6.595
 9341SOL    HW128922   0.625   5.481   6.669
 9341SOL    HW228923   0.626   5.508   6.508
 9342SOL     OW28924   1.257   0.044   5.886
 9342SOL    HW128925   1.208   7.002   5.947
 9342SOL    HW228926   1.216   0.041   5.795
 9343SOL     OW28927   6.232   5.563   5.094
 9343SOL    HW128928   6.253   5.656   5.066
 9343SOL    HW228929   6.143   5.561   5.140
 9344SOL     OW28930   5.293   6.799   1.348
 9344SOL    HW128931   5.259   6.706   1.341
 9344SOL    HW228932   5.218   6.860   1.373
 9345SOL     OW28933   6.975   2.732   0.757
 9345SOL    HW128934   0.026   2.662   0.765
 9345SOL    HW228935   6.951   2.767   0.848
 9346SOL     OW28936   6.119   0.377   1.287
 9346SOL    HW128937   6.204   0.427   1.300
 9346SOL    HW228938   6.057   0.430   1.229
 9347SOL     OW28939   1.780   6.666   1.515
 9347SOL    HW128940   1.859   6.608   1.533
 9347SOL    HW228941   1.788   6.705   1.423
 9348SOL     OW28942   3.164   5.056   0.105
 9348SOL    HW128943   3.140   5.140   0.056
 9348SOL    HW228944   3.255   5.066   0.146
 9349SOL     OW28945   1.219   6.644   2.904
 9349SOL    HW128946   1.122   6.622   2.899
 9349SOL    HW228947   1.267   6.605   2.826
 9350SOL     OW28948   0.442   2.606   5.642
 9350SOL    HW128949   0.480   2.688   5.685
 9350SOL    HW228950   0.366   2.572   5.697
 9351SOL     OW28951   3.945   2.196   6.906
 9351SOL    HW128952   4.043   2.188   6.925
 9351SOL    HW228953   3.897   2.225   6.989
 9352SOL     OW28954   2.595   4.538   6.572
 9352SOL    HW128955   2.594   4.446   6.533
 9352SOL    HW228956   2.565   4.604   6.503
 9353SOL     OW28957   6.609   6.603   1.513
 9353SOL    HW128958   6.692   6.548   1.518
 9353SOL    HW228959   6.538   6.553   1.464
 9354SOL     OW28960   6.249   2.777   6.716
 9354SOL    HW128961   6.299   2.791   6.631
 9354SOL    HW228962   6.313   2.778   6.793
 9355SOL     OW28963   0.565   1.885   5.119
 9355SOL    HW128964   0.540   1.934   5.035
 9355SOL    HW228965   0.657   1.849   5.110
 9356SOL     OW28966   4.421   6.808   1.968
 9356SOL    HW128967   4.415   6.756   1.883
 9356SOL    HW228968   4.489   6.766   2.028
 9357SOL     OW28969   0.740   2.001   6.992
 9357SOL    HW128970   0.838   1.993   7.011
 9357SOL    HW228971   0.719   1.954   6.906
 9358SOL     OW28972   1.590   3.389   2.506
 9358SOL    HW128973   1.577   3.477   2.459
 9358SOL    HW228974   1.684   3.357   2.490
 9359SOL     OW28975   1.666   6.860   6.483
 9359SOL    HW128976   1.669   6.950   6.528
 9359SOL    HW228977   1.571   6.831   6.474
 9360SOL     OW28978   0.774   0.774   6.299
 9360SOL    HW128979   0.833   0.707   6.342
 9360SOL    HW228980   0.821   0.862   6.294
 9361SOL     OW28981   1.942   5.984   4.612
 9361SOL    HW128982   1.981   5.992   4.520
 9361SOL    HW228983   1.898   6.070   4.637
 9362SOL     OW28984   1.776   0.327   2.259
 9362SOL    HW128985   1.811   0.418   2.239
 9362SOL    HW228986   1.760   0.279   2.172
 9363SOL     OW28987   3.033   5.156   2.752
 9363SOL    HW128988   2.996   5.103   2.828
 9363SOL    HW228989   3.129   5.132   2.738
 9364SOL     OW28990   1.232   2.420   1.167
 9364SOL    HW128991   1.194   2.452   1.254
 9364SOL    HW228992   1.206   2.483   1.094
 9365SOL     OW28993   3.125   2.069   4.939
 9365SOL    HW128994   3.126   2.158   4.985
 9365SOL    HW228995   3.048   2.065   4.876
 9366SOL     OW28996   3.706   5.906   0.396
 9366SOL    HW128997   3.781   5.889   0.460
 9366SOL    HW228998   3.638   5.834   0.405
 9367SOL     OW28999   6.331   0.891   1.413
 9367SOL    HW129000   6.365   0.818   1.354
 9367SOL    HW229001   6.378   0.887   1.501
 9368SOL     OW29002   3.505   0.621   2.624
 9368SOL    HW129003   3.437   0.653   2.558
 9368SOL    HW229004   3.593   0.663   2.603
 9369SOL     OW29005   2.322   5.224   6.663
 9369SOL    HW129006   2.419   5.214   6.642
 9369SOL    HW229007   2.276   5.136   6.652
 9370SOL     OW29008   4.414   1.915   4.058
 9370SOL    HW129009   4.446   1.821   4.044
 9370SOL    HW229010   4.445   1.948   4.147
 9371SOL     OW29011   4.517   5.397   1.437
 9371SOL    HW129012   4.499   5.495   1.421
 9371SOL    HW229013   4.507   5.348   1.350
 9372SOL     OW29014   4.975   6.492   1.459
 9372SOL    HW129015   4.904   6.556   1.431
 9372SOL    HW229016   4.938   6.399   1.461
 9373SOL     OW29017   6.631   1.678   0.463
 9373SOL    HW129018   6.712   1.650   0.514
 9373SOL    HW229019   6.557   1.699   0.527
 9374SOL     OW29020   0.306   5.526   5.842
 9374SOL    HW129021   0.240   5.481   5.782
 9374SOL    HW229022   0.275   5.519   5.937
 9375SOL     OW29023   0.154   0.784   6.934
 9375SOL    HW129024   0.231   0.721   6.931
 9375SOL    HW229025   0.188   0.878   6.927
 9376SOL     OW29026   2.088   4.086   1.805
 9376SOL    HW129027   1.998   4.060   1.840
 9376SOL    HW229028   2.158   4.065   1.874
 9377SOL     OW29029   2.360   0.058   3.511
 9377SOL    HW129030   2.337   7.014   3.437
 9377SOL    HW229031   2.276   0.095   3.550
 9378SOL     OW29032   3.055   0.462   4.186
 9378SOL    HW129033   3.025   0.450   4.091
 9378SOL    HW229034   3.155   0.457   4.190
 9379SOL     OW29035   4.076   6.229   5.129
 9379SOL    HW129036   4.079   6.243   5.228
 9379SOL    HW229037   4.024   6.146   5.108
 9380SOL     OW29038   5.094   5.705   0.140
 9380SOL    HW129039   5.099   5.700   0.240
 9380SOL    HW229040   5.185   5.688   0.102
 9381SOL     OW29041   5.506   1.581   4.673
 9381SOL    HW129042   5.533   1.545   4.584
 9381SOL    HW229043   5.461   1.669   4.661
 9382SOL     OW29044   3.009   0.024   4.611
 9382SOL    HW129045   3.059   0.054   4.530
 9382SOL    HW229046   2.931   6.987   4.583
 9383SOL     OW29047   5.410   4.001   3.128
 9383SOL    HW129048   5.315   3.976   3.110
 9383SOL    HW229049   5.419   4.037   3.221
 9384SOL     OW29050   2.393   0.217   2.183
 9384SOL    HW129051   2.341   0.280   2.125
 9384SOL    HW229052   2.330   0.166   2.241
 9385SOL     OW29053   3.844   1.544   3.190
 9385SOL    HW129054   3.830   1.608   3.114
 9385SOL    HW229055   3.785   1.465   3.178
 9386SOL     OW29056   4.704   6.251   6.340
 9386SOL    HW129057   4.726   6.192   6.418
 9386SOL    HW229058   4.676   6.342   6.374
 9387SOL     OW29059   2.401   2.121   0.425
 9387SOL    HW129060   2.396   2.220   0.437
 9387SOL    HW229061   2.486   2.098   0.378
 9388SOL     OW29062   2.412   6.682   4.871
 9388SOL    HW129063   2.337   6.748   4.866
 9388SOL    HW229064   2.434   6.650   4.779
 9389SOL     OW29065   2.591   4.557   1.845
 9389SOL    HW129066   2.503   4.593   1.815
 9389SOL    HW229067   2.665   4.604   1.796
 9390SOL     OW29068   5.243   5.205   4.857
 9390SOL    HW129069   5.186   5.165   4.928
 9390SOL    HW229070   5.243   5.305   4.868
 9391SOL     OW29071   1.585   5.482   4.481
 9391SOL    HW129072   1.596   5.429   4.397
 9391SOL    HW229073   1.658   5.459   4.545
 9392SOL     OW29074   5.390   3.698   2.783
 9392SOL    HW129075   5.473   3.686   2.727
 9392SOL    HW229076   5.353   3.789   2.767
 9393SOL     OW29077   2.869   0.273   6.235
 9393SOL    HW129078   2.848   0.231   6.147
 9393SOL    HW229079   2.957   0.320   6.229
 9394SOL     OW29080   3.886   0.410   0.226
 9394SOL    HW129081   3.956   0.375   0.163
 9394SOL    HW229082   3.901   0.508   0.240
 9395SOL     OW29083   1.575   1.490   1.203
 9395SOL    HW129084   1.618   1.427   1.268
 9395SOL    HW229085   1.645   1.526   1.141
 9396SOL     OW29086   0.772   6.558   6.597
 9396SOL    HW129087   0.856   6.512   6.626
 9396SOL    HW229088   0.694   6.518   6.646
 9397SOL     OW29089   3.506   0.970   5.662
 9397SOL    HW129090   3.429   0.942   5.720
 9397SOL    HW229091   3.573   1.019   5.717
 9398SOL     OW29092   0.707   1.470   0.429
 9398SOL    HW129093   0.719   1.554   0.482
 9398SOL    HW229094   0.791   1.415   0.435
 9399SOL     OW29095   1.936   2.980   4.103
 9399SOL    HW129096   1.934   2.949   4.008
 9399SOL    HW229097   2.001   2.923   4.154
 9400SOL     OW29098   5.409   1.529   0.692
 9400SOL    HW129099   5.332   1.592   0.678
 9400SOL    HW229100   5.443   1.498   0.604
 9401SOL     OW29101   6.928   2.323   3.389
 9401SOL    HW129102   6.979   2.404   3.418
 9401SOL    HW229103   6.919   2.261   3.467
 9402SOL     OW29104   1.749   6.375   4.257
 9402SOL    HW129105   1.835   6.331   4.235
 9402SOL    HW229106   1.714   6.339   4.343
 9403SOL     OW29107   6.166   2.818   2.285
 9403SOL    HW129108   6.165   2.721   2.264
 9403SOL    HW229109   6.074   2.856   2.270
 9404SOL     OW29110   1.971   3.090   0.748
 9404SOL    HW129111   2.065   3.095   0.780
 9404SOL    HW229112   1.942   2.994   0.744
 9405SOL     OW29113   0.239   5.651   5.529
 9405SOL    HW129114   0.204   5.683   5.617
 9405SOL    HW229115   0.333   5.683   5.516
 9406SOL     OW29116   0.282   2.984   0.307
 9406SOL    HW129117   0.218   2.990   0.384
 9406SOL    HW229118   0.355   2.919   0.330
 9407SOL     OW29119   1.107   5.478   5.585
 9407SOL    HW129120   1.066   5.557   5.540
 9407SOL    HW229121   1.198   5.502   5.619
 9408SOL     OW29122   0.635   3.889   4.386
 9408SOL    HW129123   0.735   3.883   4.380
 9408SOL    HW229124   0.606   3.862   4.477
 9409SOL     OW29125   6.471   5.308   2.475
 9409SOL    HW129126   6.555   5.282   2.522
 9409SOL    HW229127   6.406   5.232   2.477
 9410SOL     OW29128   3.417   0.925   0.799
 9410SOL    HW129129   3.319   0.904   0.800
 9410SOL    HW229130   3.437   0.986   0.723
 9411SOL     OW29131   2.961   3.214   3.323
 9411SOL    HW129132   3.018   3.215   3.405
 9411SOL    HW229133   2.968   3.302   3.277
 9412SOL     OW29134   5.871   6.493   0.780
 9412SOL    HW129135   5.934   6.416   0.785
 9412SOL    HW229136   5.804   6.487   0.854
 9413SOL     OW29137   5.023   3.878   2.807
 9413SOL    HW129138   4.987   3.791   2.774
 9413SOL    HW229139   4.967   3.953   2.774
 9414SOL     OW29140   1.754   1.911   3.363
 9414SOL    HW129141   1.829   1.871   3.415
 9414SOL    HW229142   1.689   1.953   3.426
 9415SOL     OW29143   3.831   1.152   2.244
 9415SOL    HW129144   3.809   1.200   2.329
 9415SOL    HW229145   3.825   1.217   2.168
 9416SOL     OW29146   5.381   5.103   5.848
 9416SOL    HW129147   5.430   5.139   5.769
 9416SOL    HW229148   5.306   5.164   5.872
 9417SOL     OW29149   3.615   5.314   2.162
 9417SOL    HW129150   3.538   5.378   2.161
 9417SOL    HW229151   3.596   5.238   2.101
 9418SOL     OW29152   3.521   1.728   5.331
 9418SOL    HW129153   3.619   1.735   5.313
 9418SOL    HW229154   3.476   1.681   5.255
 9419SOL     OW29155   1.934   3.065   6.090
 9419SOL    HW129156   1.869   3.121   6.141
 9419SOL    HW229157   2.027   3.095   6.110
 9420SOL     OW29158   6.759   4.086   6.222
 9420SOL    HW129159   6.767   4.153   6.149
 9420SOL    HW229160   6.849   4.067   6.261
 9421SOL     OW29161   3.671   6.341   6.334
 9421SOL    HW129162   3.658   6.245   6.311
 9421SOL    HW229163   3.768   6.359   6.348
 9422SOL     OW29164   2.076   6.262   5.538
 9422SOL    HW129165   1.999   6.228   5.592
 9422SOL    HW229166   2.051   6.347   5.493
 9423SOL     OW29167   4.827   4.537   3.163
 9423SOL    HW129168   4.878   4.457   3.132
 9423SOL    HW229169   4.750   4.508   3.219
 9424SOL     OW29170   6.321   7.007   4.348
 9424SOL    HW129171   6.253   0.033   4.406
 9424SOL    HW229172   6.324   6.909   4.371
 9425SOL     OW29173   6.737   4.909   1.236
 9425SOL    HW129174   6.742   4.902   1.137
 9425SOL    HW229175   6.784   4.831   1.278
 9426SOL     OW29176   0.051   2.203   6.359
 9426SOL    HW129177   0.087   2.112   6.337
 9426SOL    HW229178   0.123   2.271   6.346
 9427SOL     OW29179   4.786   4.469   2.292
 9427SOL    HW129180   4.687   4.464   2.300
 9427SOL    HW229181   4.827   4.389   2.337
 9428SOL     OW29182   0.387   6.360   5.543
 9428SOL    HW129183   0.367   6.447   5.500
 9428SOL    HW229184   0.484   6.355   5.566
 9429SOL     OW29185   2.656   2.444   4.311
 9429SOL    HW129186   2.613   2.497   4.238
 9429SOL    HW229187   2.730   2.389   4.272
 9430SOL     OW29188   1.249   1.995   4.688
 9430SOL    HW129189   1.302   2.058   4.745
 9430SOL    HW229190   1.311   1.941   4.632
 9431SOL     OW29191   1.147   4.812   5.777
 9431SOL    HW129192   1.124   4.715   5.776
 9431SOL    HW229193   1.147   4.847   5.683
 9432SOL     OW29194   6.939   1.397   3.466
 9432SOL    HW129195   0.010   1.363   3.439
 9432SOL    HW229196   6.869   1.343   3.420
 9433SOL     OW29197   4.684   5.491   2.390
 9433SOL    HW129198   4.678   5.589   2.410
 9433SOL    HW229199   4.652   5.474   2.297
 9434SOL     OW29200   4.695   5.449   4.053
 9434SOL    HW129201   4.621   5.462   3.986
 9434SOL    HW229202   4.676   5.368   4.108
 9435SOL     OW29203   0.714   3.520   1.392
 9435SOL    HW129204   0.730   3.558   1.483
 9435SOL    HW229205   0.732   3.590   1.323
 9436SOL     OW29206   1.893   0.335   2.629
 9436SOL    HW129207   1.796   0.332   2.607
 9436SOL    HW229208   1.914   0.422   2.675
 9437SOL     OW29209   5.283   6.781   4.782
 9437SOL    HW129210   5.190   6.748   4.767
 9437SOL    HW229211   5.339   6.761   4.702
 9438SOL     OW29212   4.794   6.904   2.129
 9438SOL    HW129213   4.722   6.970   2.106
 9438SOL    HW229214   4.765   6.850   2.208
 9439SOL     OW29215   1.936   3.443   0.989
 9439SOL    HW129216   1.864   3.510   1.006
 9439SOL    HW229217   1.929   3.368   1.056
 9440SOL     OW29218   2.204   5.403   3.505
 9440SOL    HW129219   2.172   5.497   3.512
 9440SOL    HW229220   2.200   5.374   3.409
 9441SOL     OW29221   0.153   6.844   4.360
 9441SOL    HW129222   0.208   6.897   4.296
 9441SOL    HW229223   0.152   6.890   4.449
 9442SOL     OW29224   5.242   3.047   0.373
 9442SOL    HW129225   5.265   2.950   0.368
 9442SOL    HW229226   5.312   3.100   0.325
 9443SOL     OW29227   2.365   4.300   2.647
 9443SOL    HW129228   2.379   4.304   2.746
 9443SOL    HW229229   2.408   4.379   2.604
 9444SOL     OW29230   1.078   4.256   5.802
 9444SOL    HW129231   1.013   4.289   5.871
 9444SOL    HW229232   1.068   4.310   5.719
 9445SOL     OW29233   0.855   1.133   3.946
 9445SOL    HW129234   0.942   1.179   3.926
 9445SOL    HW229235   0.793   1.144   3.868
 9446SOL     OW29236   6.578   4.483   3.467
 9446SOL    HW129237   6.478   4.490   3.461
 9446SOL    HW229238   6.619   4.568   3.434
 9447SOL     OW29239   4.890   4.174   1.677
 9447SOL    HW129240   4.836   4.258   1.688
 9447SOL    HW229241   4.976   4.183   1.728
 9448SOL     OW29242   6.630   0.799   5.275
 9448SOL    HW129243   6.553   0.862   5.273
 9448SOL    HW229244   6.605   0.714   5.228
 9449SOL     OW29245   5.274   0.681   1.698
 9449SOL    HW129246   5.323   0.688   1.612
 9449SOL    HW229247   5.176   0.671   1.680
 9450SOL     OW29248   0.935   5.872   2.897
 9450SOL    HW129249   1.026   5.897   2.930
 9450SOL    HW229250   0.905   5.789   2.943
 9451SOL     OW29251   3.283   5.137   6.454
 9451SOL    HW129252   3.216   5.096   6.392
 9451SOL    HW229253   3.247   5.136   6.547
 9452SOL     OW29254   6.294   4.135   6.744
 9452SOL    HW129255   6.212   4.167   6.697
 9452SOL    HW229256   6.295   4.035   6.746
 9453SOL     OW29257   5.070   5.163   1.780
 9453SOL    HW129258   5.027   5.075   1.761
 9453SOL    HW229259   5.002   5.226   1.818
 9454SOL     OW29260   5.898   4.381   0.448
 9454SOL    HW129261   5.887   4.340   0.358
 9454SOL    HW229262   5.876   4.478   0.443
 9455SOL     OW29263   3.520   1.294   1.955
 9455SOL    HW129264   3.456   1.351   2.006
 9455SOL    HW229265   3.518   1.321   1.858
 9456SOL     OW29266   0.378   3.284   2.533
 9456SOL    HW129267   0.318   3.231   2.472
 9456SOL    HW229268   0.322   3.343   2.591
 9457SOL     OW29269   6.169   6.527   4.932
 9457SOL    HW129270   6.178   6.627   4.923
 9457SOL    HW229271   6.253   6.484   4.898
 9458SOL     OW29272   6.620   3.850   0.202
 9458SOL    HW129273   6.562   3.894   0.135
 9458SOL    HW229274   6.683   3.788   0.156
 9459SOL     OW29275   4.900   4.888   5.383
 9459SOL    HW129276   4.815   4.856   5.425
 9459SOL    HW229277   4.972   4.820   5.397
 9460SOL     OW29278   1.225   2.706   2.735
 9460SOL    HW129279   1.233   2.619   2.784
 9460SOL    HW229280   1.315   2.751   2.733
 9461SOL     OW29281   1.705   1.923   2.123
 9461SOL    HW129282   1.629   1.885   2.176
 9461SOL    HW229283   1.792   1.891   2.162
 9462SOL     OW29284   0.211   1.160   4.227
 9462SOL    HW129285   0.213   1.215   4.311
 9462SOL    HW229286   0.247   1.068   4.247
 9463SOL     OW29287   5.854   4.495   1.498
 9463SOL    HW129288   5.875   4.505   1.401
 9463SOL    HW229289   5.825   4.401   1.516
 9464SOL     OW29290   1.116   1.199   1.900
 9464SOL    HW129291   1.083   1.192   1.994
 9464SOL    HW229292   1.210   1.234   1.900
 9465SOL     OW29293   0.001   4.667   1.106
 9465SOL    HW129294   0.089   4.685   1.150
 9465SOL    HW229295   6.949   4.662   1.175
 9466SOL     OW29296   3.727   4.368   5.531
 9466SOL    HW129297   3.704   4.338   5.438
 9466SOL    HW229298   3.823   4.395   5.534
 9467SOL     OW29299   2.105   3.928   0.633
 9467SOL    HW129300   2.115   3.848   0.693
 9467SOL    HW229301   2.033   3.910   0.565
 9468SOL     OW29302   6.371   1.550   0.656
 9468SOL    HW129303   6.456   1.500   0.673
 9468SOL    HW229304   6.308   1.535   0.733
 9469SOL     OW29305   0.436   6.516   1.085
 9469SOL    HW129306   0.498   6.555   1.153
 9469SOL    HW229307   0.377   6.589   1.049
 9470SOL     OW29308   3.488   3.565   0.574
 9470SOL    HW129309   3.458   3.528   0.661
 9470SOL    HW229310   3.434   3.526   0.500
 9471SOL     OW29311   6.635   2.847   4.693
 9471SOL    HW129312   6.679   2.901   4.765
 9471SOL    HW229313   6.657   2.887   4.604
 9472SOL     OW29314   1.607   3.393   6.298
 9472SOL    HW129315   1.637   3.442   6.379
 9472SOL    HW229316   1.507   3.391   6.295
 9473SOL     OW29317   2.607   4.074   1.153
 9473SOL    HW129318   2.683   4.124   1.110
 9473SOL    HW229319   2.609   3.979   1.123
 9474SOL     OW29320   6.241   3.531   0.571
 9474SOL    HW129321   6.306   3.581   0.628
 9474SOL    HW229322   6.147   3.559   0.595
 9475SOL     OW29323   5.169   4.270   6.249
 9475SOL    HW129324   5.217   4.226   6.325
 9475SOL    HW229325   5.098   4.208   6.215
 9476SOL     OW29326   3.940   3.928   0.150
 9476SOL    HW129327   4.032   3.943   0.185
 9476SOL    HW229328   3.883   4.007   0.172
 9477SOL     OW29329   1.893   4.538   0.383
 9477SOL    HW129330   1.814   4.577   0.335
 9477SOL    HW229331   1.897   4.439   0.368
 9478SOL     OW29332   5.268   3.218   6.635
 9478SOL    HW129333   5.345   3.201   6.697
 9478SOL    HW229334   5.233   3.131   6.602
 9479SOL     OW29335   3.852   0.747   2.362
 9479SOL    HW129336   3.894   0.828   2.401
 9479SOL    HW229337   3.795   0.773   2.284
 9480SOL     OW29338   6.883   0.995   0.744
 9480SOL    HW129339   6.881   1.006   0.645
 9480SOL    HW229340   6.937   0.913   0.768
 9481SOL     OW29341   4.064   6.838   3.770
 9481SOL    HW129342   4.118   6.756   3.789
 9481SOL    HW229343   4.040   6.839   3.673
 9482SOL     OW29344   6.532   6.025   6.998
 9482SOL    HW129345   6.472   6.099   0.010
 9482SOL    HW229346   6.605   6.011   0.045
 9483SOL     OW29347   6.332   7.018   0.528
 9483SOL    HW129348   6.308   6.987   0.436
 9483SOL    HW229349   6.410   0.059   0.523
 9484SOL     OW29350   3.867   5.553   4.667
 9484SOL    HW129351   3.927   5.552   4.587
 9484SOL    HW229352   3.772   5.553   4.637
 9485SOL     OW29353   0.229   1.060   6.950
 9485SOL    HW129354   0.209   1.129   6.880
 9485SOL    HW229355   0.298   1.095   7.012
 9486SOL     OW29356   5.364   5.652   0.044
 9486SOL    HW129357   5.402   5.707   0.119
 9486SOL    HW229358   5.308   5.711   7.005
 9487SOL     OW29359   3.612   3.134   3.308
 9487SOL    HW129360   3.695   3.186   3.288
 9487SOL    HW229361   3.605   3.057   3.244
 9488SOL     OW29362   1.742   0.353   0.844
 9488SOL    HW129363   1.791   0.403   0.773
 9488SOL    HW229364   1.808   0.306   0.902
 9489SOL     OW29365   5.535   3.138   6.691
 9489SOL    HW129366   5.550   3.057   6.748
 9489SOL    HW229367   5.604   3.207   6.711
 9490SOL     OW29368   5.539   3.656   4.437
 9490SOL    HW129369   5.488   3.691   4.359
 9490SOL    HW229370   5.570   3.733   4.494
 9491SOL     OW29371   5.324   6.060   2.553
 9491SOL    HW129372   5.280   6.059   2.463
 9491SOL    HW229373   5.286   6.134   2.608
 9492SOL     OW29374   4.854   3.182   3.615
 9492SOL    HW129375   4.896   3.171   3.705
 9492SOL    HW229376   4.916   3.233   3.555
 9493SOL     OW29377   4.211   6.301   1.407
 9493SOL    HW129378   4.194   6.216   1.457
 9493SOL    HW229379   4.175   6.378   1.460
 9494SOL     OW29380   5.876   2.044   1.747
 9494SOL    HW129381   5.941   2.060   1.821
 9494SOL    HW229382   5.925   2.034   1.660
 9495SOL     OW29383   0.414   2.354   1.361
 9495SOL    HW129384   0.484   2.331   1.429
 9495SOL    HW229385   0.450   2.425   1.300
 9496SOL     OW29386   5.624   2.028   1.887
 9496SOL    HW129387   5.606   2.124   1.865
 9496SOL    HW229388   5.689   1.990   1.821
 9497SOL     OW29389   4.666   4.448   4.929
 9497SOL    HW129390   4.757   4.480   4.954
 9497SOL    HW229391   4.620   4.518   4.875
 9498SOL     OW29392   0.489   5.601   4.364
 9498SOL    HW129393   0.538   5.544   4.297
 9498SOL    HW229394   0.536   5.689   4.374
 9499SOL     OW29395   6.414   6.046   4.998
 9499SOL    HW129396   6.463   6.015   4.916
 9499SOL    HW229397   6.347   6.115   4.972
 9500SOL     OW29398   3.864   1.942   0.594
 9500SOL    HW129399   3.805   1.958   0.674
 9500SOL    HW229400   3.834   2.000   0.518
 9501SOL     OW29401   2.015   3.324   5.192
 9501SOL    HW129402   1.978   3.255   5.129
 9501SOL    HW229403   2.028   3.410   5.142
 9502SOL     OW29404   5.189   4.367   4.184
 9502SOL    HW129405   5.250   4.300   4.227
 9502SOL    HW229406   5.099   4.362   4.227
 9503SOL     OW29407   6.830   1.829   6.967
 9503SOL    HW129408   6.778   1.824   0.033
 9503SOL    HW229409   6.807   1.914   6.920
 9504SOL     OW29410   5.784   5.194   2.049
 9504SOL    HW129411   5.716   5.178   1.978
 9504SOL    HW229412   5.760   5.277   2.099
 9505SOL     OW29413   4.230   5.092   5.860
 9505SOL    HW129414   4.216   5.159   5.934
 9505SOL    HW229415   4.325   5.063   5.860
 9506SOL     OW29416   2.846   0.740   1.057
 9506SOL    HW129417   2.851   0.662   1.119
 9506SOL    HW229418   2.783   0.718   0.982
 9507SOL     OW29419   5.179   0.339   1.976
 9507SOL    HW129420   5.118   0.260   1.977
 9507SOL    HW229421   5.233   0.339   1.892
 9508SOL     OW29422   4.882   1.707   2.803
 9508SOL    HW129423   4.980   1.714   2.818
 9508SOL    HW229424   4.833   1.734   2.886
 9509SOL     OW29425   5.431   0.297   3.453
 9509SOL    HW129426   5.342   0.300   3.408
 9509SOL    HW229427   5.451   0.203   3.480
 9510SOL     OW29428   1.092   2.908   3.631
 9510SOL    HW129429   1.029   2.977   3.598
 9510SOL    HW229430   1.046   2.849   3.698
 9511SOL     OW29431   0.710   1.721   0.939
 9511SOL    HW129432   0.624   1.768   0.956
 9511SOL    HW229433   0.705   1.671   0.852
 9512SOL     OW29434   6.298   2.148   1.441
 9512SOL    HW129435   6.269   2.134   1.346
 9512SOL    HW229436   6.390   2.110   1.453
 9513SOL     OW29437   4.412   4.465   5.501
 9513SOL    HW129438   4.356   4.444   5.582
 9513SOL    HW229439   4.483   4.396   5.491
 9514SOL     OW29440   3.680   2.970   6.576
 9514SOL    HW129441   3.623   3.046   6.607
 9514SOL    HW229442   3.754   3.005   6.518
 9515SOL     OW29443   0.875   5.650   3.099
 9515SOL    HW129444   0.970   5.668   3.125
 9515SOL    HW229445   0.863   5.552   3.081
 9516SOL     OW29446   0.363   4.605   6.671
 9516SOL    HW129447   0.369   4.701   6.697
 9516SOL    HW229448   0.270   4.583   6.643
 9517SOL     OW29449   0.820   5.380   1.002
 9517SOL    HW129450   0.862   5.333   1.080
 9517SOL    HW229451   0.838   5.329   0.918
 9518SOL     OW29452   1.045   1.110   0.635
 9518SOL    HW129453   1.038   1.137   0.731
 9518SOL    HW229454   1.015   1.015   0.624
 9519SOL     OW29455   1.220   3.004   5.486
 9519SOL    HW129456   1.282   3.073   5.522
 9519SOL    HW229457   1.268   2.917   5.477
 9520SOL     OW29458   4.281   6.878   1.528
 9520SOL    HW129459   4.215   6.813   1.567
 9520SOL    HW229460   4.319   6.935   1.601
 9521SOL     OW29461   5.202   4.909   3.933
 9521SOL    HW129462   5.276   4.868   3.987
 9521SOL    HW229463   5.134   4.948   3.995
 9522SOL     OW29464   3.396   6.205   1.239
 9522SOL    HW129465   3.404   6.115   1.195
 9522SOL    HW229466   3.393   6.193   1.338
 9523SOL     OW29467   3.312   5.853   5.371
 9523SOL    HW129468   3.336   5.793   5.294
 9523SOL    HW229469   3.394   5.867   5.428
 9524SOL     OW29470   4.434   2.493   1.113
 9524SOL    HW129471   4.456   2.413   1.169
 9524SOL    HW229472   4.395   2.565   1.171
 9525SOL     OW29473   3.651   0.285   5.761
 9525SOL    HW129474   3.655   0.260   5.857
 9525SOL    HW229475   3.740   0.320   5.731
 9526SOL     OW29476   5.120   5.364   2.080
 9526SOL    HW129477   5.075   5.305   2.147
 9526SOL    HW229478   5.052   5.403   2.018
 9527SOL     OW29479   6.146   1.836   1.186
 9527SOL    HW129480   6.143   1.743   1.222
 9527SOL    HW229481   6.119   1.900   1.258
 9528SOL     OW29482   6.143   0.539   2.091
 9528SOL    HW129483   6.178   0.596   2.166
 9528SOL    HW229484   6.189   0.450   2.093
 9529SOL     OW29485   0.773   3.416   4.637
 9529SOL    HW129486   0.855   3.371   4.601
 9529SOL    HW229487   0.793   3.456   4.726
 9530SOL     OW29488   1.707   1.984   4.480
 9530SOL    HW129489   1.719   2.022   4.389
 9530SOL    HW229490   1.796   1.962   4.520
 9531SOL     OW29491   2.638   6.184   3.416
 9531SOL    HW129492   2.728   6.141   3.419
 9531SOL    HW229493   2.628   6.245   3.494
 9532SOL     OW29494   2.947   1.226   1.265
 9532SOL    HW129495   2.984   1.133   1.263
 9532SOL    HW229496   2.991   1.278   1.338
 9533SOL     OW29497   1.636   0.624   5.360
 9533SOL    HW129498   1.622   0.526   5.349
 9533SOL    HW229499   1.624   0.648   5.456
 9534SOL     OW29500   4.755   1.816   4.216
 9534SOL    HW129501   4.849   1.849   4.224
 9534SOL    HW229502   4.731   1.804   4.120
 9535SOL     OW29503   2.365   2.196   5.497
 9535SOL    HW129504   2.358   2.244   5.409
 9535SOL    HW229505   2.461   2.176   5.516
 9536SOL     OW29506   3.170   0.239   6.524
 9536SOL    HW129507   3.139   0.281   6.439
 9536SOL    HW229508   3.175   0.140   6.511
 9537SOL     OW29509   2.830   6.793   1.011
 9537SOL    HW129510   2.753   6.842   0.970
 9537SOL    HW229511   2.800   6.704   1.044
 9538SOL     OW29512   5.956   3.045   3.915
 9538SOL    HW129513   5.985   2.966   3.862
 9538SOL    HW229514   6.023   3.119   3.904
 9539SOL     OW29515   0.142   5.359   1.001
 9539SOL    HW129516   0.070   5.365   1.071
 9539SOL    HW229517   0.101   5.360   0.910
 9540SOL     OW29518   5.366   3.672   5.161
 9540SOL    HW129519   5.440   3.605   5.165
 9540SOL    HW229520   5.322   3.677   5.251
 9541SOL     OW29521   0.578   1.852   3.531
 9541SOL    HW129522   0.566   1.942   3.574
 9541SOL    HW229523   0.539   1.854   3.439
 9542SOL     OW29524   4.853   3.922   4.521
 9542SOL    HW129525   4.846   3.827   4.552
 9542SOL    HW229526   4.918   3.971   4.579
 9543SOL     OW29527   5.143   1.842   1.920
 9543SOL    HW129528   5.240   1.816   1.928
 9543SOL    HW229529   5.113   1.884   2.006
 9544SOL     OW29530   3.054   1.605   1.936
 9544SOL    HW129531   3.141   1.599   1.886
 9544SOL    HW229532   3.055   1.541   2.013
 9545SOL     OW29533   0.333   0.156   4.460
 9545SOL    HW129534   0.320   0.103   4.544
 9545SOL    HW229535   0.309   0.251   4.476
 9546SOL     OW29536   2.583   4.298   1.705
 9546SOL    HW129537   2.624   4.378   1.748
 9546SOL    HW229538   2.589   4.308   1.605
 9547SOL     OW29539   6.462   5.782   2.759
 9547SOL    HW129540   6.553   5.811   2.729
 9547SOL    HW229541   6.426   5.714   2.695
 9548SOL     OW29542   4.865   6.316   3.118
 9548SOL    HW129543   4.789   6.368   3.080
 9548SOL    HW229544   4.920   6.277   3.044
 9549SOL     OW29545   3.073   5.522   0.188
 9549SOL    HW129546   3.109   5.547   0.098
 9549SOL    HW229547   3.146   5.482   0.243
 9550SOL     OW29548   1.462   1.617   0.465
 9550SOL    HW129549   1.490   1.656   0.553
 9550SOL    HW229550   1.457   1.690   0.396
 9551SOL     OW29551   2.092   5.972   5.734
 9551SOL    HW129552   2.174   5.999   5.784
 9551SOL    HW229553   2.014   5.970   5.797
 9552SOL     OW29554   0.649   5.624   3.766
 9552SOL    HW129555   0.670   5.649   3.861
 9552SOL    HW229556   0.708   5.549   3.737
 9553SOL     OW29557   5.284   4.924   5.467
 9553SOL    HW129558   5.325   4.896   5.553
 9553SOL    HW229559   5.271   5.023   5.467
 9554SOL     OW29560   2.118   0.927   2.412
 9554SOL    HW129561   2.157   0.971   2.331
 9554SOL    HW229562   2.030   0.885   2.388
 9555SOL     OW29563   6.471   2.448   6.667
 9555SOL    HW129564   6.404   2.440   6.594
 9555SOL    HW229565   6.475   2.543   6.698
 9556SOL     OW29566   6.995   2.138   1.121
 9556SOL    HW129567   6.965   2.086   1.200
 9556SOL    HW229568   0.064   2.180   1.140
 9557SOL     OW29569   5.576   2.287   1.820
 9557SOL    HW129570   5.665   2.333   1.814
 9557SOL    HW229571   5.505   2.354   1.842
 9558SOL     OW29572   6.379   4.426   1.904
 9558SOL    HW129573   6.284   4.452   1.888
 9558SOL    HW229574   6.406   4.453   1.997
 9559SOL     OW29575   6.783   3.196   2.640
 9559SOL    HW129576   6.695   3.149   2.650
 9559SOL    HW229577   6.768   3.295   2.643
 9560SOL     OW29578   3.531   1.466   4.335
 9560SOL    HW129579   3.571   1.470   4.427
 9560SOL    HW229580   3.571   1.538   4.278
 9561SOL     OW29581   4.169   6.836   0.542
 9561SOL    HW129582   4.162   6.793   0.631
 9561SOL    HW229583   4.142   6.932   0.549
 9562SOL     OW29584   5.675   5.236   3.318
 9562SOL    HW129585   5.661   5.138   3.303
 9562SOL    HW229586   5.605   5.270   3.381
 9563SOL     OW29587   6.903   5.793   6.951
 9563SOL    HW129588   6.904   5.841   0.019
 9563SOL    HW229589   6.816   5.744   6.941
 9564SOL     OW29590   2.318   0.046   6.585
 9564SOL    HW129591   2.337   0.038   6.487
 9564SOL    HW229592   2.267   6.985   6.615
 9565SOL     OW29593   3.827   5.899   4.036
 9565SOL    HW129594   3.779   5.862   4.115
 9565SOL    HW229595   3.857   5.992   4.056
 9566SOL     OW29596   3.047   4.936   5.465
 9566SOL    HW129597   3.085   5.007   5.405
 9566SOL    HW229598   3.050   4.848   5.419
 9567SOL     OW29599   6.025   5.818   5.703
 9567SOL    HW129600   5.949   5.832   5.640
 9567SOL    HW229601   6.002   5.742   5.765
 9568SOL     OW29602   5.598   3.647   6.035
 9568SOL    HW129603   5.536   3.725   6.047
 9568SOL    HW229604   5.577   3.601   5.949
 9569SOL     OW29605   5.467   6.518   1.948
 9569SOL    HW129606   5.520   6.447   1.995
 9569SOL    HW229607   5.500   6.528   1.854
 9570SOL     OW29608   0.979   0.327   6.910
 9570SOL    HW129609   0.897   0.353   6.960
 9570SOL    HW229610   0.970   0.353   6.814
 9571SOL     OW29611   2.301   2.722   6.952
 9571SOL    HW129612   2.211   2.764   6.940
 9571SOL    HW229613   2.349   2.720   6.865
 9572SOL     OW29614   0.647   4.330   0.940
 9572SOL    HW129615   0.639   4.259   0.870
 9572SOL    HW229616   0.571   4.395   0.930
 9573SOL     OW29617   6.593   1.787   1.711
 9573SOL    HW129618   6.603   1.716   1.780
 9573SOL    HW229619   6.668   1.780   1.645
 9574SOL     OW29620   2.443   2.190   4.392
 9574SOL    HW129621   2.514   2.261   4.399
 9574SOL    HW229622   2.387   2.191   4.475
 9575SOL     OW29623   4.852   0.963   2.627
 9575SOL    HW129624   4.898   1.025   2.691
 9575SOL    HW229625   4.773   1.009   2.587
 9576SOL     OW29626   3.823   2.001   5.338
 9576SOL    HW129627   3.830   2.011   5.239
 9576SOL    HW229628   3.815   1.904   5.361
 9577SOL     OW29629   0.512   6.070   3.153
 9577SOL    HW129630   0.436   6.090   3.091
 9577SOL    HW229631   0.598   6.093   3.107
 9578SOL     OW29632   6.258   3.855   1.969
 9578SOL    HW129633   6.213   3.812   2.047
 9578SOL    HW229634   6.246   3.954   1.975
 9579SOL     OW29635   1.497   6.334   2.915
 9579SOL    HW129636   1.496   6.238   2.889
 9579SOL    HW229637   1.428   6.351   2.985
 9580SOL     OW29638   4.402   3.501   5.832
 9580SOL    HW129639   4.405   3.497   5.932
 9580SOL    HW229640   4.494   3.488   5.795
 9581SOL     OW29641   1.375   5.050   5.925
 9581SOL    HW129642   1.436   4.992   5.979
 9581SOL    HW229643   1.287   5.006   5.914
 9582SOL     OW29644   4.635   4.671   3.904
 9582SOL    HW129645   4.542   4.688   3.936
 9582SOL    HW229646   4.660   4.576   3.923
 9583SOL     OW29647   2.453   4.428   2.076
 9583SOL    HW129648   2.487   4.457   2.166
 9583SOL    HW229649   2.513   4.466   2.005
 9584SOL     OW29650   5.591   5.274   6.884
 9584SOL    HW129651   5.644   5.333   6.946
 9584SOL    HW229652   5.502   5.255   6.924
 9585SOL     OW29653   0.322   0.077   3.185
 9585SOL    HW129654   0.383   0.070   3.105
 9585SOL    HW229655   0.240   0.129   3.160
 9586SOL     OW29656   5.212   3.030   2.315
 9586SOL    HW129657   5.240   2.999   2.405
 9586SOL    HW229658   5.289   3.073   2.268
 9587SOL     OW29659   4.767   6.766   2.370
 9587SOL    HW129660   4.807   6.685   2.327
 9587SOL    HW229661   4.693   6.738   2.432
 9588SOL     OW29662   6.949   0.045   3.120
 9588SOL    HW129663   7.001   6.989   3.080
 9588SOL    HW229664   7.011   0.119   3.146
 9589SOL     OW29665   2.774   1.589   5.612
 9589SOL    HW129666   2.681   1.610   5.584
 9589SOL    HW229667   2.775   1.506   5.668
 9590SOL     OW29668   0.333   4.932   4.570
 9590SOL    HW129669   0.347   5.031   4.562
 9590SOL    HW229670   0.416   4.889   4.606
 9591SOL     OW29671   1.366   4.807   2.649
 9591SOL    HW129672   1.281   4.754   2.653
 9591SOL    HW229673   1.351   4.890   2.596
 9592SOL     OW29674   4.761   5.936   1.728
 9592SOL    HW129675   4.692   5.958   1.798
 9592SOL    HW229676   4.737   5.850   1.684
 9593SOL     OW29677   1.716   3.150   4.013
 9593SOL    HW129678   1.636   3.118   4.062
 9593SOL    HW229679   1.798   3.110   4.054
 9594SOL     OW29680   6.350   0.014   2.067
 9594SOL    HW129681   6.296   7.000   1.991
 9594SOL    HW229682   6.447   0.004   2.046
 9595SOL     OW29683   1.179   4.439   4.346
 9595SOL    HW129684   1.082   4.424   4.327
 9595SOL    HW229685   1.188   4.503   4.422
 9596SOL     OW29686   4.996   5.373   2.741
 9596SOL    HW129687   5.001   5.365   2.840
 9596SOL    HW229688   5.053   5.303   2.699
 9597SOL     OW29689   1.644   4.559   1.054
 9597SOL    HW129690   1.722   4.621   1.040
 9597SOL    HW229691   1.669   4.489   1.121
 9598SOL     OW29692   1.255   5.851   5.295
 9598SOL    HW129693   1.328   5.857   5.227
 9598SOL    HW229694   1.290   5.880   5.384
 9599SOL     OW29695   4.559   1.655   4.047
 9599SOL    HW129696   4.652   1.645   4.013
 9599SOL    HW229697   4.495   1.622   3.977
 9600SOL     OW29698   1.554   5.717   6.706
 9600SOL    HW129699   1.511   5.804   6.681
 9600SOL    HW229700   1.640   5.736   6.754
 9601SOL     OW29701   0.766   6.546   6.301
 9601SOL    HW129702   0.720   6.507   6.222
 9601SOL    HW229703   0.718   6.521   6.384
 9602SOL     OW29704   1.188   5.958   7.017
 9602SOL    HW129705   1.171   5.866   0.033
 9602SOL    HW229706   1.225   5.950   6.924
 9603SOL     OW29707   1.054   4.960   3.560
 9603SOL    HW129708   1.108   4.983   3.478
 9603SOL    HW229709   0.969   4.916   3.532
 9604SOL     OW29710   6.565   0.106   0.480
 9604SOL    HW129711   6.634   0.050   0.525
 9604SOL    HW229712   6.596   0.200   0.475
 9605SOL     OW29713   2.602   5.685   6.921
 9605SOL    HW129714   2.599   5.666   7.019
 9605SOL    HW229715   2.656   5.767   6.904
 9606SOL     OW29716   6.228   0.414   5.085
 9606SOL    HW129717   6.275   0.492   5.127
 9606SOL    HW229718   6.288   0.370   5.019
 9607SOL     OW29719   0.710   2.753   2.945
 9607SOL    HW129720   0.726   2.722   2.852
 9607SOL    HW229721   0.774   2.709   3.007
 9608SOL     OW29722   6.053   0.501   2.882
 9608SOL    HW129723   5.985   0.439   2.921
 9608SOL    HW229724   6.011   0.557   2.811
 9609SOL     OW29725   1.526   2.446   3.443
 9609SOL    HW129726   1.544   2.416   3.349
 9609SOL    HW229727   1.614   2.460   3.490
 9610SOL     OW29728   3.715   1.496   6.196
 9610SOL    HW129729   3.710   1.410   6.144
 9610SOL    HW229730   3.666   1.568   6.147
 9611SOL     OW29731   6.056   5.937   0.899
 9611SOL    HW129732   6.033   5.840   0.892
 9611SOL    HW229733   6.147   5.946   0.940
 9612SOL     OW29734   4.952   3.419   2.918
 9612SOL    HW129735   4.949   3.394   2.821
 9612SOL    HW229736   4.923   3.341   2.974
 9613SOL     OW29737   5.781   6.846   5.220
 9613SOL    HW129738   5.750   6.930   5.175
 9613SOL    HW229739   5.713   6.774   5.208
 9614SOL     OW29740   3.647   2.949   1.920
 9614SOL    HW129741   3.605   2.921   1.834
 9614SOL    HW229742   3.576   2.974   1.986
 9615SOL     OW29743   0.436   6.431   3.816
 9615SOL    HW129744   0.402   6.425   3.910
 9615SOL    HW229745   0.457   6.339   3.783
 9616SOL     OW29746   1.975   3.209   1.353
 9616SOL    HW129747   1.879   3.236   1.359
 9616SOL    HW229748   1.982   3.109   1.352
 9617SOL     OW29749   0.780   3.016   2.394
 9617SOL    HW129750   0.821   2.992   2.306
 9617SOL    HW229751   0.825   2.965   2.467
 9618SOL     OW29752   3.804   4.640   0.374
 9618SOL    HW129753   3.736   4.593   0.432
 9618SOL    HW229754   3.795   4.739   0.386
 9619SOL     OW29755   1.406   6.867   1.105
 9619SOL    HW129756   1.355   6.856   1.191
 9619SOL    HW229757   1.377   6.797   1.040
 9620SOL     OW29758   3.703   1.967   6.825
 9620SOL    HW129759   3.736   1.980   6.732
 9620SOL    HW229760   3.652   1.881   6.831
 9621SOL     OW29761   0.476   1.648   2.528
 9621SOL    HW129762   0.394   1.605   2.490
 9621SOL    HW229763   0.556   1.590   2.511
 9622SOL     OW29764   0.148   6.108   5.825
 9622SOL    HW129765   0.185   6.105   5.918
 9622SOL    HW229766   0.156   6.200   5.789
 9623SOL     OW29767   4.340   6.769   5.975
 9623SOL    HW129768   4.317   6.825   6.054
 9623SOL    HW229769   4.436   6.743   5.979
 9624SOL     OW29770   4.773   5.273   4.749
 9624SOL    HW129771   4.724   5.232   4.826
 9624SOL    HW229772   4.843   5.335   4.784
 9625SOL     OW29773   5.137   3.895   6.116
 9625SOL    HW129774   5.127   3.993   6.101
 9625SOL    HW229775   5.111   3.872   6.210
 9626SOL     OW29776   2.589   2.362   6.952
 9626SOL    HW129777   2.548   2.280   6.911
 9626SOL    HW229778   2.684   2.370   6.923
 9627SOL     OW29779   0.618   5.091   0.317
 9627SOL    HW129780   0.654   5.136   0.235
 9627SOL    HW229781   0.553   5.152   0.363
 9628SOL     OW29782   6.361   1.298   6.738
 9628SOL    HW129783   6.297   1.374   6.748
 9628SOL    HW229784   6.417   1.312   6.657
 9629SOL     OW29785   6.940   5.779   3.717
 9629SOL    HW129786   6.915   5.807   3.810
 9629SOL    HW229787   0.019   5.763   3.713
 9630SOL     OW29788   6.090   0.466   5.524
 9630SOL    HW129789   6.015   0.416   5.480
 9630SOL    HW229790   6.073   0.565   5.517
 9631SOL     OW29791   3.821   6.629   0.635
 9631SOL    HW129792   3.808   6.647   0.732
 9631SOL    HW229793   3.911   6.588   0.621
 9632SOL     OW29794   2.835   5.533   2.801
 9632SOL    HW129795   2.876   5.621   2.826
 9632SOL    HW229796   2.822   5.478   2.883
 9633SOL     OW29797   3.702   3.412   3.102
 9633SOL    HW129798   3.735   3.499   3.136
 9633SOL    HW229799   3.766   3.339   3.126
 9634SOL     OW29800   5.481   4.856   3.103
 9634SOL    HW129801   5.386   4.847   3.075
 9634SOL    HW229802   5.538   4.795   3.049
 9635SOL     OW29803   0.957   5.487   3.859
 9635SOL    HW129804   0.937   5.570   3.911
 9635SOL    HW229805   0.986   5.415   3.921
 9636SOL     OW29806   5.184   3.632   3.932
 9636SOL    HW129807   5.139   3.615   3.845
 9636SOL    HW229808   5.246   3.710   3.923
 9637SOL     OW29809   1.319   3.703   0.037
 9637SOL    HW129810   1.366   3.615   0.048
 9637SOL    HW229811   1.221   3.687   0.022
 9638SOL     OW29812   5.680   5.787   5.902
 9638SOL    HW129813   5.607   5.730   5.940
 9638SOL    HW229814   5.761   5.730   5.884
 9639SOL     OW29815   4.455   1.738   1.459
 9639SOL    HW129816   4.414   1.790   1.384
 9639SOL    HW229817   4.382   1.706   1.520
 9640SOL     OW29818   4.306   0.466   3.535
 9640SOL    HW129819   4.362   0.419   3.603
 9640SOL    HW229820   4.217   0.488   3.574
 9641SOL     OW29821   6.599   3.331   3.422
 9641SOL    HW129822   6.517   3.274   3.429
 9641SOL    HW229823   6.642   3.339   3.512
 9642SOL     OW29824   0.697   0.708   4.717
 9642SOL    HW129825   0.624   0.640   4.723
 9642SOL    HW229826   0.745   0.712   4.804
 9643SOL     OW29827   4.709   5.150   4.065
 9643SOL    HW129828   4.692   5.141   4.163
 9643SOL    HW229829   4.622   5.146   4.015
 9644SOL     OW29830   0.942   5.611   4.256
 9644SOL    HW129831   0.963   5.672   4.179
 9644SOL    HW229832   0.855   5.565   4.238
 9645SOL     OW29833   1.006   4.904   6.423
 9645SOL    HW129834   1.084   4.898   6.360
 9645SOL    HW229835   1.009   4.992   6.471
 9646SOL     OW29836   4.359   5.116   6.509
 9646SOL    HW129837   4.313   5.034   6.474
 9646SOL    HW229838   4.360   5.113   6.609
 9647SOL     OW29839   6.161   6.669   2.938
 9647SOL    HW129840   6.188   6.620   3.021
 9647SOL    HW229841   6.238   6.670   2.874
 9648SOL     OW29842   3.862   1.860   1.097
 9648SOL    HW129843   3.802   1.830   1.171
 9648SOL    HW229844   3.812   1.858   1.011
 9649SOL     OW29845   0.702   5.630   0.391
 9649SOL    HW129846   0.734   5.536   0.377
 9649SOL    HW229847   0.777   5.686   0.427
 9650SOL     OW29848   0.159   4.837   4.131
 9650SOL    HW129849   0.239   4.801   4.179
 9650SOL    HW229850   0.109   4.899   4.191
 9651SOL     OW29851   4.407   1.597   0.256
 9651SOL    HW129852   4.334   1.613   0.190
 9651SOL    HW229853   4.472   1.673   0.254
 9652SOL     OW29854   0.355   3.955   0.702
 9652SOL    HW129855   0.281   3.956   0.635
 9652SOL    HW229856   0.417   4.031   0.685
 9653SOL     OW29857   4.805   3.968   6.054
 9653SOL    HW129858   4.752   3.892   6.016
 9653SOL    HW229859   4.800   4.047   5.993
 9654SOL     OW29860   3.351   3.652   2.850
 9654SOL    HW129861   3.348   3.750   2.873
 9654SOL    HW229862   3.373   3.599   2.931
 9655SOL     OW29863   4.764   1.281   1.009
 9655SOL    HW129864   4.831   1.221   0.965
 9655SOL    HW229865   4.695   1.309   0.942
 9656SOL     OW29866   5.797   3.912   6.402
 9656SOL    HW129867   5.704   3.948   6.388
 9656SOL    HW229868   5.844   3.968   6.470
 9657SOL     OW29869   5.673   3.855   4.172
 9657SOL    HW129870   5.574   3.859   4.183
 9657SOL    HW229871   5.698   3.764   4.138
 9658SOL     OW29872   4.859   1.453   1.816
 9658SOL    HW129873   4.786   1.399   1.857
 9658SOL    HW229874   4.897   1.404   1.738
 9659SOL     OW29875   2.430   2.996   6.821
 9659SOL    HW129876   2.434   2.954   6.912
 9659SOL    HW229877   2.401   2.928   6.754
 9660SOL     OW29878   1.695   6.245   1.971
 9660SOL    HW129879   1.607   6.234   1.925
 9660SOL    HW229880   1.769   6.238   1.905
 9661SOL     OW29881   4.883   4.066   1.308
 9661SOL    HW129882   4.841   4.146   1.351
 9661SOL    HW229883   4.919   4.092   1.218
 9662SOL     OW29884   5.604   5.942   6.349
 9662SOL    HW129885   5.536   5.936   6.422
 9662SOL    HW229886   5.596   6.031   6.304
 9663SOL     OW29887   0.871   5.353   2.168
 9663SOL    HW129888   0.829   5.384   2.082
 9663SOL    HW229889   0.971   5.354   2.158
 9664SOL     OW29890   4.503   4.749   2.070
 9664SOL    HW129891   4.514   4.848   2.065
 9664SOL    HW229892   4.525   4.709   1.980
 9665SOL     OW29893   7.013   5.699   6.164
 9665SOL    HW129894   6.972   5.641   6.094
 9665SOL    HW229895   6.943   5.757   6.205
 9666SOL     OW29896   5.740   4.041   6.959
 9666SOL    HW129897   5.661   4.067   7.015
 9666SOL    HW229898   5.743   4.099   6.877
 9667SOL     OW29899   5.912   6.001   6.548
 9667SOL    HW129900   5.830   5.975   6.599
 9667SOL    HW229901   5.991   5.998   6.609
 9668SOL     OW29902   1.160   0.910   5.951
 9668SOL    HW129903   1.166   0.835   6.017
 9668SOL    HW229904   1.225   0.982   5.977
 9669SOL     OW29905   3.314   0.397   0.529
 9669SOL    HW129906   3.314   0.312   0.583
 9669SOL    HW229907   3.295   0.474   0.590
 9670SOL     OW29908   0.406   0.064   6.984
 9670SOL    HW129909   0.361   0.032   0.047
 9670SOL    HW229910   0.371   0.014   6.905
 9671SOL     OW29911   1.090   5.253   6.333
 9671SOL    HW129912   1.004   5.281   6.291
 9671SOL    HW229913   1.105   5.305   6.417
 9672SOL     OW29914   0.898   3.810   3.815
 9672SOL    HW129915   0.987   3.767   3.798
 9672SOL    HW229916   0.827   3.759   3.767
 9673SOL     OW29917   1.950   3.446   0.262
 9673SOL    HW129918   1.892   3.496   0.198
 9673SOL    HW229919   1.895   3.377   0.309
 9674SOL     OW29920   2.080   6.357   4.187
 9674SOL    HW129921   2.048   6.287   4.123
 9674SOL    HW229922   2.030   6.347   4.273
 9675SOL     OW29923   6.598   3.503   6.207
 9675SOL    HW129924   6.529   3.431   6.207
 9675SOL    HW229925   6.598   3.549   6.118
 9676SOL     OW29926   0.830   2.664   6.681
 9676SOL    HW129927   0.801   2.594   6.616
 9676SOL    HW229928   0.811   2.755   6.644
 9677SOL     OW29929   6.815   5.436   1.797
 9677SOL    HW129930   6.824   5.410   1.701
 9677SOL    HW229931   6.750   5.376   1.842
 9678SOL     OW29932   3.415   3.451   5.300
 9678SOL    HW129933   3.398   3.549   5.312
 9678SOL    HW229934   3.370   3.400   5.372
 9679SOL     OW29935   1.769   1.474   4.485
 9679SOL    HW129936   1.846   1.501   4.428
 9679SOL    HW229937   1.684   1.507   4.443
 9680SOL     OW29938   4.586   6.626   2.016
 9680SOL    HW129939   4.635   6.628   1.928
 9680SOL    HW229940   4.565   6.532   2.040
 9681SOL     OW29941   1.078   1.787   2.197
 9681SOL    HW129942   1.137   1.819   2.271
 9681SOL    HW229943   1.064   1.689   2.204
 9682SOL     OW29944   5.042   6.170   5.714
 9682SOL    HW129945   5.035   6.256   5.765
 9682SOL    HW229946   5.057   6.190   5.617
 9683SOL     OW29947   3.225   6.093   3.100
 9683SOL    HW129948   3.298   6.161   3.106
 9683SOL    HW229949   3.217   6.060   3.006
 9684SOL     OW29950   0.102   3.418   5.671
 9684SOL    HW129951   0.113   3.387   5.576
 9684SOL    HW229952   0.019   3.473   5.678
 9685SOL     OW29953   3.472   4.175   1.251
 9685SOL    HW129954   3.509   4.260   1.213
 9685SOL    HW229955   3.383   4.194   1.294
 9686SOL     OW29956   6.192   1.458   5.199
 9686SOL    HW129957   6.133   1.458   5.118
 9686SOL    HW229958   6.175   1.375   5.252
 9687SOL     OW29959   5.904   0.991   3.193
 9687SOL    HW129960   5.994   0.990   3.237
 9687SOL    HW229961   5.914   1.022   3.098
 9688SOL     OW29962   0.957   5.268   1.489
 9688SOL    HW129963   0.880   5.204   1.499
 9688SOL    HW229964   1.016   5.261   1.569
 9689SOL     OW29965   2.401   5.890   1.046
 9689SOL    HW129966   2.301   5.895   1.042
 9689SOL    HW229967   2.430   5.794   1.046
 9690SOL     OW29968   6.737   4.765   4.894
 9690SOL    HW129969   6.734   4.671   4.860
 9690SOL    HW229970   6.794   4.820   4.833
 9691SOL     OW29971   2.865   3.688   1.855
 9691SOL    HW129972   2.839   3.733   1.769
 9691SOL    HW229973   2.958   3.717   1.881
 9692SOL     OW29974   5.080   4.358   0.956
 9692SOL    HW129975   5.148   4.412   0.907
 9692SOL    HW229976   4.991   4.403   0.949
 9693SOL     OW29977   4.739   3.024   5.262
 9693SOL    HW129978   4.832   3.047   5.290
 9693SOL    HW229979   4.673   3.079   5.315
 9694SOL     OW29980   2.542   0.153   1.882
 9694SOL    HW129981   2.501   0.231   1.834
 9694SOL    HW229982   2.526   0.164   1.980
 9695SOL     OW29983   1.058   2.753   3.396
 9695SOL    HW129984   1.120   2.800   3.458
 9695SOL    HW229985   0.970   2.801   3.393
 9696SOL     OW29986   5.231   3.163   3.436
 9696SOL    HW129987   5.300   3.099   3.401
 9696SOL    HW229988   5.189   3.124   3.518
 9697SOL     OW29989   0.290   6.698   0.973
 9697SOL    HW129990   0.326   6.791   0.966
 9697SOL    HW229991   0.200   6.695   0.931
 9698SOL     OW29992   6.231   3.499   1.440
 9698SOL    HW129993   6.240   3.593   1.474
 9698SOL    HW229994   6.258   3.435   1.512
 9699SOL     OW29995   1.616   6.147   1.031
 9699SOL    HW129996   1.630   6.245   1.039
 9699SOL    HW229997   1.519   6.126   1.043
 9700SOL     OW29998   5.488   0.301   5.552
 9700SOL    HW129999   5.524   0.392   5.534
 9700SOL    HW230000   5.564   0.235   5.557
 9701SOL     OW30001   4.607   3.906   6.932
 9701SOL    HW130002   4.545   3.941   6.862
 9701SOL    HW230003   4.659   3.981   6.971
 9702SOL     OW30004   3.747   3.831   1.887
 9702SOL    HW130005   3.794   3.754   1.931
 9702SOL    HW230006   3.725   3.901   1.955
 9703SOL     OW30007   5.952   4.158   4.232
 9703SOL    HW130008   5.910   4.120   4.150
 9703SOL    HW230009   5.894   4.141   4.311
 9704SOL     OW30010   1.696   4.372   2.730
 9704SOL    HW130011   1.682   4.403   2.636
 9704SOL    HW230012   1.643   4.431   2.792
 9705SOL     OW30013   6.993   2.742   5.134
 9705SOL    HW130014   0.004   2.696   5.218
 9705SOL    HW230015   0.013   2.696   5.054
 9706SOL     OW30016   0.664   1.409   2.621
 9706SOL    HW130017   0.680   1.312   2.638
 9706SOL    HW230018   0.593   1.443   2.683
 9707SOL     OW30019   1.396   4.908   2.063
 9707SOL    HW130020   1.419   5.000   2.094
 9707SOL    HW230021   1.300   4.905   2.036
 9708SOL     OW30022   2.382   0.674   2.076
 9708SOL    HW130023   2.374   0.755   2.016
 9708SOL    HW230024   2.415   0.597   2.023
 9709SOL     OW30025   5.885   2.306   1.581
 9709SOL    HW130026   5.803   2.289   1.527
 9709SOL    HW230027   5.862   2.304   1.679
 9710SOL     OW30028   6.475   5.389   4.293
 9710SOL    HW130029   6.557   5.337   4.271
 9710SOL    HW230030   6.420   5.401   4.210
 9711SOL     OW30031   3.476   0.761   0.529
 9711SOL    HW130032   3.424   0.778   0.614
 9711SOL    HW230033   3.448   0.827   0.460
 9712SOL     OW30034   5.713   1.419   6.849
 9712SOL    HW130035   5.686   1.512   6.875
 9712SOL    HW230036   5.800   1.396   6.894
 9713SOL     OW30037   1.335   6.487   2.703
 9713SOL    HW130038   1.418   6.456   2.748
 9713SOL    HW230039   1.280   6.407   2.676
 9714SOL     OW30040   2.318   4.432   4.291
 9714SOL    HW130041   2.279   4.345   4.261
 9714SOL    HW230042   2.254   4.478   4.352
 9715SOL     OW30043   6.721   3.770   6.830
 9715SOL    HW130044   6.633   3.724   6.824
 9715SOL    HW230045   6.777   3.746   6.750
 9716SOL     OW30046   2.834   5.427   0.265
 9716SOL    HW130047   2.832   5.381   0.354
 9716SOL    HW230048   2.929   5.446   0.240
 9717SOL     OW30049   3.961   2.270   5.343
 9717SOL    HW130050   3.988   2.305   5.433
 9717SOL    HW230051   3.879   2.214   5.352
 9718SOL     OW30052   4.207   2.517   6.149
 9718SOL    HW130053   4.192   2.614   6.129
 9718SOL    HW230054   4.294   2.506   6.197
 9719SOL     OW30055   4.797   6.509   5.822
 9719SOL    HW130056   4.885   6.507   5.775
 9719SOL    HW230057   4.807   6.468   5.913
 9720SOL     OW30058   2.107   3.195   3.142
 9720SOL    HW130059   2.111   3.104   3.103
 9720SOL    HW230060   2.062   3.258   3.079
 9721SOL     OW30061   1.057   1.138   0.358
 9721SOL    HW130062   1.057   1.225   0.309
 9721SOL    HW230063   1.020   1.151   0.450
 9722SOL     OW30064   3.848   2.563   5.347
 9722SOL    HW130065   3.940   2.601   5.362
 9722SOL    HW230066   3.852   2.464   5.351
 9723SOL     OW30067   6.531   0.215   5.001
 9723SOL    HW130068   6.474   0.218   5.083
 9723SOL    HW230069   6.556   0.308   4.973
 9724SOL     OW30070   1.762   4.953   0.435
 9724SOL    HW130071   1.767   5.037   0.381
 9724SOL    HW230072   1.842   4.896   0.416
 9725SOL     OW30073   4.034   5.074   4.754
 9725SOL    HW130074   4.114   5.014   4.764
 9725SOL    HW230075   3.951   5.021   4.765
 9726SOL     OW30076   0.184   0.889   3.281
 9726SOL    HW130077   0.275   0.852   3.258
 9726SOL    HW230078   0.169   0.974   3.231
 9727SOL     OW30079   6.980   1.497   1.373
 9727SOL    HW130080   6.950   1.583   1.415
 9727SOL    HW230081   0.011   1.517   1.289
 9728SOL     OW30082   4.530   1.982   4.316
 9728SOL    HW130083   4.518   1.972   4.415
 9728SOL    HW230084   4.611   1.931   4.288
 9729SOL     OW30085   0.171   5.142   2.905
 9729SOL    HW130086   0.208   5.088   2.830
 9729SOL    HW230087   0.200   5.237   2.895
 9730SOL     OW30088   1.172   4.612   2.996
 9730SOL    HW130089   1.090   4.669   2.985
 9730SOL    HW230090   1.242   4.664   3.044
 9731SOL     OW30091   5.691   3.238   1.862
 9731SOL    HW130092   5.755   3.184   1.807
 9731SOL    HW230093   5.709   3.222   1.959
 9732SOL     OW30094   1.647   3.594   3.188
 9732SOL    HW130095   1.587   3.575   3.111
 9732SOL    HW230096   1.696   3.511   3.214
 9733SOL     OW30097   5.645   4.517   1.804
 9733SOL    HW130098   5.612   4.543   1.894
 9733SOL    HW230099   5.678   4.423   1.806
 9734SOL     OW30100   5.190   5.900   6.574
 9734SOL    HW130101   5.278   5.855   6.561
 9734SOL    HW230102   5.168   5.955   6.493
 9735SOL     OW30103   0.790   2.332   1.099
 9735SOL    HW130104   0.739   2.417   1.083
 9735SOL    HW230105   0.769   2.266   1.027
 9736SOL     OW30106   4.838   1.751   4.654
 9736SOL    HW130107   4.925   1.779   4.614
 9736SOL    HW230108   4.787   1.832   4.683
 9737SOL     OW30109   6.373   3.321   3.061
 9737SOL    HW130110   6.361   3.408   3.108
 9737SOL    HW230111   6.285   3.289   3.027
 9738SOL     OW30112   2.448   6.716   1.639
 9738SOL    HW130113   2.507   6.767   1.577
 9738SOL    HW230114   2.450   6.758   1.730
 9739SOL     OW30115   5.905   6.944   0.601
 9739SOL    HW130116   5.894   6.856   0.555
 9739SOL    HW230117   5.820   6.996   0.595
 9740SOL     OW30118   6.177   1.130   3.035
 9740SOL    HW130119   6.084   1.156   3.060
 9740SOL    HW230120   6.192   1.034   3.059
 9741SOL     OW30121   2.562   1.883   4.646
 9741SOL    HW130122   2.653   1.849   4.623
 9741SOL    HW230123   2.495   1.842   4.584
 9742SOL     OW30124   3.464   2.104   6.272
 9742SOL    HW130125   3.465   2.137   6.366
 9742SOL    HW230126   3.384   2.140   6.225
 9743SOL     OW30127   5.397   3.798   4.191
 9743SOL    HW130128   5.331   3.859   4.234
 9743SOL    HW230129   5.356   3.756   4.109
 9744SOL     OW30130   1.807   1.812   3.123
 9744SOL    HW130131   1.747   1.866   3.064
 9744SOL    HW230132   1.803   1.848   3.216
 9745SOL     OW30133   6.836   0.603   6.302
 9745SOL    HW130134   6.903   0.652   6.359
 9745SOL    HW230135   6.785   0.538   6.359
 9746SOL     OW30136   4.455   4.900   5.953
 9746SOL    HW130137   4.468   4.806   5.920
 9746SOL    HW230138   4.540   4.933   5.994
 9747SOL     OW30139   2.536   1.323   3.008
 9747SOL    HW130140   2.615   1.263   2.995
 9747SOL    HW230141   2.482   1.325   2.924
 9748SOL     OW30142   0.910   0.789   3.336
 9748SOL    HW130143   0.931   0.765   3.431
 9748SOL    HW230144   0.989   0.767   3.279
 9749SOL     OW30145   6.871   0.890   2.216
 9749SOL    HW130146   6.961   0.895   2.172
 9749SOL    HW230147   6.838   0.795   2.211
 9750SOL     OW30148   6.075   3.312   4.313
 9750SOL    HW130149   6.078   3.372   4.392
 9750SOL    HW230150   6.017   3.233   4.333
 9751SOL     OW30151   4.004   0.058   1.750
 9751SOL    HW130152   3.905   0.057   1.764
 9751SOL    HW230153   4.047   7.009   1.808
 9752SOL     OW30154   3.287   3.506   0.108
 9752SOL    HW130155   3.292   3.441   0.032
 9752SOL    HW230156   3.191   3.522   0.132
 9753SOL     OW30157   6.761   6.245   5.278
 9753SOL    HW130158   6.831   6.218   5.211
 9753SOL    HW230159   6.671   6.218   5.244
 9754SOL     OW30160   3.046   0.736   1.786
 9754SOL    HW130161   3.065   0.698   1.695
 9754SOL    HW230162   3.035   0.835   1.779
 9755SOL     OW30163   2.717   3.678   0.417
 9755SOL    HW130164   2.746   3.762   0.370
 9755SOL    HW230165   2.622   3.658   0.393
 9756SOL     OW30166   5.619   0.163   5.825
 9756SOL    HW130167   5.687   0.118   5.884
 9756SOL    HW230168   5.660   0.243   5.782
 9757SOL     OW30169   5.304   4.087   4.033
 9757SOL    HW130170   5.359   4.155   3.985
 9757SOL    HW230171   5.329   4.087   4.130
 9758SOL     OW30172   1.865   0.577   2.169
 9758SOL    HW130173   1.949   0.553   2.120
 9758SOL    HW230174   1.889   0.606   2.262
 9759SOL     OW30175   6.807   1.290   1.427
 9759SOL    HW130176   6.738   1.321   1.494
 9759SOL    HW230177   6.864   1.368   1.401
 9760SOL     OW30178   4.851   1.086   0.028
 9760SOL    HW130179   4.834   1.101   6.951
 9760SOL    HW230180   4.872   1.174   0.072
 9761SOL     OW30181   1.506   2.498   1.089
 9761SOL    HW130182   1.415   2.458   1.077
 9761SOL    HW230183   1.567   2.429   1.129
 9762SOL     OW30184   3.003   1.727   5.642
 9762SOL    HW130185   2.904   1.719   5.650
 9762SOL    HW230186   3.027   1.736   5.545
 9763SOL     OW30187   6.298   1.262   1.097
 9763SOL    HW130188   6.281   1.201   1.019
 9763SOL    HW230189   6.237   1.341   1.090
 9764SOL     OW30190   6.929   2.091   2.712
 9764SOL    HW130191   6.943   1.992   2.714
 9764SOL    HW230192   6.884   2.120   2.797
 9765SOL     OW30193   6.944   7.004   2.336
 9765SOL    HW130194   6.938   0.081   2.361
 9765SOL    HW230195   6.985   6.952   2.412
 9766SOL     OW30196   1.698   1.837   4.058
 9766SOL    HW130197   1.739   1.757   4.014
 9766SOL    HW230198   1.743   1.920   4.025
 9767SOL     OW30199   2.386   1.683   5.783
 9767SOL    HW130200   2.448   1.689   5.705
 9767SOL    HW230201   2.393   1.766   5.838
 9768SOL     OW30202   5.602   2.990   0.485
 9768SOL    HW130203   5.587   3.000   0.583
 9768SOL    HW230204   5.595   3.080   0.440
 9769SOL     OW30205   3.793   1.730   5.396
 9769SOL    HW130206   3.752   1.724   5.488
 9769SOL    HW230207   3.839   1.644   5.375
 9770SOL     OW30208   2.414   2.464   6.294
 9770SOL    HW130209   2.471   2.531   6.247
 9770SOL    HW230210   2.318   2.477   6.269
 9771SOL     OW30211   2.724   0.015   2.084
 9771SOL    HW130212   2.817   7.000   2.071
 9771SOL    HW230213   2.729   0.107   2.124
 9772SOL     OW30214   0.844   0.688   1.417
 9772SOL    HW130215   0.858   0.623   1.342
 9772SOL    HW230216   0.762   0.662   1.468
 9773SOL     OW30217   5.475   4.975   1.947
 9773SOL    HW130218   5.507   4.883   1.968
 9773SOL    HW230219   5.425   5.012   2.025
 9774SOL     OW30220   1.369   4.526   5.395
 9774SOL    HW130221   1.430   4.589   5.442
 9774SOL    HW230222   1.370   4.438   5.441
 9775SOL     OW30223   2.547   1.342   3.803
 9775SOL    HW130224   2.621   1.381   3.857
 9775SOL    HW230225   2.580   1.325   3.710
 9776SOL     OW30226   2.541   5.258   0.309
 9776SOL    HW130227   2.495   5.305   0.234
 9776SOL    HW230228   2.638   5.248   0.287
 9777SOL     OW30229   4.334   0.961   5.628
 9777SOL    HW130230   4.429   0.990   5.634
 9777SOL    HW230231   4.296   0.953   5.720
 9778SOL     OW30232   0.528   3.956   3.717
 9778SOL    HW130233   0.610   3.958   3.660
 9778SOL    HW230234   0.461   3.892   3.678
 9779SOL     OW30235   2.320   0.815   3.663
 9779SOL    HW130236   2.331   0.850   3.756
 9779SOL    HW230237   2.223   0.798   3.645
 9780SOL     OW30238   1.034   2.845   2.156
 9780SOL    HW130239   1.101   2.916   2.135
 9780SOL    HW230240   0.953   2.858   2.098
 9781SOL     OW30241   2.079   2.282   3.087
 9781SOL    HW130242   1.995   2.318   3.046
 9781SOL    HW230243   2.157   2.303   3.028
 9782SOL     OW30244   0.257   2.616   1.032
 9782SOL    HW130245   0.169   2.597   1.075
 9782SOL    HW230246   0.331   2.584   1.091
 9783SOL     OW30247   3.951   1.122   3.063
 9783SOL    HW130248   4.003   1.044   3.028
 9783SOL    HW230249   3.991   1.207   3.029
 9784SOL     OW30250   1.240   1.553   6.266
 9784SOL    HW130251   1.276   1.602   6.345
 9784SOL    HW230252   1.196   1.468   6.296
 9785SOL     OW30253   0.022   3.735   4.367
 9785SOL    HW130254   0.000   3.639   4.381
 9785SOL    HW230255   0.121   3.746   4.355
 9786SOL     OW30256   2.286   3.942   0.259
 9786SOL    HW130257   2.307   3.928   0.163
 9786SOL    HW230258   2.293   3.855   0.308
 9787SOL     OW30259   3.254   3.584   3.237
 9787SOL    HW130260   3.345   3.559   3.203
 9787SOL    HW230261   3.184   3.554   3.172
 9788SOL     OW30262   4.007   0.517   2.147
 9788SOL    HW130263   4.006   0.480   2.054
 9788SOL    HW230264   3.954   0.602   2.150
 9789SOL     OW30265   3.451   1.610   0.044
 9789SOL    HW130266   3.399   1.665   6.998
 9789SOL    HW230267   3.504   1.541   7.014
 9790SOL     OW30268   6.824   5.127   4.143
 9790SOL    HW130269   6.770   5.206   4.173
 9790SOL    HW230270   6.785   5.090   4.059
 9791SOL     OW30271   0.994   6.556   1.456
 9791SOL    HW130272   1.016   6.624   1.526
 9791SOL    HW230273   0.959   6.474   1.499
 9792SOL     OW30274   3.969   5.704   0.892
 9792SOL    HW130275   4.010   5.614   0.904
 9792SOL    HW230276   3.976   5.731   0.796
 9793SOL     OW30277   5.714   0.623   3.570
 9793SOL    HW130278   5.654   0.589   3.642
 9793SOL    HW230279   5.659   0.675   3.504
 9794SOL     OW30280   4.585   4.412   4.360
 9794SOL    HW130281   4.588   4.313   4.354
 9794SOL    HW230282   4.633   4.453   4.282
 9795SOL     OW30283   1.876   3.416   3.253
 9795SOL    HW130284   1.934   3.481   3.203
 9795SOL    HW230285   1.927   3.378   3.329
 9796SOL     OW30286   3.909   3.790   3.798
 9796SOL    HW130287   3.908   3.877   3.750
 9796SOL    HW230288   3.983   3.732   3.762
 9797SOL     OW30289   2.771   4.994   6.910
 9797SOL    HW130290   2.781   5.090   6.935
 9797SOL    HW230291   2.681   4.961   6.938
 9798SOL     OW30292   7.019   3.752   6.913
 9798SOL    HW130293   7.018   3.652   6.918
 9798SOL    HW230294   6.929   3.787   6.939
 9799SOL     OW30295   2.698   0.374   6.537
 9799SOL    HW130296   2.600   0.376   6.519
 9799SOL    HW230297   2.714   0.377   6.636
 9800SOL     OW30298   6.816   3.636   4.705
 9800SOL    HW130299   6.849   3.725   4.674
 9800SOL    HW230300   6.771   3.646   4.793
 9801SOL     OW30301   6.532   6.379   6.976
 9801SOL    HW130302   6.486   6.380   6.887
 9801SOL    HW230303   6.474   6.332   0.023
 9802SOL     OW30304   3.660   4.661   0.119
 9802SOL    HW130305   3.732   4.636   0.183
 9802SOL    HW230306   3.579   4.690   0.170
 9803SOL     OW30307   0.798   3.851   6.765
 9803SOL    HW130308   0.779   3.943   6.800
 9803SOL    HW230309   0.854   3.858   6.682
 9804SOL     OW30310   0.159   5.759   2.758
 9804SOL    HW130311   0.108   5.692   2.812
 9804SOL    HW230312   0.097   5.807   2.696
 9805SOL     OW30313   0.673   6.108   3.995
 9805SOL    HW130314   0.742   6.106   3.923
 9805SOL    HW230315   0.609   6.032   3.981
 9806SOL     OW30316   3.846   1.618   0.250
 9806SOL    HW130317   3.851   1.575   0.160
 9806SOL    HW230318   3.803   1.708   0.241
 9807SOL     OW30319   3.763   3.214   2.084
 9807SOL    HW130320   3.699   3.171   2.020
 9807SOL    HW230321   3.831   3.147   2.113
 9808SOL     OW30322   3.874   5.676   2.529
 9808SOL    HW130323   3.818   5.730   2.591
 9808SOL    HW230324   3.966   5.716   2.523
 9809SOL     OW30325   7.009   3.246   1.091
 9809SOL    HW130326   0.054   3.249   1.015
 9809SOL    HW230327   6.946   3.169   1.079
 9810SOL     OW30328   2.852   1.940   0.613
 9810SOL    HW130329   2.821   1.864   0.556
 9810SOL    HW230330   2.802   2.023   0.590
 9811SOL     OW30331   5.824   3.565   4.670
 9811SOL    HW130332   5.815   3.535   4.575
 9811SOL    HW230333   5.773   3.650   4.683
 9812SOL     OW30334   3.865   6.633   5.792
 9812SOL    HW130335   3.884   6.727   5.760
 9812SOL    HW230336   3.911   6.618   5.880
 9813SOL     OW30337   5.200   1.500   1.641
 9813SOL    HW130338   5.221   1.586   1.594
 9813SOL    HW230339   5.104   1.499   1.666
 9814SOL     OW30340   5.714   1.451   0.287
 9814SOL    HW130341   5.756   1.520   0.229
 9814SOL    HW230342   5.780   1.380   0.309
 9815SOL     OW30343   4.378   2.394   4.332
 9815SOL    HW130344   4.351   2.312   4.282
 9815SOL    HW230345   4.437   2.451   4.274
 9816SOL     OW30346   2.417   0.043   0.149
 9816SOL    HW130347   2.488   0.050   0.079
 9816SOL    HW230348   2.327   0.053   0.107
 9817SOL     OW30349   6.647   6.949   2.731
 9817SOL    HW130350   6.637   6.919   2.636
 9817SOL    HW230351   6.613   6.877   2.791
 9818SOL     OW30352   6.133   2.816   4.430
 9818SOL    HW130353   6.168   2.858   4.513
 9818SOL    HW230354   6.033   2.815   4.433
 9819SOL     OW30355   4.270   0.449   2.912
 9819SOL    HW130356   4.245   0.353   2.928
 9819SOL    HW230357   4.359   0.467   2.953
 9820SOL     OW30358   4.750   3.195   5.777
 9820SOL    HW130359   4.722   3.219   5.870
 9820SOL    HW230360   4.727   3.099   5.760
 9821SOL     OW30361   6.305   5.193   0.126
 9821SOL    HW130362   6.288   5.106   0.173
 9821SOL    HW230363   6.223   5.249   0.130
 9822SOL     OW30364   0.591   6.768   2.442
 9822SOL    HW130365   0.604   6.675   2.477
 9822SOL    HW230366   0.601   6.833   2.516
 9823SOL     OW30367   3.254   1.134   1.722
 9823SOL    HW130368   3.285   1.040   1.735
 9823SOL    HW230369   3.333   1.195   1.715
 9824SOL     OW30370   1.305   3.963   6.141
 9824SOL    HW130371   1.322   4.026   6.065
 9824SOL    HW230372   1.209   3.967   6.166
 9825SOL     OW30373   3.833   4.922   5.147
 9825SOL    HW130374   3.789   4.977   5.076
 9825SOL    HW230375   3.800   4.827   5.141
 9826SOL     OW30376   4.472   0.669   5.955
 9826SOL    HW130377   4.432   0.743   6.009
 9826SOL    HW230378   4.544   0.706   5.895
 9827SOL     OW30379   1.246   3.835   4.529
 9827SOL    HW130380   1.191   3.871   4.603
 9827SOL    HW230381   1.223   3.882   4.444
 9828SOL     OW30382   3.618   2.675   6.603
 9828SOL    HW130383   3.538   2.659   6.660
 9828SOL    HW230384   3.640   2.772   6.603
 9829SOL     OW30385   2.824   5.170   0.424
 9829SOL    HW130386   2.791   5.096   0.483
 9829SOL    HW230387   2.921   5.156   0.404
 9830SOL     OW30388   5.755   1.057   1.235
 9830SOL    HW130389   5.692   1.112   1.180
 9830SOL    HW230390   5.817   1.007   1.175
 9831SOL     OW30391   6.007   6.640   1.579
 9831SOL    HW130392   6.008   6.648   1.678
 9831SOL    HW230393   6.100   6.651   1.543
 9832SOL     OW30394   4.632   4.924   1.056
 9832SOL    HW130395   4.560   4.930   0.987
 9832SOL    HW230396   4.642   4.829   1.086
 9833SOL     OW30397   3.666   3.693   5.072
 9833SOL    HW130398   3.614   3.746   5.139
 9833SOL    HW230399   3.614   3.686   4.987
 9834SOL     OW30400   0.711   3.482   4.375
 9834SOL    HW130401   0.699   3.465   4.473
 9834SOL    HW230402   0.645   3.551   4.344
 9835SOL     OW30403   4.880   2.167   4.186
 9835SOL    HW130404   4.905   2.220   4.106
 9835SOL    HW230405   4.781   2.176   4.202
 9836SOL     OW30406   4.800   5.297   3.051
 9836SOL    HW130407   4.890   5.340   3.041
 9836SOL    HW230408   4.731   5.367   3.065
 9837SOL     OW30409   2.472   6.227   4.123
 9837SOL    HW130410   2.516   6.295   4.065
 9837SOL    HW230411   2.507   6.235   4.217
 9838SOL     OW30412   1.106   5.976   5.881
 9838SOL    HW130413   1.067   6.050   5.826
 9838SOL    HW230414   1.075   5.888   5.845
 9839SOL     OW30415   0.119   2.022   1.826
 9839SOL    HW130416   0.059   1.963   1.773
 9839SOL    HW230417   0.126   1.988   1.920
 9840SOL     OW30418   6.463   0.350   1.460
 9840SOL    HW130419   6.472   0.264   1.410
 9840SOL    HW230420   6.431   0.422   1.398
 9841SOL     OW30421   1.478   3.583   4.609
 9841SOL    HW130422   1.384   3.555   4.592
 9841SOL    HW230423   1.516   3.624   4.526
 9842SOL     OW30424   3.076   3.251   2.256
 9842SOL    HW130425   2.996   3.215   2.209
 9842SOL    HW230426   3.088   3.203   2.343
 9843SOL     OW30427   6.832   2.473   2.150
 9843SOL    HW130428   6.808   2.430   2.064
 9843SOL    HW230429   6.788   2.425   2.226
 9844SOL     OW30430   5.329   0.404   2.419
 9844SOL    HW130431   5.264   0.470   2.456
 9844SOL    HW230432   5.341   0.421   2.321
 9845SOL     OW30433   1.550   2.065   3.421
 9845SOL    HW130434   1.582   2.104   3.507
 9845SOL    HW230435   1.463   2.106   3.395
 9846SOL     OW30436   2.931   3.266   2.896
 9846SOL    HW130437   2.875   3.191   2.862
 9846SOL    HW230438   2.915   3.277   2.994
 9847SOL     OW30439   2.072   3.842   5.955
 9847SOL    HW130440   2.010   3.919   5.960
 9847SOL    HW230441   2.141   3.858   5.884
 9848SOL     OW30442   4.590   2.972   6.946
 9848SOL    HW130443   4.622   2.880   6.923
 9848SOL    HW230444   4.622   3.037   6.876
 9849SOL     OW30445   6.952   6.813   6.488
 9849SOL    HW130446   7.011   6.734   6.507
 9849SOL    HW230447   7.007   6.887   6.449
 9850SOL     OW30448   3.748   6.078   2.850
 9850SOL    HW130449   3.759   5.988   2.808
 9850SOL    HW230450   3.838   6.118   2.867
 9851SOL     OW30451   5.415   1.463   5.348
 9851SOL    HW130452   5.504   1.501   5.376
 9851SOL    HW230453   5.405   1.471   5.249
 9852SOL     OW30454   4.995   1.944   3.612
 9852SOL    HW130455   4.974   1.884   3.689
 9852SOL    HW230456   4.909   1.974   3.570
 9853SOL     OW30457   6.159   3.962   2.818
 9853SOL    HW130458   6.106   3.958   2.902
 9853SOL    HW230459   6.179   4.058   2.796
 9854SOL     OW30460   5.480   5.198   4.022
 9854SOL    HW130461   5.428   5.250   4.090
 9854SOL    HW230462   5.574   5.185   4.055
 9855SOL     OW30463   1.356   3.474   1.742
 9855SOL    HW130464   1.361   3.480   1.642
 9855SOL    HW230465   1.388   3.384   1.771
 9856SOL     OW30466   3.787   3.136   0.590
 9856SOL    HW130467   3.754   3.229   0.577
 9856SOL    HW230468   3.867   3.136   0.650
 9857SOL     OW30469   5.910   3.217   3.072
 9857SOL    HW130470   5.845   3.228   3.147
 9857SOL    HW230471   5.863   3.231   2.985
 9858SOL     OW30472   5.489   0.678   1.877
 9858SOL    HW130473   5.572   0.667   1.821
 9858SOL    HW230474   5.408   0.661   1.820
 9859SOL     OW30475   6.200   0.702   2.307
 9859SOL    HW130476   6.171   0.758   2.384
 9859SOL    HW230477   6.264   0.632   2.339
 9860SOL     OW30478   0.443   1.242   2.233
 9860SOL    HW130479   0.524   1.300   2.244
 9860SOL    HW230480   0.436   1.213   2.138
 9861SOL     OW30481   4.070   5.763   4.200
 9861SOL    HW130482   3.974   5.746   4.221
 9861SOL    HW230483   4.089   5.861   4.205
 9862SOL     OW30484   1.565   2.575   0.765
 9862SOL    HW130485   1.590   2.543   0.673
 9862SOL    HW230486   1.641   2.560   0.828
 9863SOL     OW30487   3.696   0.247   2.827
 9863SOL    HW130488   3.792   0.242   2.856
 9863SOL    HW230489   3.673   0.164   2.776
 9864SOL     OW30490   5.003   5.862   2.451
 9864SOL    HW130491   5.027   5.781   2.504
 9864SOL    HW230492   5.080   5.889   2.393
 9865SOL     OW30493   0.372   0.404   3.796
 9865SOL    HW130494   0.392   0.493   3.835
 9865SOL    HW230495   0.441   0.338   3.827
 9866SOL     OW30496   4.990   3.805   4.248
 9866SOL    HW130497   5.008   3.879   4.183
 9866SOL    HW230498   4.955   3.842   4.334
 9867SOL     OW30499   4.920   1.099   0.358
 9867SOL    HW130500   4.878   1.147   0.436
 9867SOL    HW230501   4.851   1.085   0.287
 9868SOL     OW30502   6.525   4.701   6.888
 9868SOL    HW130503   6.560   4.607   6.880
 9868SOL    HW230504   6.571   4.759   6.821
 9869SOL     OW30505   1.988   4.250   2.920
 9869SOL    HW130506   2.012   4.270   2.825
 9869SOL    HW230507   1.931   4.323   2.956
 9870SOL     OW30508   4.759   4.749   2.788
 9870SOL    HW130509   4.677   4.798   2.760
 9870SOL    HW230510   4.782   4.680   2.720
 9871SOL     OW30511   2.293   0.836   5.843
 9871SOL    HW130512   2.270   0.831   5.746
 9871SOL    HW230513   2.361   0.908   5.858
 9872SOL     OW30514   2.965   4.795   3.162
 9872SOL    HW130515   2.948   4.813   3.258
 9872SOL    HW230516   3.044   4.735   3.152
 9873SOL     OW30517   1.372   2.950   0.324
 9873SOL    HW130518   1.291   2.968   0.380
 9873SOL    HW230519   1.405   3.035   0.284
 9874SOL     OW30520   0.611   3.233   3.565
 9874SOL    HW130521   0.544   3.255   3.636
 9874SOL    HW230522   0.688   3.184   3.606
 9875SOL     OW30523   0.373   0.657   2.526
 9875SOL    HW130524   0.377   0.745   2.573
 9875SOL    HW230525   0.378   0.672   2.427
 9876SOL     OW30526   6.688   6.809   2.490
 9876SOL    HW130527   6.780   6.778   2.465
 9876SOL    HW230528   6.640   6.735   2.537
 9877SOL     OW30529   3.283   6.799   2.865
 9877SOL    HW130530   3.254   6.892   2.888
 9877SOL    HW230531   3.291   6.789   2.766
 9878SOL     OW30532   1.368   6.011   5.538
 9878SOL    HW130533   1.452   6.034   5.490
 9878SOL    HW230534   1.382   5.928   5.592
 9879SOL     OW30535   4.060   5.332   5.230
 9879SOL    HW130536   4.014   5.298   5.149
 9879SOL    HW230537   4.117   5.260   5.269
 9880SOL     OW30538   1.095   2.219   5.970
 9880SOL    HW130539   1.157   2.273   5.913
 9880SOL    HW230540   1.100   2.252   6.064
 9881SOL     OW30541   0.533   2.437   5.886
 9881SOL    HW130542   0.445   2.426   5.841
 9881SOL    HW230543   0.603   2.461   5.818
 9882SOL     OW30544   1.050   2.174   4.022
 9882SOL    HW130545   1.081   2.267   4.043
 9882SOL    HW230546   1.129   2.116   4.001
 9883SOL     OW30547   1.495   0.921   2.042
 9883SOL    HW130548   1.586   0.941   2.007
 9883SOL    HW230549   1.447   0.860   1.978
 9884SOL     OW30550   4.041   0.431   4.131
 9884SOL    HW130551   3.949   0.423   4.170
 9884SOL    HW230552   4.108   0.396   4.197
 9885SOL     OW30553   5.791   4.836   4.646
 9885SOL    HW130554   5.890   4.827   4.656
 9885SOL    HW230555   5.758   4.906   4.710
 9886SOL     OW30556   1.083   5.031   2.790
 9886SOL    HW130557   1.165   5.088   2.782
 9886SOL    HW230558   1.082   4.964   2.716
 9887SOL     OW30559   3.284   1.379   0.274
 9887SOL    HW130560   3.303   1.477   0.282
 9887SOL    HW230561   3.269   1.340   0.365
 9888SOL     OW30562   6.979   4.128   0.296
 9888SOL    HW130563   6.991   4.029   0.304
 9888SOL    HW230564   6.980   4.169   0.387
 9889SOL     OW30565   6.144   4.741   0.532
 9889SOL    HW130566   6.168   4.651   0.497
 9889SOL    HW230567   6.055   4.769   0.496
 9890SOL     OW30568   1.290   3.118   1.296
 9890SOL    HW130569   1.231   3.169   1.233
 9890SOL    HW230570   1.270   3.021   1.289
 9891SOL     OW30571   5.570   2.670   0.106
 9891SOL    HW130572   5.606   2.694   0.196
 9891SOL    HW230573   5.504   2.739   0.077
 9892SOL     OW30574   6.663   4.669   0.155
 9892SOL    HW130575   6.756   4.666   0.119
 9892SOL    HW230576   6.619   4.754   0.124
 9893SOL     OW30577   2.018   1.205   1.274
 9893SOL    HW130578   2.016   1.202   1.374
 9893SOL    HW230579   1.960   1.280   1.241
 9894SOL     OW30580   1.074   1.694   0.428
 9894SOL    HW130581   1.059   1.730   0.520
 9894SOL    HW230582   1.107   1.599   0.434
 9895SOL     OW30583   5.551   3.477   5.142
 9895SOL    HW130584   5.579   3.448   5.051
 9895SOL    HW230585   5.552   3.399   5.204
 9896SOL     OW30586   6.776   0.171   0.189
 9896SOL    HW130587   6.734   0.260   0.206
 9896SOL    HW230588   6.705   0.100   0.193
 9897SOL     OW30589   5.652   4.975   3.255
 9897SOL    HW130590   5.701   4.904   3.305
 9897SOL    HW230591   5.595   4.934   3.184
 9898SOL     OW30592   3.184   5.888   5.806
 9898SOL    HW130593   3.269   5.892   5.859
 9898SOL    HW230594   3.192   5.818   5.736
 9899SOL     OW30595   0.315   5.485   0.371
 9899SOL    HW130596   0.252   5.457   0.299
 9899SOL    HW230597   0.269   5.478   0.459
 9900SOL     OW30598   1.927   4.399   3.525
 9900SOL    HW130599   1.883   4.401   3.435
 9900SOL    HW230600   1.972   4.486   3.542
 9901SOL     OW30601   2.643   2.592   5.599
 9901SOL    HW130602   2.700   2.512   5.583
 9901SOL    HW230603   2.550   2.562   5.620
 9902SOL     OW30604   2.067   4.566   6.803
 9902SOL    HW130605   2.031   4.550   6.711
 9902SOL    HW230606   2.166   4.563   6.801
 9903SOL     OW30607   5.284   1.622   3.367
 9903SOL    HW130608   5.305   1.525   3.360
 9903SOL    HW230609   5.361   1.676   3.333
 9904SOL     OW30610   6.996   3.500   6.950
 9904SOL    HW130611   6.972   3.450   6.866
 9904SOL    HW230612   0.070   3.477   6.976
 9905SOL     OW30613   4.132   1.439   0.652
 9905SOL    HW130614   4.176   1.496   0.721
 9905SOL    HW230615   4.094   1.498   0.580
 9906SOL     OW30616   3.713   3.048   2.839
 9906SOL    HW130617   3.813   3.049   2.833
 9906SOL    HW230618   3.675   3.005   2.757
 9907SOL     OW30619   0.069   0.625   2.126
 9907SOL    HW130620   0.037   0.699   2.067
 9907SOL    HW230621   0.116   0.556   2.071
 9908SOL     OW30622   4.667   2.507   2.981
 9908SOL    HW130623   4.659   2.532   2.884
 9908SOL    HW230624   4.722   2.424   2.990
 9909SOL     OW30625   2.804   6.446   4.107
 9909SOL    HW130626   2.715   6.444   4.061
 9909SOL    HW230627   2.871   6.491   4.049
 9910SOL     OW30628   1.100   4.739   2.677
 9910SOL    HW130629   1.104   4.682   2.595
 9910SOL    HW230630   1.018   4.716   2.729
 9911SOL     OW30631   3.928   6.678   2.042
 9911SOL    HW130632   3.862   6.667   2.118
 9911SOL    HW230633   3.923   6.771   2.007
 9912SOL     OW30634   4.861   1.882   0.314
 9912SOL    HW130635   4.867   1.796   0.364
 9912SOL    HW230636   4.949   1.901   0.269
 9913SOL     OW30637   5.876   2.994   6.819
 9913SOL    HW130638   5.933   2.973   6.739
 9913SOL    HW230639   5.863   3.093   6.825
 9914SOL     OW30640   0.572   2.575   4.881
 9914SOL    HW130641   0.500   2.511   4.852
 9914SOL    HW230642   0.554   2.665   4.841
 9915SOL     OW30643   4.844   1.020   3.542
 9915SOL    HW130644   4.795   1.065   3.617
 9915SOL    HW230645   4.779   0.976   3.480
 9916SOL     OW30646   2.221   2.614   2.095
 9916SOL    HW130647   2.163   2.695   2.100
 9916SOL    HW230648   2.310   2.639   2.056
 9917SOL     OW30649   6.852   4.481   5.919
 9917SOL    HW130650   6.905   4.464   5.836
 9917SOL    HW230651   6.830   4.579   5.924
 9918SOL     OW30652   4.040   1.379   3.000
 9918SOL    HW130653   4.116   1.411   2.943
 9918SOL    HW230654   4.015   1.449   3.067
 9919SOL     OW30655   6.032   6.690   1.845
 9919SOL    HW130656   5.948   6.736   1.873
 9919SOL    HW230657   6.109   6.753   1.852
 9920SOL     OW30658   4.757   1.457   2.901
 9920SOL    HW130659   4.800   1.535   2.855
 9920SOL    HW230660   4.828   1.394   2.931
 9921SOL     OW30661   4.226   5.243   6.090
 9921SOL    HW130662   4.126   5.239   6.096
 9921SOL    HW230663   4.263   5.273   6.178
 9922SOL     OW30664   0.896   5.790   0.538
 9922SOL    HW130665   0.991   5.763   0.549
 9922SOL    HW230666   0.890   5.878   0.490
 9923SOL     OW30667   4.592   4.963   0.098
 9923SOL    HW130668   4.579   4.920   0.187
 9923SOL    HW230669   4.688   4.959   0.072
 9924SOL     OW30670   0.119   3.268   5.002
 9924SOL    HW130671   0.028   3.296   4.974
 9924SOL    HW230672   0.149   3.325   5.079
 9925SOL     OW30673   5.244   2.512   4.123
 9925SOL    HW130674   5.164   2.545   4.174
 9925SOL    HW230675   5.291   2.590   4.081
 9926SOL     OW30676   2.327   3.891   6.987
 9926SOL    HW130677   2.344   3.801   6.947
 9926SOL    HW230678   2.245   3.931   6.945
 9927SOL     OW30679   6.004   0.116   2.709
 9927SOL    HW130680   5.976   0.020   2.712
 9927SOL    HW230681   5.986   0.159   2.798
 9928SOL     OW30682   5.287   4.753   1.294
 9928SOL    HW130683   5.248   4.796   1.212
 9928SOL    HW230684   5.241   4.789   1.375
 9929SOL     OW30685   2.167   5.777   5.065
 9929SOL    HW130686   2.216   5.710   5.120
 9929SOL    HW230687   2.099   5.729   5.009
 9930SOL     OW30688   6.723   0.070   4.707
 9930SOL    HW130689   6.638   0.051   4.658
 9930SOL    HW230690   6.800   0.066   4.643
 9931SOL     OW30691   1.144   3.993   5.227
 9931SOL    HW130692   1.134   3.898   5.200
 9931SOL    HW230693   1.160   4.049   5.146
 9932SOL     OW30694   1.027   6.499   6.361
 9932SOL    HW130695   1.062   6.471   6.450
 9932SOL    HW230696   0.931   6.526   6.370
 9933SOL     OW30697   1.473   5.640   2.496
 9933SOL    HW130698   1.488   5.731   2.457
 9933SOL    HW230699   1.428   5.648   2.585
 9934SOL     OW30700   6.059   2.064   5.334
 9934SOL    HW130701   6.052   2.020   5.245
 9934SOL    HW230702   6.019   2.156   5.329
 9935SOL     OW30703   2.319   1.038   7.000
 9935SOL    HW130704   2.381   0.963   7.018
 9935SOL    HW230705   2.336   1.074   6.908
 9936SOL     OW30706   0.652   4.419   4.565
 9936SOL    HW130707   0.744   4.455   4.575
 9936SOL    HW230708   0.588   4.476   4.616
 9937SOL     OW30709   6.641   1.784   5.781
 9937SOL    HW130710   6.612   1.691   5.801
 9937SOL    HW230711   6.700   1.784   5.700
 9938SOL     OW30712   6.843   5.846   2.977
 9938SOL    HW130713   6.765   5.860   3.038
 9938SOL    HW230714   6.867   5.933   2.933
 9939SOL     OW30715   3.233   2.953   1.267
 9939SOL    HW130716   3.197   3.037   1.309
 9939SOL    HW230717   3.262   2.890   1.339
 9940SOL     OW30718   6.740   0.651   0.880
 9940SOL    HW130719   6.708   0.597   0.957
 9940SOL    HW230720   6.709   0.746   0.891
 9941SOL     OW30721   2.855   4.175   5.574
 9941SOL    HW130722   2.851   4.209   5.480
 9941SOL    HW230723   2.770   4.126   5.595
 9942SOL     OW30724   2.194   5.507   2.378
 9942SOL    HW130725   2.255   5.452   2.320
 9942SOL    HW230726   2.180   5.460   2.465
 9943SOL     OW30727   0.787   5.665   5.804
 9943SOL    HW130728   0.732   5.582   5.794
 9943SOL    HW230729   0.745   5.740   5.753
 9944SOL     OW30730   1.478   4.163   6.868
 9944SOL    HW130731   1.388   4.167   6.825
 9944SOL    HW230732   1.468   4.154   6.967
 9945SOL     OW30733   0.155   5.285   0.200
 9945SOL    HW130734   0.081   5.337   0.159
 9945SOL    HW230735   0.159   5.194   0.160
 9946SOL     OW30736   5.123   0.638   4.940
 9946SOL    HW130737   5.088   0.658   5.031
 9946SOL    HW230738   5.055   0.666   4.871
 9947SOL     OW30739   6.302   4.900   5.440
 9947SOL    HW130740   6.389   4.895   5.390
 9947SOL    HW230741   6.255   4.984   5.415
 9948SOL     OW30742   4.732   4.192   4.764
 9948SOL    HW130743   4.640   4.209   4.799
 9948SOL    HW230744   4.753   4.259   4.692
 9949SOL     OW30745   5.812   4.778   3.371
 9949SOL    HW130746   5.904   4.740   3.376
 9949SOL    HW230747   5.797   4.840   3.448
 9950SOL     OW30748   4.549   6.059   5.042
 9950SOL    HW130749   4.608   5.985   5.074
 9950SOL    HW230750   4.553   6.136   5.106
 9951SOL     OW30751   5.560   2.572   3.039
 9951SOL    HW130752   5.482   2.614   2.994
 9951SOL    HW230753   5.545   2.570   3.138
 9952SOL     OW30754   6.737   4.357   0.656
 9952SOL    HW130755   6.800   4.289   0.619
 9952SOL    HW230756   6.678   4.314   0.724
 9953SOL     OW30757   6.115   2.005   3.573
 9953SOL    HW130758   6.210   2.012   3.545
 9953SOL    HW230759   6.102   2.054   3.659
 9954SOL     OW30760   6.098   0.219   5.267
 9954SOL    HW130761   6.022   0.252   5.323
 9954SOL    HW230762   6.128   0.292   5.205
 9955SOL     OW30763   6.918   4.447   4.335
 9955SOL    HW130764   6.949   4.355   4.311
 9955SOL    HW230765   6.925   4.506   4.254
 9956SOL     OW30766   2.127   6.564   2.241
 9956SOL    HW130767   2.155   6.579   2.336
 9956SOL    HW230768   2.097   6.650   2.201
 9957SOL     OW30769   6.526   5.023   3.532
 9957SOL    HW130770   6.573   4.958   3.592
 9957SOL    HW230771   6.510   4.979   3.443
 9958SOL     OW30772   2.876   4.201   1.130
 9958SOL    HW130773   2.965   4.191   1.085
 9958SOL    HW230774   2.888   4.251   1.216
 9959SOL     OW30775   3.925   3.460   6.163
 9959SOL    HW130776   4.000   3.523   6.144
 9959SOL    HW230777   3.939   3.417   6.252
 9960SOL     OW30778   6.837   1.325   2.276
 9960SOL    HW130779   6.883   1.399   2.325
 9960SOL    HW230780   6.769   1.363   2.213
 9961SOL     OW30781   1.850   5.587   4.210
 9961SOL    HW130782   1.920   5.546   4.268
 9961SOL    HW230783   1.880   5.586   4.115
 9962SOL     OW30784   4.899   6.207   5.008
 9962SOL    HW130785   4.973   6.215   4.940
 9962SOL    HW230786   4.899   6.288   5.066
 9963SOL     OW30787   3.518   1.401   0.940
 9963SOL    HW130788   3.437   1.389   0.882
 9963SOL    HW230789   3.533   1.318   0.994
 9964SOL     OW30790   4.062   5.824   4.703
 9964SOL    HW130791   3.985   5.880   4.672
 9964SOL    HW230792   4.049   5.730   4.673
 9965SOL     OW30793   4.060   0.249   0.059
 9965SOL    HW130794   4.150   0.288   0.039
 9965SOL    HW230795   4.072   0.163   0.109
 9966SOL     OW30796   0.744   5.621   2.230
 9966SOL    HW130797   0.785   5.712   2.232
 9966SOL    HW230798   0.814   5.554   2.207
 9967SOL     OW30799   1.530   5.547   1.637
 9967SOL    HW130800   1.617   5.507   1.609
 9967SOL    HW230801   1.465   5.541   1.561
 9968SOL     OW30802   3.974   3.677   2.158
 9968SOL    HW130803   4.006   3.740   2.087
 9968SOL    HW230804   3.889   3.634   2.127
 9969SOL     OW30805   1.422   3.730   2.182
 9969SOL    HW130806   1.476   3.697   2.259
 9969SOL    HW230807   1.326   3.704   2.195
 9970SOL     OW30808   5.830   4.298   1.864
 9970SOL    HW130809   5.864   4.209   1.831
 9970SOL    HW230810   5.791   4.288   1.955
 9971SOL     OW30811   2.289   4.433   0.627
 9971SOL    HW130812   2.221   4.367   0.659
 9971SOL    HW230813   2.377   4.414   0.669
 9972SOL     OW30814   6.919   4.859   2.418
 9972SOL    HW130815   6.902   4.879   2.321
 9972SOL    HW230816   6.978   4.778   2.424
 9973SOL     OW30817   5.947   1.261   4.294
 9973SOL    HW130818   5.957   1.260   4.195
 9973SOL    HW230819   6.004   1.190   4.335
 9974SOL     OW30820   1.721   0.644   3.814
 9974SOL    HW130821   1.734   0.546   3.827
 9974SOL    HW230822   1.625   0.664   3.797
 9975SOL     OW30823   0.230   2.545   0.048
 9975SOL    HW130824   0.224   2.634   0.002
 9975SOL    HW230825   0.151   2.534   0.108
 9976SOL     OW30826   1.229   6.829   5.178
 9976SOL    HW130827   1.209   6.822   5.275
 9976SOL    HW230828   1.156   6.880   5.132
 9977SOL     OW30829   5.949   4.529   4.706
 9977SOL    HW130830   5.982   4.622   4.690
 9977SOL    HW230831   6.013   4.463   4.666
 9978SOL     OW30832   0.283   2.188   3.781
 9978SOL    HW130833   0.364   2.219   3.831
 9978SOL    HW230834   0.262   2.252   3.707
 9979SOL     OW30835   6.350   3.364   4.582
 9979SOL    HW130836   6.416   3.292   4.603
 9979SOL    HW230837   6.398   3.442   4.541
 9980SOL     OW30838   3.505   0.833   6.558
 9980SOL    HW130839   3.491   0.799   6.652
 9980SOL    HW230840   3.448   0.781   6.495
 9981SOL     OW30841   2.986   1.940   4.331
 9981SOL    HW130842   3.019   2.016   4.275
 9981SOL    HW230843   2.938   1.874   4.273
 9982SOL     OW30844   6.819   6.190   4.063
 9982SOL    HW130845   6.856   6.165   3.973
 9982SOL    HW230846   6.723   6.163   4.068
 9983SOL     OW30847   0.091   1.429   2.064
 9983SOL    HW130848   0.030   1.504   2.089
 9983SOL    HW230849   0.186   1.456   2.083
 9984SOL     OW30850   2.764   1.831   6.646
 9984SOL    HW130851   2.825   1.816   6.724
 9984SOL    HW230852   2.699   1.755   6.640
 9985SOL     OW30853   1.293   0.973   2.245
 9985SOL    HW130854   1.216   0.929   2.201
 9985SOL    HW230855   1.352   1.016   2.176
 9986SOL     OW30856   5.702   4.050   5.138
 9986SOL    HW130857   5.723   4.053   5.040
 9986SOL    HW230858   5.681   3.955   5.164
 9987SOL     OW30859   6.767   3.923   5.919
 9987SOL    HW130860   6.687   3.965   5.876
 9987SOL    HW230861   6.833   3.995   5.943
 9988SOL     OW30862   6.875   0.030   5.427
 9988SOL    HW130863   6.920   0.118   5.438
 9988SOL    HW230864   6.924   6.980   5.480
 9989SOL     OW30865   0.722   3.136   5.120
 9989SOL    HW130866   0.735   3.085   5.035
 9989SOL    HW230867   0.745   3.233   5.105
 9990SOL     OW30868   1.073   4.924   3.046
 9990SOL    HW130869   1.017   4.987   3.099
 9990SOL    HW230870   1.094   4.964   2.957
 9991SOL     OW30871   2.955   2.016   3.994
 9991SOL    HW130872   2.968   2.081   4.068
 9991SOL    HW230873   2.870   1.966   4.006
 9992SOL     OW30874   6.119   5.698   6.066
 9992SOL    HW130875   6.087   5.603   6.068
 9992SOL    HW230876   6.046   5.758   6.034
 9993SOL     OW30877   1.133   1.472   2.005
 9993SOL    HW130878   1.166   1.565   1.989
 9993SOL    HW230879   1.092   1.436   1.921
 9994SOL     OW30880   6.074   4.670   3.305
 9994SOL    HW130881   6.069   4.703   3.211
 9994SOL    HW230882   6.102   4.745   3.366
 9995SOL     OW30883   5.857   0.690   4.535
 9995SOL    HW130884   5.895   0.607   4.576
 9995SOL    HW230885   5.930   0.741   4.489
 9996SOL     OW30886   3.242   4.489   6.949
 9996SOL    HW130887   3.247   4.390   6.962
 9996SOL    HW230888   3.160   4.511   6.895
 9997SOL     OW30889   2.493   0.261   5.411
 9997SOL    HW130890   2.510   0.224   5.320
 9997SOL    HW230891   2.477   0.359   5.404
 9998SOL     OW30892   5.734   5.880   5.638
 9998SOL    HW130893   5.752   5.976   5.618
 9998SOL    HW230894   5.724   5.868   5.737
 9999SOL     OW30895   6.747   2.322   5.464
 9999SOL    HW130896   6.756   2.398   5.400
 9999SOL    HW230897   6.807   2.247   5.437
10000SOL     OW30898   0.532   2.764   6.516
10000SOL    HW130899   0.582   2.751   6.430
10000SOL    HW230900   0.540   2.681   6.572
10001SOL     OW30901   4.185   0.454   2.599
10001SOL    HW130902   4.090   0.484   2.593
10001SOL    HW230903   4.206   0.429   2.693
10002SOL     OW30904   0.901   0.660   2.032
10002SOL    HW130905   0.888   0.639   1.935
10002SOL    HW230906   0.839   0.604   2.087
10003SOL     OW30907   3.938   2.161   3.574
10003SOL    HW130908   3.839   2.163   3.580
10003SOL    HW230909   3.969   2.067   3.561
10004SOL     OW30910   6.681   2.004   2.843
10004SOL    HW130911   6.659   1.992   2.939
10004SOL    HW230912   6.663   1.919   2.794
10005SOL     OW30913   4.706   6.459   4.092
10005SOL    HW130914   4.626   6.455   4.152
10005SOL    HW230915   4.743   6.552   4.092
10006SOL     OW30916   3.520   6.738   4.858
10006SOL    HW130917   3.572   6.722   4.774
10006SOL    HW230918   3.527   6.658   4.918
10007SOL     OW30919   6.995   3.676   3.921
10007SOL    HW130920   6.930   3.688   3.846
10007SOL    HW230921   6.977   3.589   3.967
10008SOL     OW30922   2.796   6.928   4.035
10008SOL    HW130923   2.843   7.011   4.003
10008SOL    HW230924   2.698   6.936   4.014
10009SOL     OW30925   1.326   4.459   1.592
10009SOL    HW130926   1.259   4.424   1.656
10009SOL    HW230927   1.404   4.396   1.588
10010SOL     OW30928   0.734   1.472   6.039
10010SOL    HW130929   0.715   1.417   5.957
10010SOL    HW230930   0.819   1.522   6.026
10011SOL     OW30931   0.056   6.641   5.465
10011SOL    HW130932   0.144   6.606   5.434
10011SOL    HW230933   7.005   6.572   5.451
10012SOL     OW30934   6.216   1.228   3.728
10012SOL    HW130935   6.204   1.133   3.701
10012SOL    HW230936   6.142   1.255   3.790
10013SOL     OW30937   0.747   0.809   2.617
10013SOL    HW130938   0.755   0.714   2.588
10013SOL    HW230939   0.687   0.815   2.697
10014SOL     OW30940   0.715   4.716   6.130
10014SOL    HW130941   0.691   4.626   6.093
10014SOL    HW230942   0.697   4.717   6.228
10015SOL     OW30943   1.856   4.258   0.353
10015SOL    HW130944   1.786   4.196   0.387
10015SOL    HW230945   1.945   4.212   0.356
10016SOL     OW30946   2.453   1.005   5.967
10016SOL    HW130947   2.541   1.041   5.999
10016SOL    HW230948   2.384   1.077   5.971
10017SOL     OW30949   1.401   2.260   4.380
10017SOL    HW130950   1.370   2.318   4.456
10017SOL    HW230951   1.322   2.212   4.340
10018SOL     OW30952   5.088   6.793   6.045
10018SOL    HW130953   5.176   6.826   6.079
10018SOL    HW230954   5.075   6.698   6.071
10019SOL     OW30955   0.727   1.235   3.098
10019SOL    HW130956   0.785   1.265   3.022
10019SOL    HW230957   0.781   1.180   3.161
10020SOL     OW30958   0.336   3.054   1.117
10020SOL    HW130959   0.310   3.127   1.181
10020SOL    HW230960   0.255   2.999   1.095
10021SOL     OW30961   0.221   3.690   0.637
10021SOL    HW130962   0.307   3.640   0.651
10021SOL    HW230963   0.237   3.769   0.579
10022SOL     OW30964   1.568   1.886   6.332
10022SOL    HW130965   1.585   1.950   6.257
10022SOL    HW230966   1.494   1.823   6.307
10023SOL     OW30967   0.041   3.774   0.853
10023SOL    HW130968   0.095   3.742   0.775
10023SOL    HW230969   0.100   3.779   0.934
10024SOL     OW30970   1.965   4.881   3.734
10024SOL    HW130971   2.053   4.929   3.726
10024SOL    HW230972   1.893   4.946   3.757
10025SOL     OW30973   1.428   1.190   0.792
10025SOL    HW130974   1.410   1.094   0.813
10025SOL    HW230975   1.518   1.199   0.750
10026SOL     OW30976   6.817   0.422   3.089
10026SOL    HW130977   6.779   0.335   3.055
10026SOL    HW230978   6.826   0.417   3.188
10027SOL     OW30979   4.567   2.665   5.080
10027SOL    HW130980   4.647   2.684   5.023
10027SOL    HW230981   4.516   2.588   5.042
10028SOL     OW30982   2.025   0.648   0.368
10028SOL    HW130983   1.997   0.617   0.278
10028SOL    HW230984   2.121   0.675   0.366
10029SOL     OW30985   5.718   1.769   3.441
10029SOL    HW130986   5.762   1.679   3.435
10029SOL    HW230987   5.788   1.840   3.435
10030SOL     OW30988   2.133   0.393   3.231
10030SOL    HW130989   2.214   0.335   3.237
10030SOL    HW230990   2.063   0.348   3.176
10031SOL     OW30991   6.347   4.780   4.479
10031SOL    HW130992   6.440   4.769   4.515
10031SOL    HW230993   6.348   4.845   4.403
10032SOL     OW30994   2.800   1.569   4.733
10032SOL    HW130995   2.891   1.541   4.704
10032SOL    HW230996   2.746   1.488   4.757
10033SOL     OW30997   5.470   3.009   4.638
10033SOL    HW130998   5.441   2.913   4.636
10033SOL    HW230999   5.554   3.017   4.693
10034SOL     OW31000   5.331   0.610   5.669
10034SOL    HW131001   5.345   0.544   5.742
10034SOL    HW231002   5.404   0.602   5.601
10035SOL     OW31003   0.213   5.931   1.549
10035SOL    HW131004   0.210   5.886   1.460
10035SOL    HW231005   0.289   5.894   1.602
10036SOL     OW31006   6.757   0.823   0.319
10036SOL    HW131007   6.750   0.781   0.229
10036SOL    HW231008   6.844   0.798   0.362
10037SOL     OW31009   1.008   6.720   0.304
10037SOL    HW131010   0.983   6.679   0.216
10037SOL    HW231011   0.981   6.658   0.378
10038SOL     OW31012   6.342   0.381   1.717
10038SOL    HW131013   6.272   0.314   1.742
10038SOL    HW231014   6.385   0.354   1.631
10039SOL     OW31015   3.424   0.573   3.639
10039SOL    HW131016   3.405   0.649   3.577
10039SOL    HW231017   3.522   0.555   3.641
10040SOL     OW31018   0.887   2.817   1.249
10040SOL    HW131019   0.975   2.812   1.203
10040SOL    HW231020   0.821   2.863   1.189
10041SOL     OW31021   2.393   5.783   0.249
10041SOL    HW131022   2.365   5.748   0.159
10041SOL    HW231023   2.337   5.741   0.320
10042SOL     OW31024   5.852   3.130   2.580
10042SOL    HW131025   5.765   3.082   2.587
10042SOL    HW231026   5.915   3.076   2.524
10043SOL     OW31027   0.474   2.052   4.912
10043SOL    HW131028   0.498   2.010   4.824
10043SOL    HW231029   0.529   2.134   4.926
10044SOL     OW31030   3.115   1.702   5.879
10044SOL    HW131031   3.106   1.714   5.780
10044SOL    HW231032   3.030   1.663   5.915
10045SOL     OW31033   3.325   1.254   0.799
10045SOL    HW131034   3.307   1.205   0.713
10045SOL    HW231035   3.294   1.198   0.875
10046SOL     OW31036   1.506   5.595   0.669
10046SOL    HW131037   1.471   5.682   0.702
10046SOL    HW231038   1.442   5.522   0.691
10047SOL     OW31039   0.809   3.190   1.006
10047SOL    HW131040   0.711   3.170   1.003
10047SOL    HW231041   0.837   3.204   1.101
10048SOL     OW31042   6.092   4.891   3.469
10048SOL    HW131043   6.078   4.990   3.465
10048SOL    HW231044   6.144   4.867   3.551
10049SOL     OW31045   6.969   0.465   5.355
10049SOL    HW131046   0.001   0.497   5.276
10049SOL    HW231047   6.961   0.538   5.422
10050SOL     OW31048   7.011   3.027   6.824
10050SOL    HW131049   0.089   3.040   6.839
10050SOL    HW231050   6.974   2.966   6.895
10051SOL     OW31051   2.217   2.888   3.912
10051SOL    HW131052   2.215   2.921   3.818
10051SOL    HW231053   2.219   2.965   3.975
10052SOL     OW31054   1.071   6.612   3.268
10052SOL    HW131055   1.077   6.546   3.193
10052SOL    HW231056   1.069   6.705   3.230
10053SOL     OW31057   5.876   5.223   5.040
10053SOL    HW131058   5.859   5.225   5.139
10053SOL    HW231059   5.840   5.306   4.998
10054SOL     OW31060   6.509   3.905   5.035
10054SOL    HW131061   6.538   3.987   5.085
10054SOL    HW231062   6.498   3.829   5.099
10055SOL     OW31063   0.961   1.846   0.206
10055SOL    HW131064   0.909   1.930   0.218
10055SOL    HW231065   0.983   1.806   0.295
10056SOL     OW31066   6.091   2.108   3.802
10056SOL    HW131067   6.118   2.204   3.793
10056SOL    HW231068   6.152   2.063   3.867
10057SOL     OW31069   5.859   5.190   5.347
10057SOL    HW131070   5.783   5.227   5.400
10057SOL    HW231071   5.834   5.100   5.312
10058SOL     OW31072   0.454   3.411   5.141
10058SOL    HW131073   0.495   3.472   5.209
10058SOL    HW231074   0.369   3.372   5.177
10059SOL     OW31075   6.003   0.787   0.108
10059SOL    HW131076   5.995   0.689   0.086
10059SOL    HW231077   6.098   0.815   0.099
10060SOL     OW31078   2.483   1.513   1.458
10060SOL    HW131079   2.558   1.447   1.461
10060SOL    HW231080   2.514   1.597   1.414
10061SOL     OW31081   4.294   0.072   2.745
10061SOL    HW131082   4.217   0.021   2.782
10061SOL    HW231083   4.356   0.098   2.819
10062SOL     OW31084   0.297   0.402   4.886
10062SOL    HW131085   0.246   0.337   4.830
10062SOL    HW231086   0.282   0.383   4.983
10063SOL     OW31087   2.267   2.365   4.890
10063SOL    HW131088   2.342   2.412   4.844
10063SOL    HW231089   2.254   2.275   4.850
10064SOL     OW31090   2.758   6.912   0.317
10064SOL    HW131091   2.769   6.880   0.411
10064SOL    HW231092   2.768   7.012   0.315
10065SOL     OW31093   0.535   2.194   1.838
10065SOL    HW131094   0.546   2.167   1.934
10065SOL    HW231095   0.484   2.124   1.789
10066SOL     OW31096   6.121   3.923   3.911
10066SOL    HW131097   6.208   3.891   3.875
10066SOL    HW231098   6.065   3.845   3.941
10067SOL     OW31099   6.690   3.236   5.157
10067SOL    HW131100   6.764   3.173   5.182
10067SOL    HW231101   6.642   3.266   5.239
10068SOL     OW31102   1.854   2.948   3.238
10068SOL    HW131103   1.811   3.035   3.211
10068SOL    HW231104   1.912   2.916   3.164
10069SOL     OW31105   2.948   4.703   0.365
10069SOL    HW131106   2.872   4.657   0.318
10069SOL    HW231107   2.985   4.775   0.306
10070SOL     OW31108   4.266   6.565   6.543
10070SOL    HW131109   4.322   6.603   6.617
10070SOL    HW231110   4.292   6.470   6.528
10071SOL     OW31111   5.663   0.393   4.491
10071SOL    HW131112   5.585   0.411   4.431
10071SOL    HW231113   5.637   0.412   4.586
10072SOL     OW31114   6.353   3.343   1.179
10072SOL    HW131115   6.270   3.372   1.227
10072SOL    HW231116   6.431   3.346   1.242
10073SOL     OW31117   5.428   4.533   5.273
10073SOL    HW131118   5.448   4.475   5.352
10073SOL    HW231119   5.443   4.482   5.189
10074SOL     OW31120   1.599   5.605   0.374
10074SOL    HW131121   1.572   5.621   0.469
10074SOL    HW231122   1.689   5.562   0.373
10075SOL     OW31123   1.666   3.321   1.960
10075SOL    HW131124   1.743   3.272   2.002
10075SOL    HW231125   1.662   3.414   1.996
10076SOL     OW31126   5.193   4.963   4.726
10076SOL    HW131127   5.093   4.960   4.719
10076SOL    HW231128   5.220   5.047   4.774
10077SOL     OW31129   5.081   3.799   6.376
10077SOL    HW131130   5.038   3.712   6.401
10077SOL    HW231131   5.173   3.803   6.416
10078SOL     OW31132   6.420   5.501   5.303
10078SOL    HW131133   6.461   5.412   5.321
10078SOL    HW231134   6.361   5.495   5.223
10079SOL     OW31135   5.407   3.485   4.054
10079SOL    HW131136   5.332   3.528   4.003
10079SOL    HW231137   5.488   3.481   3.995
10080SOL     OW31138   5.278   1.426   5.979
10080SOL    HW131139   5.219   1.355   5.939
10080SOL    HW231140   5.248   1.446   6.072
10081SOL     OW31141   1.167   4.412   0.464
10081SOL    HW131142   1.190   4.461   0.548
10081SOL    HW231143   1.139   4.477   0.393
10082SOL     OW31144   1.048   4.900   1.474
10082SOL    HW131145   1.101   4.847   1.540
10082SOL    HW231146   0.959   4.922   1.514
10083SOL     OW31147   3.089   5.730   2.667
10083SOL    HW131148   3.032   5.792   2.613
10083SOL    HW231149   3.159   5.784   2.716
10084SOL     OW31150   1.010   1.394   4.921
10084SOL    HW131151   0.989   1.473   4.862
10084SOL    HW231152   1.073   1.333   4.874
10085SOL     OW31153   5.105   0.216   0.693
10085SOL    HW131154   5.192   0.196   0.738
10085SOL    HW231155   5.086   0.147   0.624
10086SOL     OW31156   5.076   6.820   3.553
10086SOL    HW131157   5.117   6.867   3.632
10086SOL    HW231158   4.978   6.808   3.569
10087SOL     OW31159   0.877   6.141   5.103
10087SOL    HW131160   0.782   6.122   5.080
10087SOL    HW231161   0.919   6.194   5.029
10088SOL     OW31162   6.515   3.073   1.740
10088SOL    HW131163   6.554   3.136   1.672
10088SOL    HW231164   6.508   3.118   1.828
10089SOL     OW31165   3.246   0.780   1.162
10089SOL    HW131166   3.239   0.681   1.169
10089SOL    HW231167   3.343   0.807   1.162
10090SOL     OW31168   2.407   6.473   3.466
10090SOL    HW131169   2.347   6.547   3.437
10090SOL    HW231170   2.447   6.429   3.385
10091SOL     OW31171   6.214   4.875   5.147
10091SOL    HW131172   6.251   4.823   5.070
10091SOL    HW231173   6.220   4.820   5.230
10092SOL     OW31174   0.861   2.500   3.721
10092SOL    HW131175   0.854   2.414   3.772
10092SOL    HW231176   0.797   2.498   3.644
10093SOL     OW31177   4.875   4.397   6.089
10093SOL    HW131178   4.895   4.314   6.140
10093SOL    HW231179   4.905   4.386   5.994
10094SOL     OW31180   3.916   2.358   1.473
10094SOL    HW131181   3.939   2.360   1.570
10094SOL    HW231182   3.819   2.337   1.462
10095SOL     OW31183   4.249   3.144   5.362
10095SOL    HW131184   4.249   3.229   5.414
10095SOL    HW231185   4.197   3.155   5.278
10096SOL     OW31186   6.482   3.717   2.157
10096SOL    HW131187   6.387   3.706   2.185
10096SOL    HW231188   6.490   3.796   2.096
10097SOL     OW31189   0.370   1.761   0.801
10097SOL    HW131190   0.435   1.739   0.727
10097SOL    HW231191   0.383   1.696   0.876
10098SOL     OW31192   2.989   5.368   4.396
10098SOL    HW131193   3.069   5.424   4.419
10098SOL    HW231194   3.019   5.289   4.342
10099SOL     OW31195   0.212   5.112   2.313
10099SOL    HW131196   0.257   5.027   2.342
10099SOL    HW231197   0.200   5.110   2.213
10100SOL     OW31198   5.318   4.587   4.135
10100SOL    HW131199   5.262   4.509   4.162
10100SOL    HW231200   5.339   4.643   4.215
10101SOL     OW31201   6.893   3.340   0.663
10101SOL    HW131202   6.833   3.278   0.612
10101SOL    HW231203   6.838   3.398   0.723
10102SOL     OW31204   6.859   5.593   3.381
10102SOL    HW131205   6.810   5.531   3.443
10102SOL    HW231206   6.804   5.674   3.363
10103SOL     OW31207   0.276   5.738   6.926
10103SOL    HW131208   0.367   5.717   6.891
10103SOL    HW231209   0.262   5.691   7.013
10104SOL     OW31210   2.610   0.553   4.593
10104SOL    HW131211   2.527   0.566   4.647
10104SOL    HW231212   2.681   0.617   4.624
10105SOL     OW31213   2.865   1.165   5.042
10105SOL    HW131214   2.867   1.070   5.075
10105SOL    HW231215   2.958   1.195   5.023
10106SOL     OW31216   5.585   4.420   1.346
10106SOL    HW131217   5.623   4.355   1.412
10106SOL    HW231218   5.618   4.512   1.366
10107SOL     OW31219   5.215   4.985   0.363
10107SOL    HW131220   5.267   5.070   0.375
10107SOL    HW231221   5.128   5.005   0.318
10108SOL     OW31222   1.956   2.544   5.814
10108SOL    HW131223   2.005   2.478   5.757
10108SOL    HW231224   1.918   2.497   5.894
10109SOL     OW31225   1.028   2.528   1.570
10109SOL    HW131226   1.002   2.616   1.530
10109SOL    HW231227   0.996   2.524   1.665
10110SOL     OW31228   5.901   5.338   2.589
10110SOL    HW131229   5.808   5.368   2.613
10110SOL    HW231230   5.898   5.246   2.551
10111SOL     OW31231   0.073   2.755   2.112
10111SOL    HW131232   0.013   2.732   2.189
10111SOL    HW231233   0.165   2.774   2.146
10112SOL     OW31234   7.000   2.701   3.197
10112SOL    HW131235   0.039   2.781   3.213
10112SOL    HW231236   6.958   2.707   3.107
10113SOL     OW31237   6.189   0.359   6.514
10113SOL    HW131238   6.180   0.290   6.442
10113SOL    HW231239   6.117   0.428   6.504
10114SOL     OW31240   6.138   2.731   2.001
10114SOL    HW131241   6.056   2.713   1.947
10114SOL    HW231242   6.206   2.660   1.981
10115SOL     OW31243   3.546   2.572   6.004
10115SOL    HW131244   3.460   2.529   6.033
10115SOL    HW231245   3.578   2.634   6.076
10116SOL     OW31246   6.808   0.219   5.707
10116SOL    HW131247   6.877   0.225   5.635
10116SOL    HW231248   6.789   0.310   5.744
10117SOL     OW31249   6.427   4.454   3.145
10117SOL    HW131250   6.400   4.469   3.240
10117SOL    HW231251   6.377   4.375   3.108
10118SOL     OW31252   4.250   5.273   3.772
10118SOL    HW131253   4.154   5.246   3.768
10118SOL    HW231254   4.295   5.251   3.686
10119SOL     OW31255   6.453   5.968   6.452
10119SOL    HW131256   6.472   6.057   6.410
10119SOL    HW231257   6.408   5.908   6.386
10120SOL     OW31258   2.297   2.544   3.504
10120SOL    HW131259   2.343   2.457   3.524
10120SOL    HW231260   2.341   2.588   3.426
10121SOL     OW31261   0.411   5.264   1.020
10121SOL    HW131262   0.319   5.302   1.015
10121SOL    HW231263   0.405   5.166   1.039
10122SOL     OW31264   1.922   0.202   3.245
10122SOL    HW131265   1.972   0.118   3.267
10122SOL    HW231266   1.873   0.189   3.158
10123SOL     OW31267   6.786   5.489   6.639
10123SOL    HW131268   6.880   5.486   6.605
10123SOL    HW231269   6.734   5.557   6.589
10124SOL     OW31270   2.615   5.190   2.756
10124SOL    HW131271   2.662   5.166   2.671
10124SOL    HW231272   2.586   5.107   2.802
10125SOL     OW31273   1.112   0.863   4.893
10125SOL    HW131274   1.132   0.786   4.832
10125SOL    HW231275   1.191   0.878   4.952
10126SOL     OW31276   6.595   6.593   5.900
10126SOL    HW131277   6.658   6.623   5.971
10126SOL    HW231278   6.530   6.667   5.880
10127SOL     OW31279   2.727   6.955   6.157
10127SOL    HW131280   2.758   6.991   6.246
10127SOL    HW231281   2.663   0.001   6.116
10128SOL     OW31282   2.080   2.582   0.475
10128SOL    HW131283   2.113   2.674   0.497
10128SOL    HW231284   2.155   2.527   0.438
10129SOL     OW31285   6.130   2.164   4.895
10129SOL    HW131286   6.184   2.223   4.955
10129SOL    HW231287   6.086   2.220   4.824
10130SOL     OW31288   0.342   1.533   4.269
10130SOL    HW131289   0.325   1.499   4.177
10130SOL    HW231290   0.408   1.609   4.265
10131SOL     OW31291   2.134   6.570   4.601
10131SOL    HW131292   2.068   6.621   4.546
10131SOL    HW231293   2.212   6.544   4.545
10132SOL     OW31294   5.471   6.950   1.981
10132SOL    HW131295   5.538   6.989   2.043
10132SOL    HW231296   5.443   6.860   2.015
10133SOL     OW31297   5.361   6.311   1.140
10133SOL    HW131298   5.427   6.295   1.214
10133SOL    HW231299   5.337   6.225   1.096
10134SOL     OW31300   6.702   0.180   3.042
10134SOL    HW131301   6.655   0.188   2.954
10134SOL    HW231302   6.773   0.110   3.036
10135SOL     OW31303   5.981   0.096   3.023
10135SOL    HW131304   6.048   0.126   3.092
10135SOL    HW231305   5.979   7.016   3.021
10136SOL     OW31306   4.503   1.106   3.447
10136SOL    HW131307   4.528   1.202   3.446
10136SOL    HW231308   4.420   1.093   3.502
10137SOL     OW31309   6.877   4.863   5.136
10137SOL    HW131310   6.848   4.903   5.223
10137SOL    HW231311   6.808   4.798   5.104
10138SOL     OW31312   6.939   2.872   1.907
10138SOL    HW131313   6.866   2.919   1.958
10138SOL    HW231314   6.991   2.814   1.969
10139SOL     OW31315   3.246   2.901   6.646
10139SOL    HW131316   3.337   2.865   6.623
10139SOL    HW231317   3.257   2.987   6.696
10140SOL     OW31318   0.986   5.954   5.299
10140SOL    HW131319   0.953   6.003   5.219
10140SOL    HW231320   1.083   5.934   5.288
10141SOL     OW31321   1.903   2.678   4.391
10141SOL    HW131322   1.840   2.648   4.320
10141SOL    HW231323   1.905   2.610   4.465
10142SOL     OW31324   4.303   6.105   3.135
10142SOL    HW131325   4.330   6.134   3.227
10142SOL    HW231326   4.374   6.046   3.097
10143SOL     OW31327   5.848   2.663   5.814
10143SOL    HW131328   5.919   2.628   5.752
10143SOL    HW231329   5.814   2.589   5.871
10144SOL     OW31330   3.502   6.776   0.809
10144SOL    HW131331   3.403   6.787   0.814
10144SOL    HW231332   3.542   6.857   0.766
10145SOL     OW31333   6.387   0.109   6.252
10145SOL    HW131334   6.422   0.201   6.269
10145SOL    HW231335   6.448   0.042   6.293
10146SOL     OW31336   1.200   2.857   5.195
10146SOL    HW131337   1.102   2.844   5.205
10146SOL    HW231338   1.244   2.858   5.285
10147SOL     OW31339   4.085   5.838   5.569
10147SOL    HW131340   4.113   5.749   5.605
10147SOL    HW231341   4.151   5.870   5.501
10148SOL     OW31342   0.655   4.275   0.327
10148SOL    HW131343   0.701   4.228   0.403
10148SOL    HW231344   0.592   4.344   0.364
10149SOL     OW31345   4.177   3.383   1.350
10149SOL    HW131346   4.170   3.471   1.304
10149SOL    HW231347   4.108   3.320   1.314
10150SOL     OW31348   4.599   4.287   1.030
10150SOL    HW131349   4.664   4.214   1.007
10150SOL    HW231350   4.512   4.270   0.983
10151SOL     OW31351   6.499   1.179   6.143
10151SOL    HW131352   6.584   1.151   6.188
10151SOL    HW231353   6.424   1.121   6.174
10152SOL     OW31354   3.607   6.659   2.719
10152SOL    HW131355   3.539   6.597   2.756
10152SOL    HW231356   3.699   6.621   2.733
10153SOL     OW31357   4.748   4.095   1.880
10153SOL    HW131358   4.654   4.126   1.892
10153SOL    HW231359   4.785   4.130   1.794
10154SOL     OW31360   3.829   5.081   5.386
10154SOL    HW131361   3.831   5.019   5.307
10154SOL    HW231362   3.918   5.123   5.398
10155SOL     OW31363   4.093   1.561   4.101
10155SOL    HW131364   4.128   1.613   4.023
10155SOL    HW231365   4.044   1.481   4.067
10156SOL     OW31366   4.153   1.890   6.273
10156SOL    HW131367   4.239   1.905   6.225
10156SOL    HW231368   4.144   1.794   6.298
10157SOL     OW31369   0.154   4.450   1.485
10157SOL    HW131370   0.254   4.440   1.493
10157SOL    HW231371   0.117   4.370   1.437
10158SOL     OW31372   5.740   5.137   6.685
10158SOL    HW131373   5.755   5.043   6.716
10158SOL    HW231374   5.664   5.177   6.737
10159SOL     OW31375   3.262   2.837   1.880
10159SOL    HW131376   3.266   2.933   1.855
10159SOL    HW231377   3.261   2.828   1.980
10160SOL     OW31378   0.010   4.377   2.488
10160SOL    HW131379   0.002   4.337   2.579
10160SOL    HW231380   0.002   4.477   2.494
10161SOL     OW31381   5.527   3.268   5.378
10161SOL    HW131382   5.587   3.249   5.456
10161SOL    HW231383   5.432   3.254   5.406
10162SOL     OW31384   1.428   2.647   1.999
10162SOL    HW131385   1.359   2.599   2.054
10162SOL    HW231386   1.408   2.634   1.902
10163SOL     OW31387   2.604   5.376   4.972
10163SOL    HW131388   2.656   5.294   4.950
10163SOL    HW231389   2.535   5.355   5.041
10164SOL     OW31390   0.163   1.222   3.635
10164SOL    HW131391   0.251   1.231   3.682
10164SOL    HW231392   0.090   1.256   3.693
10165SOL     OW31393   0.987   3.504   4.363
10165SOL    HW131394   0.888   3.513   4.351
10165SOL    HW231395   1.035   3.564   4.299
10166SOL     OW31396   2.536   6.522   2.520
10166SOL    HW131397   2.583   6.607   2.542
10166SOL    HW231398   2.564   6.492   2.428
10167SOL     OW31399   2.320   2.135   6.940
10167SOL    HW131400   2.414   2.127   6.907
10167SOL    HW231401   2.288   2.046   6.970
10168SOL     OW31402   6.782   0.212   6.784
10168SOL    HW131403   6.708   0.213   6.851
10168SOL    HW231404   6.834   0.296   6.790
10169SOL     OW31405   4.982   4.613   3.608
10169SOL    HW131406   4.917   4.551   3.652
10169SOL    HW231407   4.977   4.602   3.508
10170SOL     OW31408   5.260   6.086   0.243
10170SOL    HW131409   5.293   5.992   0.254
10170SOL    HW231410   5.242   6.125   0.333
10171SOL     OW31411   2.056   4.664   5.073
10171SOL    HW131412   2.093   4.611   5.150
10171SOL    HW231413   2.131   4.692   5.014
10172SOL     OW31414   6.620   0.939   3.142
10172SOL    HW131415   6.591   0.977   3.230
10172SOL    HW231416   6.546   0.881   3.106
10173SOL     OW31417   3.859   3.439   4.980
10173SOL    HW131418   3.779   3.380   4.991
10173SOL    HW231419   3.934   3.388   4.939
10174SOL     OW31420   4.526   5.365   1.141
10174SOL    HW131421   4.540   5.267   1.156
10174SOL    HW231422   4.428   5.384   1.128
10175SOL     OW31423   0.180   6.974   4.658
10175SOL    HW131424   0.144   6.884   4.684
10175SOL    HW231425   0.262   6.993   4.711
10176SOL     OW31426   0.015   0.524   4.855
10176SOL    HW131427   0.072   0.519   4.773
10176SOL    HW231428   6.955   0.582   4.837
10177SOL     OW31429   2.444   0.905   4.265
10177SOL    HW131430   2.481   0.828   4.213
10177SOL    HW231431   2.494   0.988   4.242
10178SOL     OW31432   0.695   1.653   1.389
10178SOL    HW131433   0.783   1.674   1.431
10178SOL    HW231434   0.675   1.556   1.400
10179SOL     OW31435   0.637   4.677   0.280
10179SOL    HW131436   0.613   4.703   0.186
10179SOL    HW231437   0.736   4.676   0.290
10180SOL     OW31438   3.911   0.041   6.292
10180SOL    HW131439   3.893   6.969   6.327
10180SOL    HW231440   3.896   0.108   6.364
10181SOL     OW31441   6.692   3.481   3.208
10181SOL    HW131442   6.677   3.387   3.179
10181SOL    HW231443   6.658   3.493   3.302
10182SOL     OW31444   4.204   0.880   1.094
10182SOL    HW131445   4.174   0.788   1.118
10182SOL    HW231446   4.126   0.942   1.097
10183SOL     OW31447   4.606   6.893   5.598
10183SOL    HW131448   4.579   6.811   5.647
10183SOL    HW231449   4.696   6.923   5.630
10184SOL     OW31450   5.258   1.629   5.765
10184SOL    HW131451   5.211   1.577   5.694
10184SOL    HW231452   5.269   1.572   5.846
10185SOL     OW31453   3.438   5.148   1.319
10185SOL    HW131454   3.429   5.211   1.396
10185SOL    HW231455   3.509   5.182   1.257
10186SOL     OW31456   3.595   3.382   6.398
10186SOL    HW131457   3.634   3.410   6.311
10186SOL    HW231458   3.497   3.403   6.399
10187SOL     OW31459   1.889   4.243   5.703
10187SOL    HW131460   1.891   4.207   5.610
10187SOL    HW231461   1.794   4.248   5.734
10188SOL     OW31462   3.119   6.986   5.944
10188SOL    HW131463   3.141   0.054   5.988
10188SOL    HW231464   3.044   7.000   5.879
10189SOL     OW31465   2.012   1.346   4.933
10189SOL    HW131466   1.966   1.272   4.981
10189SOL    HW231467   1.945   1.403   4.885
10190SOL     OW31468   4.374   4.390   0.843
10190SOL    HW131469   4.428   4.461   0.798
10190SOL    HW231470   4.406   4.300   0.813
10191SOL     OW31471   5.626   0.312   6.937
10191SOL    HW131472   5.709   0.261   6.918
10191SOL    HW231473   5.646   0.387   7.001
10192SOL     OW31474   2.015   1.046   4.701
10192SOL    HW131475   1.974   1.124   4.749
10192SOL    HW231476   1.971   0.961   4.732
10193SOL     OW31477   3.771   3.359   3.627
10193SOL    HW131478   3.708   3.281   3.626
10193SOL    HW231479   3.813   3.366   3.718
10194SOL     OW31480   3.331   0.286   2.941
10194SOL    HW131481   3.253   0.346   2.921
10194SOL    HW231482   3.415   0.340   2.938
10195SOL     OW31483   5.070   0.476   2.204
10195SOL    HW131484   5.113   0.448   2.119
10195SOL    HW231485   5.042   0.394   2.255
10196SOL     OW31486   5.192   3.247   4.950
10196SOL    HW131487   5.099   3.279   4.929
10196SOL    HW231488   5.251   3.326   4.967
10197SOL     OW31489   5.456   1.401   2.373
10197SOL    HW131490   5.542   1.425   2.417
10197SOL    HW231491   5.383   1.462   2.405
10198SOL     OW31492   2.255   0.439   1.555
10198SOL    HW131493   2.189   0.445   1.480
10198SOL    HW231494   2.346   0.464   1.522
10199SOL     OW31495   1.019   2.050   0.802
10199SOL    HW131496   0.947   2.111   0.835
10199SOL    HW231497   1.072   2.016   0.880
10200SOL     OW31498   5.641   5.360   5.509
10200SOL    HW131499   5.607   5.442   5.463
10200SOL    HW231500   5.634   5.372   5.608
10201SOL     OW31501   1.758   4.827   2.828
10201SOL    HW131502   1.800   4.853   2.915
10201SOL    HW231503   1.660   4.808   2.842
10202SOL     OW31504   0.747   3.042   2.978
10202SOL    HW131505   0.808   3.101   2.925
10202SOL    HW231506   0.748   2.950   2.939
10203SOL     OW31507   1.338   3.466   2.072
10203SOL    HW131508   1.330   3.487   1.975
10203SOL    HW231509   1.371   3.546   2.121
10204SOL     OW31510   3.101   4.871   4.152
10204SOL    HW131511   3.078   4.858   4.056
10204SOL    HW231512   3.040   4.817   4.209
10205SOL     OW31513   4.363   0.796   1.948
10205SOL    HW131514   4.347   0.883   1.994
10205SOL    HW231515   4.413   0.735   2.009
10206SOL     OW31516   4.506   0.467   6.208
10206SOL    HW131517   4.488   0.419   6.122
10206SOL    HW231518   4.426   0.521   6.233
10207SOL     OW31519   4.128   0.761   3.460
10207SOL    HW131520   4.214   0.735   3.416
10207SOL    HW231521   4.100   0.688   3.522
10208SOL     OW31522   6.276   4.159   4.993
10208SOL    HW131523   6.227   4.245   5.000
10208SOL    HW231524   6.252   4.114   4.906
10209SOL     OW31525   5.470   6.614   6.658
10209SOL    HW131526   5.428   6.541   6.712
10209SOL    HW231527   5.461   6.592   6.561
10210SOL     OW31528   5.016   5.636   1.104
10210SOL    HW131529   5.111   5.667   1.100
10210SOL    HW231530   4.973   5.670   1.187
10211SOL     OW31531   3.787   5.672   4.919
10211SOL    HW131532   3.828   5.736   4.985
10211SOL    HW231533   3.860   5.628   4.867
10212SOL     OW31534   5.902   6.415   5.324
10212SOL    HW131535   5.889   6.509   5.355
10212SOL    HW231536   5.998   6.401   5.302
10213SOL     OW31537   4.762   0.564   4.094
10213SOL    HW131538   4.780   0.468   4.076
10213SOL    HW231539   4.844   0.618   4.072
10214SOL     OW31540   6.995   0.859   1.108
10214SOL    HW131541   0.054   0.882   1.051
10214SOL    HW231542   6.944   0.943   1.129
10215SOL     OW31543   4.045   2.913   6.531
10215SOL    HW131544   4.139   2.906   6.500
10215SOL    HW231545   4.041   2.970   6.614
10216SOL     OW31546   4.979   0.193   2.288
10216SOL    HW131547   4.909   0.196   2.217
10216SOL    HW231548   5.014   0.099   2.297
10217SOL     OW31549   3.336   2.141   5.540
10217SOL    HW131550   3.303   2.127   5.447
10217SOL    HW231551   3.264   2.116   5.605
10218SOL     OW31552   2.333   2.373   0.788
10218SOL    HW131553   2.393   2.431   0.842
10218SOL    HW231554   2.365   2.278   0.792
10219SOL     OW31555   0.938   4.144   0.833
10219SOL    HW131556   0.995   4.185   0.904
10219SOL    HW231557   0.880   4.214   0.792
10220SOL     OW31558   4.058   2.823   0.429
10220SOL    HW131559   4.051   2.751   0.499
10220SOL    HW231560   3.967   2.857   0.407
10221SOL     OW31561   3.068   0.857   4.953
10221SOL    HW131562   3.065   0.939   4.896
10221SOL    HW231563   2.996   0.861   5.022
10222SOL     OW31564   1.982   5.127   5.563
10222SOL    HW131565   1.963   5.135   5.465
10222SOL    HW231566   2.024   5.039   5.582
10223SOL     OW31567   6.714   4.615   0.587
10223SOL    HW131568   6.807   4.651   0.586
10223SOL    HW231569   6.717   4.516   0.597
10224SOL     OW31570   2.468   0.171   4.899
10224SOL    HW131571   2.445   0.258   4.942
10224SOL    HW231572   2.384   0.120   4.880
10225SOL     OW31573   5.381   6.151   4.519
10225SOL    HW131574   5.430   6.149   4.432
10225SOL    HW231575   5.288   6.185   4.504
10226SOL     OW31576   6.936   2.857   0.018
10226SOL    HW131577   6.982   2.770   0.037
10226SOL    HW231578   6.910   2.900   0.104
10227SOL     OW31579   5.472   5.610   6.038
10227SOL    HW131580   5.403   5.615   5.966
10227SOL    HW231581   5.429   5.631   6.126
10228SOL     OW31582   1.238   4.008   3.039
10228SOL    HW131583   1.298   3.951   2.983
10228SOL    HW231584   1.156   3.956   3.064
10229SOL     OW31585   1.960   1.173   2.049
10229SOL    HW131586   1.981   1.245   2.115
10229SOL    HW231587   2.004   1.193   1.961
10230SOL     OW31588   6.209   6.794   4.941
10230SOL    HW131589   6.254   6.879   4.915
10230SOL    HW231590   6.117   6.813   4.973
10231SOL     OW31591   4.422   6.702   4.361
10231SOL    HW131592   4.386   6.708   4.454
10231SOL    HW231593   4.416   6.791   4.317
10232SOL     OW31594   3.658   2.126   4.424
10232SOL    HW131595   3.697   2.081   4.504
10232SOL    HW231596   3.718   2.202   4.397
10233SOL     OW31597   4.798   1.359   5.232
10233SOL    HW131598   4.802   1.265   5.198
10233SOL    HW231599   4.822   1.422   5.158
10234SOL     OW31600   4.963   6.319   1.718
10234SOL    HW131601   5.042   6.304   1.658
10234SOL    HW231602   4.992   6.314   1.813
10235SOL     OW31603   5.047   1.773   6.180
10235SOL    HW131604   5.011   1.857   6.220
10235SOL    HW231605   4.972   1.721   6.139
10236SOL     OW31606   2.058   5.893   2.343
10236SOL    HW131607   2.097   5.838   2.269
10236SOL    HW231608   1.985   5.951   2.306
10237SOL     OW31609   5.991   2.310   3.421
10237SOL    HW131610   6.087   2.285   3.427
10237SOL    HW231611   5.981   2.391   3.363
10238SOL     OW31612   4.635   5.325   4.509
10238SOL    HW131613   4.565   5.396   4.515
10238SOL    HW231614   4.687   5.322   4.594
10239SOL     OW31615   6.760   4.072   3.882
10239SOL    HW131616   6.822   4.103   3.810
10239SOL    HW231617   6.807   4.006   3.941
10240SOL     OW31618   6.299   3.856   3.672
10240SOL    HW131619   6.253   3.916   3.607
10240SOL    HW231620   6.325   3.771   3.628
10241SOL     OW31621   2.048   1.272   3.374
10241SOL    HW131622   2.122   1.247   3.436
10241SOL    HW231623   1.961   1.270   3.423
10242SOL     OW31624   0.628   6.097   6.159
10242SOL    HW131625   0.700   6.139   6.215
10242SOL    HW231626   0.654   6.004   6.134
10243SOL     OW31627   1.198   5.980   2.545
10243SOL    HW131628   1.205   5.985   2.445
10243SOL    HW231629   1.102   5.971   2.572
10244SOL     OW31630   1.449   5.732   0.100
10244SOL    HW131631   1.531   5.727   0.155
10244SOL    HW231632   1.458   5.805   0.032
10245SOL     OW31633   1.922   2.317   0.175
10245SOL    HW131634   1.916   2.256   0.254
10245SOL    HW231635   2.016   2.320   0.142
10246SOL     OW31636   3.648   3.994   3.789
10246SOL    HW131637   3.747   4.001   3.780
10246SOL    HW231638   3.622   3.898   3.801
10247SOL     OW31639   1.013   6.132   5.691
10247SOL    HW131640   0.952   6.123   5.612
10247SOL    HW231641   1.041   6.228   5.700
10248SOL     OW31642   4.578   0.583   2.441
10248SOL    HW131643   4.506   0.610   2.505
10248SOL    HW231644   4.663   0.630   2.466
10249SOL     OW31645   4.192   1.282   0.427
10249SOL    HW131646   4.128   1.242   0.363
10249SOL    HW231647   4.142   1.323   0.503
10250SOL     OW31648   5.555   0.147   0.476
10250SOL    HW131649   5.502   0.232   0.478
10250SOL    HW231650   5.588   0.126   0.569
10251SOL     OW31651   3.730   4.194   6.653
10251SOL    HW131652   3.676   4.247   6.717
10251SOL    HW231653   3.670   4.139   6.595
10252SOL     OW31654   6.182   5.119   2.086
10252SOL    HW131655   6.120   5.125   2.165
10252SOL    HW231656   6.128   5.116   2.002
10253SOL     OW31657   3.933   4.957   6.526
10253SOL    HW131658   3.947   4.986   6.432
10253SOL    HW231659   3.872   5.022   6.572
10254SOL     OW31660   2.104   1.484   4.211
10254SOL    HW131661   2.039   1.412   4.235
10254SOL    HW231662   2.054   1.562   4.172
10255SOL     OW31663   3.430   5.428   3.146
10255SOL    HW131664   3.404   5.524   3.155
10255SOL    HW231665   3.369   5.383   3.081
10256SOL     OW31666   5.960   6.209   6.859
10256SOL    HW131667   5.982   6.120   6.821
10256SOL    HW231668   5.909   6.263   6.792
10257SOL     OW31669   1.669   6.473   6.520
10257SOL    HW131670   1.641   6.527   6.440
10257SOL    HW231671   1.725   6.396   6.490
10258SOL     OW31672   4.100   0.271   3.693
10258SOL    HW131673   4.194   0.291   3.721
10258SOL    HW231674   4.049   0.234   3.770
10259SOL     OW31675   0.766   3.923   3.573
10259SOL    HW131676   0.856   3.897   3.607
10259SOL    HW231677   0.732   3.852   3.512
10260SOL     OW31678   6.850   6.579   1.352
10260SOL    HW131679   6.820   6.521   1.275
10260SOL    HW231680   6.839   6.675   1.327
10261SOL     OW31681   2.177   6.954   1.488
10261SOL    HW131682   2.235   6.875   1.506
10261SOL    HW231683   2.124   6.976   1.569
10262SOL     OW31684   1.269   5.680   4.993
10262SOL    HW131685   1.357   5.661   5.038
10262SOL    HW231686   1.229   5.595   4.961
10263SOL     OW31687   6.590   2.061   5.791
10263SOL    HW131688   6.679   2.074   5.747
10263SOL    HW231689   6.572   1.963   5.800
10264SOL     OW31690   0.503   6.625   6.739
10264SOL    HW131691   0.457   6.544   6.701
10264SOL    HW231692   0.592   6.598   6.775
10265SOL     OW31693   4.110   2.120   2.499
10265SOL    HW131694   4.108   2.166   2.411
10265SOL    HW231695   4.053   2.037   2.495
10266SOL     OW31696   4.317   4.121   6.194
10266SOL    HW131697   4.270   4.195   6.242
10266SOL    HW231698   4.402   4.156   6.153
10267SOL     OW31699   0.001   1.794   5.923
10267SOL    HW131700   6.983   1.739   5.998
10267SOL    HW231701   7.010   1.744   5.837
10268SOL     OW31702   6.148   4.244   1.770
10268SOL    HW131703   6.117   4.336   1.797
10268SOL    HW231704   6.171   4.244   1.673
10269SOL     OW31705   3.125   2.862   6.064
10269SOL    HW131706   3.222   2.868   6.040
10269SOL    HW231707   3.072   2.833   5.984
10270SOL     OW31708   3.045   6.485   1.174
10270SOL    HW131709   3.085   6.400   1.138
10270SOL    HW231710   2.966   6.510   1.118
10271SOL     OW31711   3.653   5.139   0.879
10271SOL    HW131712   3.688   5.133   0.785
10271SOL    HW231713   3.719   5.099   0.942
10272SOL     OW31714   0.876   0.898   6.007
10272SOL    HW131715   0.959   0.942   5.972
10272SOL    HW231716   0.861   0.925   6.102
10273SOL     OW31717   4.490   6.254   4.409
10273SOL    HW131718   4.471   6.201   4.327
10273SOL    HW231719   4.403   6.281   4.452
10274SOL     OW31720   2.136   5.899   6.344
10274SOL    HW131721   2.150   5.889   6.245
10274SOL    HW231722   2.220   5.932   6.387
10275SOL     OW31723   1.184   6.904   2.010
10275SOL    HW131724   1.156   6.994   1.975
10275SOL    HW231725   1.214   6.847   1.934
10276SOL     OW31726   6.967   6.133   6.862
10276SOL    HW131727   7.010   6.177   6.941
10276SOL    HW231728   6.955   6.200   6.789
10277SOL     OW31729   1.716   5.312   3.011
10277SOL    HW131730   1.804   5.277   3.044
10277SOL    HW231731   1.670   5.241   2.957
10278SOL     OW31732   6.472   0.401   6.289
10278SOL    HW131733   6.475   0.500   6.278
10278SOL    HW231734   6.512   0.376   6.378
10279SOL     OW31735   3.464   6.380   3.477
10279SOL    HW131736   3.369   6.409   3.483
10279SOL    HW231737   3.522   6.458   3.453
10280SOL     OW31738   3.393   2.771   6.351
10280SOL    HW131739   3.318   2.719   6.309
10280SOL    HW231740   3.459   2.797   6.281
10281SOL     OW31741   3.566   6.644   4.589
10281SOL    HW131742   3.598   6.560   4.544
10281SOL    HW231743   3.466   6.644   4.591
10282SOL     OW31744   1.160   2.347   4.879
10282SOL    HW131745   1.235   2.414   4.869
10282SOL    HW231746   1.163   2.308   4.971
10283SOL     OW31747   1.246   3.215   5.884
10283SOL    HW131748   1.227   3.286   5.952
10283SOL    HW231749   1.340   3.182   5.894
10284SOL     OW31750   5.824   3.414   6.236
10284SOL    HW131751   5.780   3.435   6.323
10284SOL    HW231752   5.860   3.498   6.196
10285SOL     OW31753   5.688   0.577   0.779
10285SOL    HW131754   5.605   0.602   0.828
10285SOL    HW231755   5.733   0.659   0.743
10286SOL     OW31756   4.369   0.286   3.809
10286SOL    HW131757   4.461   0.248   3.801
10286SOL    HW231758   4.309   0.220   3.855
10287SOL     OW31759   2.143   5.522   1.331
10287SOL    HW131760   2.122   5.614   1.364
10287SOL    HW231761   2.099   5.508   1.243
10288SOL     OW31762   5.183   6.111   3.994
10288SOL    HW131763   5.085   6.090   3.984
10288SOL    HW231764   5.208   6.106   4.091
10289SOL     OW31765   3.039   1.200   1.539
10289SOL    HW131766   3.113   1.180   1.603
10289SOL    HW231767   3.016   1.297   1.544
10290SOL     OW31768   2.993   3.577   2.295
10290SOL    HW131769   2.991   3.491   2.346
10290SOL    HW231770   3.006   3.558   2.198
10291SOL     OW31771   4.264   0.543   5.804
10291SOL    HW131772   4.329   0.590   5.862
10291SOL    HW231773   4.181   0.599   5.795
10292SOL     OW31774   6.865   0.753   4.826
10292SOL    HW131775   6.829   0.821   4.890
10292SOL    HW231776   6.935   0.795   4.768
10293SOL     OW31777   2.756   6.042   2.729
10293SOL    HW131778   2.679   5.981   2.710
10293SOL    HW231779   2.722   6.135   2.741
10294SOL     OW31780   5.734   1.867   3.071
10294SOL    HW131781   5.829   1.847   3.092
10294SOL    HW231782   5.695   1.790   3.020
10295SOL     OW31783   1.647   4.331   5.018
10295SOL    HW131784   1.713   4.381   4.962
10295SOL    HW231785   1.670   4.233   5.018
10296SOL     OW31786   6.184   2.324   0.738
10296SOL    HW131787   6.134   2.248   0.780
10296SOL    HW231788   6.242   2.367   0.808
10297SOL     OW31789   2.280   5.536   4.778
10297SOL    HW131790   2.278   5.437   4.792
10297SOL    HW231791   2.201   5.577   4.823
10298SOL     OW31792   5.721   3.858   3.352
10298SOL    HW131793   5.681   3.809   3.275
10298SOL    HW231794   5.651   3.876   3.421
10299SOL     OW31795   4.719   4.198   2.240
10299SOL    HW131796   4.686   4.267   2.175
10299SOL    HW231797   4.741   4.114   2.191
10300SOL     OW31798   2.165   5.158   2.365
10300SOL    HW131799   2.190   5.063   2.343
10300SOL    HW231800   2.232   5.220   2.325
10301SOL     OW31801   5.473   1.769   1.269
10301SOL    HW131802   5.562   1.734   1.299
10301SOL    HW231803   5.488   1.850   1.212
10302SOL     OW31804   1.497   4.999   3.309
10302SOL    HW131805   1.433   5.007   3.385
10302SOL    HW231806   1.483   5.074   3.245
10303SOL     OW31807   3.528   2.979   1.344
10303SOL    HW131808   3.464   2.993   1.268
10303SOL    HW231809   3.590   2.904   1.320
10304SOL     OW31810   6.043   6.484   3.752
10304SOL    HW131811   6.107   6.408   3.761
10304SOL    HW231812   5.951   6.448   3.732
10305SOL     OW31813   1.821   5.751   0.982
10305SOL    HW131814   1.809   5.803   0.897
10305SOL    HW231815   1.820   5.813   1.060
10306SOL     OW31816   4.303   5.036   0.627
10306SOL    HW131817   4.298   4.986   0.541
10306SOL    HW231818   4.221   5.018   0.681
10307SOL     OW31819   2.926   0.912   5.458
10307SOL    HW131820   3.026   0.914   5.454
10307SOL    HW231821   2.892   0.845   5.392
10308SOL     OW31822   3.168   5.724   3.965
10308SOL    HW131823   3.242   5.657   3.969
10308SOL    HW231824   3.080   5.678   3.981
10309SOL     OW31825   0.776   6.206   3.247
10309SOL    HW131826   0.764   6.171   3.154
10309SOL    HW231827   0.768   6.306   3.246
10310SOL     OW31828   3.381   3.163   4.670
10310SOL    HW131829   3.439   3.178   4.591
10310SOL    HW231830   3.419   3.090   4.726
10311SOL     OW31831   0.538   6.297   0.959
10311SOL    HW131832   0.510   6.340   1.046
10311SOL    HW231833   0.554   6.368   0.891
10312SOL     OW31834   2.115   5.092   0.553
10312SOL    HW131835   2.212   5.093   0.527
10312SOL    HW231836   2.071   5.011   0.515
10313SOL     OW31837   5.991   6.103   3.756
10313SOL    HW131838   5.948   6.013   3.747
10313SOL    HW231839   6.069   6.097   3.818
10314SOL     OW31840   6.327   5.116   5.834
10314SOL    HW131841   6.246   5.093   5.781
10314SOL    HW231842   6.306   5.191   5.896
10315SOL     OW31843   5.471   6.186   4.807
10315SOL    HW131844   5.433   6.150   4.722
10315SOL    HW231845   5.547   6.248   4.786
10316SOL     OW31846   0.227   3.956   3.136
10316SOL    HW131847   0.243   3.915   3.225
10316SOL    HW231848   0.261   4.051   3.136
10317SOL     OW31849   3.979   4.644   0.763
10317SOL    HW131850   4.070   4.684   0.778
10317SOL    HW231851   3.931   4.697   0.693
10318SOL     OW31852   6.536   5.992   2.362
10318SOL    HW131853   6.566   5.952   2.448
10318SOL    HW231854   6.453   6.046   2.378
10319SOL     OW31855   4.816   5.855   4.789
10319SOL    HW131856   4.839   5.870   4.693
10319SOL    HW231857   4.720   5.877   4.804
10320SOL     OW31858   4.390   6.314   1.218
10320SOL    HW131859   4.341   6.305   1.131
10320SOL    HW231860   4.326   6.303   1.294
10321SOL     OW31861   4.146   6.922   4.390
10321SOL    HW131862   4.174   6.926   4.486
10321SOL    HW231863   4.056   6.963   4.380
10322SOL     OW31864   6.648   2.647   0.115
10322SOL    HW131865   6.683   2.571   0.060
10322SOL    HW231866   6.702   2.655   0.199
10323SOL     OW31867   6.417   2.156   5.214
10323SOL    HW131868   6.486   2.225   5.194
10323SOL    HW231869   6.353   2.192   5.282
10324SOL     OW31870   3.030   3.362   3.807
10324SOL    HW131871   3.009   3.460   3.810
10324SOL    HW231872   3.030   3.325   3.899
10325SOL     OW31873   1.067   3.511   3.358
10325SOL    HW131874   1.045   3.444   3.287
10325SOL    HW231875   1.008   3.495   3.437
10326SOL     OW31876   4.859   1.509   1.138
10326SOL    HW131877   4.842   1.422   1.092
10326SOL    HW231878   4.813   1.582   1.088
10327SOL     OW31879   6.803   0.751   3.378
10327SOL    HW131880   6.812   0.839   3.424
10327SOL    HW231881   6.759   0.764   3.289
10328SOL     OW31882   5.980   3.177   2.299
10328SOL    HW131883   6.075   3.183   2.331
10328SOL    HW231884   5.957   3.082   2.280
10329SOL     OW31885   3.944   6.574   2.852
10329SOL    HW131886   4.034   6.614   2.863
10329SOL    HW231887   3.895   6.577   2.940
10330SOL     OW31888   3.652   4.447   1.065
10330SOL    HW131889   3.671   4.445   1.163
10330SOL    HW231890   3.737   4.464   1.015
10331SOL     OW31891   5.566   0.441   4.166
10331SOL    HW131892   5.509   0.422   4.246
10331SOL    HW231893   5.659   0.463   4.195
10332SOL     OW31894   6.902   1.921   0.400
10332SOL    HW131895   6.970   1.848   0.388
10332SOL    HW231896   6.898   1.947   0.496
10333SOL     OW31897   4.813   4.336   4.563
10333SOL    HW131898   4.813   4.365   4.467
10333SOL    HW231899   4.901   4.359   4.604
10334SOL     OW31900   1.162   5.108   4.850
10334SOL    HW131901   1.127   5.183   4.906
10334SOL    HW231902   1.091   5.038   4.840
10335SOL     OW31903   2.324   5.477   1.657
10335SOL    HW131904   2.336   5.394   1.602
10335SOL    HW231905   2.396   5.542   1.635
10336SOL     OW31906   4.250   6.267   2.919
10336SOL    HW131907   4.265   6.210   3.000
10336SOL    HW231908   4.290   6.357   2.933
10337SOL     OW31909   1.100   4.848   5.250
10337SOL    HW131910   1.183   4.866   5.196
10337SOL    HW231911   1.108   4.758   5.294
10338SOL     OW31912   3.676   5.046   3.249
10338SOL    HW131913   3.597   5.011   3.198
10338SOL    HW231914   3.725   4.970   3.291
10339SOL     OW31915   3.257   5.446   0.393
10339SOL    HW131916   3.174   5.415   0.439
10339SOL    HW231917   3.326   5.374   0.398
10340SOL     OW31918   2.029   6.860   0.418
10340SOL    HW131919   1.994   6.946   0.455
10340SOL    HW231920   2.125   6.849   0.442
10341SOL     OW31921   1.119   2.494   2.522
10341SOL    HW131922   1.205   2.487   2.472
10341SOL    HW231923   1.065   2.569   2.485
10342SOL     OW31924   2.720   6.589   3.829
10342SOL    HW131925   2.750   6.649   3.904
10342SOL    HW231926   2.756   6.623   3.743
10343SOL     OW31927   2.150   3.250   3.813
10343SOL    HW131928   2.125   3.225   3.906
10343SOL    HW231929   2.234   3.203   3.788
10344SOL     OW31930   4.394   4.052   0.481
10344SOL    HW131931   4.410   4.051   0.580
10344SOL    HW231932   4.438   3.972   0.440
10345SOL     OW31933   1.409   1.655   5.795
10345SOL    HW131934   1.388   1.594   5.872
10345SOL    HW231935   1.328   1.666   5.738
10346SOL     OW31936   5.667   4.959   0.515
10346SOL    HW131937   5.729   4.890   0.553
10346SOL    HW231938   5.576   4.920   0.504
10347SOL     OW31939   4.996   1.292   1.624
10347SOL    HW131940   4.988   1.306   1.525
10347SOL    HW231941   4.965   1.200   1.647
10348SOL     OW31942   6.923   5.186   5.738
10348SOL    HW131943   6.855   5.113   5.747
10348SOL    HW231944   6.964   5.182   5.647
10349SOL     OW31945   6.859   1.732   1.129
10349SOL    HW131946   6.814   1.718   1.041
10349SOL    HW231947   6.951   1.768   1.115
10350SOL     OW31948   2.090   4.400   4.838
10350SOL    HW131949   2.169   4.391   4.899
10350SOL    HW231950   2.116   4.451   4.757
10351SOL     OW31951   4.474   4.631   4.848
10351SOL    HW131952   4.434   4.580   4.924
10351SOL    HW231953   4.402   4.665   4.788
10352SOL     OW31954   6.095   1.120   6.895
10352SOL    HW131955   6.136   1.077   6.815
10352SOL    HW231956   6.139   1.085   6.978
10353SOL     OW31957   6.181   2.359   3.775
10353SOL    HW131958   6.193   2.409   3.689
10353SOL    HW231959   6.139   2.419   3.843
10354SOL     OW31960   6.493   2.945   1.448
10354SOL    HW131961   6.507   2.909   1.540
10354SOL    HW231962   6.399   2.926   1.419
10355SOL     OW31963   0.740   2.113   0.876
10355SOL    HW131964   0.648   2.130   0.911
10355SOL    HW231965   0.757   2.015   0.872
10356SOL     OW31966   6.302   3.310   5.147
10356SOL    HW131967   6.288   3.213   5.132
10356SOL    HW231968   6.358   3.324   5.229
10357SOL     OW31969   1.174   0.713   6.115
10357SOL    HW131970   1.104   0.692   6.184
10357SOL    HW231971   1.251   0.651   6.128
10358SOL     OW31972   1.045   2.970   3.117
10358SOL    HW131973   1.054   2.933   3.025
10358SOL    HW231974   1.134   2.967   3.163
10359SOL     OW31975   6.700   2.276   2.278
10359SOL    HW131976   6.680   2.208   2.349
10359SOL    HW231977   6.646   2.257   2.197
10360SOL     OW31978   5.755   4.230   1.477
10360SOL    HW131979   5.847   4.203   1.449
10360SOL    HW231980   5.712   4.154   1.527
10361SOL     OW31981   6.330   2.243   2.395
10361SOL    HW131982   6.393   2.318   2.416
10361SOL    HW231983   6.376   2.155   2.410
10362SOL     OW31984   1.412   6.366   1.918
10362SOL    HW131985   1.332   6.400   1.967
10362SOL    HW231986   1.402   6.383   1.820
10363SOL     OW31987   5.436   4.124   6.009
10363SOL    HW131988   5.475   4.202   5.961
10363SOL    HW231989   5.361   4.085   5.955
10364SOL     OW31990   5.977   4.742   2.096
10364SOL    HW131991   5.911   4.805   2.137
10364SOL    HW231992   6.022   4.690   2.167
10365SOL     OW31993   5.968   5.009   0.872
10365SOL    HW131994   6.042   4.981   0.932
10365SOL    HW231995   6.003   5.075   0.805
10366SOL     OW31996   3.171   6.051   3.348
10366SOL    HW131997   3.184   6.087   3.256
10366SOL    HW231998   3.073   6.043   3.367
10367SOL     OW31999   5.695   6.428   1.652
10367SOL    HW132000   5.642   6.472   1.579
10367SOL    HW232001   5.662   6.335   1.665
10368SOL     OW32002   2.444   6.194   1.041
10368SOL    HW132003   2.367   6.166   0.984
10368SOL    HW232004   2.410   6.248   1.118
10369SOL     OW32005   2.619   0.453   5.809
10369SOL    HW132006   2.520   0.448   5.824
10369SOL    HW232007   2.650   0.369   5.764
10370SOL     OW32008   1.366   1.220   5.300
10370SOL    HW132009   1.413   1.194   5.385
10370SOL    HW232010   1.434   1.241   5.229
10371SOL     OW32011   4.663   5.525   2.699
10371SOL    HW132012   4.665   5.441   2.753
10371SOL    HW232013   4.633   5.504   2.605
10372SOL     OW32014   2.761   6.101   1.800
10372SOL    HW132015   2.695   6.136   1.734
10372SOL    HW232016   2.721   6.101   1.891
10373SOL     OW32017   6.758   1.353   6.051
10373SOL    HW132018   6.793   1.304   5.971
10373SOL    HW232019   6.658   1.351   6.049
10374SOL     OW32020   3.494   5.372   3.699
10374SOL    HW132021   3.529   5.287   3.660
10374SOL    HW232022   3.551   5.448   3.668
10375SOL     OW32023   2.423   5.073   0.139
10375SOL    HW132024   2.480   5.139   0.187
10375SOL    HW232025   2.459   5.057   0.048
10376SOL     OW32026   2.101   5.384   4.112
10376SOL    HW132027   2.074   5.403   4.018
10376SOL    HW232028   2.185   5.434   4.133
10377SOL     OW32029   1.827   0.879   2.480
10377SOL    HW132030   1.757   0.897   2.411
10377SOL    HW232031   1.866   0.966   2.512
10378SOL     OW32032   0.224   5.785   4.236
10378SOL    HW132033   0.139   5.784   4.290
10378SOL    HW232034   0.217   5.718   4.163
10379SOL     OW32035   2.076   0.025   4.400
10379SOL    HW132036   2.014   0.040   4.476
10379SOL    HW232037   2.109   0.113   4.366
10380SOL     OW32038   2.930   2.034   4.741
10380SOL    HW132039   2.897   1.954   4.690
10380SOL    HW232040   2.859   2.104   4.741
10381SOL     OW32041   4.773   6.293   1.493
10381SOL    HW132042   4.831   6.281   1.574
10381SOL    HW232043   4.692   6.346   1.518
10382SOL     OW32044   4.427   5.701   1.473
10382SOL    HW132045   4.367   5.745   1.407
10382SOL    HW232046   4.455   5.767   1.543
10383SOL     OW32047   1.271   5.196   6.909
10383SOL    HW132048   1.217   5.203   6.993
10383SOL    HW232049   1.209   5.183   6.831
10384SOL     OW32050   5.564   5.848   1.486
10384SOL    HW132051   5.520   5.758   1.481
10384SOL    HW232052   5.661   5.838   1.462
10385SOL     OW32053   4.261   4.610   0.060
10385SOL    HW132054   4.226   4.524   0.096
10385SOL    HW232055   4.343   4.592   0.006
10386SOL     OW32056   0.543   0.997   0.843
10386SOL    HW132057   0.560   0.973   0.748
10386SOL    HW232058   0.597   0.937   0.903
10387SOL     OW32059   5.444   3.022   1.862
10387SOL    HW132060   5.359   3.056   1.903
10387SOL    HW232061   5.490   3.096   1.814
10388SOL     OW32062   2.338   6.952   5.114
10388SOL    HW132063   2.436   6.961   5.094
10388SOL    HW232064   2.286   6.953   5.029
10389SOL     OW32065   0.307   4.187   0.410
10389SOL    HW132066   0.303   4.208   0.312
10389SOL    HW232067   0.289   4.270   0.463
10390SOL     OW32068   2.453   2.490   1.521
10390SOL    HW132069   2.425   2.580   1.487
10390SOL    HW232070   2.511   2.502   1.601
10391SOL     OW32071   4.897   6.782   4.275
10391SOL    HW132072   4.959   6.860   4.290
10391SOL    HW232073   4.943   6.697   4.301
10392SOL     OW32074   6.466   3.765   4.186
10392SOL    HW132075   6.466   3.696   4.114
10392SOL    HW232076   6.558   3.803   4.195
10393SOL     OW32077   1.278   3.403   3.869
10393SOL    HW132078   1.371   3.433   3.888
10393SOL    HW232079   1.216   3.482   3.871
10394SOL     OW32080   3.251   0.237   4.057
10394SOL    HW132081   3.161   0.198   4.078
10394SOL    HW232082   3.296   0.181   3.988
10395SOL     OW32083   1.076   0.463   0.825
10395SOL    HW132084   1.036   0.372   0.822
10395SOL    HW232085   1.045   0.511   0.907
10396SOL     OW32086   2.751   2.323   4.540
10396SOL    HW132087   2.765   2.231   4.505
10396SOL    HW232088   2.768   2.389   4.467
10397SOL     OW32089   3.698   1.645   3.544
10397SOL    HW132090   3.622   1.581   3.530
10397SOL    HW232091   3.662   1.737   3.557
10398SOL     OW32092   6.320   2.574   1.474
10398SOL    HW132093   6.264   2.657   1.463
10398SOL    HW232094   6.289   2.505   1.409
10399SOL     OW32095   0.881   4.095   1.879
10399SOL    HW132096   0.849   4.112   1.785
10399SOL    HW232097   0.889   4.182   1.927
10400SOL     OW32098   3.904   6.256   0.396
10400SOL    HW132099   3.809   6.237   0.421
10400SOL    HW232100   3.965   6.227   0.470
10401SOL     OW32101   0.281   1.642   5.977
10401SOL    HW132102   0.212   1.626   6.047
10401SOL    HW232103   0.240   1.692   5.900
10402SOL     OW32104   6.973   3.016   4.580
10402SOL    HW132105   6.973   2.942   4.512
10402SOL    HW232106   7.002   2.980   4.668
10403SOL     OW32107   2.757   0.480   2.026
10403SOL    HW132108   2.825   0.433   1.971
10403SOL    HW232109   2.746   0.434   2.114
10404SOL     OW32110   0.033   6.355   6.073
10404SOL    HW132111   6.954   6.355   6.089
10404SOL    HW232112   0.053   6.402   5.987
10405SOL     OW32113   6.965   1.948   6.535
10405SOL    HW132114   6.999   1.919   6.446
10405SOL    HW232115   0.019   1.992   6.586
10406SOL     OW32116   2.680   4.710   1.512
10406SOL    HW132117   2.697   4.766   1.592
10406SOL    HW232118   2.595   4.740   1.467
10407SOL     OW32119   3.188   6.846   6.885
10407SOL    HW132120   3.223   6.865   6.977
10407SOL    HW232121   3.257   6.872   6.818
10408SOL     OW32122   3.783   1.086   0.165
10408SOL    HW132123   3.791   1.168   0.108
10408SOL    HW232124   3.708   1.030   0.132
10409SOL     OW32125   6.185   4.596   1.230
10409SOL    HW132126   6.100   4.545   1.235
10409SOL    HW232127   6.207   4.632   1.321
10410SOL     OW32128   6.051   0.628   0.934
10410SOL    HW132129   6.131   0.568   0.928
10410SOL    HW232130   6.077   0.715   0.975
10411SOL     OW32131   2.804   5.230   3.302
10411SOL    HW132132   2.842   5.178   3.225
10411SOL    HW232133   2.780   5.322   3.271
10412SOL     OW32134   6.625   0.358   0.468
10412SOL    HW132135   6.583   0.424   0.530
10412SOL    HW232136   6.643   0.403   0.380
10413SOL     OW32137   6.756   2.667   1.492
10413SOL    HW132138   6.741   2.723   1.410
10413SOL    HW232139   6.668   2.643   1.532
10414SOL     OW32140   4.544   2.505   4.142
10414SOL    HW132141   4.588   2.570   4.204
10414SOL    HW232142   4.552   2.536   4.048
10415SOL     OW32143   0.812   6.215   6.327
10415SOL    HW132144   0.890   6.215   6.265
10415SOL    HW232145   0.839   6.172   6.414
10416SOL     OW32146   5.832   2.411   4.221
10416SOL    HW132147   5.844   2.403   4.320
10416SOL    HW232148   5.815   2.320   4.182
10417SOL     OW32149   2.818   4.712   4.291
10417SOL    HW132150   2.744   4.646   4.302
10417SOL    HW232151   2.857   4.734   4.380
10418SOL     OW32152   1.022   4.588   5.954
10418SOL    HW132153   1.116   4.613   5.979
10418SOL    HW232154   0.994   4.506   6.003
10419SOL     OW32155   1.348   0.950   0.882
10419SOL    HW132156   1.252   0.925   0.894
10419SOL    HW232157   1.399   0.927   0.965
10420SOL     OW32158   0.347   3.291   3.401
10420SOL    HW132159   0.290   3.236   3.340
10420SOL    HW232160   0.406   3.231   3.455
10421SOL     OW32161   0.201   0.914   2.890
10421SOL    HW132162   0.166   0.829   2.930
10421SOL    HW232163   0.127   0.981   2.885
10422SOL     OW32164   6.340   2.706   6.125
10422SOL    HW132165   6.429   2.702   6.170
10422SOL    HW232166   6.352   2.697   6.027
10423SOL     OW32167   4.997   4.299   3.455
10423SOL    HW132168   5.028   4.224   3.397
10423SOL    HW232169   5.054   4.380   3.439
10424SOL     OW32170   5.351   1.913   6.683
10424SOL    HW132171   5.258   1.946   6.666
10424SOL    HW232172   5.389   1.962   6.762
10425SOL     OW32173   1.829   6.394   2.312
10425SOL    HW132174   1.814   6.435   2.223
10425SOL    HW232175   1.850   6.465   2.379
10426SOL     OW32176   6.690   4.390   0.130
10426SOL    HW132177   6.664   4.486   0.140
10426SOL    HW232178   6.689   4.345   0.219
10427SOL     OW32179   5.478   1.804   0.027
10427SOL    HW132180   5.473   1.854   6.960
10427SOL    HW232181   5.386   1.780   0.056
10428SOL     OW32182   5.068   0.376   4.430
10428SOL    HW132183   5.093   0.436   4.355
10428SOL    HW232184   5.084   0.422   4.517
10429SOL     OW32185   6.130   5.655   1.847
10429SOL    HW132186   6.124   5.755   1.845
10429SOL    HW232187   6.120   5.624   1.941
10430SOL     OW32188   3.939   6.416   2.358
10430SOL    HW132189   4.028   6.453   2.330
10430SOL    HW232190   3.924   6.433   2.455
10431SOL     OW32191   2.720   0.008   4.286
10431SOL    HW132192   2.655   0.083   4.279
10431SOL    HW232193   2.758   7.007   4.196
10432SOL     OW32194   5.792   0.692   5.350
10432SOL    HW132195   5.862   0.683   5.279
10432SOL    HW232196   5.769   0.789   5.361
10433SOL     OW32197   2.498   0.045   0.635
10433SOL    HW132198   2.556   0.005   0.563
10433SOL    HW232199   2.417   7.008   0.646
10434SOL     OW32200   2.080   0.544   3.756
10434SOL    HW132201   2.071   0.633   3.712
10434SOL    HW232202   2.123   0.555   3.846
10435SOL     OW32203   5.168   6.520   6.512
10435SOL    HW132204   5.093   6.585   6.498
10435SOL    HW232205   5.220   6.510   6.427
10436SOL     OW32206   1.629   5.304   3.488
10436SOL    HW132207   1.659   5.208   3.495
10436SOL    HW232208   1.584   5.331   3.573
10437SOL     OW32209   0.174   5.201   6.090
10437SOL    HW132210   0.199   5.127   6.153
10437SOL    HW232211   0.078   5.190   6.064
10438SOL     OW32212   4.116   6.441   0.355
10438SOL    HW132213   4.028   6.393   0.348
10438SOL    HW232214   4.189   6.381   0.323
10439SOL     OW32215   3.466   0.060   6.085
10439SOL    HW132216   3.453   6.994   6.035
10439SOL    HW232217   3.562   0.088   6.079
10440SOL     OW32218   1.979   6.165   0.658
10440SOL    HW132219   1.907   6.231   0.678
10440SOL    HW232220   2.068   6.207   0.676
10441SOL     OW32221   5.394   1.755   6.471
10441SOL    HW132222   5.403   1.667   6.518
10441SOL    HW232223   5.368   1.825   6.538
10442SOL     OW32224   3.796   4.914   5.809
10442SOL    HW132225   3.820   4.817   5.816
10442SOL    HW232226   3.700   4.923   5.783
10443SOL     OW32227   6.210   2.723   4.790
10443SOL    HW132228   6.220   2.812   4.745
10443SOL    HW232229   6.113   2.699   4.793
10444SOL     OW32230   3.961   4.829   4.179
10444SOL    HW132231   3.999   4.853   4.268
10444SOL    HW232232   3.861   4.834   4.182
10445SOL     OW32233   6.863   5.590   5.426
10445SOL    HW132234   6.917   5.511   5.396
10445SOL    HW232235   6.863   5.660   5.355
10446SOL     OW32236   1.317   5.208   6.197
10446SOL    HW132237   1.226   5.227   6.235
10446SOL    HW232238   1.340   5.278   6.129
10447SOL     OW32239   5.986   2.737   1.520
10447SOL    HW132240   6.003   2.652   1.471
10447SOL    HW232241   5.996   2.815   1.458
10448SOL     OW32242   3.826   3.954   2.564
10448SOL    HW132243   3.895   3.900   2.515
10448SOL    HW232244   3.770   4.004   2.499
10449SOL     OW32245   2.744   5.465   4.341
10449SOL    HW132246   2.841   5.443   4.349
10449SOL    HW232247   2.717   5.526   4.415
10450SOL     OW32248   6.477   2.433   1.129
10450SOL    HW132249   6.535   2.513   1.136
10450SOL    HW232250   6.533   2.350   1.136
10451SOL     OW32251   2.532   4.613   2.914
10451SOL    HW132252   2.601   4.662   2.967
10451SOL    HW232253   2.441   4.643   2.943
10452SOL     OW32254   1.063   2.820   4.427
10452SOL    HW132255   1.000   2.792   4.500
10452SOL    HW232256   1.137   2.873   4.467
10453SOL     OW32257   4.625   6.997   1.503
10453SOL    HW132258   4.535   6.954   1.514
10453SOL    HW232259   4.630   0.019   1.412
10454SOL     OW32260   5.210   3.209   1.938
10454SOL    HW132261   5.123   3.195   1.985
10454SOL    HW232262   5.262   3.280   1.984
10455SOL     OW32263   0.178   5.393   3.577
10455SOL    HW132264   0.202   5.482   3.539
10455SOL    HW232265   0.114   5.404   3.652
10456SOL     OW32266   4.558   5.732   0.841
10456SOL    HW132267   4.586   5.824   0.814
10456SOL    HW232268   4.607   5.705   0.924
10457SOL     OW32269   4.074   3.346   3.627
10457SOL    HW132270   4.011   3.271   3.650
10457SOL    HW232271   4.107   3.334   3.533
10458SOL     OW32272   1.212   6.697   1.005
10458SOL    HW132273   1.141   6.639   1.045
10458SOL    HW232274   1.173   6.784   0.977
10459SOL     OW32275   6.712   4.938   2.581
10459SOL    HW132276   6.722   5.034   2.609
10459SOL    HW232277   6.798   4.907   2.540
10460SOL     OW32278   2.037   5.263   2.566
10460SOL    HW132279   2.070   5.213   2.486
10460SOL    HW232280   1.954   5.314   2.541
10461SOL     OW32281   2.581   1.611   6.670
10461SOL    HW132282   2.554   1.549   6.744
10461SOL    HW232283   2.548   1.575   6.583
10462SOL     OW32284   7.008   0.185   1.047
10462SOL    HW132285   0.021   0.225   0.961
10462SOL    HW232286   7.013   0.085   1.041
10463SOL     OW32287   3.254   4.562   0.609
10463SOL    HW132288   3.261   4.465   0.631
10463SOL    HW232289   3.160   4.592   0.624
10464SOL     OW32290   4.805   1.010   1.153
10464SOL    HW132291   4.825   1.073   1.228
10464SOL    HW232292   4.729   1.046   1.099
10465SOL     OW32293   6.275   4.818   6.283
10465SOL    HW132294   6.209   4.864   6.343
10465SOL    HW232295   6.366   4.821   6.325
10466SOL     OW32296   4.592   6.188   5.719
10466SOL    HW132297   4.559   6.272   5.761
10466SOL    HW232298   4.516   6.140   5.674
10467SOL     OW32299   3.372   0.608   4.802
10467SOL    HW132300   3.276   0.628   4.823
10467SOL    HW232301   3.377   0.523   4.749
10468SOL     OW32302   3.784   6.511   3.075
10468SOL    HW132303   3.840   6.573   3.130
10468SOL    HW232304   3.690   6.515   3.106
10469SOL     OW32305   1.436   4.745   0.710
10469SOL    HW132306   1.422   4.790   0.622
10469SOL    HW232307   1.534   4.740   0.730
10470SOL     OW32308   2.744   1.415   4.454
10470SOL    HW132309   2.716   1.334   4.506
10470SOL    HW232310   2.830   1.450   4.491
10471SOL     OW32311   3.723   3.407   0.586
10471SOL    HW132312   3.644   3.468   0.590
10471SOL    HW232313   3.780   3.431   0.508
10472SOL     OW32314   4.481   1.033   2.783
10472SOL    HW132315   4.404   0.970   2.772
10472SOL    HW232316   4.524   1.050   2.694
10473SOL     OW32317   4.966   5.856   0.560
10473SOL    HW132318   4.996   5.775   0.511
10473SOL    HW232319   4.872   5.843   0.593
10474SOL     OW32320   3.962   0.465   4.910
10474SOL    HW132321   3.999   0.547   4.954
10474SOL    HW232322   3.919   0.407   4.979
10475SOL     OW32323   4.001   6.472   1.558
10475SOL    HW132324   4.059   6.474   1.639
10475SOL    HW232325   3.932   6.544   1.564
10476SOL     OW32326   0.415   5.224   0.433
10476SOL    HW132327   0.392   5.215   0.530
10476SOL    HW232328   0.348   5.283   0.388
10477SOL     OW32329   5.471   4.444   5.030
10477SOL    HW132330   5.561   4.467   4.994
10477SOL    HW232331   5.400   4.479   4.969
10478SOL     OW32332   0.474   6.681   1.340
10478SOL    HW132333   0.550   6.695   1.405
10478SOL    HW232334   0.466   6.761   1.281
10479SOL     OW32335   1.728   4.758   3.537
10479SOL    HW132336   1.638   4.800   3.552
10479SOL    HW232337   1.799   4.828   3.548
10480SOL     OW32338   5.917   0.148   2.166
10480SOL    HW132339   5.874   0.238   2.163
10480SOL    HW232340   5.871   0.092   2.234
10481SOL     OW32341   2.065   0.659   5.333
10481SOL    HW132342   2.133   0.720   5.292
10481SOL    HW232343   1.976   0.673   5.290
10482SOL     OW32344   1.498   5.475   5.962
10482SOL    HW132345   1.424   5.458   6.026
10482SOL    HW232346   1.530   5.569   5.972
10483SOL     OW32347   0.095   5.113   0.729
10483SOL    HW132348   0.039   5.192   0.753
10483SOL    HW232349   0.186   5.144   0.702
10484SOL     OW32350   6.292   1.656   1.683
10484SOL    HW132351   6.370   1.717   1.701
10484SOL    HW232352   6.210   1.694   1.726
10485SOL     OW32353   3.714   3.622   3.548
10485SOL    HW132354   3.718   3.528   3.582
10485SOL    HW232355   3.703   3.685   3.625
10486SOL     OW32356   5.782   6.180   5.411
10486SOL    HW132357   5.756   6.168   5.507
10486SOL    HW232358   5.826   6.269   5.399
10487SOL     OW32359   4.805   2.202   2.260
10487SOL    HW132360   4.754   2.134   2.208
10487SOL    HW232361   4.884   2.233   2.205
10488SOL     OW32362   6.438   2.511   5.346
10488SOL    HW132363   6.368   2.582   5.336
10488SOL    HW232364   6.459   2.499   5.443
10489SOL     OW32365   6.159   4.368   4.609
10489SOL    HW132366   6.205   4.279   4.604
10489SOL    HW232367   6.227   4.440   4.619
10490SOL     OW32368   5.850   6.336   6.660
10490SOL    HW132369   5.760   6.374   6.681
10490SOL    HW232370   5.861   6.329   6.561
10491SOL     OW32371   1.875   2.763   5.675
10491SOL    HW132372   1.933   2.699   5.725
10491SOL    HW232373   1.905   2.857   5.694
10492SOL     OW32374   3.580   0.225   6.955
10492SOL    HW132375   3.582   0.298   6.887
10492SOL    HW232376   3.605   0.261   0.025
10493SOL     OW32377   3.998   5.438   1.261
10493SOL    HW132378   4.066   5.386   1.312
10493SOL    HW232379   3.988   5.529   1.301
10494SOL     OW32380   1.076   4.354   5.188
10494SOL    HW132381   1.040   4.283   5.248
10494SOL    HW232382   1.049   4.335   5.094
10495SOL     OW32383   6.737   6.400   1.176
10495SOL    HW132384   6.749   6.310   1.135
10495SOL    HW232385   6.651   6.440   1.144
10496SOL     OW32386   0.267   3.286   5.510
10496SOL    HW132387   0.297   3.373   5.470
10496SOL    HW232388   0.300   3.210   5.455
10497SOL     OW32389   1.862   0.379   1.232
10497SOL    HW132390   1.763   0.381   1.242
10497SOL    HW232391   1.901   0.312   1.296
10498SOL     OW32392   4.275   4.187   0.009
10498SOL    HW132393   4.193   4.204   6.973
10498SOL    HW232394   4.303   4.092   7.018
10499SOL     OW32395   5.989   4.407   2.597
10499SOL    HW132396   5.975   4.477   2.667
10499SOL    HW232397   5.972   4.445   2.507
10500SOL     OW32398   1.020   3.123   5.348
10500SOL    HW132399   1.088   3.092   5.414
10500SOL    HW232400   1.048   3.212   5.312
10501SOL     OW32401   3.697   5.065   2.606
10501SOL    HW132402   3.635   5.137   2.575
10501SOL    HW232403   3.686   4.984   2.548
10502SOL     OW32404   3.412   3.809   2.027
10502SOL    HW132405   3.410   3.906   2.005
10502SOL    HW232406   3.350   3.790   2.104
10503SOL     OW32407   6.634   2.515   6.367
10503SOL    HW132408   6.714   2.517   6.427
10503SOL    HW232409   6.625   2.423   6.327
10504SOL     OW32410   1.246   2.743   6.216
10504SOL    HW132411   1.152   2.758   6.247
10504SOL    HW232412   1.268   2.810   6.145
10505SOL     OW32413   5.689   6.584   0.586
10505SOL    HW132414   5.640   6.663   0.621
10505SOL    HW232415   5.767   6.564   0.646
10506SOL     OW32416   1.478   2.526   6.530
10506SOL    HW132417   1.387   2.521   6.573
10506SOL    HW232418   1.535   2.452   6.565
10507SOL     OW32419   0.942   5.282   5.916
10507SOL    HW132420   1.016   5.347   5.935
10507SOL    HW232421   0.976   5.189   5.927
10508SOL     OW32422   1.636   4.980   5.029
10508SOL    HW132423   1.663   4.896   5.076
10508SOL    HW232424   1.558   4.961   4.969
10509SOL     OW32425   4.402   2.422   2.686
10509SOL    HW132426   4.392   2.465   2.776
10509SOL    HW232427   4.476   2.468   2.635
10510SOL     OW32428   5.510   6.033   3.861
10510SOL    HW132429   5.543   6.001   3.772
10510SOL    HW232430   5.417   6.001   3.876
10511SOL     OW32431   4.880   2.208   1.652
10511SOL    HW132432   4.887   2.136   1.720
10511SOL    HW232433   4.931   2.182   1.570
10512SOL     OW32434   4.511   0.870   5.154
10512SOL    HW132435   4.491   0.819   5.237
10512SOL    HW232436   4.581   0.823   5.101
10513SOL     OW32437   4.345   2.864   0.960
10513SOL    HW132438   4.442   2.880   0.945
10513SOL    HW232439   4.304   2.826   0.877
10514SOL     OW32440   1.801   3.322   1.713
10514SOL    HW132441   1.807   3.412   1.669
10514SOL    HW232442   1.754   3.332   1.801
10515SOL     OW32443   2.299   2.739   4.945
10515SOL    HW132444   2.214   2.769   4.902
10515SOL    HW232445   2.350   2.819   4.978
10516SOL     OW32446   3.868   2.058   1.695
10516SOL    HW132447   3.873   2.153   1.726
10516SOL    HW232448   3.958   2.016   1.703
10517SOL     OW32449   1.130   2.450   2.798
10517SOL    HW132450   1.118   2.471   2.701
10517SOL    HW232451   1.042   2.424   2.838
10518SOL     OW32452   0.517   5.189   2.885
10518SOL    HW132453   0.612   5.180   2.856
10518SOL    HW232454   0.457   5.140   2.822
10519SOL     OW32455   4.108   0.020   1.442
10519SOL    HW132456   4.028   7.000   1.485
10519SOL    HW232457   4.188   6.981   1.458
10520SOL     OW32458   0.705   2.798   5.682
10520SOL    HW132459   0.613   2.835   5.671
10520SOL    HW232460   0.750   2.794   5.593
10521SOL     OW32461   6.917   3.105   2.438
10521SOL    HW132462   6.852   3.047   2.389
10521SOL    HW232463   6.876   3.137   2.523
10522SOL     OW32464   5.012   2.209   3.470
10522SOL    HW132465   4.972   2.288   3.516
10522SOL    HW232466   5.027   2.136   3.536
10523SOL     OW32467   1.204   4.236   3.208
10523SOL    HW132468   1.222   4.171   3.134
10523SOL    HW232469   1.106   4.251   3.217
10524SOL     OW32470   6.970   6.133   5.121
10524SOL    HW132471   6.991   6.152   5.025
10524SOL    HW232472   0.035   6.133   5.174
10525SOL     OW32473   4.920   1.659   3.678
10525SOL    HW132474   4.923   1.614   3.589
10525SOL    HW232475   4.938   1.592   3.751
10526SOL     OW32476   0.807   4.217   0.118
10526SOL    HW132477   0.901   4.247   0.136
10526SOL    HW232478   0.748   4.244   0.194
10527SOL     OW32479   0.566   0.167   5.369
10527SOL    HW132480   0.621   0.116   5.434
10527SOL    HW232481   0.470   0.141   5.379
10528SOL     OW32482   1.517   3.443   5.618
10528SOL    HW132483   1.480   3.533   5.641
10528SOL    HW232484   1.612   3.437   5.648
10529SOL     OW32485   0.234   6.080   1.142
10529SOL    HW132486   0.309   6.099   1.205
10529SOL    HW232487   0.255   6.120   1.052
10530SOL     OW32488   6.992   5.761   1.136
10530SOL    HW132489   7.008   5.856   1.162
10530SOL    HW232490   0.060   5.716   1.119
10531SOL     OW32491   2.813   3.313   5.294
10531SOL    HW132492   2.855   3.234   5.340
10531SOL    HW232493   2.714   3.303   5.295
10532SOL     OW32494   5.075   6.302   6.937
10532SOL    HW132495   5.153   6.363   6.949
10532SOL    HW232496   5.030   6.286   0.006
10533SOL     OW32497   4.220   6.597   2.633
10533SOL    HW132498   4.257   6.505   2.622
10533SOL    HW232499   4.216   6.620   2.731
10534SOL     OW32500   1.309   6.328   4.270
10534SOL    HW132501   1.262   6.244   4.244
10534SOL    HW232502   1.337   6.377   4.188
10535SOL     OW32503   3.552   1.852   2.185
10535SOL    HW132504   3.616   1.917   2.225
10535SOL    HW232505   3.461   1.893   2.182
10536SOL     OW32506   5.038   2.813   4.532
10536SOL    HW132507   4.941   2.800   4.510
10536SOL    HW232508   5.054   2.910   4.550
10537SOL     OW32509   3.866   6.840   4.169
10537SOL    HW132510   3.917   6.757   4.189
10537SOL    HW232511   3.786   6.846   4.229
10538SOL     OW32512   0.584   3.594   2.663
10538SOL    HW132513   0.571   3.691   2.644
10538SOL    HW232514   0.523   3.566   2.738
10539SOL     OW32515   6.312   0.062   3.418
10539SOL    HW132516   6.301   0.134   3.487
10539SOL    HW232517   6.402   0.019   3.430
10540SOL     OW32518   1.768   3.976   6.132
10540SOL    HW132519   1.718   3.900   6.172
10540SOL    HW232520   1.866   3.955   6.133
10541SOL     OW32521   3.644   3.306   4.860
10541SOL    HW132522   3.550   3.340   4.864
10541SOL    HW232523   3.675   3.304   4.765
10542SOL     OW32524   4.615   0.340   4.565
10542SOL    HW132525   4.569   0.312   4.649
10542SOL    HW232526   4.714   0.339   4.580
10543SOL     OW32527   1.337   3.578   5.064
10543SOL    HW132528   1.305   3.551   5.155
10543SOL    HW232529   1.273   3.544   4.995
10544SOL     OW32530   2.548   1.668   3.329
10544SOL    HW132531   2.522   1.764   3.336
10544SOL    HW232532   2.496   1.625   3.256
10545SOL     OW32533   2.269   2.812   2.599
10545SOL    HW132534   2.214   2.756   2.537
10545SOL    HW232535   2.336   2.754   2.645
10546SOL     OW32536   2.994   6.899   6.421
10546SOL    HW132537   2.933   6.821   6.409
10546SOL    HW232538   2.940   6.982   6.433
10547SOL     OW32539   4.331   6.710   5.086
10547SOL    HW132540   4.241   6.715   5.128
10547SOL    HW232541   4.366   6.617   5.094
10548SOL     OW32542   6.639   5.849   3.173
10548SOL    HW132543   6.701   5.852   3.251
10548SOL    HW232544   6.558   5.795   3.196
10549SOL     OW32545   0.106   0.535   1.546
10549SOL    HW132546   0.115   0.633   1.564
10549SOL    HW232547   0.136   0.515   1.453
10550SOL     OW32548   4.610   5.261   3.320
10550SOL    HW132549   4.707   5.282   3.315
10550SOL    HW232550   4.595   5.188   3.388
10551SOL     OW32551   2.970   1.181   5.533
10551SOL    HW132552   2.978   1.235   5.450
10551SOL    HW232553   2.949   1.086   5.509
10552SOL     OW32554   3.012   0.389   3.890
10552SOL    HW132555   2.982   0.368   3.797
10552SOL    HW232556   3.093   0.447   3.886
10553SOL     OW32557   6.703   5.756   1.177
10553SOL    HW132558   6.672   5.781   1.268
10553SOL    HW232559   6.803   5.746   1.177
10554SOL     OW32560   5.710   5.948   2.326
10554SOL    HW132561   5.757   6.000   2.254
10554SOL    HW232562   5.738   5.984   2.415
10555SOL     OW32563   3.851   3.530   1.241
10555SOL    HW132564   3.930   3.567   1.193
10555SOL    HW232565   3.804   3.463   1.183
10556SOL     OW32566   2.221   1.537   2.572
10556SOL    HW132567   2.190   1.565   2.663
10556SOL    HW232568   2.180   1.450   2.547
10557SOL     OW32569   2.845   4.804   3.410
10557SOL    HW132570   2.843   4.816   3.509
10557SOL    HW232571   2.770   4.743   3.383
10558SOL     OW32572   3.573   5.398   5.262
10558SOL    HW132573   3.525   5.311   5.253
10558SOL    HW232574   3.639   5.392   5.337
10559SOL     OW32575   4.136   6.766   0.826
10559SOL    HW132576   4.093   6.693   0.879
10559SOL    HW232577   4.121   6.854   0.871
10560SOL     OW32578   5.578   0.050   2.183
10560SOL    HW132579   5.523   0.134   2.175
10560SOL    HW232580   5.642   0.060   2.259
10561SOL     OW32581   6.419   4.698   0.296
10561SOL    HW132582   6.500   4.661   0.250
10561SOL    HW232583   6.385   4.776   0.244
10562SOL     OW32584   4.344   5.715   2.521
10562SOL    HW132585   4.402   5.766   2.457
10562SOL    HW232586   4.251   5.752   2.519
10563SOL     OW32587   0.304   6.563   2.072
10563SOL    HW132588   0.260   6.617   2.001
10563SOL    HW232589   0.237   6.539   2.142
10564SOL     OW32590   5.218   4.500   3.688
10564SOL    HW132591   5.140   4.557   3.661
10564SOL    HW232592   5.207   4.474   3.784
10565SOL     OW32593   0.546   0.441   6.266
10565SOL    HW132594   0.608   0.370   6.298
10565SOL    HW232595   0.460   0.435   6.318
10566SOL     OW32596   3.494   3.141   0.339
10566SOL    HW132597   3.561   3.133   0.265
10566SOL    HW232598   3.420   3.076   0.325
10567SOL     OW32599   1.470   2.083   6.607
10567SOL    HW132600   1.492   2.177   6.635
10567SOL    HW232601   1.526   2.058   6.529
10568SOL     OW32602   4.416   2.313   5.953
10568SOL    HW132603   4.420   2.215   5.932
10568SOL    HW232604   4.417   2.327   6.052
10569SOL     OW32605   5.723   6.897   0.320
10569SOL    HW132606   5.678   6.936   0.400
10569SOL    HW232607   5.686   6.940   0.237
10570SOL     OW32608   1.354   4.478   3.286
10570SOL    HW132609   1.314   4.427   3.209
10570SOL    HW232610   1.449   4.449   3.299
10571SOL     OW32611   6.517   4.299   5.775
10571SOL    HW132612   6.600   4.293   5.719
10571SOL    HW232613   6.491   4.395   5.784
10572SOL     OW32614   6.181   4.101   0.805
10572SOL    HW132615   6.215   4.175   0.746
10572SOL    HW232616   6.115   4.046   0.754
10573SOL     OW32617   6.103   1.866   2.927
10573SOL    HW132618   6.063   1.860   3.018
10573SOL    HW232619   6.032   1.890   2.861
10574SOL     OW32620   6.390   3.186   2.796
10574SOL    HW132621   6.419   3.257   2.733
10574SOL    HW232622   6.424   3.207   2.888
10575SOL     OW32623   6.201   6.940   1.615
10575SOL    HW132624   6.239   6.955   1.524
10575SOL    HW232625   6.101   6.936   1.608
10576SOL     OW32626   1.532   4.459   4.661
10576SOL    HW132627   1.515   4.473   4.563
10576SOL    HW232628   1.457   4.406   4.699
10577SOL     OW32629   3.604   4.421   0.430
10577SOL    HW132630   3.596   4.335   0.379
10577SOL    HW232631   3.541   4.489   0.391
10578SOL     OW32632   0.429   3.571   4.338
10578SOL    HW132633   0.383   3.659   4.341
10578SOL    HW232634   0.417   3.524   4.426
10579SOL     OW32635   1.052   3.621   6.989
10579SOL    HW132636   1.016   3.556   6.923
10579SOL    HW232637   0.977   3.668   0.016
10580SOL     OW32638   6.125   0.020   0.701
10580SOL    HW132639   6.205   7.011   0.647
10580SOL    HW232640   6.045   6.986   0.673
10581SOL     OW32641   5.063   6.769   3.190
10581SOL    HW132642   5.022   6.684   3.224
10581SOL    HW232643   5.155   6.778   3.227
10582SOL     OW32644   6.054   4.031   6.063
10582SOL    HW132645   5.977   4.094   6.061
10582SOL    HW232646   6.044   3.967   6.139
10583SOL     OW32647   2.880   1.707   5.017
10583SOL    HW132648   2.852   1.787   5.070
10583SOL    HW232649   2.862   1.723   4.919
10584SOL     OW32650   0.949   6.794   4.045
10584SOL    HW132651   0.874   6.795   4.111
10584SOL    HW232652   1.003   6.878   4.055
10585SOL     OW32653   1.112   0.301   5.226
10585SOL    HW132654   1.190   0.363   5.232
10585SOL    HW232655   1.126   0.236   5.151
10586SOL     OW32656   4.101   4.205   5.334
10586SOL    HW132657   4.127   4.119   5.376
10586SOL    HW232658   4.172   4.235   5.271
10587SOL     OW32659   2.309   5.127   5.669
10587SOL    HW132660   2.392   5.142   5.617
10587SOL    HW232661   2.332   5.101   5.763
10588SOL     OW32662   1.210   4.077   3.956
10588SOL    HW132663   1.156   4.160   3.948
10588SOL    HW232664   1.286   4.092   4.020
10589SOL     OW32665   5.574   5.766   4.267
10589SOL    HW132666   5.550   5.861   4.289
10589SOL    HW232667   5.527   5.739   4.183
10590SOL     OW32668   0.932   5.392   2.432
10590SOL    HW132669   0.854   5.451   2.454
10590SOL    HW232670   0.917   5.350   2.342
10591SOL     OW32671   6.951   2.792   1.629
10591SOL    HW132672   6.915   2.767   1.719
10591SOL    HW232673   6.910   2.734   1.559
10592SOL     OW32674   6.590   1.775   5.426
10592SOL    HW132675   6.503   1.739   5.394
10592SOL    HW232676   6.650   1.794   5.348
10593SOL     OW32677   3.299   5.444   3.403
10593SOL    HW132678   3.203   5.417   3.411
10593SOL    HW232679   3.330   5.431   3.309
10594SOL     OW32680   3.084   6.143   3.696
10594SOL    HW132681   3.143   6.073   3.735
10594SOL    HW232682   3.072   6.127   3.598
10595SOL     OW32683   5.103   6.605   0.092
10595SOL    HW132684   5.039   6.668   0.135
10595SOL    HW232685   5.142   6.545   0.162
10596SOL     OW32686   4.901   3.339   0.152
10596SOL    HW132687   4.944   3.261   0.198
10596SOL    HW232688   4.823   3.370   0.206
10597SOL     OW32689   2.129   0.327   5.272
10597SOL    HW132690   2.058   0.384   5.231
10597SOL    HW232691   2.100   0.231   5.269
10598SOL     OW32692   2.955   1.433   6.170
10598SOL    HW132693   2.966   1.416   6.072
10598SOL    HW232694   2.865   1.402   6.199
10599SOL     OW32695   0.154   2.024   0.134
10599SOL    HW132696   0.189   2.088   0.066
10599SOL    HW232697   0.134   2.073   0.219
10600SOL     OW32698   3.061   2.347   1.452
10600SOL    HW132699   3.049   2.317   1.547
10600SOL    HW232700   3.153   2.321   1.421
10601SOL     OW32701   1.462   0.806   5.756
10601SOL    HW132702   1.390   0.859   5.711
10601SOL    HW232703   1.484   0.848   5.844
10602SOL     OW32704   6.835   6.842   1.248
10602SOL    HW132705   6.855   6.891   1.333
10602SOL    HW232706   6.909   6.856   1.183
10603SOL     OW32707   5.510   1.062   2.898
10603SOL    HW132708   5.489   0.985   2.959
10603SOL    HW232709   5.575   1.032   2.828
10604SOL     OW32710   4.771   0.022   4.554
10604SOL    HW132711   4.803   6.955   4.516
10604SOL    HW232712   4.828   0.049   4.632
10605SOL     OW32713   2.371   1.811   1.692
10605SOL    HW132714   2.285   1.759   1.696
10605SOL    HW232715   2.437   1.771   1.756
10606SOL     OW32716   6.086   0.592   0.422
10606SOL    HW132717   6.051   0.522   0.485
10606SOL    HW232718   6.179   0.569   0.395
10607SOL     OW32719   2.979   4.501   6.829
10607SOL    HW132720   2.945   4.595   6.829
10607SOL    HW232721   2.951   4.455   6.745
10608SOL     OW32722   5.815   3.765   3.712
10608SOL    HW132723   5.860   3.684   3.676
10608SOL    HW232724   5.876   3.844   3.703
10609SOL     OW32725   4.909   1.432   6.696
10609SOL    HW132726   4.861   1.357   6.651
10609SOL    HW232727   4.991   1.455   6.644
10610SOL     OW32728   0.459   1.602   3.602
10610SOL    HW132729   0.544   1.549   3.606
10610SOL    HW232730   0.478   1.692   3.562
10611SOL     OW32731   4.037   5.584   4.456
10611SOL    HW132732   4.125   5.628   4.437
10611SOL    HW232733   3.978   5.590   4.376
10612SOL     OW32734   5.882   1.978   3.394
10612SOL    HW132735   5.969   1.982   3.443
10612SOL    HW232736   5.841   2.069   3.391
10613SOL     OW32737   4.230   6.085   4.426
10613SOL    HW132738   4.198   6.048   4.339
10613SOL    HW232739   4.154   6.129   4.474
10614SOL     OW32740   3.901   1.894   6.158
10614SOL    HW132741   3.991   1.886   6.200
10614SOL    HW232742   3.835   1.926   6.226
10615SOL     OW32743   1.962   1.877   5.681
10615SOL    HW132744   2.003   1.789   5.708
10615SOL    HW232745   2.028   1.950   5.696
10616SOL     OW32746   2.260   6.416   0.161
10616SOL    HW132747   2.235   6.380   0.251
10616SOL    HW232748   2.324   6.492   0.173
10617SOL     OW32749   2.130   3.303   1.580
10617SOL    HW132750   2.214   3.250   1.571
10617SOL    HW232751   2.078   3.298   1.495
10618SOL     OW32752   1.232   5.412   3.590
10618SOL    HW132753   1.322   5.371   3.573
10618SOL    HW232754   1.163   5.364   3.537
10619SOL     OW32755   2.088   2.626   2.829
10619SOL    HW132756   2.040   2.693   2.773
10619SOL    HW232757   2.023   2.576   2.885
10620SOL     OW32758   3.094   1.446   6.406
10620SOL    HW132759   3.041   1.437   6.321
10620SOL    HW232760   3.057   1.522   6.460
10621SOL     OW32761   0.709   4.111   3.286
10621SOL    HW132762   0.805   4.083   3.279
10621SOL    HW232763   0.681   4.110   3.382
10622SOL     OW32764   4.552   1.785   0.024
10622SOL    HW132765   4.603   1.820   6.965
10622SOL    HW232766   4.505   1.861   0.069
10623SOL     OW32767   4.969   6.870   6.275
10623SOL    HW132768   4.881   6.833   6.245
10623SOL    HW232769   5.040   6.847   6.209
10624SOL     OW32770   0.505   2.244   0.391
10624SOL    HW132771   0.450   2.321   0.357
10624SOL    HW232772   0.526   2.183   0.314
10625SOL     OW32773   5.345   4.831   0.187
10625SOL    HW132774   5.312   4.874   0.271
10625SOL    HW232775   5.289   4.861   0.110
10626SOL     OW32776   5.199   3.082   1.016
10626SOL    HW132777   5.271   3.070   0.949
10626SOL    HW232778   5.202   3.008   1.083
10627SOL     OW32779   5.406   5.362   5.707
10627SOL    HW132780   5.347   5.303   5.652
10627SOL    HW232781   5.421   5.448   5.660
10628SOL     OW32782   3.764   6.915   0.793
10628SOL    HW132783   3.741   6.844   0.859
10628SOL    HW232784   3.781   7.001   0.841
10629SOL     OW32785   3.406   5.642   4.589
10629SOL    HW132786   3.447   5.619   4.678
10629SOL    HW232787   3.446   5.584   4.518
10630SOL     OW32788   4.024   1.014   1.925
10630SOL    HW132789   3.963   1.040   2.000
10630SOL    HW232790   4.102   1.076   1.922
10631SOL     OW32791   3.640   6.164   0.485
10631SOL    HW132792   3.674   6.094   0.423
10631SOL    HW232793   3.585   6.122   0.557
10632SOL     OW32794   5.036   6.121   3.308
10632SOL    HW132795   5.040   6.021   3.306
10632SOL    HW232796   4.993   6.154   3.224
10633SOL     OW32797   1.458   3.585   1.112
10633SOL    HW132798   1.396   3.605   1.037
10633SOL    HW232799   1.407   3.575   1.197
10634SOL     OW32800   0.592   3.617   6.920
10634SOL    HW132801   0.665   3.680   6.948
10634SOL    HW232802   0.515   3.670   6.883
10635SOL     OW32803   2.480   4.797   6.094
10635SOL    HW132804   2.563   4.853   6.102
10635SOL    HW232805   2.488   4.738   6.014
10636SOL     OW32806   7.014   2.166   6.890
10636SOL    HW132807   0.024   2.082   6.846
10636SOL    HW232808   0.071   2.205   6.943
10637SOL     OW32809   2.771   0.844   6.947
10637SOL    HW132810   2.719   0.841   6.862
10637SOL    HW232811   2.866   0.818   6.929
10638SOL     OW32812   5.912   5.633   1.584
10638SOL    HW132813   5.875   5.558   1.639
10638SOL    HW232814   6.012   5.624   1.578
10639SOL     OW32815   1.026   5.158   1.886
10639SOL    HW132816   1.119   5.187   1.865
10639SOL    HW232817   1.020   5.058   1.880
10640SOL     OW32818   4.222   6.678   3.202
10640SOL    HW132819   4.207   6.599   3.261
10640SOL    HW232820   4.300   6.730   3.235
10641SOL     OW32821   1.404   1.036   3.756
10641SOL    HW132822   1.318   0.992   3.728
10641SOL    HW232823   1.418   1.023   3.854
10642SOL     OW32824   6.601   2.284   6.159
10642SOL    HW132825   6.504   2.308   6.168
10642SOL    HW232826   6.613   2.186   6.178
10643SOL     OW32827   2.369   5.033   5.947
10643SOL    HW132828   2.417   4.960   5.995
10643SOL    HW232829   2.294   5.066   6.004
10644SOL     OW32830   6.520   3.383   2.642
10644SOL    HW132831   6.553   3.342   2.557
10644SOL    HW232832   6.536   3.482   2.639
10645SOL     OW32833   2.528   2.449   3.859
10645SOL    HW132834   2.592   2.446   3.782
10645SOL    HW232835   2.456   2.516   3.839
10646SOL     OW32836   5.557   0.476   3.742
10646SOL    HW132837   5.574   0.378   3.748
10646SOL    HW232838   5.487   0.494   3.673
10647SOL     OW32839   3.274   5.421   4.828
10647SOL    HW132840   3.187   5.467   4.843
10647SOL    HW232841   3.348   5.488   4.829
10648SOL     OW32842   4.783   4.663   6.149
10648SOL    HW132843   4.806   4.570   6.176
10648SOL    HW232844   4.803   4.726   6.225
10649SOL     OW32845   6.642   3.944   2.567
10649SOL    HW132846   6.542   3.941   2.575
10649SOL    HW232847   6.676   4.028   2.610
10650SOL     OW32848   0.496   0.179   3.614
10650SOL    HW132849   0.435   0.243   3.567
10650SOL    HW232850   0.570   0.152   3.552
10651SOL     OW32851   3.687   5.919   6.098
10651SOL    HW132852   3.717   5.978   6.022
10651SOL    HW232853   3.605   5.868   6.069
10652SOL     OW32854   2.273   0.323   6.856
10652SOL    HW132855   2.360   0.354   6.895
10652SOL    HW232856   2.235   0.250   6.913
10653SOL     OW32857   4.342   5.902   4.027
10653SOL    HW132858   4.418   5.845   3.994
10653SOL    HW232859   4.379   5.982   4.074
10654SOL     OW32860   6.174   1.487   4.355
10654SOL    HW132861   6.208   1.394   4.343
10654SOL    HW232862   6.191   1.540   4.272
10655SOL     OW32863   0.248   4.751   1.257
10655SOL    HW132864   0.207   4.839   1.233
10655SOL    HW232865   0.229   4.730   1.353
10656SOL     OW32866   5.846   2.733   3.323
10656SOL    HW132867   5.760   2.780   3.340
10656SOL    HW232868   5.893   2.717   3.410
10657SOL     OW32869   4.906   6.573   4.549
10657SOL    HW132870   4.821   6.583   4.599
10657SOL    HW232871   4.908   6.483   4.504
10658SOL     OW32872   0.990   3.085   4.851
10658SOL    HW132873   0.930   3.161   4.826
10658SOL    HW232874   1.041   3.055   4.770
10659SOL     OW32875   1.122   5.371   0.921
10659SOL    HW132876   1.099   5.465   0.948
10659SOL    HW232877   1.040   5.314   0.928
10660SOL     OW32878   5.709   2.745   5.359
10660SOL    HW132879   5.765   2.809   5.411
10660SOL    HW232880   5.726   2.757   5.261
10661SOL     OW32881   2.121   4.915   5.695
10661SOL    HW132882   2.162   4.841   5.748
10661SOL    HW232883   2.188   4.988   5.682
10662SOL     OW32884   2.498   1.335   2.212
10662SOL    HW132885   2.584   1.289   2.190
10662SOL    HW232886   2.518   1.423   2.255
10663SOL     OW32887   1.234   1.580   3.589
10663SOL    HW132888   1.185   1.508   3.638
10663SOL    HW232889   1.169   1.643   3.548
10664SOL     OW32890   0.926   5.357   4.709
10664SOL    HW132891   0.923   5.267   4.666
10664SOL    HW232892   1.019   5.394   4.704
10665SOL     OW32893   2.409   2.761   6.686
10665SOL    HW132894   2.324   2.713   6.667
10665SOL    HW232895   2.482   2.722   6.630
10666SOL     OW32896   3.129   3.757   1.885
10666SOL    HW132897   3.205   3.720   1.939
10666SOL    HW232898   3.163   3.785   1.795
10667SOL     OW32899   5.363   2.427   3.864
10667SOL    HW132900   5.356   2.442   3.962
10667SOL    HW232901   5.389   2.332   3.847
10668SOL     OW32902   3.424   2.683   5.635
10668SOL    HW132903   3.492   2.611   5.617
10668SOL    HW232904   3.467   2.756   5.689
10669SOL     OW32905   6.170   1.574   1.242
10669SOL    HW132906   6.262   1.543   1.268
10669SOL    HW232907   6.110   1.494   1.233
10670SOL     OW32908   4.902   3.452   4.162
10670SOL    HW132909   4.997   3.444   4.191
10670SOL    HW232910   4.896   3.458   4.063
10671SOL     OW32911   1.456   2.658   4.337
10671SOL    HW132912   1.473   2.595   4.261
10671SOL    HW232913   1.527   2.646   4.407
10672SOL     OW32914   6.024   3.066   1.444
10672SOL    HW132915   6.063   3.087   1.534
10672SOL    HW232916   5.998   3.151   1.399
10673SOL     OW32917   1.811   1.707   1.275
10673SOL    HW132918   1.791   1.634   1.340
10673SOL    HW232919   1.733   1.770   1.271
10674SOL     OW32920   3.575   3.844   3.329
10674SOL    HW132921   3.549   3.831   3.424
10674SOL    HW232922   3.545   3.934   3.298
10675SOL     OW32923   4.102   6.615   5.529
10675SOL    HW132924   4.064   6.704   5.504
10675SOL    HW232925   4.115   6.611   5.628
10676SOL     OW32926   1.870   6.844   5.264
10676SOL    HW132927   1.941   6.846   5.335
10676SOL    HW232928   1.859   6.751   5.231
10677SOL     OW32929   0.458   1.641   1.016
10677SOL    HW132930   0.467   1.653   1.115
10677SOL    HW232931   0.503   1.556   0.988
10678SOL     OW32932   4.197   5.658   3.318
10678SOL    HW132933   4.191   5.610   3.406
10678SOL    HW232934   4.242   5.746   3.331
10679SOL     OW32935   4.135   3.261   6.649
10679SOL    HW132936   4.224   3.227   6.617
10679SOL    HW232937   4.081   3.293   6.571
10680SOL     OW32938   3.990   0.711   4.265
10680SOL    HW132939   4.086   0.685   4.256
10680SOL    HW232940   3.931   0.632   4.248
10681SOL     OW32941   1.004   2.870   5.625
10681SOL    HW132942   1.074   2.919   5.572
10681SOL    HW232943   0.938   2.830   5.562
10682SOL     OW32944   5.327   3.259   5.982
10682SOL    HW132945   5.389   3.318   6.034
10682SOL    HW232946   5.233   3.287   6.000
10683SOL     OW32947   3.283   0.673   3.350
10683SOL    HW132948   3.231   0.664   3.434
10683SOL    HW232949   3.229   0.724   3.282
10684SOL     OW32950   4.528   4.611   1.817
10684SOL    HW132951   4.443   4.560   1.809
10684SOL    HW232952   4.599   4.551   1.854
10685SOL     OW32953   0.898   5.777   1.566
10685SOL    HW132954   0.877   5.684   1.534
10685SOL    HW232955   0.825   5.840   1.537
10686SOL     OW32956   2.465   2.336   6.542
10686SOL    HW132957   2.447   2.379   6.453
10686SOL    HW232958   2.384   2.342   6.599
10687SOL     OW32959   0.940   4.364   3.352
10687SOL    HW132960   0.849   4.399   3.373
10687SOL    HW232961   0.968   4.299   3.422
10688SOL     OW32962   5.715   1.874   2.527
10688SOL    HW132963   5.694   1.950   2.588
10688SOL    HW232964   5.755   1.910   2.442
10689SOL     OW32965   6.886   0.233   2.374
10689SOL    HW132966   6.927   0.311   2.422
10689SOL    HW232967   6.805   0.202   2.424
10690SOL     OW32968   0.212   6.992   3.948
10690SOL    HW132969   0.121   6.963   3.980
10690SOL    HW232970   0.281   6.930   3.985
10691SOL     OW32971   3.454   0.692   2.872
10691SOL    HW132972   3.488   0.662   2.782
10691SOL    HW232973   3.470   0.619   2.939
10692SOL     OW32974   2.252   0.275   3.740
10692SOL    HW132975   2.240   0.374   3.745
10692SOL    HW232976   2.332   0.248   3.794
10693SOL     OW32977   1.439   5.971   0.423
10693SOL    HW132978   1.509   6.021   0.373
10693SOL    HW232979   1.465   5.964   0.520
10694SOL     OW32980   4.652   6.373   5.334
10694SOL    HW132981   4.606   6.454   5.370
10694SOL    HW232982   4.608   6.291   5.371
10695SOL     OW32983   0.190   4.135   1.804
10695SOL    HW132984   0.287   4.159   1.807
10695SOL    HW232985   0.167   4.083   1.886
10696SOL     OW32986   0.052   5.308   4.695
10696SOL    HW132987   6.973   5.304   4.677
10696SOL    HW232988   0.082   5.404   4.693
10697SOL     OW32989   1.789   4.677   6.033
10697SOL    HW132990   1.871   4.620   6.032
10697SOL    HW232991   1.709   4.622   6.058
10698SOL     OW32992   4.179   3.127   0.031
10698SOL    HW132993   4.228   3.043   0.055
10698SOL    HW232994   4.243   3.203   0.024
10699SOL     OW32995   3.305   3.939   0.111
10699SOL    HW132996   3.358   3.881   0.049
10699SOL    HW232997   3.287   4.027   0.067
10700SOL     OW32998   4.977   0.614   0.906
10700SOL    HW132999   5.028   0.611   0.821
10700SOL    HW233000   4.893   0.666   0.893
10701SOL     OW33001   2.703   0.883   6.345
10701SOL    HW133002   2.609   0.911   6.329
10701SOL    HW233003   2.704   0.792   6.387
10702SOL     OW33004   5.433   2.307   2.232
10702SOL    HW133005   5.395   2.254   2.308
10702SOL    HW233006   5.361   2.327   2.166
10703SOL     OW33007   1.483   2.605   6.254
10703SOL    HW133008   1.401   2.657   6.230
10703SOL    HW233009   1.489   2.595   6.353
10704SOL     OW33010   6.476   0.047   1.653
10704SOL    HW133011   6.381   0.014   1.655
10704SOL    HW233012   6.526   0.008   1.730
10705SOL     OW33013   5.897   4.412   0.985
10705SOL    HW133014   5.841   4.372   0.912
10705SOL    HW233015   5.980   4.357   0.997
10706SOL     OW33016   4.702   0.700   1.975
10706SOL    HW133017   4.721   0.671   2.069
10706SOL    HW233018   4.745   0.789   1.959
10707SOL     OW33019   5.853   0.163   4.196
10707SOL    HW133020   5.904   0.077   4.190
10707SOL    HW233021   5.849   0.193   4.291
10708SOL     OW33022   4.122   2.223   2.228
10708SOL    HW133023   4.058   2.232   2.152
10708SOL    HW233024   4.215   2.242   2.195
10709SOL     OW33025   5.887   5.154   3.966
10709SOL    HW133026   5.862   5.191   4.056
10709SOL    HW233027   5.975   5.108   3.973
10710SOL     OW33028   5.781   1.462   3.130
10710SOL    HW133029   5.759   1.511   3.046
10710SOL    HW233030   5.721   1.382   3.140
10711SOL     OW33031   3.800   6.664   1.589
10711SOL    HW133032   3.812   6.753   1.546
10711SOL    HW233033   3.732   6.670   1.662
10712SOL     OW33034   4.603   6.939   2.812
10712SOL    HW133035   4.522   6.956   2.755
10712SOL    HW233036   4.683   6.983   2.772
10713SOL     OW33037   1.498   3.956   0.931
10713SOL    HW133038   1.399   3.966   0.940
10713SOL    HW233039   1.540   3.947   1.021
10714SOL     OW33040   4.001   3.107   4.117
10714SOL    HW133041   3.907   3.074   4.129
10714SOL    HW233042   4.056   3.078   4.195
10715SOL     OW33043   6.027   0.899   2.148
10715SOL    HW133044   6.101   0.838   2.174
10715SOL    HW233045   5.949   0.885   2.209
10716SOL     OW33046   6.532   2.622   2.892
10716SOL    HW133047   6.590   2.600   2.970
10716SOL    HW233048   6.445   2.575   2.900
10717SOL     OW33049   0.857   2.465   6.863
10717SOL    HW133050   0.772   2.469   6.915
10717SOL    HW233051   0.882   2.557   6.832
10718SOL     OW33052   1.439   4.620   5.838
10718SOL    HW133053   1.409   4.536   5.793
10718SOL    HW233054   1.539   4.623   5.840
10719SOL     OW33055   6.682   5.636   4.210
10719SOL    HW133056   6.595   5.587   4.200
10719SOL    HW233057   6.757   5.576   4.181
10720SOL     OW33058   5.616   5.504   4.204
10720SOL    HW133059   5.640   5.595   4.238
10720SOL    HW233060   5.517   5.491   4.211
10721SOL     OW33061   5.085   3.831   4.994
10721SOL    HW133062   5.134   3.745   4.980
10721SOL    HW233063   5.152   3.906   4.999
10722SOL     OW33064   7.000   3.848   6.186
10722SOL    HW133065   6.983   3.905   6.106
10722SOL    HW233066   6.928   3.779   6.193
10723SOL     OW33067   7.016   0.398   0.055
10723SOL    HW133068   7.019   0.428   0.150
10723SOL    HW233069   0.025   0.302   0.049
10724SOL     OW33070   6.891   6.619   0.334
10724SOL    HW133071   6.832   6.538   0.337
10724SOL    HW233072   6.857   6.683   0.266
10725SOL     OW33073   2.409   5.670   5.405
10725SOL    HW133074   2.494   5.634   5.444
10725SOL    HW233075   2.426   5.761   5.367
10726SOL     OW33076   4.980   0.741   4.006
10726SOL    HW133077   5.011   0.730   3.912
10726SOL    HW233078   5.049   0.705   4.069
10727SOL     OW33079   1.334   5.996   6.297
10727SOL    HW133080   1.290   6.065   6.355
10727SOL    HW233081   1.380   5.929   6.355
10728SOL     OW33082   6.604   5.292   0.559
10728SOL    HW133083   6.534   5.280   0.629
10728SOL    HW233084   6.565   5.339   0.480
10729SOL     OW33085   6.568   2.342   1.461
10729SOL    HW133086   6.502   2.415   1.444
10729SOL    HW233087   6.619   2.323   1.376
10730SOL     OW33088   3.969   0.638   1.724
10730SOL    HW133089   3.910   0.703   1.676
10730SOL    HW233090   4.064   0.668   1.717
10731SOL     OW33091   3.726   1.021   0.816
10731SOL    HW133092   3.698   1.110   0.781
10731SOL    HW233093   3.702   0.950   0.750
10732SOL     OW33094   7.002   5.245   5.010
10732SOL    HW133095   6.951   5.159   5.010
10732SOL    HW233096   0.068   5.234   4.960
10733SOL     OW33097   5.892   1.947   6.935
10733SOL    HW133098   5.888   1.852   6.905
10733SOL    HW233099   5.826   2.001   6.883
10734SOL     OW33100   0.918   1.472   1.137
10734SOL    HW133101   0.949   1.458   1.231
10734SOL    HW233102   0.919   1.569   1.116
10735SOL     OW33103   6.961   3.588   2.007
10735SOL    HW133104   6.874   3.550   2.039
10735SOL    HW233105   0.014   3.558   2.068
10736SOL     OW33106   2.554   6.801   4.315
10736SOL    HW133107   2.463   6.840   4.303
10736SOL    HW233108   2.623   6.874   4.313
10737SOL     OW33109   0.328   2.407   1.683
10737SOL    HW133110   0.409   2.359   1.717
10737SOL    HW233111   0.355   2.469   1.610
10738SOL     OW33112   4.097   6.960   2.920
10738SOL    HW133113   4.152   6.963   3.004
10738SOL    HW233114   4.003   6.983   2.941
10739SOL     OW33115   1.702   2.493   1.748
10739SOL    HW133116   1.709   2.494   1.848
10739SOL    HW233117   1.674   2.583   1.716
10740SOL     OW33118   5.585   4.817   4.995
10740SOL    HW133119   5.503   4.796   4.943
10740SOL    HW233120   5.620   4.907   4.968
10741SOL     OW33121   3.524   0.539   2.226
10741SOL    HW133122   3.601   0.546   2.163
10741SOL    HW233123   3.519   0.446   2.262
10742SOL     OW33124   5.826   5.062   1.401
10742SOL    HW133125   5.868   5.089   1.488
10742SOL    HW233126   5.896   5.059   1.330
10743SOL     OW33127   2.157   2.377   3.977
10743SOL    HW133128   2.230   2.426   3.928
10743SOL    HW233129   2.165   2.394   4.075
10744SOL     OW33130   3.481   1.938   1.265
10744SOL    HW133131   3.499   1.957   1.168
10744SOL    HW233132   3.542   1.865   1.296
10745SOL     OW33133   6.828   6.246   5.738
10745SOL    HW133134   6.863   6.332   5.776
10745SOL    HW233135   6.873   6.228   5.650
10746SOL     OW33136   0.900   3.572   5.231
10746SOL    HW133137   0.890   3.669   5.206
10746SOL    HW233138   0.874   3.559   5.326
10747SOL     OW33139   3.028   1.097   4.531
10747SOL    HW133140   2.979   1.114   4.446
10747SOL    HW233141   3.110   1.042   4.512
10748SOL     OW33142   5.398   1.149   2.296
10748SOL    HW133143   5.428   1.244   2.304
10748SOL    HW233144   5.474   1.093   2.263
10749SOL     OW33145   0.988   6.521   5.100
10749SOL    HW133146   0.918   6.591   5.116
10749SOL    HW233147   1.007   6.474   5.187
10750SOL     OW33148   4.012   0.700   5.055
10750SOL    HW133149   4.104   0.723   5.024
10750SOL    HW233150   3.969   0.781   5.094
10751SOL     OW33151   2.415   5.078   4.143
10751SOL    HW133152   2.404   5.015   4.066
10751SOL    HW233153   2.373   5.166   4.120
10752SOL     OW33154   5.079   4.766   5.019
10752SOL    HW133155   5.042   4.832   4.954
10752SOL    HW233156   5.164   4.801   5.058
10753SOL     OW33157   0.266   3.312   3.905
10753SOL    HW133158   0.348   3.267   3.869
10753SOL    HW233159   0.285   3.410   3.917
10754SOL     OW33160   0.962   0.113   3.053
10754SOL    HW133161   0.989   0.111   2.957
10754SOL    HW233162   0.960   0.019   3.089
10755SOL     OW33163   6.618   0.089   2.142
10755SOL    HW133164   6.708   0.131   2.126
10755SOL    HW233165   6.546   0.156   2.122
10756SOL     OW33166   6.600   5.572   5.524
10756SOL    HW133167   6.554   5.550   5.438
10756SOL    HW233168   6.696   5.594   5.505
10757SOL     OW33169   1.850   2.529   0.331
10757SOL    HW133170   1.864   2.453   0.267
10757SOL    HW233171   1.927   2.534   0.394
10758SOL     OW33172   0.236   6.514   3.645
10758SOL    HW133173   0.262   6.489   3.552
10758SOL    HW233174   0.317   6.515   3.704
10759SOL     OW33175   0.505   3.209   0.646
10759SOL    HW133176   0.443   3.274   0.603
10759SOL    HW233177   0.464   3.118   0.646
10760SOL     OW33178   5.899   1.031   3.620
10760SOL    HW133179   5.882   1.129   3.620
10760SOL    HW233180   5.824   0.985   3.669
10761SOL     OW33181   1.917   5.088   6.186
10761SOL    HW133182   1.844   5.139   6.140
10761SOL    HW233183   1.985   5.060   6.118
10762SOL     OW33184   2.753   0.553   5.052
10762SOL    HW133185   2.787   0.630   4.998
10762SOL    HW233186   2.776   0.467   5.005
10763SOL     OW33187   3.880   0.783   3.653
10763SOL    HW133188   3.953   0.843   3.622
10763SOL    HW233189   3.870   0.791   3.752
10764SOL     OW33190   4.493   1.433   4.383
10764SOL    HW133191   4.584   1.471   4.366
10764SOL    HW233192   4.425   1.507   4.384
10765SOL     OW33193   4.811   3.196   1.120
10765SOL    HW133194   4.880   3.206   1.192
10765SOL    HW233195   4.851   3.222   1.032
10766SOL     OW33196   3.583   3.951   0.850
10766SOL    HW133197   3.620   4.044   0.842
10766SOL    HW233198   3.527   3.945   0.932
10767SOL     OW33199   2.341   0.263   1.228
10767SOL    HW133200   2.253   0.224   1.200
10767SOL    HW233201   2.370   0.331   1.161
10768SOL     OW33202   6.781   4.845   0.960
10768SOL    HW133203   6.724   4.783   0.906
10768SOL    HW233204   6.876   4.813   0.958
10769SOL     OW33205   2.305   3.424   6.183
10769SOL    HW133206   2.347   3.491   6.244
10769SOL    HW233207   2.306   3.458   6.089
10770SOL     OW33208   4.680   5.704   3.084
10770SOL    HW133209   4.606   5.745   3.030
10770SOL    HW233210   4.649   5.618   3.124
10771SOL     OW33211   3.346   7.004   3.913
10771SOL    HW133212   3.320   6.993   4.009
10771SOL    HW233213   3.284   6.951   3.855
10772SOL     OW33214   6.557   5.447   4.553
10772SOL    HW133215   6.472   5.451   4.605
10772SOL    HW233216   6.539   5.469   4.457
10773SOL     OW33217   5.444   4.281   4.593
10773SOL    HW133218   5.434   4.229   4.678
10773SOL    HW233219   5.540   4.309   4.583
10774SOL     OW33220   1.342   1.202   4.052
10774SOL    HW133221   1.334   1.132   4.124
10774SOL    HW233222   1.412   1.268   4.078
10775SOL     OW33223   1.109   4.452   1.761
10775SOL    HW133224   1.015   4.468   1.729
10775SOL    HW233225   1.108   4.436   1.860
10776SOL     OW33226   2.175   1.130   6.288
10776SOL    HW133227   2.152   1.086   6.201
10776SOL    HW233228   2.140   1.074   6.363
10777SOL     OW33229   3.340   5.325   1.536
10777SOL    HW133230   3.280   5.306   1.613
10777SOL    HW233231   3.421   5.374   1.568
10778SOL     OW33232   5.501   6.298   3.959
10778SOL    HW133233   5.463   6.364   3.894
10778SOL    HW233234   5.495   6.206   3.920
10779SOL     OW33235   6.194   2.574   3.589
10779SOL    HW133236   6.267   2.546   3.528
10779SOL    HW233237   6.214   2.665   3.626
10780SOL     OW33238   0.940   1.066   3.194
10780SOL    HW133239   1.039   1.079   3.182
10780SOL    HW233240   0.923   0.978   3.237
10781SOL     OW33241   3.895   0.046   4.393
10781SOL    HW133242   3.901   0.095   4.306
10781SOL    HW233243   3.805   0.061   4.434
10782SOL     OW33244   5.830   6.695   4.353
10782SOL    HW133245   5.893   6.675   4.278
10782SOL    HW233246   5.816   6.794   4.359
10783SOL     OW33247   6.665   2.700   3.260
10783SOL    HW133248   6.571   2.716   3.291
10783SOL    HW233249   6.729   2.737   3.326
10784SOL     OW33250   2.953   1.319   4.274
10784SOL    HW133251   2.868   1.318   4.327
10784SOL    HW233252   3.031   1.319   4.337
10785SOL     OW33253   0.425   4.188   6.916
10785SOL    HW133254   0.521   4.162   6.907
10785SOL    HW233255   0.379   4.124   6.978
10786SOL     OW33256   6.209   5.917   2.720
10786SOL    HW133257   6.257   5.834   2.690
10786SOL    HW233258   6.258   5.957   2.798
10787SOL     OW33259   0.538   1.127   5.238
10787SOL    HW133260   0.454   1.152   5.189
10787SOL    HW233261   0.537   1.029   5.258
10788SOL     OW33262   0.286   4.137   6.684
10788SOL    HW133263   0.328   4.174   6.767
10788SOL    HW233264   0.203   4.087   6.710
10789SOL     OW33265   6.820   2.458   7.011
10789SOL    HW133266   6.835   2.381   0.054
10789SOL    HW233267   6.780   2.424   6.926
10790SOL     OW33268   0.412   6.839   1.794
10790SOL    HW133269   0.394   6.896   1.874
10790SOL    HW233270   0.478   6.884   1.734
10791SOL     OW33271   6.036   5.929   2.228
10791SOL    HW133272   5.947   5.951   2.187
10791SOL    HW233273   6.105   5.924   2.156
10792SOL     OW33274   3.884   3.753   5.273
10792SOL    HW133275   3.789   3.740   5.303
10792SOL    HW233276   3.945   3.749   5.352
10793SOL     OW33277   5.876   3.425   5.353
10793SOL    HW133278   5.793   3.442   5.407
10793SOL    HW233279   5.911   3.511   5.317
10794SOL     OW33280   3.273   3.456   3.923
10794SOL    HW133281   3.198   3.393   3.902
10794SOL    HW233282   3.273   3.478   4.021
10795SOL     OW33283   1.048   4.378   2.877
10795SOL    HW133284   1.086   4.458   2.924
10795SOL    HW233285   1.019   4.404   2.785
10796SOL     OW33286   0.686   6.312   5.270
10796SOL    HW133287   0.666   6.227   5.221
10796SOL    HW233288   0.672   6.389   5.208
10797SOL     OW33289   3.896   3.135   0.242
10797SOL    HW133290   3.836   3.187   0.181
10797SOL    HW233291   3.991   3.151   0.216
10798SOL     OW33292   1.599   1.217   1.584
10798SOL    HW133293   1.524   1.193   1.645
10798SOL    HW233294   1.685   1.181   1.622
10799SOL     OW33295   3.933   0.550   2.871
10799SOL    HW133296   4.009   0.498   2.911
10799SOL    HW233297   3.915   0.517   2.778
10800SOL     OW33298   1.061   6.402   0.219
10800SOL    HW133299   1.055   6.413   0.318
10800SOL    HW233300   1.009   6.322   0.190
10801SOL     OW33301   1.685   0.601   0.264
10801SOL    HW133302   1.653   0.558   0.180
10801SOL    HW233303   1.773   0.645   0.247
10802SOL     OW33304   6.147   6.339   3.349
10802SOL    HW133305   6.060   6.356   3.303
10802SOL    HW233306   6.220   6.388   3.301
10803SOL     OW33307   1.339   5.587   6.601
10803SOL    HW133308   1.412   5.645   6.638
10803SOL    HW233309   1.379   5.515   6.544
10804SOL     OW33310   0.494   3.197   3.822
10804SOL    HW133311   0.537   3.185   3.911
10804SOL    HW233312   0.449   3.111   3.795
10805SOL     OW33313   6.132   0.996   5.136
10805SOL    HW133314   6.090   1.050   5.064
10805SOL    HW233315   6.222   0.964   5.105
10806SOL     OW33316   2.599   4.687   6.974
10806SOL    HW133317   2.630   4.621   0.023
10806SOL    HW233318   2.500   4.699   6.982
10807SOL     OW33319   2.553   5.943   3.784
10807SOL    HW133320   2.522   5.848   3.778
10807SOL    HW233321   2.474   6.004   3.772
10808SOL     OW33322   0.028   2.253   5.956
10808SOL    HW133323   0.055   2.346   5.980
10808SOL    HW233324   0.107   2.192   5.964
10809SOL     OW33325   2.546   5.246   4.340
10809SOL    HW133326   2.599   5.330   4.327
10809SOL    HW233327   2.548   5.193   4.255
10810SOL     OW33328   0.607   0.389   4.503
10810SOL    HW133329   0.611   0.407   4.602
10810SOL    HW233330   0.689   0.424   4.460
10811SOL     OW33331   4.902   5.471   4.925
10811SOL    HW133332   4.806   5.462   4.952
10811SOL    HW233333   4.927   5.568   4.925
10812SOL     OW33334   0.279   3.075   6.838
10812SOL    HW133335   0.319   3.021   6.764
10812SOL    HW233336   0.327   3.054   6.924
10813SOL     OW33337   0.411   3.747   6.342
10813SOL    HW133338   0.425   3.683   6.266
10813SOL    HW233339   0.412   3.840   6.307
10814SOL     OW33340   2.383   0.556   0.207
10814SOL    HW133341   2.323   0.491   0.252
10814SOL    HW233342   2.334   0.601   0.132
10815SOL     OW33343   5.300   0.849   4.161
10815SOL    HW133344   5.363   0.925   4.149
10815SOL    HW233345   5.224   0.877   4.219
10816SOL     OW33346   3.550   2.851   3.745
10816SOL    HW133347   3.539   2.916   3.671
10816SOL    HW233348   3.582   2.763   3.708
10817SOL     OW33349   2.555   0.077   2.788
10817SOL    HW133350   2.505   0.002   2.745
10817SOL    HW233351   2.636   0.099   2.732
10818SOL     OW33352   4.729   4.898   5.998
10818SOL    HW133353   4.733   4.815   6.053
10818SOL    HW233354   4.785   4.886   5.916
10819SOL     OW33355   0.030   5.599   6.580
10819SOL    HW133356   0.003   5.685   6.623
10819SOL    HW233357   0.051   5.614   6.484
10820SOL     OW33358   1.712   4.908   5.524
10820SOL    HW133359   1.793   4.865   5.565
10820SOL    HW233360   1.704   5.002   5.556
10821SOL     OW33361   4.983   4.995   3.012
10821SOL    HW133362   4.979   4.895   3.000
10821SOL    HW233363   4.899   5.026   3.056
10822SOL     OW33364   5.640   2.775   0.349
10822SOL    HW133365   5.665   2.696   0.406
10822SOL    HW233366   5.631   2.856   0.408
10823SOL     OW33367   6.469   6.455   3.295
10823SOL    HW133368   6.470   6.525   3.367
10823SOL    HW233369   6.562   6.421   3.282
10824SOL     OW33370   1.141   1.484   4.622
10824SOL    HW133371   1.089   1.512   4.540
10824SOL    HW233372   1.183   1.564   4.663
10825SOL     OW33373   1.387   2.012   0.886
10825SOL    HW133374   1.457   2.020   0.957
10825SOL    HW233375   1.331   2.096   0.885
10826SOL     OW33376   1.336   2.215   2.773
10826SOL    HW133377   1.346   2.190   2.677
10826SOL    HW233378   1.257   2.276   2.784
10827SOL     OW33379   6.707   3.181   5.515
10827SOL    HW133380   6.751   3.100   5.476
10827SOL    HW233381   6.693   3.167   5.613
10828SOL     OW33382   6.477   3.972   6.223
10828SOL    HW133383   6.571   4.005   6.232
10828SOL    HW233384   6.466   3.889   6.278
10829SOL     OW33385   4.159   3.693   5.728
10829SOL    HW133386   4.198   3.608   5.761
10829SOL    HW233387   4.229   3.765   5.730
10830SOL     OW33388   5.054   1.278   3.751
10830SOL    HW133389   4.971   1.224   3.741
10830SOL    HW233390   5.134   1.220   3.735
10831SOL     OW33391   3.817   1.058   2.737
10831SOL    HW133392   3.749   1.087   2.804
10831SOL    HW233393   3.771   1.014   2.660
10832SOL     OW33394   6.922   3.340   0.314
10832SOL    HW133395   6.839   3.290   0.339
10832SOL    HW233396   6.913   3.435   0.344
10833SOL     OW33397   0.784   0.617   0.700
10833SOL    HW133398   0.758   0.669   0.782
10833SOL    HW233399   0.872   0.573   0.715
10834SOL     OW33400   6.494   6.790   0.465
10834SOL    HW133401   6.517   6.731   0.543
10834SOL    HW233402   6.432   6.862   0.496
10835SOL     OW33403   6.651   2.698   5.580
10835SOL    HW133404   6.717   2.718   5.652
10835SOL    HW233405   6.597   2.619   5.606
10836SOL     OW33406   0.239   1.922   3.502
10836SOL    HW133407   0.289   2.002   3.468
10836SOL    HW233408   0.252   1.914   3.601
10837SOL     OW33409   0.290   4.302   2.702
10837SOL    HW133410   0.203   4.307   2.752
10837SOL    HW233411   0.320   4.206   2.697
10838SOL     OW33412   6.116   5.632   3.903
10838SOL    HW133413   6.082   5.711   3.954
10838SOL    HW233414   6.193   5.660   3.846
10839SOL     OW33415   4.735   4.034   0.374
10839SOL    HW133416   4.655   3.975   0.387
10839SOL    HW233417   4.793   3.996   0.302
10840SOL     OW33418   3.077   0.503   0.944
10840SOL    HW133419   3.071   0.404   0.958
10840SOL    HW233420   3.066   0.550   1.032
10841SOL     OW33421   1.011   4.824   4.544
10841SOL    HW133422   0.999   4.848   4.640
10841SOL    HW233423   1.058   4.898   4.497
10842SOL     OW33424   4.984   4.118   1.041
10842SOL    HW133425   5.002   4.206   0.998
10842SOL    HW233426   5.053   4.052   1.011
10843SOL     OW33427   1.613   2.346   1.275
10843SOL    HW133428   1.675   2.281   1.231
10843SOL    HW233429   1.665   2.420   1.316
10844SOL     OW33430   0.933   5.396   5.343
10844SOL    HW133431   0.957   5.406   5.439
10844SOL    HW233432   1.004   5.437   5.286
10845SOL     OW33433   4.408   6.459   4.998
10845SOL    HW133434   4.365   6.374   4.966
10845SOL    HW233435   4.507   6.447   5.004
10846SOL     OW33436   5.476   0.384   0.649
10846SOL    HW133437   5.534   0.458   0.681
10846SOL    HW233438   5.421   0.415   0.572
10847SOL     OW33439   1.907   1.894   0.269
10847SOL    HW133440   1.857   1.942   0.341
10847SOL    HW233441   1.871   1.801   0.260
10848SOL     OW33442   2.049   4.607   1.098
10848SOL    HW133443   2.133   4.612   1.152
10848SOL    HW233444   2.059   4.536   1.028
10849SOL     OW33445   2.294   6.067   4.019
10849SOL    HW133446   2.375   6.115   4.053
10849SOL    HW233447   2.212   6.106   4.061
10850SOL     OW33448   3.827   6.789   0.418
10850SOL    HW133449   3.925   6.793   0.403
10850SOL    HW233450   3.808   6.738   0.502
10851SOL     OW33451   2.504   4.953   1.897
10851SOL    HW133452   2.441   4.995   1.962
10851SOL    HW233453   2.564   4.890   1.945
10852SOL     OW33454   2.007   1.851   1.459
10852SOL    HW133455   1.927   1.834   1.401
10852SOL    HW233456   1.992   1.811   1.549
10853SOL     OW33457   2.517   2.052   6.589
10853SOL    HW133458   2.517   1.998   6.505
10853SOL    HW233459   2.508   2.149   6.567
10854SOL     OW33460   4.214   6.209   5.427
10854SOL    HW133461   4.272   6.153   5.368
10854SOL    HW233462   4.245   6.304   5.423
10855SOL     OW33463   2.914   0.916   0.582
10855SOL    HW133464   2.955   0.994   0.629
10855SOL    HW233465   2.933   0.833   0.634
10856SOL     OW33466   6.829   0.964   6.966
10856SOL    HW133467   6.902   0.896   6.955
10856SOL    HW233468   6.772   0.964   6.884
10857SOL     OW33469   6.124   1.540   2.614
10857SOL    HW133470   6.195   1.534   2.543
10857SOL    HW233471   6.080   1.630   2.610
10858SOL     OW33472   2.369   5.836   1.429
10858SOL    HW133473   2.405   5.902   1.364
10858SOL    HW233474   2.275   5.814   1.406
10859SOL     OW33475   1.011   5.891   3.822
10859SOL    HW133476   0.960   5.976   3.817
10859SOL    HW233477   1.064   5.878   3.738
10860SOL     OW33478   0.156   2.601   2.660
10860SOL    HW133479   0.198   2.635   2.744
10860SOL    HW233480   0.182   2.506   2.646
10861SOL     OW33481   3.821   2.971   4.426
10861SOL    HW133482   3.826   2.880   4.469
10861SOL    HW233483   3.810   2.960   4.328
10862SOL     OW33484   1.632   0.101   4.866
10862SOL    HW133485   1.636   0.005   4.840
10862SOL    HW233486   1.601   0.156   4.788
10863SOL     OW33487   3.080   5.598   4.888
10863SOL    HW133488   3.008   5.536   4.918
10863SOL    HW233489   3.045   5.658   4.816
10864SOL     OW33490   3.459   6.449   2.799
10864SOL    HW133491   3.519   6.380   2.760
10864SOL    HW233492   3.459   6.442   2.899
10865SOL     OW33493   6.614   2.033   6.145
10865SOL    HW133494   6.711   2.053   6.125
10865SOL    HW233495   6.601   1.935   6.154
10866SOL     OW33496   5.495   4.629   0.418
10866SOL    HW133497   5.442   4.707   0.451
10866SOL    HW233498   5.432   4.559   0.384
10867SOL     OW33499   3.228   3.210   0.545
10867SOL    HW133500   3.297   3.148   0.580
10867SOL    HW233501   3.272   3.286   0.496
10868SOL     OW33502   3.098   1.645   3.050
10868SOL    HW133503   3.136   1.626   3.140
10868SOL    HW233504   3.053   1.734   3.051
10869NA      NA33505   6.120   2.026   5.572
10870NA      NA33506   4.368   4.580   5.275
10871NA      NA33507   2.210   3.749   1.618
10872NA      NA33508   4.870   3.831   5.113
10873NA      NA33509   4.185   2.337   5.243
10874NA      NA33510   3.766   4.633   1.636
10875NA      NA33511   6.501   5.704   5.713
10876NA      NA33512   3.914   3.635   5.082
10877NA      NA33513   4.742   6.596   6.840
10878NA      NA33514   3.519   6.961   5.511
10879NA      NA33515   6.479   4.790   2.148
10880NA      NA33516   2.226   0.589   3.102
10881NA      NA33517   3.176   4.824   1.112
10882NA      NA33518   3.518   3.594   2.654
   7.01977   7.01977   7.01977
